Membrane in water
40155
    1TCq1    O1    1   4.440   1.056  11.380 -0.6153  0.0229  0.4815
    1TCq1    C1    2   4.390   1.182  11.368 -1.0773  0.5830  0.0654
    1TCq1    O2    3   4.430   1.273  11.297  0.1674 -0.1772 -0.7010
    1TCq1    C2    4   4.293   1.201  11.476  0.0041 -0.2968 -0.4482
    1TCq1    C3    5   4.304   1.311  11.557 -0.4711 -0.1449 -0.8238
    1TCq1    C4    6   4.227   1.324  11.663 -0.1714 -0.1528 -0.2814
    1TCq1    C5    7   4.137   1.233  11.692  0.3816 -0.6272 -0.2082
    1TCq1    C6    8   4.119   1.123  11.608 -0.2028  0.8233 -0.0525
    1TCq1    C7    9   4.199   1.104  11.504  0.2237  0.3690  0.1366
    1TCq1    C8   10   4.022   1.017  11.653  0.5201  0.6841 -0.3814
    1TCq1    O4   11   3.936   1.052  11.733 -0.5571 -0.2460 -0.0224
    1TCq1    C9   12   4.230   1.441  11.745  0.3531 -0.1652  0.6661
    1TCq1    O5   13   4.301   1.544  11.723 -0.0458 -0.6056 -0.0729
    1TCq1    O6   14   4.128   1.458  11.823  0.2115 -0.2664 -0.4800
    1TCq1    H1   15   4.407   1.006  11.457 -0.6040 -1.1555 -0.2797
    1TCq1    H2   16   4.378   1.389  11.547 -0.4841  0.0215  0.4818
    1TCq1    H3   17   4.075   1.254  11.778  1.6738 -1.8089  1.0323
    1TCq1    H4   18   4.200   1.021  11.434 -0.8127 -0.4704  1.1180
    2MPD2     C   19   3.793   0.545  11.642  0.7461 -0.8069  0.9532
    2MPD2    C1   20   3.792   0.649  11.732 -0.3743 -0.3642 -0.6941
    2MPD2    C2   21   3.861   0.768  11.709  0.0691 -0.4225  0.5458
    2MPD2    C3   22   3.944   0.782  11.602 -0.5225 -0.4248  0.4401
    2MPD2    C4   23   3.954   0.679  11.508 -0.0413 -0.1094 -0.0346
    2MPD2    C5   24   3.871   0.563  11.524 -0.0545  0.9706 -0.6816
    2MPD2     H   25   3.842   0.846  11.781  0.7319  0.3755 -0.1523
    2MPD2    H1   26   4.007   0.681  11.413  0.3172 -2.7851  0.1116
    2MPD2    H2   27   3.729   0.457  11.640  2.4610 -2.0764  1.9559
    2MPD2    H3   28   3.860   0.489  11.446 -1.0011  1.2508 -0.8108
    2MPD2     N   29   4.020   0.899  11.577  0.4183 -0.1432  0.0150
    2MPD2    H5   30   4.084   0.887  11.499  0.4549  2.4666 -0.3233
    2MPD2    N1   31   3.731   0.640  11.862  0.4725  0.2413 -0.6107
    2MPD2    H7   32   3.742   0.726  11.914  1.9754 -0.8142  0.8104
    3TCq1    O1   33   3.464   2.148  10.314  0.3974 -0.0938  0.4058
    3TCq1    C1   34   3.358   2.138  10.398 -0.4348 -0.2223 -0.0494
    3TCq1    O2   35   3.353   2.054  10.487 -0.2975 -0.1605 -0.2115
    3TCq1    C2   36   3.290   2.268  10.394  0.1174 -0.6557 -0.1112
    3TCq1    C3   37   3.303   2.349  10.290  0.1336 -0.0630  0.1200
    3TCq1    C4   38   3.268   2.481  10.296 -0.1887  0.4352  0.0781
    3TCq1    C5   39   3.230   2.532  10.420 -0.3253 -0.2915  0.2304
    3TCq1    C6   40   3.235   2.449  10.530 -0.2198  0.4440 -0.0498
    3TCq1    C7   41   3.260   2.314  10.522 -0.7320  0.5037 -0.0740
    3TCq1    C8   42   3.161   2.490  10.650 -0.0679  0.5280 -0.4726
    3TCq1    O4   43   3.176   2.415  10.746 -0.0579 -0.6131  0.1097
    3TCq1    C9   44   3.265   2.571  10.181  0.2938 -0.0567  0.8049
    3TCq1    O5   45   3.191   2.673  10.195 -0.4847  1.0446 -1.2126
    3TCq1    O6   46   3.312   2.525  10.077 -0.1444 -0.7379  0.2152
    3TCq1    H1   47   3.451   2.230  10.261 -0.3151 -1.6223 -1.7740
    3TCq1    H2   48   3.296   2.307  10.190  3.3562 -0.6200  0.1267
    3TCq1    H3   49   3.199   2.635  10.425  0.0306 -0.1027 -1.4671
    3TCq1    H4   50   3.257   2.250  10.609 -2.7671 -1.3470 -1.5064
    4MPD2     C   51   2.776   2.698  10.925 -0.4270 -0.7263 -0.4708
    4MPD2    C1   52   2.759   2.735  10.794  0.1973  0.2042 -0.5774
    4MPD2    C2   53   2.848   2.692  10.698 -0.3176 -0.0648  0.5560
    4MPD2    C3   54   2.955   2.607  10.726 -0.0732  0.4383 -0.0380
    4MPD2    C4   55   2.979   2.584  10.857  0.0968 -0.0041  0.0126
    4MPD2    C5   56   2.886   2.626  10.954 -0.2972 -0.6172  0.1793
    4MPD2     H   57   2.843   2.716  10.592 -0.0055 -0.1521  0.5237
    4MPD2    H1   58   3.065   2.526  10.891 -3.9816 -3.5286  4.4212
    4MPD2    H2   59   2.711   2.744  10.998 -2.6020 -1.2764 -2.0609
    4MPD2    H3   60   2.905   2.608  11.060  0.0103 -2.9043 -0.2686
    4MPD2     N   61   3.051   2.568  10.626 -0.6470  0.3453 -0.1135
    4MPD2    H5   62   3.037   2.601  10.531  1.7005 -0.1844 -0.6265
    4MPD2    N1   63   2.640   2.811  10.753 -0.1691 -0.7524  0.3075
    4MPD2    H7   64   2.646   2.848  10.659  2.2383 -1.9477 -0.0121
    5TCq1    O1   65   2.802   3.628  10.161  0.3269  0.3979  0.2384
    5TCq1    C1   66   2.681   3.571  10.193  0.6002 -0.5725  0.0393
    5TCq1    O2   67   2.599   3.641  10.255  0.0238 -0.0415 -0.4216
    5TCq1    C2   68   2.733   3.455  10.252  0.4380  0.1107 -0.4574
    5TCq1    C3   69   2.668   3.349  10.212  0.1045  0.0023 -0.4021
    5TCq1    C4   70   2.714   3.220  10.245 -0.9139 -0.4081  0.2575
    5TCq1    C5   71   2.830   3.211  10.315  0.0861  0.4342  0.7638
    5TCq1    C6   72   2.902   3.326  10.352 -0.2640  0.4046  0.4640
    5TCq1    C7   73   2.857   3.452  10.319 -0.6199  0.0708 -0.0572
    5TCq1    C8   74   3.040   3.304  10.383 -0.3286  0.4029 -0.0270
    5TCq1    O4   75   3.079   3.188  10.385  0.6272  0.5715  0.0136
    5TCq1    C9   76   2.647   3.108  10.196  0.7102 -0.2348  0.6481
    5TCq1    O5   77   2.535   3.131  10.143  0.2509 -0.4151  0.5998
    5TCq1    O6   78   2.692   2.997  10.224 -0.3883  0.6408 -0.2159
    5TCq1    H1   79   2.853   3.555  10.118  2.8504  1.8569  0.7319
    5TCq1    H2   80   2.586   3.364  10.143  0.3620  0.1579 -0.6732
    5TCq1    H3   81   2.859   3.116  10.357  0.9209 -0.0365 -0.8824
    5TCq1    H4   82   2.894   3.545  10.361 -1.2949  1.3853 -2.3822
    6MPD2     C   83   3.319   3.550  10.353 -0.6558  0.3632  0.2154
    6MPD2    C1   84   3.256   3.437  10.391  0.0098  0.0698 -0.5389
    6MPD2    C2   85   3.327   3.321  10.429 -0.5886 -0.7512  0.2471
    6MPD2    C3   86   3.467   3.322  10.440 -0.5705 -0.4277  0.0315
    6MPD2    C4   87   3.530   3.440  10.407  0.3927 -0.1420  0.0889
    6MPD2    C5   88   3.455   3.553  10.371 -0.1222 -0.5072 -0.3835
    6MPD2     H   89   3.272   3.239  10.474  0.2431 -1.1549  0.5262
    6MPD2    H1   90   3.637   3.453  10.415  0.5032 -0.5775 -0.6380
    6MPD2    H2   91   3.255   3.627  10.312 -0.5362  2.1568  3.4255
    6MPD2    H3   92   3.511   3.645  10.355  0.4657 -1.2416 -2.5095
    6MPD2     N   93   3.536   3.212  10.503 -0.4588 -0.8805  0.4621
    6MPD2    H5   94   3.481   3.134  10.537 -1.4218 -1.2133 -1.8756
    6MPD2    N1   95   3.114   3.422  10.383  0.3475  0.2155 -0.2699
    6MPD2    H7   96   3.049   3.499  10.374  1.0732  0.8831  0.2323
    7TCq1    O1   97   0.783   3.739  13.433 -0.5776  0.1727 -0.1037
    7TCq1    C1   98   0.730   3.744  13.310 -0.4831 -0.0301 -0.0853
    7TCq1    O2   99   0.722   3.850  13.247  0.0848 -0.1247 -0.3635
    7TCq1    C2  100   0.694   3.611  13.264 -0.3447 -0.4469 -0.0323
    7TCq1    C3  101   0.594   3.601  13.168 -0.1675 -0.6141 -0.7000
    7TCq1    C4  102   0.536   3.475  13.137 -0.6099  0.1880 -0.8516
    7TCq1    C5  103   0.576   3.364  13.207  0.2002  0.2293  0.2936
    7TCq1    C6  104   0.682   3.379  13.295 -0.3058 -0.1077  0.4849
    7TCq1    C7  105   0.742   3.497  13.331 -0.9389  0.3994  0.5626
    7TCq1    C8  106   0.752   3.254  13.308 -0.6316  0.0440 -0.0497
    7TCq1    O4  107   0.689   3.149  13.289  0.7278 -0.1236 -0.7639
    7TCq1    C9  108   0.449   3.461  13.024 -0.1738 -0.8027  0.1609
    7TCq1    O5  109   0.421   3.351  12.979 -0.1473  0.2556  0.1024
    7TCq1    O6  110   0.415   3.571  12.971 -0.2848  0.2943 -0.1698
    7TCq1    H1  111   0.772   3.651  13.475 -0.4033  0.4166  0.4461
    7TCq1    H2  112   0.560   3.692  13.121  0.5297 -1.2693 -2.4716
    7TCq1    H3  113   0.531   3.269  13.182 -1.1165  0.8716  0.2518
    7TCq1    H4  114   0.833   3.503  13.389  0.0216 -0.2965 -0.8475
    8MPD2     C  115   1.121   2.987  13.533 -0.0857  0.5617 -0.0523
    8MPD2    C1  116   1.011   2.945  13.469  0.1591 -0.5331  0.4402
    8MPD2    C2  117   0.939   3.028  13.385  0.3922 -0.5058 -0.5376
    8MPD2    C3  118   0.968   3.164  13.384 -1.2172  0.2130  0.4771
    8MPD2    C4  119   1.087   3.199  13.441  0.3238  0.3188  0.1452
    8MPD2    C5  120   1.150   3.117  13.529  0.1123 -0.0940 -0.4102
    8MPD2     H  121   0.850   2.994  13.333  1.2177 -0.1776 -2.1307
    8MPD2    H1  122   1.107   3.306  13.444  0.4358  0.3068 -0.2400
    8MPD2    H2  123   1.172   2.917  13.598 -0.3072  0.6119  0.1745
    8MPD2    H3  124   1.237   3.153  13.584  1.8390 -1.3402 -2.3442
    8MPD2     N  125   0.889   3.265  13.334 -0.2396 -0.3890  0.2136
    8MPD2    H5  126   0.934   3.356  13.333  1.2186 -1.0896  1.4802
    8MPD2    N1  127   0.984   2.808  13.480 -0.3795  0.1614 -0.7608
    8MPD2    H7  128   1.056   2.755  13.528 -1.6921 -1.9616 -1.1432
    9TCq1    O1  129   4.048   1.587  10.889  0.3993  0.2892  0.1807
    9TCq1    C1  130   3.972   1.481  10.873  0.1917  0.0552 -0.2031
    9TCq1    O2  131   4.005   1.386  10.802  0.3123  0.2785 -0.2110
    9TCq1    C2  132   3.836   1.500  10.920  0.5158 -0.6705  0.7900
    9TCq1    C3  133   3.747   1.403  10.880 -0.2547  0.0049 -0.9033
    9TCq1    C4  134   3.616   1.441  10.881 -0.7142  0.2485 -0.7479
    9TCq1    C5  135   3.571   1.567  10.913 -0.2691  0.0351 -0.3930
    9TCq1    C6  136   3.666   1.657  10.954 -0.6918  0.1850 -0.3233
    9TCq1    C7  137   3.796   1.627  10.961 -0.0538 -0.5193  0.4605
    9TCq1    C8  138   3.620   1.779  11.023  0.2987  0.0068  0.4910
    9TCq1    O4  139   3.694   1.876  11.018  0.3337 -0.0770  0.2609
    9TCq1    C9  140   3.513   1.344  10.838  0.3731 -0.0574 -0.8782
    9TCq1    O5  141   3.394   1.385  10.821 -0.4993 -0.3859 -0.3693
    9TCq1    O6  142   3.561   1.234  10.799  0.0701  0.1982  0.0875
    9TCq1    H1  143   4.041   1.644  10.968 -2.1713  0.7354 -0.3450
    9TCq1    H2  144   3.770   1.301  10.853 -0.8570 -1.6897  4.9261
    9TCq1    H3  145   3.465   1.590  10.901 -0.4421 -0.6096 -0.1299
    9TCq1    H4  146   3.865   1.703  10.997 -1.1739 -0.4100  2.4048
   10MPD2     C  147   3.495   1.977  11.197  0.1798  0.1676 -0.4295
   10MPD2    C1  148   3.459   1.846  11.189  0.5364 -0.3333 -0.7382
   10MPD2    C2  149   3.363   1.802  11.277 -0.1689 -0.8202  0.2116
   10MPD2    C3  150   3.320   1.879  11.377  0.2782 -0.3123 -0.3234
   10MPD2    C4  151   3.358   2.011  11.385 -0.4715 -0.6384  0.0519
   10MPD2    C5  152   3.447   2.061  11.296  0.7034 -0.1440  0.2212
   10MPD2     H  153   3.332   1.698  11.274  1.0157 -1.2332  2.0269
   10MPD2    H1  154   3.326   2.081  11.462  0.6011  0.2183 -0.2804
   10MPD2    H2  155   3.560   2.028  11.126 -0.4790 -0.2642 -1.3311
   10MPD2    H3  156   3.483   2.161  11.313  2.6856 -0.4284 -2.3390
   10MPD2     N  157   3.263   1.826  11.492  0.1463 -0.1711  0.4214
   10MPD2    H5  158   3.256   1.891  11.570  0.1247  0.0705  0.2180
   10MPD2    N1  159   3.510   1.756  11.095 -0.8406 -0.6005  0.0263
   10MPD2    H7  160   3.469   1.664  11.088 -1.1122 -0.6421  2.2008
   11TCq1    O1  161   4.019   2.058  13.982  0.4183 -0.0310  0.6450
   11TCq1    C1  162   3.964   1.957  14.053  0.5018 -0.3757 -0.2483
   11TCq1    O2  163   3.844   1.950  14.073  0.0950  0.0937  0.1660
   11TCq1    C2  164   4.056   1.840  14.021 -0.0275  0.3740  0.2836
   11TCq1    C3  165   4.194   1.858  14.034 -0.3085  0.4068  0.0800
   11TCq1    C4  166   4.280   1.745  14.017  0.1443  0.1248 -0.6323
   11TCq1    C5  167   4.225   1.625  13.980 -0.0773  0.1467 -0.1238
   11TCq1    C6  168   4.092   1.610  13.976  0.4124  0.0408  0.0942
   11TCq1    C7  169   4.007   1.718  13.991  0.2777 -0.5261 -0.9459
   11TCq1    C8  170   4.040   1.474  13.946  0.1792  0.4354  0.5002
   11TCq1    O4  171   4.113   1.409  13.874  0.2917  0.0112 -0.0092
   11TCq1    C9  172   4.413   1.759  14.057 -0.3416  0.0374 -0.1502
   11TCq1    O5  173   4.443   1.863  14.120  0.0224  0.4058  0.6833
   11TCq1    O6  174   4.474   1.649  14.054 -0.1063  0.7241  0.4854
   11TCq1    H1  175   4.110   2.054  13.943  0.9376 -3.5962  2.1952
   11TCq1    H2  176   4.242   1.951  14.063 -2.0137  1.3139 -0.0228
   11TCq1    H3  177   4.292   1.539  13.985  1.1974  1.0200 -2.0536
   11TCq1    H4  178   3.899   1.704  13.990 -0.1482  2.9761 -1.1070
   12MPD2     C  179   3.793   1.290  14.157  0.1139 -0.3181 -0.0008
   12MPD2    C1  180   3.891   1.302  14.058  0.3051  0.1365 -0.1579
   12MPD2    C2  181   3.934   1.198  13.982 -0.8070  0.1923 -0.2570
   12MPD2    C3  182   3.880   1.073  14.003  0.5057  0.9091 -0.5162
   12MPD2    C4  183   3.780   1.055  14.100  0.6193  0.0479  0.9228
   12MPD2    C5  184   3.738   1.166  14.166  0.7090  0.1925 -0.0090
   12MPD2     H  185   4.011   1.216  13.908  0.0543 -2.0676  0.0643
   12MPD2    H1  186   3.738   0.958  14.128 -0.4420  0.6582  1.4460
   12MPD2    H2  187   3.756   1.372  14.217  0.4752 -0.3901  0.3181
   12MPD2    H3  188   3.667   1.157  14.247 -0.2777  0.4401 -0.8385
   12MPD2     N  189   3.925   0.961  13.934 -0.0034 -0.0742  0.0448
   12MPD2    H5  190   3.886   0.869  13.952 -1.2959  0.5849  0.6774
   12MPD2    N1  191   3.946   1.433  14.045  0.2157 -0.0061 -0.0568
   12MPD2    H7  192   3.908   1.509  14.101 -0.1816 -0.4653  0.3035
   13TCq1    O1  193   3.798   2.026  11.641 -0.2054 -0.4177  0.0455
   13TCq1    C1  194   3.816   2.064  11.508 -0.6571 -0.2917 -0.7946
   13TCq1    O2  195   3.864   2.174  11.488  0.1428 -0.5185  0.1771
   13TCq1    C2  196   3.845   1.947  11.435  0.6020 -0.7188 -0.1716
   13TCq1    C3  197   3.956   1.941  11.357 -0.1892  0.1215 -0.7129
   13TCq1    C4  198   3.968   1.828  11.284  0.1072  0.2836 -0.4472
   13TCq1    C5  199   3.893   1.715  11.300 -0.0326  0.2163 -0.5112
   13TCq1    C6  200   3.773   1.740  11.372 -0.0614 -0.6907 -0.1795
   13TCq1    C7  201   3.752   1.850  11.443  0.1317 -0.3019 -0.2867
   13TCq1    C8  202   3.673   1.641  11.392  0.3807  0.6978  0.2609
   13TCq1    O4  203   3.595   1.645  11.482  0.2385  0.1074  0.1855
   13TCq1    C9  204   4.085   1.816  11.197 -0.4088  0.2785 -0.2856
   13TCq1    O5  205   4.075   1.744  11.095 -0.6891 -0.0948 -0.3037
   13TCq1    O6  206   4.187   1.880  11.237 -0.5824  0.5404  0.0283
   13TCq1    H1  207   3.788   1.931  11.662 -0.7917 -0.4665 -0.4364
   13TCq1    H2  208   4.029   2.021  11.372  2.0495 -1.7086 -1.8110
   13TCq1    H3  209   3.922   1.631  11.238  1.8875  0.1364  0.5080
   13TCq1    H4  210   3.655   1.873  11.487  0.2638 -0.4507  0.0757
   14MPD2     C  211   3.616   1.323  11.231  0.1524  0.1418 -0.9221
   14MPD2    C1  212   3.585   1.428  11.317  0.5035  0.0264 -0.4323
   14MPD2    C2  213   3.460   1.427  11.376  0.6192  0.1949 -0.6617
   14MPD2    C3  214   3.376   1.317  11.356  0.0214 -0.4406  0.7269
   14MPD2    C4  215   3.415   1.209  11.283 -0.5123 -0.1784 -0.5049
   14MPD2    C5  216   3.531   1.218  11.213 -0.8203 -0.2073  0.5805
   14MPD2     H  217   3.423   1.504  11.442  0.6609 -0.4528  0.1185
   14MPD2    H1  218   3.343   1.140  11.240 -1.6617 -0.5827  2.0693
   14MPD2    H2  219   3.710   1.315  11.177 -0.2848 -3.7950 -1.0813
   14MPD2    H3  220   3.557   1.139  11.143 -2.1525 -0.9260  0.8968
   14MPD2     N  221   3.245   1.323  11.394  0.5852 -0.1905 -0.5803
   14MPD2    H5  222   3.216   1.413  11.430 -0.4935 -0.9495  0.4484
   14MPD2    N1  223   3.684   1.534  11.309  0.9196 -0.2763  0.0848
   14MPD2    H7  224   3.767   1.514  11.253  0.2106 -1.9249 -0.3766
   15TCq1    O1  225   0.263   1.378   2.108  0.3912 -0.3472 -0.5903
   15TCq1    C1  226   0.177   1.328   2.023 -0.1907 -0.3935 -0.2528
   15TCq1    O2  227   0.089   1.392   1.966  0.2661 -0.3424  0.0193
   15TCq1    C2  228   0.210   1.195   1.992  0.2450  0.4691  0.3840
   15TCq1    C3  229   0.231   1.099   2.085 -0.8000  0.1045  0.1079
   15TCq1    C4  230   0.275   0.974   2.054  0.3138 -0.3161 -0.4309
   15TCq1    C5  231   0.338   0.954   1.934  0.5888  0.0923  0.9447
   15TCq1    C6  232   0.332   1.057   1.851  0.2541 -0.3205  0.5405
   15TCq1    C7  233   0.270   1.174   1.873 -0.2175  0.3741  0.0626
   15TCq1    C8  234   0.357   1.031   1.710  0.3045 -0.7888  0.2369
   15TCq1    O4  235   0.294   1.092   1.627  0.1085  0.4390  0.5976
   15TCq1    C9  236   0.253   0.864   2.142 -0.0319 -0.7059 -0.4667
   15TCq1    O5  237   0.235   0.897   2.262 -0.0473 -0.6981 -0.6947
   15TCq1    O6  238   0.284   0.750   2.098  0.0763  0.5540  0.0342
   15TCq1    H1  239   0.336   1.314   2.121  1.4520  0.7762 -1.0384
   15TCq1    H2  240   0.181   1.109   2.181 -1.3600  0.7182 -0.2474
   15TCq1    H3  241   0.383   0.859   1.907 -1.0380  0.1131 -1.7868
   15TCq1    H4  242   0.261   1.243   1.790 -0.8897  0.8039  0.4925
   16MPD2     C  243   0.420   0.881   1.466 -0.5417 -0.3581 -0.8105
   16MPD2    C1  244   0.513   0.890   1.565  0.7826  0.4637  0.7633
   16MPD2    C2  245   0.643   0.843   1.550 -0.1208 -0.3424 -0.6347
   16MPD2    C3  246   0.678   0.768   1.439 -0.0943 -0.1557  0.2342
   16MPD2    C4  247   0.580   0.752   1.346  0.1917 -0.0828  0.8705
   16MPD2    C5  248   0.461   0.818   1.353  0.4974 -0.0157 -0.0645
   16MPD2     H  249   0.716   0.844   1.630 -1.8224  0.7989  0.9103
   16MPD2    H1  250   0.594   0.692   1.257  5.2665  1.3436  0.6675
   16MPD2    H2  251   0.319   0.919   1.465 -0.2071  0.5345 -0.0858
   16MPD2    H3  252   0.385   0.803   1.277  0.1112 -1.5330  0.6152
   16MPD2     N  253   0.806   0.717   1.424  0.4593  0.4278  0.3591
   16MPD2    H5  254   0.865   0.757   1.497  3.5083 -0.5548 -1.5971
   16MPD2    N1  255   0.471   0.950   1.689 -0.4267  0.3030  0.4855
   16MPD2    H7  256   0.541   0.947   1.763 -0.0604 -0.2380  0.1233
   17TCq1    O1  257   3.352   1.187  11.783  0.2989  0.3106 -0.1246
   17TCq1    C1  258   3.476   1.176  11.834 -0.2759 -0.0894 -0.2771
   17TCq1    O2  259   3.534   1.261  11.899  0.6476 -0.2994  0.6296
   17TCq1    C2  260   3.550   1.107  11.731 -0.5852 -0.3602 -0.1383
   17TCq1    C3  261   3.488   1.001  11.664  0.3957 -0.5453  0.2738
   17TCq1    C4  262   3.540   0.970  11.541 -0.1590  0.2339  0.0649
   17TCq1    C5  263   3.645   1.036  11.482  0.0835  0.1311 -0.3162
   17TCq1    C6  264   3.703   1.141  11.555  0.4615  0.1894  1.0013
   17TCq1    C7  265   3.660   1.177  11.681 -0.6963  0.4514 -0.0256
   17TCq1    C8  266   3.799   1.230  11.490 -0.5161  0.1663 -0.1246
   17TCq1    O4  267   3.810   1.337  11.549  0.0066 -0.0273 -0.3279
   17TCq1    C9  268   3.490   0.854  11.475 -0.9337 -0.2200  0.3722
   17TCq1    O5  269   3.559   0.823  11.377 -0.3888 -0.0849  0.0898
   17TCq1    O6  270   3.389   0.795  11.518  0.0748 -0.9485 -0.2724
   17TCq1    H1  271   3.348   1.123  11.709 -1.9262 -0.5018  0.6898
   17TCq1    H2  272   3.429   0.932  11.723  1.7052 -1.4697  0.4775
   17TCq1    H3  273   3.670   1.026  11.377 -0.0782  2.0579 -0.5543
   17TCq1    H4  274   3.710   1.252  11.740 -0.2090  0.7995 -0.8818
   18MPD2     C  275   3.999   1.362  11.326 -0.3728  0.2414 -0.4142
   18MPD2    C1  276   3.957   1.237  11.299 -0.3579  0.3946  0.3971
   18MPD2    C2  277   3.994   1.166  11.189 -1.2617 -0.0725  0.4490
   18MPD2    C3  278   4.100   1.212  11.113  0.0563 -0.8484 -0.6609
   18MPD2    C4  279   4.149   1.330  11.139 -0.0700  0.4040 -0.0163
   18MPD2    C5  280   4.093   1.406  11.240 -0.2543 -0.2138  0.7362
   18MPD2     H  281   3.948   1.069  11.175  0.1986 -0.7205  0.1101
   18MPD2    H1  282   4.231   1.376  11.084  0.4744 -0.6359 -0.0751
   18MPD2    H2  283   3.989   1.418  11.418 -1.1493 -1.0371  0.2853
   18MPD2    H3  284   4.145   1.498  11.262  0.1206 -0.4282  0.7601
   18MPD2     N  285   4.138   1.142  10.995 -0.2331 -0.0005  0.3335
   18MPD2    H5  286   4.213   1.185  10.941 -0.7394 -0.9534 -1.1256
   18MPD2    N1  287   3.864   1.172  11.384 -0.5451 -0.0618 -0.2949
   18MPD2    H7  288   3.834   1.077  11.364 -0.6336 -0.5068  1.8945
   19TMC2    C1  289   0.113   1.422  13.975 -0.0915 -0.5329  0.5442
   19TMC2    C2  290   0.009   1.487  13.912  0.1793 -0.2960 -0.4323
   19TMC2    C3  291   4.616   1.419  13.878  0.3517 -0.4183  0.4054
   19TMC2    C4  292   0.099   1.293  14.004 -0.3611 -0.0105  0.2635
   19TMC2    C5  293   4.712   1.227  13.962  0.3703  0.6377  0.0738
   19TMC2    C6  294   4.605   1.285  13.896  0.4337  0.0575 -0.1674
   19TMC2     C  295   0.244   1.486  13.956 -0.2362 -0.3549 -0.1599
   19TMC2     O  296   0.256   1.591  13.893  0.3584  0.7772 -0.0869
   19TMC2     H  297   0.019   1.595  13.905 -2.2811  0.0252  1.1402
   19TMC2    H1  298   0.178   1.230  14.043 -0.2495 -0.2152 -0.3010
   19TMC2    H2  299   4.530   1.225  13.847 -0.9462  0.3344  1.6006
   19TMC2    C7  300   4.687   1.095  14.004  0.6783  0.6181  0.2648
   19TMC2    C8  301   4.551   1.476  13.766 -0.2851  0.0100 -0.2075
   19TMC2    O1  302   0.062   1.029  14.035 -0.4833 -0.1562  0.2549
   19TMC2    O2  303   4.567   1.431  13.652 -0.2488 -0.3741  0.9454
   19TMC2    O5  304   4.501   1.594  13.803  0.2370 -0.1951  0.5690
   19TMC2    H5  305   4.499   1.600  13.901  0.1018  1.9180  0.4195
   20MPD2     C  306   0.532   1.567  13.979  0.1900  0.1066  0.1934
   20MPD2    C1  307   0.480   1.461  14.040  0.8376 -0.5144 -0.3043
   20MPD2    C2  308   0.569   1.390  14.127  0.5805  0.5660 -0.1794
   20MPD2    C3  309   0.701   1.435  14.144  0.3883 -0.5747 -0.7225
   20MPD2    C4  310   0.752   1.538  14.074 -0.7731  0.2929 -0.6817
   20MPD2    C5  311   0.663   1.600  13.990 -0.0696 -0.0809 -0.7868
   20MPD2     H  312   0.530   1.307  14.185 -1.0461  0.9619 -0.7214
   20MPD2    H1  313   0.857   1.564  14.068 -1.1557  1.9440 -0.1473
   20MPD2    H2  314   0.478   1.619  13.900 -1.2875  0.0213  1.1366
   20MPD2    H3  315   0.708   1.674  13.925 -0.4816  1.8594  1.1107
   20MPD2     N  316   0.783   1.372  14.243  1.0268  0.7898 -0.3819
   20MPD2    H5  317   0.873   1.416  14.258  0.8029  1.2063 -0.2759
   20MPD2    N1  318   0.341   1.415  14.030  0.2398 -0.5345 -0.3558
   20MPD2    H7  319   0.310   1.328  14.073 -0.6340  0.2835  0.6621
   21MPD2     C  320   2.865   1.918  14.557  0.0855 -0.3819  0.0819
   21MPD2    C1  321   2.873   1.803  14.630 -0.8986 -0.0788  0.3162
   21MPD2    C2  322   2.764   1.778  14.708  0.2314  0.1560 -1.0487
   21MPD2    C3  323   2.652   1.858  14.713  0.1782  0.0715 -0.7243
   21MPD2    C4  324   2.646   1.970  14.633 -0.1442 -0.7742  0.6434
   21MPD2    C5  325   2.753   1.997  14.554  0.0492 -0.4204  0.9234
   21MPD2     H  326   2.762   1.690  14.772  1.8090  1.9081  1.4002
   21MPD2    H1  327   2.565   2.043  14.631  1.3418  0.9126  1.4519
   21MPD2    H2  328   2.949   1.952  14.497 -0.4488  0.5308 -0.1504
   21MPD2    H3  329   2.749   2.085  14.490 -2.1339 -0.4995  0.9499
   21MPD2     N  330   2.540   1.826  14.785  0.4713  0.1487  0.1139
   21MPD2    H5  331   2.456   1.883  14.777  0.4164  0.0815  0.2061
   21MPD2    N1  332   2.974   1.713  14.624  0.6589 -0.1795 -0.1235
   21MPD2    H7  333   2.955   1.619  14.659  0.4219 -0.5560 -1.2452
   22TCq2    C1  334   2.536   1.729  14.891  0.0276 -0.8215 -0.3267
   22TCq2    O2  335   2.623   1.658  14.931 -0.8093 -0.1714  0.0668
   22TCq2    C2  336   2.419   1.734  14.973 -0.3676  0.3184 -0.8852
   22TCq2    C3  337   2.435   1.699  15.111  0.1173  0.1607  1.2467
   22TCq2    C4  338   2.326   1.694  15.189 -0.1350  0.0755 -0.2166
   22TCq2    C5  339   2.201   1.730  15.137 -0.1970  0.3290  0.4639
   22TCq2    C6  340   2.189   1.760  15.005  0.4742 -0.5863  0.0836
   22TCq2    C7  341   2.297   1.766  14.928 -0.1999  0.4016  0.3274
   22TCq2    C8  342   2.066   1.715  14.947  0.2995 -0.7939 -0.5049
   22TCq2    O4  343   2.015   1.614  14.996 -0.0261  0.3651  0.0606
   22TCq2    C9  344   2.328   1.650  15.328  0.2666  0.3140 -0.6071
   22TCq2    O5  345   2.223   1.652  15.390 -0.2638  0.4945 -0.3396
   22TCq2    O6  346   2.434   1.582  15.357  0.6637 -0.2142 -0.2804
   22TCq2    H2  347   2.530   1.657  15.144  0.7628  0.0727 -0.7066
   22TCq2    H3  348   2.114   1.725  15.202 -1.4913  0.7688 -1.2341
   22TCq2    H4  349   2.282   1.769  14.821 -4.4011  0.5220  0.8984
   23MPD2     C  350   3.996   2.949  15.034 -0.1598  0.1517 -0.0826
   23MPD2    C1  351   3.905   2.847  15.044 -0.9530  0.0053 -0.1844
   23MPD2    C2  352   3.822   2.827  14.933 -0.5469  0.4539  0.2707
   23MPD2    C3  353   3.827   2.917  14.827 -0.9395  0.1847  0.8489
   23MPD2    C4  354   3.910   3.030  14.830  0.4493 -0.2008 -0.3050
   23MPD2    C5  355   4.001   3.038  14.930  0.2086 -0.3563  0.7410
   23MPD2     H  356   3.759   2.739  14.931  1.3752 -0.9120  0.5820
   23MPD2    H1  357   3.904   3.113  14.761 -2.1620 -1.1691 -1.2399
   23MPD2    H2  358   4.065   2.967  15.115  0.7480 -0.2241 -0.7591
   23MPD2    H3  359   4.077   3.115  14.928  0.1666 -0.3059  0.9731
   23MPD2     N  360   3.739   2.904  14.716  0.1143 -0.2702 -0.1497
   23MPD2    H5  361   3.742   2.980  14.649  0.5430 -1.5035 -1.5519
   23MPD2    N1  362   3.876   2.772  15.159  0.1457 -0.5045  0.1087
   23MPD2    H7  363   3.797   2.708  15.158 -1.6817  1.7587  0.4415
   24TCq2    C1  364   3.642   2.810  14.697 -0.1845  0.0505  0.2856
   24TCq2    O2  365   3.631   2.707  14.757 -0.3724  0.0288  0.1339
   24TCq2    C2  366   3.564   2.836  14.579 -0.1829 -0.2919 -0.3424
   24TCq2    C3  367   3.580   2.958  14.514 -0.0101 -0.1620 -0.2882
   24TCq2    C4  368   3.534   2.963  14.384  0.3641 -0.2421 -0.7219
   24TCq2    C5  369   3.461   2.854  14.337  0.2432 -0.6020 -0.1606
   24TCq2    C6  370   3.441   2.737  14.406  0.1863 -1.0769 -0.0258
   24TCq2    C7  371   3.486   2.731  14.530 -0.5389 -0.2931 -0.6249
   24TCq2    C8  372   3.329   2.651  14.358 -0.0012  0.1563 -0.3956
   24TCq2    O4  373   3.277   2.686  14.251 -0.4321  0.2872  0.1865
   24TCq2    C9  374   3.554   3.085  14.309  0.0587 -0.1859 -1.0874
   24TCq2    O5  375   3.654   3.150  14.350 -0.0909  0.5096 -0.9994
   24TCq2    O6  376   3.497   3.098  14.193  0.4400 -0.2954  0.1610
   24TCq2    H2  377   3.620   3.045  14.565  0.2254 -1.4411  1.6984
   24TCq2    H3  378   3.423   2.872  14.237 -2.3460 -0.5195  0.8288
   24TCq2    H4  379   3.469   2.644  14.592 -0.6048 -0.0624 -0.3172
   25TMC2    C1  380   3.401   0.278  11.707 -0.3448 -0.7687  0.0417
   25TMC2    C2  381   3.504   0.208  11.759 -0.3333  0.1977 -0.1092
   25TMC2    C3  382   3.472   0.108  11.852  0.3645  0.7312  0.1896
   25TMC2    C4  383   3.271   0.260  11.751 -0.8071 -0.1746 -0.1663
   25TMC2    C5  384   3.253   0.159  11.839 -0.4798 -0.0134 -0.2411
   25TMC2    C6  385   3.347   0.078  11.896  0.4616  0.5470  0.3098
   25TMC2     C  386   3.409   0.288  11.565  0.4572 -0.3424 -0.0278
   25TMC2     O  387   3.503   0.346  11.515 -0.2159 -0.2676 -0.1077
   25TMC2     H  388   3.601   0.198  11.712 -0.6005 -2.9579  0.0016
   25TMC2    H1  389   3.186   0.315  11.714  0.1632  1.6027  0.2385
   25TMC2    H2  390   3.320   0.017  11.982 -1.8091  0.6655 -0.3311
   25TMC2    C7  391   3.135   0.168  11.913 -0.0029 -0.4542 -0.3971
   25TMC2    C8  392   3.577   0.069  11.950  0.3303  0.0747  0.1628
   25TMC2    O1  393   3.084   0.279  11.904 -0.7650 -0.7315 -0.2757
   25TMC2    O2  394   3.564   4.698  12.030  0.2356 -0.8020  0.0126
   25TMC2    O5  395   3.657   0.176  11.972  0.3514  0.0539 -0.2012
   25TMC2    H5  396   3.634   0.252  11.915  3.3738  1.1845  0.0922
   26MPD2     C  397   3.274   0.158  11.098  0.1059  0.6641 -0.4627
   26MPD2    C1  398   3.189   0.088  11.180 -0.2415  0.1883  0.0805
   26MPD2    C2  399   3.210   0.103  11.318 -0.3960 -0.2426 -0.5244
   26MPD2    C3  400   3.298   0.197  11.365 -0.1611  0.3972  0.0600
   26MPD2    C4  401   3.354   0.288  11.278  0.4950 -0.4122 -0.2863
   26MPD2    C5  402   3.342   0.259  11.145 -0.1013 -0.6774 -0.2514
   26MPD2     H  403   3.155   0.038  11.386 -0.4290  0.8153  0.4706
   26MPD2    H1  404   3.421   0.366  11.312 -1.6392  1.0277  0.5626
   26MPD2    H2  405   3.261   0.157  10.990 -0.8965  0.9944 -0.3431
   26MPD2    H3  406   3.385   0.331  11.077 -0.2391  1.0253  1.4782
   26MPD2     N  407   3.318   0.201  11.501  0.5509  0.4834  0.1232
   26MPD2    H5  408   3.257   0.143  11.558  0.3669  0.2396 -0.3320
   26MPD2    N1  409   3.085   0.008  11.120 -0.0287  0.3554 -0.7279
   26MPD2    H7  410   3.120   4.711  11.026  1.5091 -1.0975  0.1356
   27TMC2    C1  411   1.742   2.103  11.970  0.0317 -0.3975 -0.2855
   27TMC2    C2  412   1.878   2.115  11.980  0.8251  0.6814 -0.1762
   27TMC2    C3  413   1.916   2.242  12.016 -0.9215  0.2037 -0.0722
   27TMC2    C4  414   1.656   2.207  11.946  0.3722 -0.3538  0.4663
   27TMC2    C5  415   1.704   2.330  11.984 -0.2469  0.2922 -0.9093
   27TMC2    C6  416   1.835   2.345  12.020  0.4702  0.3615  0.0395
   27TMC2     C  417   1.689   1.995  12.045 -0.8020 -0.7979 -0.4031
   27TMC2     O  418   1.755   1.892  12.067  0.4614 -0.3500 -0.1344
   27TMC2     H  419   1.945   2.035  12.012  0.5417  0.8509  0.8436
   27TMC2    H1  420   1.554   2.190  11.911  0.8234  0.0030 -1.0353
   27TMC2    H2  421   1.879   2.444  12.030  0.0099  0.3859  1.8165
   27TMC2    C7  422   1.617   2.385  12.086  0.6390 -0.4727  0.2195
   27TMC2    C8  423   2.057   2.282  12.022  0.0567  0.2225  0.5671
   27TMC2    O1  424   1.521   2.319  12.115  0.2403 -0.0572 -0.3774
   27TMC2    O2  425   2.100   2.374  12.088  0.2737  0.5553 -0.1456
   27TMC2    O5  426   2.107   2.253  11.901 -0.3555  0.5813 -0.1882
   27TMC2    H5  427   2.063   2.173  11.864  1.0337 -0.7366  1.0161
   28MPD2     C  428   1.345   1.830  12.390  0.5554  0.5777 -0.2185
   28MPD2    C1  429   1.318   1.970  12.370 -0.2204 -0.0803  0.9212
   28MPD2    C2  430   1.400   2.037  12.287 -0.1972 -0.4155  0.0019
   28MPD2    C3  431   1.507   1.971  12.217  0.3858  0.4603 -0.9320
   28MPD2    C4  432   1.538   1.843  12.258  0.5309 -0.4352  0.6633
   28MPD2    C5  433   1.456   1.775  12.337  0.1654 -0.3799 -0.3911
   28MPD2     H  434   1.380   2.137  12.250 -2.6702 -1.1685 -0.7087
   28MPD2    H1  435   1.623   1.789  12.217  0.7642 -0.2001  0.8385
   28MPD2    H2  436   1.290   1.761  12.453 -0.6001  0.7869 -0.9963
   28MPD2    H3  437   1.476   1.673  12.368  1.9407 -0.2420 -1.0858
   28MPD2     N  438   1.580   2.045  12.116  0.1282 -0.1739 -0.3947
   28MPD2    H5  439   1.554   2.143  12.106 -0.0887 -0.1028  0.8620
   28MPD2    N1  440   1.207   2.028  12.431 -0.2118 -0.3925 -0.5296
   28MPD2    H7  441   1.157   1.969  12.496 -0.3755 -1.8592 -1.9746
   29MPD2     C  442   1.958   4.505  14.348  0.5906 -0.0487  0.4618
   29MPD2    C1  443   1.971   4.468  14.476  0.1079 -0.0054  0.9727
   29MPD2    C2  444   1.902   4.532  14.573  0.6270  0.1226 -0.3550
   29MPD2    C3  445   1.838   4.651  14.549 -0.2793 -0.5132 -0.1228
   29MPD2    C4  446   1.808   4.678  14.421 -0.0596  0.1553 -0.4405
   29MPD2    C5  447   1.867   4.606  14.324  0.1739  0.0052 -0.2137
   29MPD2     H  448   1.921   4.499  14.675  3.7736 -0.5776 -1.1737
   29MPD2    H1  449   1.737   0.027  14.382 -1.8569 -2.0977 -1.3372
   29MPD2    H2  450   1.995   4.452  14.261 -0.6260  1.3078 -0.8840
   29MPD2    H3  451   1.855   4.626  14.218  1.0753 -1.1150 -0.5290
   29MPD2     N  452   1.769   0.001  14.646  0.1264  0.7013 -0.1799
   29MPD2    H5  453   1.707   0.076  14.619 -2.3126 -1.9860 -1.9949
   29MPD2    N1  454   2.037   4.341  14.514 -0.1445  0.2555 -0.7000
   29MPD2    H7  455   2.031   4.306  14.609  1.6157  0.3649 -0.5434
   30TCq2    C1  456   1.776   4.712  14.785  0.6535  0.5569  0.3409
   30TCq2    O2  457   1.820   4.629  14.865  0.7249 -0.2934  0.1686
   30TCq2    C2  458   1.702   0.093  14.848  0.3370 -0.1899 -0.5402
   30TCq2    C3  459   1.642   0.076  14.972  0.3431 -0.2960 -0.2807
   30TCq2    C4  460   1.590   0.190  15.030 -0.1272  0.1165  0.1543
   30TCq2    C5  461   1.592   0.312  14.972  0.1765 -0.3584 -0.4753
   30TCq2    C6  462   1.640   0.323  14.841 -0.3443  0.4214  0.7094
   30TCq2    C7  463   1.704   0.216  14.781  0.6412 -0.0621  0.6629
   30TCq2    C8  464   1.666   0.450  14.779  0.1466 -0.1269 -0.1971
   30TCq2    O4  465   1.662   0.451  14.657  0.5447  0.0388  0.2341
   30TCq2    C9  466   1.523   0.184  15.153  0.0210  0.6463 -0.2947
   30TCq2    O5  467   1.483   0.071  15.195  0.5768  0.3696 -0.7386
   30TCq2    O6  468   1.474   0.290  15.202 -0.1981  0.4388 -0.4516
   30TCq2    H2  469   1.644   4.700  15.017  1.3265 -0.3459 -0.4256
   30TCq2    H3  470   1.534   0.396  15.009  0.5160 -0.1394 -0.4360
   30TCq2    H4  471   1.769   0.237  14.696 -1.5917 -0.7193 -1.2103
   31MPD2     C  472   4.350   3.373  14.673  0.1563 -0.3909  0.4347
   31MPD2    C1  473   4.261   3.478  14.671  0.4441  0.3071  0.1456
   31MPD2    C2  474   4.153   3.488  14.766  0.4031  0.0797 -0.7124
   31MPD2    C3  475   4.151   3.401  14.869 -0.3990 -0.0597  0.4772
   31MPD2    C4  476   4.241   3.302  14.876  0.8642  0.0194  0.0942
   31MPD2    C5  477   4.333   3.274  14.775 -0.8174 -0.2699 -0.0968
   31MPD2     H  478   4.083   3.570  14.768 -2.1722 -2.1036 -2.0016
   31MPD2    H1  479   4.241   3.234  14.960  1.7277 -1.1304 -0.8317
   31MPD2    H2  480   4.420   3.344  14.595 -1.2804 -1.1609 -0.5643
   31MPD2    H3  481   4.397   3.187  14.771 -3.3751 -2.1517 -0.4177
   31MPD2     N  482   4.050   3.400  14.971 -0.2777 -0.6065 -0.0897
   31MPD2    H5  483   4.059   3.324  15.037  1.9804 -0.3023 -0.0365
   31MPD2    N1  484   4.270   3.554  14.553 -0.1467 -0.1502 -0.0721
   31MPD2    H7  485   4.363   3.555  14.511  0.2097 -2.0077  0.6781
   32TCq2    C1  486   3.945   3.485  14.973  0.5864 -0.3262  0.3671
   32TCq2    O2  487   3.909   3.571  14.890  0.6590 -0.1146  0.0275
   32TCq2    C2  488   3.866   3.470  15.091  0.6238  0.0596  0.7625
   32TCq2    C3  489   3.741   3.525  15.082  0.0730  0.0259 -0.0744
   32TCq2    C4  490   3.641   3.479  15.169  0.6097 -0.2554  0.5202
   32TCq2    C5  491   3.662   3.387  15.270  0.1056  0.1401  0.0884
   32TCq2    C6  492   3.788   3.336  15.277 -0.1492 -0.0741 -0.4684
   32TCq2    C7  493   3.889   3.381  15.195 -0.1233 -0.2692  0.5831
   32TCq2    C8  494   3.804   3.230  15.370 -0.5267  0.1329  0.2886
   32TCq2    O4  495   3.905   3.213  15.438 -0.1858 -0.4814  0.1208
   32TCq2    C9  496   3.510   3.532  15.150  0.2863 -0.1262  0.2249
   32TCq2    O5  497   3.493   3.612  15.056 -0.4097  0.5893  0.2863
   32TCq2    O6  498   3.412   3.495  15.222 -0.4111  0.3179 -0.3586
   32TCq2    H2  499   3.704   3.585  14.999  0.8840 -0.4156 -0.7633
   32TCq2    H3  500   3.582   3.363  15.340  0.1396  0.4446  0.2318
   32TCq2    H4  501   3.985   3.330  15.198  0.3216  0.7307  3.1865
   33MPD2     C  502   4.569   1.172  10.294 -0.4670 -0.2128 -0.0182
   33MPD2    C1  503   4.442   1.178  10.336  1.0207  0.4009  0.2496
   33MPD2    C2  504   4.347   1.248  10.264 -0.3702 -0.1659  0.5526
   33MPD2    C3  505   4.386   1.311  10.146  0.2109 -0.3687 -0.3609
   33MPD2    C4  506   4.511   1.300  10.103  0.6382 -0.6131  0.0994
   33MPD2    C5  507   4.600   1.229  10.177 -0.5778  0.6655  0.2564
   33MPD2     H  508   4.245   1.247  10.301 -0.0691 -4.2147  1.2448
   33MPD2    H1  509   4.548   1.356  10.018  2.4564 -1.4609  0.3304
   33MPD2    H2  510   4.639   1.129  10.365  2.1790 -0.1672 -2.6103
   33MPD2    H3  511   4.702   1.220  10.140 -0.9615 -1.8120 -0.2032
   33MPD2     N  512   4.296   1.386  10.067  0.4995 -0.1707  0.3988
   33MPD2    H5  513   4.336   1.441   9.991 -1.3005 -3.1078 -2.6554
   33MPD2    N1  514   4.405   1.120  10.461  0.1639 -0.3340  0.4482
   33MPD2    H7  515   4.477   1.069  10.513 -0.5837 -2.3644 -0.5045
   34TCq2    C1  516   4.162   1.402  10.101  0.4850 -0.0914 -0.6706
   34TCq2    O2  517   4.089   1.313  10.146 -0.2322 -0.0300 -0.2139
   34TCq2    C2  518   4.083   1.507  10.023  0.0437 -0.2857 -0.0786
   34TCq2    C3  519   3.950   1.495  10.004  0.0554  0.4653 -0.4300
   34TCq2    C4  520   3.880   1.596   9.930 -0.6522  0.2106  0.2713
   34TCq2    C5  521   3.954   1.695   9.877 -0.2693  0.0455  0.0762
   34TCq2    C6  522   4.088   1.695   9.894  0.8035 -0.2216 -0.0017
   34TCq2    C7  523   4.156   1.612   9.975  0.4549 -0.3616  0.1609
   34TCq2    C8  524   4.157   1.783   9.812  0.5200 -0.0227  0.7557
   34TCq2    O4  525   4.264   1.819   9.853 -0.5566  0.1319 -0.5314
   34TCq2    C9  526   3.746   1.583   9.905 -0.4509 -0.4288  0.0398
   34TCq2    O5  527   3.687   1.485   9.961  0.3245 -0.3326 -0.5203
   34TCq2    O6  528   3.700   1.664   9.812  0.5052 -0.5171 -0.6504
   34TCq2    H2  529   3.887   1.415  10.044 -2.1322  1.8008 -1.2201
   34TCq2    H3  530   3.907   1.774   9.820  0.6766  0.6191  0.0916
   34TCq2    H4  531   4.258   1.625  10.009  0.4592  0.0678 -0.0116
   35MPD2     C  532   0.885   2.668  11.486 -0.7728 -0.4324 -0.8844
   35MPD2    C1  533   0.864   2.560  11.565  0.1938 -0.4150 -0.4929
   35MPD2    C2  534   0.778   2.460  11.527  0.0651  0.2306  0.1525
   35MPD2    C3  535   0.697   2.473  11.412 -0.8228  0.6828  0.1101
   35MPD2    C4  536   0.730   2.575  11.324  0.0818 -0.0355 -0.2676
   35MPD2    C5  537   0.817   2.676  11.361  0.9242 -0.5319  0.1807
   35MPD2     H  538   0.770   2.371  11.589  1.6727  0.9245  1.3474
   35MPD2    H1  539   0.669   2.595  11.237  1.3045 -1.8030 -1.5185
   35MPD2    H2  540   0.957   2.742  11.522 -1.1562 -0.9461  0.9271
   35MPD2    H3  541   0.840   2.759  11.295 -1.5470  0.2305  0.3083
   35MPD2     N  542   0.608   2.370  11.386 -0.1739 -0.3137 -0.2404
   35MPD2    H5  543   0.591   2.298  11.456 -0.7327  1.0930  1.0921
   35MPD2    N1  544   0.929   2.554  11.692  0.1209 -0.1139 -0.5195
   35MPD2    H7  545   0.990   2.632  11.713  0.1814 -0.3014  0.0005
   36TCq2    C1  546   0.537   2.353  11.275  0.1610  0.0032  0.9560
   36TCq2    O2  547   0.562   2.403  11.165  0.0837  0.3929 -0.0145
   36TCq2    C2  548   0.441   2.252  11.288  0.2195  0.5833 -0.3528
   36TCq2    C3  549   0.379   2.208  11.178 -0.0263  0.2769  0.0979
   36TCq2    C4  550   0.278   2.116  11.187  0.4016  0.0061  0.2671
   36TCq2    C5  551   0.236   2.080  11.311 -0.8785 -0.2099 -0.0844
   36TCq2    C6  552   0.288   2.138  11.421 -0.2812  0.5153 -0.9063
   36TCq2    C7  553   0.402   2.207  11.411  0.1707  0.1520  0.3103
   36TCq2    C8  554   0.246   2.098  11.548  0.2925  1.3888  0.6977
   36TCq2    O4  555   0.323   2.101  11.645 -0.7580 -0.3266  0.0768
   36TCq2    C9  556   0.208   2.068  11.071  0.3530  0.2738 -0.1271
   36TCq2    O5  557   0.252   2.097  10.957  0.6562  0.6335  0.2199
   36TCq2    O6  558   0.117   1.983  11.091 -0.8572  0.4054 -0.0289
   36TCq2    H2  559   0.405   2.242  11.078 -2.1332 -1.1732 -0.9330
   36TCq2    H3  560   0.162   2.001  11.322 -1.2337  0.0518 -0.6326
   36TCq2    H4  561   0.457   2.231  11.502  0.9843  2.0602 -0.6957
   37TMC2    C1  562   2.765   2.731  11.778  0.5047 -0.0788 -0.8938
   37TMC2    C2  563   2.752   2.827  11.680  0.5876 -0.1285  0.1655
   37TMC2    C3  564   2.861   2.850  11.604 -0.1699 -0.2975  0.0574
   37TMC2    C4  565   2.872   2.648  11.771 -0.0283  0.6034  0.7156
   37TMC2    C5  566   2.989   2.703  11.720 -0.2444 -0.0244 -0.2180
   37TMC2    C6  567   2.984   2.809  11.633  0.3012  0.1006  0.2847
   37TMC2     C  568   2.656   2.714  11.878 -0.0860 -0.1625 -0.4841
   37TMC2     O  569   2.553   2.776  11.862 -0.0006 -0.0339 -0.3697
   37TMC2     H  570   2.663   2.886  11.662 -0.3527 -2.5044 -3.0624
   37TMC2    H1  571   2.875   2.550  11.816 -0.8213 -1.3623 -3.5040
   37TMC2    H2  572   3.069   2.865  11.596 -0.8649  0.4590 -1.8413
   37TMC2    C7  573   3.116   2.650  11.774 -0.3838  0.0825  0.7653
   37TMC2    C8  574   2.846   2.958  11.512  0.0584  0.0747  0.0245
   37TMC2    O1  575   3.128   2.547  11.839 -0.4199 -0.1557  0.1803
   37TMC2    O2  576   2.780   3.057  11.542  0.2721  0.4158  0.1532
   37TMC2    O5  577   2.915   2.926  11.403  0.0358  0.1488  0.1673
   37TMC2    H5  578   2.970   2.844  11.403  0.4296  0.4164  2.1632
   38MPD2     C  579   2.458   2.522  12.312  0.3604 -0.4744 -0.6566
   38MPD2    C1  580   2.593   2.489  12.300  0.5490 -0.1642  0.1430
   38MPD2    C2  581   2.667   2.538  12.194 -0.4583 -0.4188  0.3997
   38MPD2    C3  582   2.613   2.610  12.090  0.0201 -0.0593 -0.0874
   38MPD2    C4  583   2.480   2.645  12.103  0.2287  0.1335  0.3704
   38MPD2    C5  584   2.405   2.596  12.207 -0.2076  0.0587 -0.4348
   38MPD2     H  585   2.774   2.521  12.187 -0.2174  1.1319  0.3670
   38MPD2    H1  586   2.426   2.687  12.019 -0.7237 -0.6620  0.5902
   38MPD2    H2  587   2.392   2.500  12.394 -0.0764 -3.8824 -1.9092
   38MPD2    H3  588   2.301   2.624  12.215  0.6805  2.7944  1.7421
   38MPD2     N  589   2.691   2.634  11.982 -0.5165  0.3616  0.5029
   38MPD2    H5  590   2.790   2.614  11.992 -0.2894  0.4530 -1.6377
   38MPD2    N1  591   2.656   2.420  12.399  0.7838 -0.2549 -0.0855
   38MPD2    H7  592   2.753   2.403  12.375  0.1548 -2.2935 -1.2198
   39MPD2     C  593   0.988   0.656   1.860 -0.0668  0.3460  0.9605
   39MPD2    C1  594   0.870   0.717   1.887 -1.0138  0.2454  0.1120
   39MPD2    C2  595   0.753   0.671   1.831 -0.4722  0.2265 -0.0540
   39MPD2    C3  596   0.757   0.553   1.750 -0.6225  0.7074  0.4524
   39MPD2    C4  597   0.879   0.493   1.718  0.4662 -0.2738  0.0298
   39MPD2    C5  598   0.989   0.545   1.782 -0.3504  0.2137  0.7508
   39MPD2     H  599   0.657   0.715   1.853 -0.9236 -0.7093 -0.1613
   39MPD2    H1  600   0.885   0.388   1.692 -0.6990  0.1864 -2.0278
   39MPD2    H2  601   1.085   0.680   1.904  1.0926 -2.7837  0.1327
   39MPD2    H3  602   1.086   0.498   1.777 -1.1190 -1.0492 -2.2521
   39MPD2     N  603   0.640   0.502   1.687  0.2893 -0.1337  0.8160
   39MPD2    H5  604   0.656   0.440   1.608 -0.4528 -1.2577  1.5624
   39MPD2    N1  605   0.869   0.830   1.970 -0.2814  0.3827  0.2051
   39MPD2    H7  606   0.946   0.842   2.035  0.0671 -1.3608  0.1012
   40TCq2    C1  607   0.770   0.923   1.972  0.1112  0.1413 -0.4775
   40TCq2    O2  608   0.687   0.951   1.888  0.0488 -0.5845 -0.0048
   40TCq2    C2  609   0.784   1.024   2.074  0.1064  0.3278 -1.0146
   40TCq2    C3  610   0.679   1.114   2.097 -0.6243 -0.0406 -1.0413
   40TCq2    C4  611   0.698   1.227   2.172 -0.4234  0.3394  0.3758
   40TCq2    C5  612   0.821   1.264   2.214  0.1118  0.6156 -0.0306
   40TCq2    C6  613   0.922   1.175   2.183  0.2720  1.0512  0.2749
   40TCq2    C7  614   0.907   1.056   2.119  0.7125  0.7390 -0.3134
   40TCq2    C8  615   1.058   1.205   2.226  0.6741  0.0967 -0.0092
   40TCq2    O4  616   1.076   1.242   2.341  0.1728  0.2343 -0.7051
   40TCq2    C9  617   0.580   1.305   2.208 -0.3904 -0.9588 -0.2061
   40TCq2    O5  618   0.468   1.253   2.182 -0.5113 -0.0316  0.2118
   40TCq2    O6  619   0.599   1.396   2.296 -0.7545  0.4634 -0.0975
   40TCq2    H2  620   0.581   1.102   2.053 -1.3282 -0.1033  0.5610
   40TCq2    H3  621   0.835   1.358   2.265  0.3166  0.1866  0.6985
   40TCq2    H4  622   0.993   0.993   2.100 -0.9472 -1.2393 -1.2106
   41TMC2    C1  623   4.534   2.674  14.008  0.2182  0.1845  0.7027
   41TMC2    C2  624   4.461   2.621  14.112 -0.3632  0.2276 -0.5052
   41TMC2    C3  625   4.361   2.537  14.070  0.2897 -0.0662  0.2032
   41TMC2    C4  626   4.513   2.646  13.873  0.7514 -0.4224 -0.1433
   41TMC2    C5  627   4.427   2.546  13.845 -0.6777  0.3170 -0.4581
   41TMC2    C6  628   4.342   2.497  13.941 -0.4144 -0.0198 -0.0652
   41TMC2     C  629   4.636   2.771  14.038  0.1226 -0.0151 -0.3493
   41TMC2     O  630   4.625   2.826  14.147  0.1703 -0.0809 -0.6375
   41TMC2     H  631   4.499   2.620  14.214  0.9392  0.7591 -0.9869
   41TMC2    H1  632   4.572   2.690  13.793  0.0728 -1.2300 -1.0861
   41TMC2    H2  633   4.252   2.440  13.921 -1.7905  1.7881  1.0261
   41TMC2    C7  634   4.396   2.502  13.703 -0.5215 -0.2105  0.3254
   41TMC2    C8  635   4.278   2.485  14.169  0.3223  0.2769 -0.2454
   41TMC2    O1  636   4.290   2.454  13.688  0.3220 -0.6919 -0.1940
   41TMC2    O2  637   4.236   2.544  14.272  0.1084 -0.4138 -0.0299
   41TMC2    O5  638   4.249   2.356  14.138 -0.4717 -0.2233  0.2558
   41TMC2    H5  639   4.303   2.314  14.067 -1.2822 -1.4720  0.3832
   42MPD2     C  640   0.225   2.869  13.870 -0.0103 -0.2410  0.3062
   42MPD2    C1  641   0.118   2.885  13.952  0.1635  0.6042  0.5265
   42MPD2    C2  642   0.108   2.998  14.038  0.5037 -0.1573  0.2224
   42MPD2    C3  643   0.207   3.093  14.040  0.0382  0.4685 -0.1564
   42MPD2    C4  644   0.309   3.076  13.944  0.3747 -0.1075 -0.7019
   42MPD2    C5  645   0.321   2.969  13.860 -0.0395  0.0418  0.3265
   42MPD2     H  646   0.019   2.994  14.099  0.8258 -2.9881  0.5023
   42MPD2    H1  647   0.378   3.159  13.929 -0.6854  0.6241 -1.5832
   42MPD2    H2  648   0.228   2.785  13.802 -0.9372 -1.9539  2.3782
   42MPD2    H3  649   0.389   2.970  13.776  1.4980 -1.3011  1.5580
   42MPD2     N  650   0.209   3.209  14.119  0.2847 -0.7974 -0.3713
   42MPD2    H5  651   0.293   3.265  14.105 -0.8370  1.0131  0.2403
   42MPD2    N1  652   0.015   2.782  13.945 -0.1308  0.4463  0.0317
   42MPD2    H7  653   0.024   2.701  13.885  0.9240 -0.2265  1.0918
   43MPD2     C  654   1.691   1.039   0.419 -0.1582 -0.5911 -0.1677
   43MPD2    C1  655   1.793   1.026   0.522 -0.3312 -0.5051  0.4434
   43MPD2    C2  656   1.802   1.137   0.609 -0.4426 -0.0431 -0.4997
   43MPD2    C3  657   1.738   1.256   0.600  0.1609  0.1962  0.1907
   43MPD2    C4  658   1.644   1.268   0.501  0.4524  0.0253  0.3932
   43MPD2    C5  659   1.629   1.164   0.409  0.1797 -0.2126  0.7496
   43MPD2     H  660   1.868   1.125   0.694 -0.5211  0.0634 -0.4239
   43MPD2    H1  661   1.585   1.359   0.498  0.8631  0.3079  0.8466
   43MPD2    H2  662   1.653   0.958   0.358 -1.4056 -1.5809  1.9382
   43MPD2    H3  663   1.549   1.175   0.337  0.0958 -0.5359  0.7935
   43MPD2     N  664   1.745   1.360   0.692  0.3003  0.0594 -0.0792
   43MPD2    H5  665   1.680   1.436   0.676  0.2183  0.4135  1.9105
   43MPD2    N1  666   1.866   0.905   0.541  0.5187  0.1829 -0.3197
   43MPD2    H7  667   1.933   0.897   0.617 -2.1098 -0.2381  1.9492
   44TCq2    C1  668   1.849   1.521   1.252  0.4757 -0.1044 -0.0980
   44TCq2    O2  669   1.962   1.482   1.245  0.3269  0.1096  0.6103
   44TCq2    C2  670   1.793   1.544   1.122 -0.2896 -0.1750  0.0103
   44TCq2    C3  671   1.670   1.613   1.108 -1.3308  0.2732 -0.9920
   44TCq2    C4  672   1.598   1.602   0.992 -0.3754  0.4001 -0.1015
   44TCq2    C5  673   1.659   1.535   0.886  0.3946 -0.5272 -0.1214
   44TCq2    C6  674   1.784   1.478   0.892 -0.5112  0.0487  0.5517
   44TCq2    C7  675   1.852   1.495   1.010 -0.2415 -0.2984 -0.5356
   44TCq2    C8  676   1.822   1.372   0.801  0.1182  0.0132  0.1096
   44TCq2    O4  677   1.910   1.293   0.838  0.2524 -0.2018 -0.3462
   44TCq2    C9  678   1.476   1.678   0.987 -0.4168 -0.1174  1.3721
   44TCq2    O5  679   1.431   1.722   1.099 -0.2242  0.3109 -0.4209
   44TCq2    O6  680   1.416   1.683   0.879 -0.1351 -0.6233  0.3776
   44TCq2    H2  681   1.627   1.656   1.197 -1.2462 -0.5306 -0.5677
   44TCq2    H3  682   1.597   1.546   0.798  1.5521 -0.7936 -0.9665
   44TCq2    H4  683   1.958   1.470   1.015 -0.5409 -1.4437  0.1908
   45TMC2    C1  684   2.631   2.924   9.503 -0.7415  0.5652 -0.0654
   45TMC2    C2  685   2.569   2.862   9.607  0.3538 -0.3726 -0.3112
   45TMC2    C3  686   2.578   2.926   9.727 -0.2613 -0.4592  0.3304
   45TMC2    C4  687   2.702   3.044   9.513  0.1836 -0.0084 -0.2548
   45TMC2    C5  688   2.706   3.097   9.640 -0.1384  0.1358 -0.4073
   45TMC2    C6  689   2.652   3.037   9.744  0.1892  0.3527 -0.1067
   45TMC2     C  690   2.609   2.876   9.368 -0.4650  0.8746  0.0957
   45TMC2     O  691   2.694   2.904   9.286  0.4917  0.4055 -0.3201
   45TMC2     H  692   2.523   2.764   9.594  1.0203 -0.7241 -0.0413
   45TMC2    H1  693   2.747   3.098   9.431  0.7440  0.2080  0.1942
   45TMC2    H2  694   2.656   3.073   9.846 -0.6397 -1.4378  0.5517
   45TMC2    C7  695   2.767   3.228   9.653 -0.4064  0.1163  0.0930
   45TMC2    C8  696   2.533   2.857   9.850  0.0024  0.0163  0.1412
   45TMC2    O1  697   2.826   3.263   9.551 -0.1986  1.1197 -0.1689
   45TMC2    O2  698   2.557   2.891   9.966  0.3655 -0.1850 -0.4254
   45TMC2    O5  699   2.422   2.805   9.804  0.1794 -0.1715  0.0481
   45TMC2    H5  700   2.398   2.822   9.710 -2.5585 -0.9098  0.6010
   46MPD2     C  701   2.471   2.778   9.119  0.5294  0.4853 -0.0029
   46MPD2    C1  702   2.418   2.777   9.242 -0.1096 -0.2810 -0.6981
   46MPD2    C2  703   2.296   2.725   9.259  0.1145 -0.0236 -0.1328
   46MPD2    C3  704   2.220   2.677   9.150 -0.2578 -0.2664 -0.4168
   46MPD2    C4  705   2.278   2.676   9.022  0.3358  0.1364  0.0791
   46MPD2    C5  706   2.400   2.733   9.015  0.6283 -0.5814 -0.2366
   46MPD2     H  707   2.255   2.710   9.359 -1.5577 -2.4628 -1.1753
   46MPD2    H1  708   2.216   2.654   8.935  2.6577 -1.5352 -1.1630
   46MPD2    H2  709   2.567   2.820   9.092  0.7282 -0.1660 -0.2902
   46MPD2    H3  710   2.436   2.758   8.915 -1.4970 -0.6087 -1.0070
   46MPD2     N  711   2.085   2.632   9.182  0.5516  0.6711 -0.5358
   46MPD2    H5  712   2.060   2.623   9.279 -2.5878  2.3447 -1.1787
   46MPD2    N1  713   2.482   2.822   9.358  0.0520  0.1327  0.2830
   46MPD2    H7  714   2.418   2.832   9.436 -1.8586  1.8922 -1.4898
   47TMC2    C1  715   3.610   3.361   9.210  0.2717  0.3345  0.3249
   47TMC2    C2  716   3.655   3.228   9.206 -0.4354  0.6026  0.5814
   47TMC2    C3  717   3.578   3.134   9.273 -0.5637  0.7904  0.2315
   47TMC2    C4  718   3.489   3.394   9.267 -0.0352  0.4977 -0.4029
   47TMC2    C5  719   3.423   3.302   9.344 -0.4826 -0.4639 -0.1916
   47TMC2    C6  720   3.459   3.172   9.345 -0.5981 -0.8610  0.8837
   47TMC2     C  721   3.701   3.475   9.191 -0.1217  0.5321  0.0325
   47TMC2     O  722   3.655   3.588   9.203  0.4578  0.2347  0.0704
   47TMC2     H  723   3.739   3.199   9.143 -1.0003 -1.2901  0.6808
   47TMC2    H1  724   3.452   3.496   9.265 -1.1309  0.1224  0.5063
   47TMC2    H2  725   3.401   3.100   9.400  0.4416 -0.8576  1.9942
   47TMC2    C7  726   3.281   3.329   9.342 -0.8588  0.7591  1.1516
   47TMC2    C8  727   3.622   2.997   9.304  0.4741 -0.1962  0.1255
   47TMC2    O1  728   3.216   3.280   9.433 -0.0762 -0.1656 -0.0061
   47TMC2    O2  729   3.574   2.923   9.388  0.0614 -0.5031  0.3010
   47TMC2    O5  730   3.700   2.958   9.200  0.0457 -0.6367  0.2172
   47TMC2    H5  731   3.720   3.026   9.132  0.7571  0.8076  1.8873
   48MPD2     C  732   3.925   3.660   9.106  0.5864  0.5899  0.3875
   48MPD2    C1  733   3.945   3.528   9.160 -0.7702 -0.3269 -0.6326
   48MPD2    C2  734   4.074   3.483   9.181  0.6751  0.7236  0.5001
   48MPD2    C3  735   4.183   3.566   9.159 -0.4454 -0.0845  0.1472
   48MPD2    C4  736   4.156   3.693   9.117  0.4283 -0.0901  0.2284
   48MPD2    C5  737   4.034   3.737   9.081  0.4433 -0.1703  0.2755
   48MPD2     H  738   4.098   3.391   9.232  0.4279  1.6042  2.1857
   48MPD2    H1  739   4.240   3.755   9.084 -0.4770  0.4878 -0.9814
   48MPD2    H2  740   3.832   3.701   9.070 -0.2544  0.9843  3.0447
   48MPD2    H3  741   4.029   3.837   9.039  1.3913 -0.0276  0.5055
   48MPD2     N  742   4.318   3.513   9.176 -0.3846 -0.3121 -0.1089
   48MPD2    H5  743   4.323   3.412   9.188  2.8136 -0.1458 -0.0750
   48MPD2    N1  744   3.837   3.442   9.184 -0.2074 -0.3176 -0.1316
   48MPD2    H7  745   3.854   3.343   9.196  1.5110 -0.1998 -1.7876
   49MPD2     C  746   3.065   0.913   9.835 -1.0249 -0.0770  0.6230
   49MPD2    C1  747   2.999   0.811   9.901  0.3034  0.2817 -0.4502
   49MPD2    C2  748   3.039   0.773  10.030 -0.2905  0.8462  0.6133
   49MPD2    C3  749   3.133   0.847  10.101 -0.2964  0.4216  0.3200
   49MPD2    C4  750   3.204   0.936  10.033 -0.1616  0.7619  0.7153
   49MPD2    C5  751   3.172   0.964   9.901 -0.0672  0.3729  0.0636
   49MPD2     H  752   2.984   0.693  10.078  1.0504  0.7872  2.0554
   49MPD2    H1  753   3.289   0.989  10.075  1.0437 -0.7226  0.1843
   49MPD2    H2  754   3.042   0.943   9.734  2.2992 -2.3757 -0.8039
   49MPD2    H3  755   3.225   1.039   9.843 -0.7200  0.7907 -0.0030
   49MPD2     N  756   3.162   0.823  10.235  0.9746  0.4147  0.0826
   49MPD2    H5  757   3.218   0.897  10.278  3.0170 -1.7836  1.2233
   49MPD2    N1  758   2.905   0.731   9.838  0.4521  0.0196  0.2271
   49MPD2    H7  759   2.873   0.647   9.886  0.5243 -0.4533 -0.5467
   50TCq2    C1  760   2.840   0.762   9.724 -0.5420 -0.3192 -0.0919
   50TCq2    O2  761   2.860   0.851   9.644 -0.0109 -0.4684 -0.4706
   50TCq2    C2  762   2.721   0.683   9.695 -0.2765  0.3567  0.7220
   50TCq2    C3  763   2.616   0.734   9.626  0.3852  0.2218 -0.0109
   50TCq2    C4  764   2.506   0.661   9.605  0.8138  0.2231 -0.2071
   50TCq2    C5  765   2.479   0.555   9.685 -0.0603  0.0410 -0.3121
   50TCq2    C6  766   2.579   0.513   9.767  0.1409 -0.7273 -0.9649
   50TCq2    C7  767   2.700   0.572   9.769  0.0405 -0.1541  0.2495
   50TCq2    C8  768   2.564   0.403   9.855 -0.9999  0.7261  0.7584
   50TCq2    O4  769   2.641   0.394   9.947 -0.3156 -0.0816 -0.1096
   50TCq2    C9  770   2.395   0.706   9.528 -0.3834  1.0455 -0.0719
   50TCq2    O5  771   2.289   0.637   9.525  0.2954  0.4256  0.6777
   50TCq2    O6  772   2.407   0.812   9.458 -0.7057 -0.5327  0.2422
   50TCq2    H2  773   2.625   0.835   9.586 -0.6153 -0.3169 -1.5877
   50TCq2    H3  774   2.383   0.510   9.665 -0.2883  0.6084 -0.5031
   50TCq2    H4  775   2.780   0.523   9.823 -1.0913 -0.6485  1.4778
   51MPD2     C  776   3.282   4.460   1.572 -0.6272 -0.7446  0.3427
   51MPD2    C1  777   3.182   4.406   1.650 -0.3662 -0.4395  0.2257
   51MPD2    C2  778   3.126   4.488   1.746 -0.2083  0.1720 -0.1682
   51MPD2    C3  779   3.187   4.607   1.787  0.0601 -0.9429  0.2735
   51MPD2    C4  780   3.297   4.652   1.724 -0.3720  1.0300  0.7926
   51MPD2    C5  781   3.329   4.578   1.613 -0.2368 -0.1731  0.1051
   51MPD2     H  782   3.044   4.444   1.800  1.6051 -0.7583  1.8499
   51MPD2    H1  783   3.357   0.019   1.740  1.9576 -0.4758  0.5121
   51MPD2    H2  784   3.357   4.405   1.515 -0.2268  0.3981 -0.2405
   51MPD2    H3  785   3.407   4.609   1.545 -0.8654  1.4158  0.0959
   51MPD2     N  786   3.130   4.693   1.877  0.0381 -0.6620  0.1889
   51MPD2    H5  787   3.182   0.057   1.883  1.9952 -1.6413 -2.7717
   51MPD2    N1  788   3.134   4.280   1.625 -0.5096 -0.6387  0.8675
   51MPD2    H7  789   3.046   4.255   1.670 -1.0073 -0.6603 -0.1282
   52TCq2    C1  790   3.014   4.666   1.950 -0.4555 -0.8384  0.0202
   52TCq2    O2  791   2.943   4.564   1.958  0.3085 -0.1404  0.5040
   52TCq2    C2  792   2.974   0.051   2.039  0.2496 -0.5583  0.0536
   52TCq2    C3  793   2.949   0.009   2.167 -0.3265 -0.0589  0.2189
   52TCq2    C4  794   2.942   0.109   2.268 -0.5909 -0.1296 -0.3046
   52TCq2    C5  795   2.973   0.241   2.244  1.1410 -0.3733  0.0827
   52TCq2    C6  796   2.989   0.280   2.107  0.1678  0.6033  0.6078
   52TCq2    C7  797   2.992   0.183   2.005  0.0535 -0.2401  0.4663
   52TCq2    C8  798   3.043   0.414   2.079  0.3770  0.1350 -0.4542
   52TCq2    O4  799   3.133   0.460   2.150 -0.2378  0.0163  0.2200
   52TCq2    C9  800   2.907   0.078   2.404  0.3531 -0.3176  0.6617
   52TCq2    O5  801   2.911   0.177   2.483  0.3471 -0.3948  0.4387
   52TCq2    O6  802   2.847   4.693   2.425 -0.6186  0.2251  0.0908
   52TCq2    H2  803   2.934   4.626   2.189  2.2735 -0.7714 -1.4279
   52TCq2    H3  804   2.980   0.309   2.327 -0.9354  0.3239 -0.3204
   52TCq2    H4  805   3.013   0.207   1.902 -0.3543  0.2271  0.4928
   53TMC2    C1  806   3.628   2.482  12.251 -0.1209  0.2349  0.2857
   53TMC2    C2  807   3.708   2.383  12.298 -0.2794  0.2278 -0.1246
   53TMC2    C3  808   3.687   2.329  12.422 -0.3128  0.0073 -0.3862
   53TMC2    C4  809   3.511   2.516  12.311  0.1082  0.2379  0.7711
   53TMC2    C5  810   3.482   2.446  12.430  0.5281 -0.5137  0.1784
   53TMC2    C6  811   3.567   2.355  12.488  0.5291  0.8126  0.4330
   53TMC2     C  812   3.656   2.527  12.116 -0.0091  0.5193 -0.4464
   53TMC2     O  813   3.772   2.542  12.076 -0.0915 -0.2696 -0.2961
   53TMC2     H  814   3.797   2.351  12.245 -0.6914  0.7793 -1.1476
   53TMC2    H1  815   3.442   2.590  12.272 -1.3488 -1.8221 -0.5484
   53TMC2    H2  816   3.548   2.310  12.585 -0.8332 -1.4373 -0.8903
   53TMC2    C7  817   3.347   2.478  12.477  0.8013 -0.2945 -0.0856
   53TMC2    C8  818   3.794   2.280  12.505 -0.3049 -0.1475 -0.8412
   53TMC2    O1  819   3.267   2.536  12.403 -0.8016 -0.7079 -0.7915
   53TMC2    O2  820   3.775   2.208  12.603 -0.0374  0.1608  0.0881
   53TMC2    O5  821   3.902   2.346  12.478 -0.7495 -0.3920 -0.0627
   53TMC2    H5  822   3.897   2.407  12.402 -0.1248 -0.8894 -0.5040
   54MPD2     C  823   3.620   2.674  11.861 -0.9361  0.5077 -0.2457
   54MPD2    C1  824   3.521   2.618  11.930 -0.0400 -0.3351  0.2025
   54MPD2    C2  825   3.394   2.623  11.878  0.2842 -0.1838  0.3115
   54MPD2    C3  826   3.361   2.708  11.778 -0.3746  0.1653 -0.5811
   54MPD2    C4  827   3.466   2.760  11.711 -0.1571 -1.1648 -0.4641
   54MPD2    C5  828   3.594   2.745  11.750 -0.0493  0.0714 -0.3531
   54MPD2     H  829   3.318   2.577  11.941 -0.6231 -2.5289 -2.4885
   54MPD2    H1  830   3.448   2.830  11.631  0.8782 -0.9545 -0.5214
   54MPD2    H2  831   3.722   2.645  11.884 -0.8576  0.8750 -0.1426
   54MPD2    H3  832   3.672   2.796  11.694 -0.0207 -0.3924 -0.7352
   54MPD2     N  833   3.226   2.725  11.731 -0.3084  0.0880 -0.8244
   54MPD2    H5  834   3.211   2.806  11.671  0.2728 -1.4952 -3.0934
   54MPD2    N1  835   3.536   2.541  12.046  0.2468  0.1136 -0.1083
   54MPD2    H7  836   3.456   2.498  12.091  1.1689  0.4574  1.8912
   55MPD2     C  837   4.301   0.943   1.494 -0.4199  0.5375 -0.5218
   55MPD2    C1  838   4.164   0.946   1.524 -0.6563 -1.2590 -0.2127
   55MPD2    C2  839   4.070   0.958   1.428 -0.3332  1.3862 -0.0066
   55MPD2    C3  840   4.104   0.974   1.296 -0.3846 -0.6090  0.3812
   55MPD2    C4  841   4.237   0.988   1.263 -0.0905  0.5442 -0.0518
   55MPD2    C5  842   4.331   0.977   1.359  0.3821  0.0795  0.1185
   55MPD2     H  843   3.967   0.975   1.457 -0.5114  0.0251  0.1107
   55MPD2    H1  844   4.273   1.010   1.163 -2.8502 -0.4064 -1.2651
   55MPD2    H2  845   4.385   0.947   1.563 -0.7911 -0.3131 -0.0175
   55MPD2    H3  846   4.433   0.998   1.331 -0.0901  1.4596 -0.5516
   55MPD2     N  847   3.994   0.982   1.209  0.2178  0.5057 -0.4521
   55MPD2    H5  848   3.900   0.988   1.248  0.3752 -0.7974  0.1431
   55MPD2    N1  849   4.138   0.921   1.661 -0.2921  0.3357  0.2233
   55MPD2    H7  850   4.219   0.913   1.722 -0.9269  4.0188  1.5845
   56TCq2    C1  851   4.022   0.866   1.706  0.1311  0.5599 -0.0446
   56TCq2    O2  852   3.920   0.838   1.649  0.1946 -0.5627  0.4972
   56TCq2    C2  853   4.020   0.831   1.849  0.2146 -0.0583 -0.5396
   56TCq2    C3  854   4.064   0.929   1.939  0.7536  0.2028 -0.0822
   56TCq2    C4  855   4.040   0.912   2.075 -0.9403 -0.4892  0.1255
   56TCq2    C5  856   3.962   0.800   2.112  0.0230  0.1759  0.0173
   56TCq2    C6  857   3.897   0.731   2.015 -0.5904  0.4362 -0.7074
   56TCq2    C7  858   3.924   0.739   1.879 -0.3695 -0.0670  0.2808
   56TCq2    C8  859   3.785   0.646   2.059  0.5723 -0.1557 -0.5817
   56TCq2    O4  860   3.768   0.626   2.180 -0.0444  0.4929  0.9055
   56TCq2    C9  861   4.114   1.002   2.165 -0.8055  0.7614  0.2653
   56TCq2    O5  862   4.145   0.960   2.281  0.2387 -0.0671 -0.2979
   56TCq2    O6  863   4.127   1.117   2.120 -0.4622 -0.1706  0.0543
   56TCq2    H2  864   4.140   0.998   1.903  0.3601  0.1818 -0.9504
   56TCq2    H3  865   3.940   0.795   2.218  1.2505  1.2622  0.3262
   56TCq2    H4  866   3.886   0.673   1.803  1.3544  0.1955 -0.8187
   57TMC2    C1  867   3.517   1.185  13.903  0.8413 -0.7399 -0.2164
   57TMC2    C2  868   3.600   1.257  13.822  0.5743  0.0417  0.2749
   57TMC2    C3  869   3.677   1.184  13.730  0.1991  0.5487  0.2933
   57TMC2    C4  870   3.502   1.050  13.879 -0.1416 -0.3081 -1.1669
   57TMC2    C5  871   3.566   0.994  13.770 -0.2445 -0.3067  0.5137
   57TMC2    C6  872   3.663   1.056  13.702  0.2174  0.1975  0.0758
   57TMC2     C  873   3.428   1.255  13.999  0.1889  0.0872  0.5711
   57TMC2     O  874   3.447   1.376  13.990  0.2894 -0.1971 -0.0166
   57TMC2     H  875   3.621   1.360  13.849 -1.3468  0.3555  0.6029
   57TMC2    H1  876   3.423   0.994  13.928  1.6098 -0.1091  1.8174
   57TMC2    H2  877   3.718   1.021  13.616  0.7828  0.5423  0.2999
   57TMC2    C7  878   3.509   0.869  13.720 -0.2761 -0.6378  0.1220
   57TMC2    C8  879   3.775   1.247  13.651 -0.2361  0.0352  0.3648
   57TMC2    O1  880   3.432   0.809  13.796  0.4706 -0.0418 -0.0566
   57TMC2    O2  881   3.886   1.197  13.636 -0.0748  0.6113 -0.2184
   57TMC2    O5  882   3.751   1.380  13.662  0.2734  0.2325 -0.4318
   57TMC2    H5  883   3.654   1.396  13.655  0.9598  3.5092 -2.5798
   58MPD2     C  884   3.021   1.325  14.297  0.1723 -0.1586 -0.3503
   58MPD2    C1  885   3.104   1.414  14.236  0.4121  0.1636 -0.0547
   58MPD2    C2  886   3.210   1.373  14.169  0.0744  0.0879 -0.1128
   58MPD2    C3  887   3.236   1.238  14.152 -0.2141  1.2361  0.8011
   58MPD2    C4  888   3.149   1.144  14.218 -0.8004 -0.1068  0.2269
   58MPD2    C5  889   3.046   1.189  14.300 -0.2179 -0.0671 -0.2874
   58MPD2     H  890   3.270   1.446  14.116 -0.1412  0.5617  0.2929
   58MPD2    H1  891   3.175   1.039  14.222 -1.2324 -0.2374 -0.4006
   58MPD2    H2  892   2.925   1.353  14.338 -0.7281 -0.5630 -2.2182
   58MPD2    H3  893   2.977   1.123  14.352 -0.2447  0.4997  0.4035
   58MPD2     N  894   3.334   1.185  14.071  0.6719 -0.4891  0.3553
   58MPD2    H5  895   3.346   1.084  14.069  0.6010 -0.5019  0.6107
   58MPD2    N1  896   3.075   1.556  14.232  0.5288  0.5345 -0.2812
   58MPD2    H7  897   3.133   1.610  14.169 -1.6208 -0.4790 -3.1115
   59MPD2     C  898   0.611   1.653  13.157  0.5709 -0.4445 -0.1285
   59MPD2    C1  899   0.696   1.693  13.055  0.3362  0.1237  0.3461
   59MPD2    C2  900   0.812   1.755  13.109 -0.9285 -0.1201 -0.3598
   59MPD2    C3  901   0.836   1.770  13.245  0.2426 -0.4129 -0.1015
   59MPD2    C4  902   0.746   1.729  13.341  0.2002  0.5561 -0.3504
   59MPD2    C5  903   0.634   1.678  13.292 -0.2732  0.3619 -0.2607
   59MPD2     H  904   0.896   1.778  13.044  0.2671 -0.7128  0.9898
   59MPD2    H1  905   0.749   1.755  13.446  0.2975 -3.0527  0.5503
   59MPD2    H2  906   0.513   1.609  13.140  0.5458 -0.2528 -0.4743
   59MPD2    H3  907   0.553   1.655  13.360 -0.4209 -1.4116 -1.0464
   59MPD2     N  908   0.957   1.821  13.296  0.1468 -0.7294 -0.7852
   59MPD2    H5  909   0.974   1.808  13.395  1.3797 -2.4242 -1.2192
   59MPD2    N1  910   0.667   1.665  12.918  0.5389 -0.0552 -0.3556
   59MPD2    H7  911   0.580   1.613  12.911 -0.3497  1.4522 -0.6607
   60TCq2    C1  912   0.752   1.683  12.815 -0.2035  0.3982 -0.5684
   60TCq2    O2  913   0.851   1.756  12.809  0.2841 -0.4897  1.1279
   60TCq2    C2  914   0.714   1.622  12.692 -0.1906 -0.9784  0.2101
   60TCq2    C3  915   0.645   1.496  12.690 -0.5955  0.0141 -0.2648
   60TCq2    C4  916   0.680   1.413  12.586  0.0779 -0.1166 -0.6223
   60TCq2    C5  917   0.759   1.444  12.485 -0.5516 -0.2783 -0.1012
   60TCq2    C6  918   0.807   1.567  12.474  0.2408 -0.1279  0.4621
   60TCq2    C7  919   0.793   1.653  12.582 -0.2305  0.6736  0.2347
   60TCq2    C8  920   0.907   1.600  12.375  0.1456 -0.4158 -0.3370
   60TCq2    O4  921   0.958   1.505  12.319 -0.0459  0.9194  0.1461
   60TCq2    C9  922   0.629   1.275  12.593  0.6231  0.0990  0.4834
   60TCq2    O5  923   0.704   1.178  12.553 -0.4537 -0.0055  0.0446
   60TCq2    O6  924   0.528   1.260  12.665 -0.0322  0.1760  0.1935
   60TCq2    H2  925   0.582   1.469  12.773  1.1620 -0.6462  0.8600
   60TCq2    H3  926   0.785   1.370  12.409  2.3261  0.6668 -0.0579
   60TCq2    H4  927   0.847   1.747  12.587  0.2707  0.2937  2.1914
   61MPD2     C  928   1.054   2.990  15.053 -0.1025 -0.0296 -0.3540
   61MPD2    C1  929   0.957   3.091  15.047  1.1259  0.1428  0.4454
   61MPD2    C2  930   0.968   3.188  14.948 -0.4296  0.1442  0.5815
   61MPD2    C3  931   1.076   3.188  14.858 -0.1822 -0.4416  0.2004
   61MPD2    C4  932   1.161   3.078  14.861 -0.0837  0.1219 -0.0103
   61MPD2    C5  933   1.158   2.991  14.967 -0.7312  0.2267  0.1952
   61MPD2     H  934   0.902   3.274  14.948 -0.7347 -0.0913  0.4306
   61MPD2    H1  935   1.238   3.065  14.786  1.4101 -0.2326  1.5672
   61MPD2    H2  936   1.057   2.913  15.129 -0.0068  1.0239  0.6990
   61MPD2    H3  937   1.237   2.917  14.975 -0.4996  0.2773 -1.6322
   61MPD2     N  938   1.095   3.304  14.782 -0.8930 -0.3735  0.2990
   61MPD2    H5  939   1.016   3.362  14.756 -1.3701 -0.7739  0.8606
   61MPD2    N1  940   0.848   3.099  15.137  0.0665  0.0772  0.0242
   61MPD2    H7  941   0.790   3.182  15.139 -0.4086 -0.2734  0.8235
   62TCq2    C1  942   0.812   2.995  15.224 -0.1675 -0.4131 -0.4543
   62TCq2    O2  943   0.854   2.881  15.230  0.0805 -0.1737 -0.2133
   62TCq2    C2  944   0.702   3.037  15.314  0.1380  0.9365 -0.1763
   62TCq2    C3  945   0.635   2.942  15.385 -0.1480 -0.3801 -0.0496
   62TCq2    C4  946   0.523   2.983  15.462 -0.4967  0.3592  0.4272
   62TCq2    C5  947   0.492   3.114  15.473  0.1169  0.2734  0.0366
   62TCq2    C6  948   0.570   3.205  15.406  0.4107  0.4252 -0.3514
   62TCq2    C7  949   0.657   3.164  15.313  0.1667  0.6080 -0.3435
   62TCq2    C8  950   0.550   3.347  15.425 -0.2459  0.4014  0.2924
   62TCq2    O4  951   0.584   3.423  15.336  0.4922  0.3311 -0.3282
   62TCq2    C9  952   0.444   2.882  15.531  0.2040 -0.0083  0.4385
   62TCq2    O5  953   0.353   2.923  15.611  0.7399  0.2035 -0.0719
   62TCq2    O6  954   0.473   2.762  15.502  0.0296  0.4482  0.2200
   62TCq2    H2  955   0.654   2.835  15.379  1.8264 -0.0161 -0.2759
   62TCq2    H3  956   0.421   3.142  15.551 -1.4228  0.9288 -1.5923
   62TCq2    H4  957   0.713   3.244  15.265  3.0978 -2.0373 -1.2838
   63TMC2    C1  958   0.266   3.020  10.786  0.1490 -0.3514  0.4011
   63TMC2    C2  959   0.371   3.096  10.837 -0.1577 -0.0043  0.0375
   63TMC2    C3  960   0.430   3.187  10.759 -0.1412  0.7041 -0.1423
   63TMC2    C4  961   0.245   3.024  10.652 -0.6647 -0.0411  0.1242
   63TMC2    C5  962   0.311   3.109  10.573  0.5233 -0.0754 -0.7278
   63TMC2    C6  963   0.398   3.194  10.625 -0.7026 -0.6035 -0.0366
   63TMC2     C  964   0.176   2.944  10.876  0.4173  0.3181 -0.2666
   63TMC2     O  965   0.181   2.954  10.999 -0.2317 -0.2361  0.3842
   63TMC2     H  966   0.371   3.096  10.945 -2.7273  0.5064  0.0350
   63TMC2    H1  967   0.186   2.946  10.606 -1.9673  1.3117 -0.4895
   63TMC2    H2  968   0.438   3.279  10.570 -0.8050 -0.5353 -0.0063
   63TMC2    C7  969   0.261   3.109  10.437 -0.5561 -0.1439  0.2887
   63TMC2    C8  970   0.476   3.309  10.823  0.8160 -0.4195  0.3575
   63TMC2    O1  971   0.164   3.041  10.406 -0.5965  0.0587  0.1856
   63TMC2    O2  972   0.468   3.423  10.783  0.2182  0.7858  1.1007
   63TMC2    O5  973   0.542   3.264  10.930  0.5358 -0.4972 -0.5375
   63TMC2    H5  974   0.540   3.168  10.951  0.6945 -0.1599  0.9871
   64MPD2     C  975   4.582   2.548  10.969  0.0517 -0.0773 -0.2460
   64MPD2    C1  976   4.565   2.591  10.837 -0.5517 -0.2563  0.2069
   64MPD2    C2  977   4.645   2.699  10.792 -0.8508  0.4258 -0.1982
   64MPD2    C3  978   0.019   2.754  10.871  0.8950 -0.2204  0.7132
   64MPD2    C4  979   0.046   2.704  11.001  0.3070  0.2951  0.7722
   64MPD2    C5  980   4.683   2.607  11.048  0.1580 -0.0431  0.4866
   64MPD2     H  981   4.646   2.726  10.687  0.5723 -0.1574 -0.3367
   64MPD2    H1  982   0.125   2.745  11.062  1.9594 -0.8685 -0.5935
   64MPD2    H2  983   4.532   2.462  11.013  2.6894 -2.2335 -1.4476
   64MPD2    H3  984   4.703   2.561  11.145 -0.2742 -2.2497 -0.4736
   64MPD2     N  985   0.096   2.859  10.809  0.7993 -0.3524 -0.2012
   64MPD2    H5  986   0.084   2.859  10.708  0.5363 -0.4920 -0.1689
   64MPD2    N1  987   4.486   2.524  10.743  0.0781  0.2949  0.3325
   64MPD2    H7  988   4.478   2.562  10.649  0.5163  0.8216  0.5080
   65MPD2     C  989   0.972   2.590  15.847  0.2750  0.6149  0.3836
   65MPD2    C1  990   1.009   2.554  15.712 -0.0548 -0.4361  0.4958
   65MPD2    C2  991   1.026   2.420  15.692  0.2591 -0.5793  0.3175
   65MPD2    C3  992   0.999   2.324  15.796  0.3223 -0.3853 -0.4706
   65MPD2    C4  993   0.956   2.361  15.923 -0.1374 -0.0884 -0.3668
   65MPD2    C5  994   0.955   2.499  15.947 -0.0486 -0.4698 -0.4159
   65MPD2     H  995   1.037   2.394  15.587 -1.1414 -1.2910  0.3556
   65MPD2    H1  996   0.938   2.303  16.012 -0.8540 -1.4499 -1.3982
   65MPD2    H2  997   0.961   2.696  15.868  0.9179  1.1277 -1.7870
   65MPD2    H3  998   0.942   2.536  16.048  3.0741  0.6458 -0.4349
   65MPD2     N  999   0.994   2.185  15.776 -0.9637 -0.5480  0.1106
   65MPD2    H5 1000   0.965   2.124  15.851  0.5077  0.4863  1.5465
   65MPD2    N1 1001   1.030   2.648  15.605 -0.0025  0.1408  0.8519
   65MPD2    H7 1002   1.062   2.626  15.512 -2.9959  2.4259 -0.7342
   66TCq2    C1 1003   0.990   2.786  15.619 -0.3382 -0.3576 -0.1207
   66TCq2    O2 1004   0.900   2.836  15.686  0.1887  0.2335  0.0710
   66TCq2    C2 1005   1.054   2.872  15.516 -0.2996  0.4940  0.0829
   66TCq2    C3 1006   1.175   2.838  15.456  0.5930  0.3138  0.3508
   66TCq2    C4 1007   1.242   2.927  15.370 -0.3492 -0.1056  0.3507
   66TCq2    C5 1008   1.184   3.050  15.355 -0.3940  0.1851 -0.0673
   66TCq2    C6 1009   1.077   3.092  15.430 -0.1854 -0.2048 -0.0419
   66TCq2    C7 1010   1.009   3.004  15.514 -0.0649  1.3118 -0.2690
   66TCq2    C8 1011   1.035   3.228  15.427 -0.2042  0.1861 -0.9114
   66TCq2    O4 1012   1.079   3.290  15.333  0.5929  0.3809 -0.1688
   66TCq2    C9 1013   1.363   2.889  15.306 -0.3670  0.0263  0.4773
   66TCq2    O5 1014   1.429   2.984  15.253  0.2094  0.2588 -0.0406
   66TCq2    O6 1015   1.388   2.764  15.302 -0.1305  0.0288  0.6415
   66TCq2    H2 1016   1.205   2.734  15.453 -0.2585  0.0937 -0.4831
   66TCq2    H3 1017   1.208   3.117  15.273 -0.1924  0.3428  0.1211
   66TCq2    H4 1018   0.907   3.025  15.546  0.2882  1.5343  0.7025
   67MPD2     C 1019   1.281   1.979  14.174 -0.1643 -0.1178 -0.9726
   67MPD2    C1 1020   1.190   2.043  14.251 -0.3259  0.1813  0.0467
   67MPD2    C2 1021   1.066   2.067  14.202 -0.0826 -0.2662 -0.3187
   67MPD2    C3 1022   1.027   2.026  14.079  0.5236 -0.1405  0.2120
   67MPD2    C4 1023   1.117   1.960  13.991  0.6586 -0.3763 -0.7405
   67MPD2    C5 1024   1.244   1.948  14.038 -0.0510 -0.3201  0.1200
   67MPD2     H 1025   0.992   2.100  14.274 -0.4606 -0.6330 -0.5352
   67MPD2    H1 1026   1.083   1.910  13.901  0.8029  2.0008 -2.1180
   67MPD2    H2 1027   1.382   1.955  14.203 -0.5433 -0.2017  0.2481
   67MPD2    H3 1028   1.327   1.903  13.985  0.4387  1.2127 -0.4355
   67MPD2     N 1029   0.892   2.038  14.051  0.2554  0.1154 -0.2707
   67MPD2    H5 1030   0.844   2.090  14.125  0.9840  1.5466 -0.8125
   67MPD2    N1 1031   1.231   2.096  14.375 -0.1689  0.7348  0.1773
   67MPD2    H7 1032   1.164   2.154  14.424 -0.6113  0.0268  0.4153
   68TCq2    C1 1033   1.356   2.077  14.437  0.2910 -0.2031 -0.3522
   68TCq2    O2 1034   1.439   1.986  14.431 -0.7947  0.1427  0.0699
   68TCq2    C2 1035   1.384   2.180  14.536  0.6912  0.3674  0.6194
   68TCq2    C3 1036   1.295   2.283  14.554  0.0174  0.6950 -0.2334
   68TCq2    C4 1037   1.306   2.366  14.662  0.1892 -0.9187  0.8139
   68TCq2    C5 1038   1.392   2.333  14.760 -0.4192 -0.7049  0.1830
   68TCq2    C6 1039   1.485   2.235  14.730  0.5426 -0.7595  0.3928
   68TCq2    C7 1040   1.486   2.153  14.624 -0.0088  0.0970  0.4950
   68TCq2    C8 1041   1.589   2.204  14.827 -0.4243  0.0547  0.4634
   68TCq2    O4 1042   1.689   2.144  14.791 -0.2137 -0.1799 -0.4537
   68TCq2    C9 1043   1.213   2.474  14.690 -0.1257  0.7958 -0.6968
   68TCq2    O5 1044   1.193   2.511  14.812 -0.1081  0.0558  0.2058
   68TCq2    O6 1045   1.124   2.494  14.606 -0.4753  0.6542 -0.1618
   68TCq2    H2 1046   1.208   2.300  14.492 -0.1530 -1.3351 -0.5646
   68TCq2    H3 1047   1.391   2.389  14.852 -1.0034 -2.5956  1.3153
   68TCq2    H4 1048   1.538   2.059  14.635  1.0364  0.7361  1.0421
   69TMC2    C1 1049   2.854   3.186  12.437  0.1537 -0.1447 -0.2159
   69TMC2    C2 1050   2.750   3.273  12.394  0.1413  1.0594 -0.7692
   69TMC2    C3 1051   2.775   3.337  12.271  0.9784 -0.3073 -0.8838
   69TMC2    C4 1052   2.975   3.187  12.377 -0.0599 -0.4437 -0.3530
   69TMC2    C5 1053   2.993   3.263  12.264 -0.7975  0.2845  0.4078
   69TMC2    C6 1054   2.889   3.320  12.198  0.4347 -0.2848  0.8079
   69TMC2     C 1055   2.832   3.110  12.558 -0.0830  0.1498 -0.2633
   69TMC2     O 1056   2.733   3.037  12.568 -0.9476 -0.2179  0.2517
   69TMC2     H 1057   2.654   3.258  12.443  0.9029  1.3451  0.8272
   69TMC2    H1 1058   3.055   3.125  12.416 -0.8598 -1.4233 -0.2935
   69TMC2    H2 1059   2.902   3.371  12.103 -0.3408 -2.5428 -0.5007
   69TMC2    C7 1060   3.118   3.262  12.197 -0.0443 -0.5740 -0.1692
   69TMC2    C8 1061   2.658   3.389  12.211  0.0876  0.3965 -0.5227
   69TMC2    O1 1062   3.202   3.179  12.227 -0.0829 -0.3474  0.0662
   69TMC2    O2 1063   2.561   3.411  12.282 -0.4934  0.2115 -0.1811
   69TMC2    O5 1064   2.658   3.316  12.095 -0.3828 -0.2057 -0.6146
   69TMC2    H5 1065   2.745   3.302  12.052 -0.4591 -0.6376 -0.6292
   70MPD2     C 1066   3.029   3.144  12.859 -0.4770  0.1557 -0.4708
   70MPD2    C1 1067   2.929   3.089  12.785 -0.0754  0.3297  0.5332
   70MPD2    C2 1068   2.829   3.011  12.839 -0.5971 -0.0988 -0.5260
   70MPD2    C3 1069   2.830   2.987  12.973 -0.2205 -0.2489  0.2336
   70MPD2    C4 1070   2.928   3.047  13.052  0.2315  0.7619  0.0949
   70MPD2    C5 1071   3.024   3.119  12.994  0.0202  0.2345 -0.3409
   70MPD2     H 1072   2.753   2.966  12.777 -0.6660 -2.0704  0.9732
   70MPD2    H1 1073   2.910   3.047  13.159 -1.3365 -0.7837 -0.1771
   70MPD2    H2 1074   3.109   3.209  12.824 -1.2747  1.4154  0.0281
   70MPD2    H3 1075   3.106   3.162  13.051  0.9518 -1.9753 -0.0131
   70MPD2     N 1076   2.745   2.895  13.046 -0.2169 -0.1643 -0.2624
   70MPD2    H5 1077   2.772   2.865  13.139 -1.5149  0.8416  0.4234
   70MPD2    N1 1078   2.925   3.138  12.652  0.5298 -0.2269 -1.0209
   70MPD2    H7 1079   3.008   3.190  12.628 -0.5790  1.5794 -0.9307
   71TMC2    C1 1080   1.956   0.259   1.682  0.3493  0.1026 -0.2278
   71TMC2    C2 1081   2.069   0.240   1.757  0.4817 -0.4019  0.3158
   71TMC2    C3 1082   2.072   0.290   1.885  0.0643  0.0178  0.0930
   71TMC2    C4 1083   1.849   0.326   1.727 -1.3367  0.0337 -0.1145
   71TMC2    C5 1084   1.857   0.384   1.853  0.3931  0.1677  0.2375
   71TMC2    C6 1085   1.967   0.358   1.935  0.1132  0.3011  0.1667
   71TMC2     C 1086   1.970   0.232   1.535  0.6908 -0.0459 -0.0605
   71TMC2     O 1087   1.865   0.220   1.474 -0.2526 -0.8268  0.4145
   71TMC2     H 1088   2.141   0.164   1.730  1.8594  0.8674  0.4374
   71TMC2    H1 1089   1.767   0.338   1.658 -1.9646  0.2040  0.6578
   71TMC2    H2 1090   1.965   0.390   2.038 -0.4155 -1.8952  0.8394
   71TMC2    C7 1091   1.734   0.429   1.920  0.9090 -0.5512 -0.0878
   71TMC2    C8 1092   2.143   0.200   1.972 -0.1195 -0.2347 -0.4823
   71TMC2    O1 1093   1.753   0.483   2.030  0.0947 -0.4359 -0.7131
   71TMC2    O2 1094   2.169   0.083   1.942  0.2458 -0.3255 -0.1048
   71TMC2    O5 1095   2.165   0.256   2.089 -0.1163  0.0379 -0.1899
   71TMC2    H5 1096   2.169   0.354   2.086  1.1613 -0.0179 -0.3334
   72MPD2     C 1097   2.261   0.177   1.119 -0.3119 -0.3702 -0.5159
   72MPD2    C1 1098   2.121   0.174   1.126 -0.1135 -0.4703  0.4103
   72MPD2    C2 1099   2.063   0.172   1.254  0.5630  0.0800 -0.1086
   72MPD2    C3 1100   2.145   0.201   1.360  0.8184  0.6019  0.0841
   72MPD2    C4 1101   2.285   0.203   1.347 -0.1378 -0.1259 -0.1202
   72MPD2    C5 1102   2.339   0.178   1.228 -0.4158 -0.4763  0.2644
   72MPD2     H 1103   1.958   0.157   1.276  0.9480 -1.3628  0.6766
   72MPD2    H1 1104   2.344   0.212   1.437  1.1528  0.4365 -1.0171
   72MPD2    H2 1105   2.311   0.168   1.023  0.3088 -0.1277 -0.2141
   72MPD2    H3 1106   2.445   0.165   1.214 -0.0253 -0.5048  3.2266
   72MPD2     N 1107   2.102   0.226   1.495 -0.4690  0.4030 -0.4276
   72MPD2    H5 1108   2.170   0.248   1.567 -0.6653  0.5181 -0.2796
   72MPD2    N1 1109   2.033   0.166   1.013  0.0826  0.2017 -0.5128
   72MPD2    H7 1110   1.934   0.169   1.034  0.8386 -1.5866  3.3239
   73TMC2    C1 1111   0.478   0.629  13.904  0.3164 -0.0417  0.1909
   73TMC2    C2 1112   0.426   0.633  14.036  0.2615  0.2004 -0.4305
   73TMC2    C3 1113   0.480   0.542  14.122  0.2165 -0.4819 -0.3377
   73TMC2    C4 1114   0.578   0.538  13.873  0.2455  0.4078  0.5480
   73TMC2    C5 1115   0.636   0.465  13.968  0.2274 -0.1208 -0.1699
   73TMC2    C6 1116   0.588   0.463  14.094 -0.0675  0.2510  0.0403
   73TMC2     C 1117   0.499   0.753  13.835 -0.0569 -0.7505  1.0037
   73TMC2     O 1118   0.611   0.779  13.804 -0.2626 -0.2391 -1.1624
   73TMC2     H 1119   0.338   0.688  14.068 -1.0971 -1.6418 -0.9882
   73TMC2    H1 1120   0.616   0.529  13.771 -1.6796 -1.8764  0.0313
   73TMC2    H2 1121   0.643   0.414  14.173  1.4639  1.8154 -0.0519
   73TMC2    C7 1122   0.781   0.491  13.972 -0.6916  0.7357 -1.5242
   73TMC2    C8 1123   0.470   0.573  14.262  0.1398 -0.6412  0.3000
   73TMC2    O1 1124   0.855   0.422  14.044  0.5921  0.8170 -0.7315
   73TMC2    O2 1125   0.413   0.675  14.300  0.0430  1.0170  0.0937
   73TMC2    O5 1126   0.442   0.449  14.320 -1.0818 -0.1392  0.4203
   73TMC2    H5 1127   0.491   0.367  14.299  0.8775  0.9792  0.6230
   74MPD2     C 1128   0.378   1.222  13.699  0.4270  0.2444 -0.1051
   74MPD2    C1 1129   0.498   1.163  13.739  0.7677 -0.3049 -0.2946
   74MPD2    C2 1130   0.501   1.029  13.778 -0.2243 -0.1190 -0.4910
   74MPD2    C3 1131   0.389   0.962  13.784 -0.1193 -0.5724 -0.2178
   74MPD2    C4 1132   0.269   1.020  13.749 -0.1486  0.8783 -0.7108
   74MPD2    C5 1133   0.261   1.147  13.706  0.3244 -0.1030 -0.2469
   74MPD2     H 1134   0.599   0.987  13.800 -0.8794 -1.2890  0.2192
   74MPD2    H1 1135   0.173   0.974  13.769  0.6119 -0.6913 -0.6557
   74MPD2    H2 1136   0.367   1.328  13.679  0.0553  0.1005 -0.6841
   74MPD2    H3 1137   0.161   1.190  13.699 -0.2587 -1.8531 -2.4849
   74MPD2     N 1138   0.385   0.830  13.822 -0.1801  0.0519  0.7868
   74MPD2    H5 1139   0.295   0.793  13.853  0.3936 -2.1218 -0.1140
   74MPD2    N1 1140   0.602   1.248  13.761  1.1055 -0.4088  0.4865
   74MPD2    H7 1141   0.600   1.341  13.721  0.8253 -0.9970 -0.8926
   75TCq2    C1 1142   0.818   1.994  13.942 -0.1045 -0.2443  0.5683
   75TCq2    O2 1143   0.867   1.942  13.844 -0.4603 -0.5497 -0.1784
   75TCq2    C2 1144   0.674   2.012  13.948 -0.7005  0.2882 -1.3362
   75TCq2    C3 1145   0.626   2.047  14.071  0.2017  0.0061  0.5035
   75TCq2    C4 1146   0.502   2.092  14.068 -0.2960  0.0603 -0.2203
   75TCq2    C5 1147   0.414   2.095  13.961 -0.1134 -0.3674  0.2791
   75TCq2    C6 1148   0.471   2.054  13.846  0.0391 -0.5950 -0.9540
   75TCq2    C7 1149   0.599   2.010  13.839  0.0865 -0.0089  0.4515
   75TCq2    C8 1150   0.399   2.062  13.718 -0.4445  0.4939  0.0523
   75TCq2    O4 1151   0.433   1.979  13.634 -0.3993 -0.1106 -0.0452
   75TCq2    C9 1152   0.443   2.115  14.197 -0.9552  0.4590 -0.3051
   75TCq2    O5 1153   0.328   2.162  14.185 -0.5284 -0.0381 -0.2427
   75TCq2    O6 1154   0.508   2.101  14.305 -0.1025 -0.3298  0.4245
   75TCq2    H2 1155   0.683   2.050  14.163  0.4144  0.0130  0.3702
   75TCq2    H3 1156   0.309   2.123  13.962  0.2121  1.0285 -3.6125
   75TCq2    H4 1157   0.648   1.992  13.744 -0.5374  1.4455 -0.1455
   76MPD2     C 1158   4.209   2.817  12.199 -0.6914 -0.0440 -0.1397
   76MPD2    C1 1159   4.162   2.749  12.089  0.6207  0.0844 -0.1062
   76MPD2    C2 1160   4.223   2.620  12.072 -0.1797 -0.5797  0.0123
   76MPD2    C3 1161   4.312   2.563  12.159  0.6004 -1.1910 -0.1545
   76MPD2    C4 1162   4.344   2.638  12.267  0.5329  0.8044  0.4807
   76MPD2    C5 1163   4.293   2.761  12.284 -0.1506 -0.7481 -0.0440
   76MPD2     H 1164   4.201   2.569  11.978 -0.6908 -1.5003  0.6352
   76MPD2    H1 1165   4.430   2.614  12.329  0.8484  2.9451  0.8746
   76MPD2    H2 1166   4.182   2.919  12.226 -2.4650 -0.5649  0.1060
   76MPD2    H3 1167   4.336   2.826  12.359  0.8443  0.3349 -1.5614
   76MPD2     N 1168   4.379   2.437  12.146 -0.1002  0.2520  0.3153
   76MPD2    H5 1169   4.433   2.409  12.228  0.0268 -0.3795  0.0112
   76MPD2    N1 1170   4.067   2.803  11.999 -0.3948 -0.6547  0.1476
   76MPD2    H7 1171   4.031   2.757  11.916  1.7074  1.1756 -1.7492
   77TCq2    C1 1172   4.369   2.358  12.036  0.2588 -0.1287 -0.4126
   77TCq2    O2 1173   4.311   2.384  11.930 -0.4437  0.1080  0.0718
   77TCq2    C2 1174   4.419   2.220  12.058 -0.0290 -0.0909  0.6226
   77TCq2    C3 1175   4.342   2.111  12.011  0.4772  0.3781  0.9248
   77TCq2    C4 1176   4.378   1.985  12.050 -0.1892  0.0887  0.6185
   77TCq2    C5 1177   4.487   1.966  12.128 -0.6281  0.4464 -0.3164
   77TCq2    C6 1178   4.550   2.073  12.180 -0.0573 -0.0044 -0.1573
   77TCq2    C7 1179   4.518   2.199  12.146 -0.0235 -0.4557  0.8510
   77TCq2    C8 1180   4.677   2.042  12.250  0.1605 -0.5383 -0.5569
   77TCq2    O4 1181   0.002   1.929  12.234  0.6210  0.0640  0.2410
   77TCq2    C9 1182   4.289   1.884  12.003 -0.3776  1.0828  0.3982
   77TCq2    O5 1183   4.185   1.913  11.943 -0.3085 -0.5574 -0.5196
   77TCq2    O6 1184   4.328   1.765  12.012 -0.1279 -0.3903  0.5694
   77TCq2    H2 1185   4.262   2.133  11.942  0.1886 -0.8088  0.8708
   77TCq2    H3 1186   4.496   1.869  12.176  0.9236  1.3039  1.1387
   77TCq2    H4 1187   4.576   2.286  12.173 -3.0173  1.9650 -0.5774
   78MPD1     C 1188   1.568   2.459   2.198 -0.5266 -0.1873  0.6526
   78MPD1    C1 1189   1.606   2.528   2.318 -0.4573 -0.2584 -0.6521
   78MPD1    C2 1190   1.724   2.487   2.384  1.1470  0.8558 -1.1985
   78MPD1    C3 1191   1.801   2.382   2.339  0.0960 -0.2976 -0.0623
   78MPD1    C4 1192   1.767   2.323   2.217  1.3001 -0.0704 -1.0589
   78MPD1    C5 1193   1.650   2.363   2.156 -0.3676  0.0584 -0.6186
   78MPD1     H 1194   1.758   2.539   2.472  0.6475 -0.4983 -0.2057
   78MPD1    H1 1195   1.826   2.244   2.173 -0.1456 -1.8704  0.2217
   78MPD1    H2 1196   1.483   2.486   2.137 -0.0268 -1.6858 -0.7061
   78MPD1    H3 1197   1.635   2.322   2.057 -0.6661 -1.1810 -0.0513
   78MPD1     N 1198   1.918   2.329   2.397 -0.2699  0.3978 -0.1115
   78MPD1    H5 1199   1.962   2.254   2.344  2.7863  0.6043  2.1632
   78MPD1    N1 1200   1.524   2.619   2.378 -0.5388  0.0670  0.6017
   78MPD1    H6 1201   1.574   2.684   2.439 -0.8534  1.8528 -1.0366
   78MPD1    H7 1202   1.484   2.668   2.299 -0.8815 -2.3651 -0.7362
   79TCq2    C1 1203   1.970   2.366   2.519  0.2278 -0.5600 -0.4640
   79TCq2    O2 1204   1.941   2.465   2.581 -0.0488  0.2305 -0.0203
   79TCq2    C2 1205   2.092   2.303   2.561  0.3758 -0.5900  0.0187
   79TCq2    C3 1206   2.144   2.194   2.501 -0.7572  0.2286 -0.3886
   79TCq2    C4 1207   2.269   2.156   2.535 -0.1190  0.3310  0.2423
   79TCq2    C5 1208   2.344   2.233   2.624 -0.0347 -0.3903 -0.1230
   79TCq2    C6 1209   2.296   2.346   2.672 -0.1605 -0.1128 -0.6771
   79TCq2    C7 1210   2.163   2.382   2.650  0.4058  0.2169 -0.2385
   79TCq2    C8 1211   2.373   2.423   2.768  0.1976 -0.5217 -0.0135
   79TCq2    O4 1212   2.481   2.371   2.801  0.3791  0.1225 -0.1978
   79TCq2    C9 1213   2.323   2.021   2.500  0.0999 -0.0217 -0.6433
   79TCq2    O5 1214   2.423   1.984   2.564  0.0739  0.1574 -1.0117
   79TCq2    O6 1215   2.251   1.949   2.427 -0.1617  0.6437 -0.1252
   79TCq2    H2 1216   2.089   2.136   2.428 -0.1970 -1.4987  0.5632
   79TCq2    H3 1217   2.439   2.191   2.655  1.2232  1.7919 -0.9968
   79TCq2    H4 1218   2.115   2.458   2.709 -0.1133  0.3804 -0.8765
   80MPD2     C 1219   3.509   2.018  12.432 -0.0778  0.8297 -0.3221
   80MPD2    C1 1220   3.417   2.071  12.345  0.2390 -0.7665  0.3698
   80MPD2    C2 1221   3.297   2.123  12.399  0.3732 -0.1877 -0.0660
   80MPD2    C3 1222   3.277   2.116  12.535  0.0392 -0.1391 -0.4253
   80MPD2    C4 1223   3.367   2.050  12.612 -0.0863  0.2871  0.2159
   80MPD2    C5 1224   3.478   1.986  12.561 -0.1953  0.2049  0.1875
   80MPD2     H 1225   3.228   2.167  12.327  0.6044  0.5879  0.1863
   80MPD2    H1 1226   3.359   2.048  12.720 -1.0312  4.4071  0.2252
   80MPD2    H2 1227   3.600   1.973  12.395 -0.0053  1.6114 -1.0983
   80MPD2    H3 1228   3.550   1.935  12.625  3.7226  3.2477 -1.7443
   80MPD2     N 1229   3.159   2.155  12.601  0.3437  0.6873 -0.2159
   80MPD2    H5 1230   3.152   2.143  12.702  0.2681  0.6791 -0.2225
   80MPD2    N1 1231   3.437   2.087  12.206 -0.6236 -0.5366  0.0437
   80MPD2    H7 1232   3.365   2.133  12.151 -2.2028 -3.1728 -0.1043
   81TCq2    C1 1233   3.550   2.062  12.137 -0.5642 -0.0552  0.0315
   81TCq2    O2 1234   3.661   2.043  12.182 -0.2143  0.5128 -0.3639
   81TCq2    C2 1235   3.533   2.098  11.996  0.3095  0.1683 -0.1079
   81TCq2    C3 1236   3.615   2.195  11.942  0.0337 -0.6568 -0.0761
   81TCq2    C4 1237   3.586   2.235  11.818 -0.1000  0.3061 -0.7313
   81TCq2    C5 1238   3.467   2.203  11.760  0.2330  0.4111 -0.4742
   81TCq2    C6 1239   3.373   2.120  11.824  0.2507 -0.2687  0.2302
   81TCq2    C7 1240   3.409   2.067  11.945 -0.1904  0.6405  0.3462
   81TCq2    C8 1241   3.253   2.075  11.753 -0.2707 -0.6228 -0.5056
   81TCq2    O4 1242   3.233   2.132  11.644  0.3053  0.0785  0.7112
   81TCq2    C9 1243   3.667   2.323  11.744 -0.1360 -0.7320 -0.0071
   81TCq2    O5 1244   3.622   2.387  11.649 -0.4751  0.2016  0.4667
   81TCq2    O6 1245   3.787   2.342  11.783 -0.7847  0.1852 -0.2762
   81TCq2    H2 1246   3.709   2.223  11.987 -0.1039 -0.9806  0.4220
   81TCq2    H3 1247   3.446   2.242  11.661  0.3084 -0.8387 -0.9755
   81TCq2    H4 1248   3.349   1.987  11.988 -0.9832  0.4717 -1.0652
   82MPD2     C 1249   1.573   2.203  10.289 -0.4598 -0.1657 -0.2545
   82MPD2    C1 1250   1.485   2.127  10.365  0.1833 -0.6492  0.4417
   82MPD2    C2 1251   1.537   2.029  10.441  0.4827 -0.2884 -0.5001
   82MPD2    C3 1252   1.669   2.008  10.459 -0.4856 -0.1554 -0.8408
   82MPD2    C4 1253   1.761   2.092  10.395  0.6804  0.0967  0.4297
   82MPD2    C5 1254   1.711   2.185  10.309  0.0153 -0.1145 -0.1255
   82MPD2     H 1255   1.469   1.959  10.488  0.3643  1.2616  1.6454
   82MPD2    H1 1256   1.866   2.070  10.405  0.6691 -0.5526 -0.8088
   82MPD2    H2 1257   1.548   2.281  10.219 -2.2578  0.5498  1.1807
   82MPD2    H3 1258   1.773   2.259  10.260 -0.2351  2.0221  2.8440
   82MPD2     N 1259   1.724   1.901  10.537 -0.2034 -0.3275 -0.3192
   82MPD2    H5 1260   1.815   1.927  10.574 -0.2197 -1.7148  0.7263
   82MPD2    N1 1261   1.342   2.152  10.352  0.0750 -0.2320 -0.0380
   82MPD2    H7 1262   1.320   2.237  10.300  0.7556  1.3520  2.2679
   83TCq2    C1 1263   1.657   1.784  10.565  0.5290  0.5892 -0.6165
   83TCq2    O2 1264   1.559   1.734  10.517  0.1011 -0.5368 -0.6070
   83TCq2    C2 1265   1.712   1.707  10.678  0.6628 -0.3873 -0.2092
   83TCq2    C3 1266   1.741   1.781  10.788  0.0073 -0.3303 -0.1286
   83TCq2    C4 1267   1.788   1.713  10.899 -0.6808 -0.2281 -0.2221
   83TCq2    C5 1268   1.772   1.581  10.913  0.2871 -0.2461 -0.5567
   83TCq2    C6 1269   1.732   1.514  10.803  0.2491  0.5698  0.2069
   83TCq2    C7 1270   1.715   1.571  10.680 -0.4468 -0.0848  0.0890
   83TCq2    C8 1271   1.722   1.375  10.812 -0.1783  0.1502 -0.1239
   83TCq2    O4 1272   1.765   1.303  10.724 -0.6007  0.1490 -0.3190
   83TCq2    C9 1273   1.812   1.793  11.019  0.2930 -0.9694 -0.1108
   83TCq2    O5 1274   1.842   1.918  11.005  0.8453  0.3027  0.8897
   83TCq2    O6 1275   1.838   1.738  11.125 -0.3541 -0.7237 -0.0452
   83TCq2    H2 1276   1.746   1.889  10.782 -0.0113 -0.3634 -0.8085
   83TCq2    H3 1277   1.776   1.544  11.015  0.7932  2.8710  0.5337
   83TCq2    H4 1278   1.683   1.509  10.597 -2.6348  1.0370  0.0923
   84TCq2    C1 1279   3.090   0.744  10.325  0.1966  0.3117  0.5056
   84TCq2    O2 1280   3.006   0.659  10.303  0.1627  0.3367  1.3194
   84TCq2    C2 1281   3.137   0.763  10.460 -0.2191 -0.4740  0.2787
   84TCq2    C3 1282   3.252   0.841  10.487  0.0071 -0.5251 -0.0748
   84TCq2    C4 1283   3.276   0.871  10.613  0.4039  0.0199  0.8276
   84TCq2    C5 1284   3.189   0.840  10.711 -0.2719 -0.9424  0.1602
   84TCq2    C6 1285   3.084   0.755  10.685 -0.6194 -0.5553 -0.5102
   84TCq2    C7 1286   3.058   0.712  10.558  0.9392  0.0322 -0.3457
   84TCq2    C8 1287   2.998   0.722  10.798 -0.3118 -0.5574  0.1853
   84TCq2    O4 1288   3.028   0.756  10.910  0.4512  0.8334  0.0544
   84TCq2    C9 1289   3.394   0.940  10.646  0.0510  0.1886  0.6226
   84TCq2    O5 1290   3.414   0.969  10.769  0.1860 -0.2591  0.6298
   84TCq2    O6 1291   3.464   0.992  10.554 -0.3853  0.5165  0.1941
   84TCq2    H2 1292   3.328   0.858  10.411  1.8749  0.4358  1.9845
   84TCq2    H3 1293   3.217   0.874  10.810  0.4287  2.4894 -1.2095
   84TCq2    H4 1294   2.984   0.640  10.529  0.4210  0.4716 -0.1234
   85MPD2     C 1295   2.619   3.502  16.561 -0.3357  0.2189  0.0375
   85MPD2    C1 1296   2.745   3.441  16.546 -0.0439 -0.2355  0.9067
   85MPD2    C2 1297   2.850   3.524  16.534  0.1081  0.6153 -0.1508
   85MPD2    C3 1298   2.846   3.666  16.529 -0.1479  0.2552  0.2655
   85MPD2    C4 1299   2.719   3.722  16.553  0.8406  0.3402  0.1158
   85MPD2    C5 1300   2.609   3.642  16.575 -0.1989  0.0235  0.6551
   85MPD2     H 1301   2.948   3.478  16.542 -0.3001 -0.2717 -0.2355
   85MPD2    H1 1302   2.696   3.827  16.562  0.0510  0.0270  1.6266
   85MPD2    H2 1303   2.526   3.448  16.569 -0.7712  1.2898  2.2663
   85MPD2    H3 1304   2.515   3.688  16.603 -1.3936 -2.6839  1.0490
   85MPD2     N 1305   2.961   3.738  16.509 -0.3384  0.6773 -0.2396
   85MPD2    H5 1306   3.046   3.688  16.485  0.3345  2.4601 -1.6005
   85MPD2    N1 1307   2.764   3.303  16.557  0.0891  0.9501  0.2546
   85MPD2    H7 1308   2.858   3.267  16.545 -0.2140 -0.7490  3.0503
   86TCq2    C1 1309   2.971   3.873  16.524  0.2558  0.4362  0.0591
   86TCq2    O2 1310   2.895   3.946  16.587 -0.4789 -0.1395 -0.5473
   86TCq2    C2 1311   3.100   3.919  16.493 -0.0490  0.5596  0.2503
   86TCq2    C3 1312   3.133   4.041  16.554  0.2166 -0.7505  0.2805
   86TCq2    C4 1313   3.213   4.122  16.487 -0.2112  0.0318 -0.9757
   86TCq2    C5 1314   3.268   4.080  16.371 -0.0570 -0.0094  0.6966
   86TCq2    C6 1315   3.230   3.962  16.315  0.0773  0.2376  0.3289
   86TCq2    C7 1316   3.154   3.875  16.377  0.3039 -0.5753  0.6156
   86TCq2    C8 1317   3.272   3.940  16.186 -0.3813  0.1603  0.0574
   86TCq2    O4 1318   3.388   3.947  16.156  0.2512  0.0969  0.1684
   86TCq2    C9 1319   3.259   4.247  16.537  0.0926  0.0738 -0.2631
   86TCq2    O5 1320   3.337   4.321  16.468 -0.2005 -0.0387  0.0485
   86TCq2    O6 1321   3.239   4.272  16.656  0.3394 -0.2439  0.2310
   86TCq2    H2 1322   3.092   4.067  16.651 -0.4816  2.3560 -0.8312
   86TCq2    H3 1323   3.325   4.151  16.312  0.1473 -0.6564  0.1176
   86TCq2    H4 1324   3.131   3.778  16.334  0.1131  0.5079 -1.7073
   87MPD2     C 1325   0.183   2.934   1.672 -0.3415 -0.4372  0.0732
   87MPD2    C1 1326   0.242   2.866   1.566  0.7035 -0.2267  0.8151
   87MPD2    C2 1327   0.205   2.891   1.438  0.1581 -0.3427 -0.4525
   87MPD2    C3 1328   0.114   2.984   1.402  0.4483 -0.4549 -0.1517
   87MPD2    C4 1329   0.056   3.065   1.502  0.1540  0.2474 -0.0335
   87MPD2    C5 1330   0.092   3.034   1.630 -0.1925  0.6828  0.1677
   87MPD2     H 1331   0.241   2.831   1.355  1.8488  0.2081 -0.1249
   87MPD2    H1 1332   4.706   3.143   1.479 -0.1789 -0.0783 -0.1011
   87MPD2    H2 1333   0.206   2.916   1.776 -0.4137  0.8428  0.3063
   87MPD2    H3 1334   0.055   3.094   1.713 -1.3719 -0.6565  0.6076
   87MPD2     N 1335   0.067   2.985   1.272  0.2098 -0.2569 -0.3117
   87MPD2    H5 1336   0.110   2.917   1.210 -3.7650 -1.6693 -1.5007
   87MPD2    N1 1337   0.328   2.757   1.604  0.7169  0.2567 -0.0763
   87MPD2    H7 1338   0.342   2.735   1.702  0.5841 -2.2476 -0.6042
   88TCq2    C1 1339   0.385   2.673   1.512 -0.5497  0.1656 -0.1369
   88TCq2    O2 1340   0.397   2.673   1.391  0.0041  0.5393 -0.2101
   88TCq2    C2 1341   0.470   2.582   1.585  0.2533 -0.1365 -0.8257
   88TCq2    C3 1342   0.414   2.496   1.676  0.2678 -0.2497  0.0300
   88TCq2    C4 1343   0.489   2.382   1.708 -0.4133  0.5477  0.2622
   88TCq2    C5 1344   0.602   2.350   1.643 -0.4845 -0.1747  0.0349
   88TCq2    C6 1345   0.646   2.440   1.543 -0.1397  0.4525 -0.6828
   88TCq2    C7 1346   0.583   2.550   1.512 -0.6449  0.2920  0.0196
   88TCq2    C8 1347   0.741   2.390   1.437  0.1815  0.4897  0.0857
   88TCq2    O4 1348   0.753   2.458   1.334 -0.2026  0.7134  0.0383
   88TCq2    C9 1349   0.430   2.288   1.801 -0.0436 -0.2707  0.1578
   88TCq2    O5 1350   0.507   2.201   1.853 -0.4808  0.2859 -0.3214
   88TCq2    O6 1351   0.310   2.302   1.838  0.0961 -0.2172  0.3281
   88TCq2    H2 1352   0.316   2.508   1.722 -0.6423  0.5695 -2.1200
   88TCq2    H3 1353   0.638   2.252   1.669 -1.0961 -0.8664 -1.7080
   88TCq2    H4 1354   0.631   2.619   1.442  3.0469 -2.3350 -0.0359
   89MPD2     C 1355   1.362   1.245   2.258  0.2113 -0.4772 -0.3382
   89MPD2    C1 1356   1.299   1.205   2.141 -0.8340  0.5254  0.4298
   89MPD2    C2 1357   1.379   1.183   2.031 -0.8816  0.2637 -0.2377
   89MPD2    C3 1358   1.514   1.195   2.029 -0.1426  0.0669  0.2436
   89MPD2    C4 1359   1.576   1.247   2.146  0.3355  0.2395  0.4488
   89MPD2    C5 1360   1.501   1.260   2.259  0.6488 -0.3500 -0.3303
   89MPD2     H 1361   1.322   1.140   1.950  0.2584  1.8061 -1.8384
   89MPD2    H1 1362   1.683   1.265   2.153  0.4825 -0.4093 -0.1613
   89MPD2    H2 1363   1.299   1.245   2.346  0.3430  1.3611 -0.2459
   89MPD2    H3 1364   1.541   1.286   2.357  0.2287 -0.1195 -0.2180
   89MPD2     N 1365   1.574   1.166   1.910 -0.3898 -0.2437  0.2808
   89MPD2    H5 1366   1.523   1.134   1.828 -1.4713 -0.9663  1.2411
   89MPD2    N1 1367   1.160   1.184   2.128  0.5364 -0.0924  0.0300
   89MPD2    H7 1368   1.126   1.161   2.035  0.1921 -1.2084  0.4322
   90TCq2    C1 1369   1.710   1.179   1.886  0.7160  0.0253 -0.4681
   90TCq2    O2 1370   1.804   1.213   1.961  0.5017  0.4927 -0.2190
   90TCq2    C2 1371   1.750   1.159   1.748  0.2217 -0.5615  0.1415
   90TCq2    C3 1372   1.658   1.119   1.659 -0.0888  0.5940 -0.0357
   90TCq2    C4 1373   1.705   1.080   1.538  0.7882 -0.0393  0.8144
   90TCq2    C5 1374   1.832   1.098   1.502 -0.8975 -0.3644  0.1101
   90TCq2    C6 1375   1.924   1.134   1.594 -0.3777  0.1410 -0.5111
   90TCq2    C7 1376   1.886   1.151   1.723  0.5675  0.4204  0.4893
   90TCq2    C8 1377   2.062   1.095   1.583 -0.2227  0.3241  0.2196
   90TCq2    O4 1378   2.117   1.052   1.683  0.1747  0.6031 -0.1854
   90TCq2    C9 1379   1.606   1.025   1.449 -0.5941  0.2816  0.4488
   90TCq2    O5 1380   1.487   1.060   1.461 -0.1689 -0.6174  0.5255
   90TCq2    O6 1381   1.645   0.972   1.341 -0.2594  0.4121 -0.0738
   90TCq2    H2 1382   1.552   1.111   1.682  0.2848  1.8214  2.1446
   90TCq2    H3 1383   1.859   1.069   1.401  0.8026 -0.1514  0.4930
   90TCq2    H4 1384   1.960   1.189   1.793  0.0500 -1.4539  2.0505
   91TMC2    C1 1385   3.737   4.457  16.764  0.6805  0.3157  0.2220
   91TMC2    C2 1386   3.733   4.348  16.684 -0.2503 -0.8618  0.4837
   91TMC2    C3 1387   3.654   4.352  16.571  0.4761 -0.6558 -0.1352
   91TMC2    C4 1388   3.672   4.573  16.738  0.6797  0.4513 -0.3487
   91TMC2    C5 1389   3.575   4.567  16.645 -0.0504  0.8067  0.1534
   91TMC2    C6 1390   3.579   4.464  16.549  0.3977  0.8153  0.0860
   91TMC2     C 1391   3.840   4.459  16.871 -0.4076 -0.4152  1.0201
   91TMC2     O 1392   3.874   4.351  16.914 -0.4752  0.0136  0.1599
   91TMC2     H 1393   3.802   4.265  16.686  1.0838  0.2177 -0.6606
   91TMC2    H1 1394   3.673   4.661  16.800 -0.2369 -0.1406  0.5030
   91TMC2    H2 1395   3.515   4.469  16.462  2.3108  0.0654 -1.3692
   91TMC2    C7 1396   3.508   4.688  16.612 -0.2004 -0.1806 -0.0287
   91TMC2    C8 1397   3.678   4.268  16.453  0.2026 -0.0479 -0.8293
   91TMC2    O1 1398   3.561   0.069  16.653 -0.8447  0.0474 -0.4059
   91TMC2    O2 1399   3.776   4.202  16.441 -0.2719 -0.4452  0.2649
   91TMC2    O5 1400   3.567   4.252  16.378 -0.1229 -0.1114  0.3911
   91TMC2    H5 1401   3.483   4.288  16.413 -0.6315  0.5472 -1.5439
   92MPD2     C 1402   4.023   4.519  17.100 -0.4978 -0.2447 -0.0132
   92MPD2    C1 1403   3.981   4.613  17.007 -0.5502 -0.7620  0.1325
   92MPD2    C2 1404   4.047   0.019  17.007  0.2039 -0.8445  0.1213
   92MPD2    C3 1405   4.147   0.045  17.099  0.9661 -0.2804 -0.6355
   92MPD2    C4 1406   4.177   4.674  17.199 -0.1643  0.4972  0.0182
   92MPD2    C5 1407   4.113   4.555  17.196 -0.2394 -0.2315  0.7912
   92MPD2     H 1408   4.020   0.095  16.934 -1.3490  0.0575  1.6463
   92MPD2    H1 1409   4.253   4.690  17.274 -0.6409 -1.7728  0.9763
   92MPD2    H2 1410   3.992   4.416  17.108  0.7729 -0.7064 -0.9148
   92MPD2    H3 1411   4.143   4.486  17.274 -0.0038  0.0356  0.9386
   92MPD2     N 1412   4.234   0.159  17.078 -0.0658  0.2192  0.1315
   92MPD2    H5 1413   4.204   0.214  16.998  1.5336  0.3906 -0.3440
   92MPD2    N1 1414   3.885   4.585  16.898  0.3420 -0.3197 -0.3132
   92MPD2    H7 1415   3.858   4.657  16.832  2.2541  1.0160  0.3515
   93MPD2     C 1416   0.552   4.318  13.659  0.1385  0.1704 -0.6185
   93MPD2    C1 1417   0.469   4.391  13.744 -0.3700  0.9702 -0.6657
   93MPD2    C2 1418   0.338   4.393  13.719 -0.1296  0.8222 -0.3188
   93MPD2    C3 1419   0.278   4.315  13.623  0.8502 -0.3670  0.5772
   93MPD2    C4 1420   0.361   4.239  13.547  0.1316 -0.1260  0.1088
   93MPD2    C5 1421   0.497   4.241  13.561  0.5400 -0.3195 -1.1432
   93MPD2     H 1422   0.270   4.439  13.789 -1.9118 -2.1526 -0.0498
   93MPD2    H1 1423   0.322   4.174  13.469 -2.1664 -0.8773  1.8750
   93MPD2    H2 1424   0.660   4.321  13.669  0.1606  0.8305 -1.0679
   93MPD2    H3 1425   0.560   4.188  13.490  0.8261 -0.0514 -1.0859
   93MPD2     N 1426   0.137   4.317  13.598 -0.1833 -0.7993 -0.0524
   93MPD2    H5 1427   0.099   4.254  13.529  0.6980 -0.0129 -1.2632
   93MPD2    N1 1428   0.517   4.469  13.849  0.8843 -0.1041 -0.2688
   93MPD2    H7 1429   0.441   4.517  13.897  1.2307  2.4537 -2.3276
   94TCq2    C1 1430   0.650   4.487  13.881  0.9519  0.1402 -0.9904
   94TCq2    O2 1431   0.751   4.445  13.826 -0.0087 -0.5192 -0.2556
   94TCq2    C2 1432   0.676   4.589  13.986  0.4079 -0.4964  0.2922
   94TCq2    C3 1433   0.569   4.652  14.049  0.0460  0.0231 -0.9690
   94TCq2    C4 1434   0.598   0.046  14.108 -0.5255 -0.1469 -0.2205
   94TCq2    C5 1435   0.726   0.105  14.109  0.3555  0.2256  0.2263
   94TCq2    C6 1436   0.829   0.038  14.048  0.2879 -0.2676 -0.0867
   94TCq2    C7 1437   0.806   4.635  13.986  0.0493  0.1448  0.2215
   94TCq2    C8 1438   0.971   0.079  14.046  0.6785  0.1883  0.0339
   94TCq2    O4 1439   1.046   0.007  13.982 -0.0777 -0.2237 -0.2017
   94TCq2    C9 1440   0.494   0.116  14.179 -0.0741  0.3271  0.5342
   94TCq2    O5 1441   0.377   0.066  14.168  0.3667  0.0372  0.0305
   94TCq2    O6 1442   0.525   0.222  14.238  0.6940 -0.2693  0.3028
   94TCq2    H2 1443   0.471   4.610  14.069  0.9319 -1.4307  0.3129
   94TCq2    H3 1444   0.745   0.197  14.162  0.2581 -0.9697  2.3596
   94TCq2    H4 1445   0.881   4.591  13.921 -0.5368 -0.0786 -0.3063
   95TMC2    C1 1446   0.169   1.807  16.159  0.3032  0.6545  0.1754
   95TMC2    C2 1447   0.226   1.815  16.281 -0.4740 -0.0328  0.6439
   95TMC2    C3 1448   0.169   1.758  16.389 -0.5939 -0.5445  0.2496
   95TMC2    C4 1449   0.038   1.767  16.145  0.4852 -0.1533  0.6342
   95TMC2    C5 1450   4.695   1.719  16.260 -0.5716 -1.0568 -0.7744
   95TMC2    C6 1451   0.041   1.705  16.381  0.8054 -0.0617  0.4338
   95TMC2     C 1452   0.266   1.814  16.052  0.1052 -0.4387  0.2793
   95TMC2     O 1453   0.385   1.809  16.082 -0.0230  0.0974  0.4919
   95TMC2     H 1454   0.323   1.861  16.298 -0.2142 -1.0463  1.9149
   95TMC2    H1 1455   4.720   1.765  16.045  1.8162 -0.8855  0.1190
   95TMC2    H2 1456   4.709   1.679  16.471 -2.4111  0.4239 -1.3545
   95TMC2    C7 1457   4.566   1.649  16.246 -0.2170 -0.0096 -0.3600
   95TMC2    C8 1458   0.258   1.737  16.495 -0.4075  0.1211  0.0490
   95TMC2    O1 1459   4.532   1.585  16.344 -0.0455 -0.0673 -0.3037
   95TMC2    O2 1460   0.369   1.693  16.469  0.4796 -0.1286 -0.4893
   95TMC2    O5 1461   0.181   1.694  16.599 -0.6426  0.0394 -0.3382
   95TMC2    H5 1462   0.089   1.727  16.592 -0.8073 -0.0677  1.2798
   96MPD2     C 1463   0.339   1.904  15.550 -0.0990 -0.6076 -0.1871
   96MPD2    C1 1464   0.425   1.867  15.646 -0.0922 -0.1536 -0.0587
   96MPD2    C2 1465   0.383   1.852  15.774 -0.3795 -0.1950  0.1587
   96MPD2    C3 1466   0.251   1.858  15.806 -0.3732  0.0567  0.1582
   96MPD2    C4 1467   0.163   1.897  15.704 -0.0507 -0.7536  1.1225
   96MPD2    C5 1468   0.206   1.922  15.573  0.2472 -0.0431  0.2682
   96MPD2     H 1469   0.449   1.822  15.855  1.9576 -0.3751 -1.8017
   96MPD2    H1 1470   0.056   1.897  15.723 -0.5249 -2.0459 -1.4101
   96MPD2    H2 1471   0.379   1.926  15.451 -0.4255  0.3256 -0.1087
   96MPD2    H3 1472   0.133   1.948  15.497 -1.8803 -0.9859  1.9823
   96MPD2     N 1473   0.203   1.828  15.928 -0.3057 -0.2978  0.1266
   96MPD2    H5 1474   0.101   1.824  15.922 -0.0246 -2.4541 -3.1005
   96MPD2    N1 1475   0.561   1.871  15.609  0.1940 -0.6014  0.2401
   96MPD2    H7 1476   0.580   1.909  15.516 -0.1841  1.1959  0.8889
   97MPD2     C 1477   3.198   0.003   1.335  0.4117  0.3296  0.1829
   97MPD2    C1 1478   3.081   4.659   1.329 -0.3706  0.0154 -0.0815
   97MPD2    C2 1479   3.025   4.642   1.201 -0.5225  0.2524 -0.3034
   97MPD2    C3 1480   3.068   4.704   1.087  0.1274 -0.5920  0.2188
   97MPD2    C4 1481   3.179   0.056   1.101 -0.2652 -0.2621 -0.1372
   97MPD2    C5 1482   3.246   0.062   1.219 -0.1926  0.4782  0.1665
   97MPD2     H 1483   2.932   4.585   1.194  0.0150 -0.8227  1.2813
   97MPD2    H1 1484   3.225   0.107   1.017 -2.6336  0.8862 -0.7354
   97MPD2    H2 1485   3.252   0.027   1.426 -0.3483 -0.8458  0.9497
   97MPD2    H3 1486   3.341   0.115   1.226  0.5822 -0.8105 -0.6030
   97MPD2     N 1487   3.006   4.694   0.954  0.4451 -0.9219  0.0416
   97MPD2    H5 1488   3.040   0.036   0.884  0.8563 -2.3200 -1.0468
   97MPD2    N1 1489   3.018   4.616   1.442  0.3382  0.4990  0.1444
   97MPD2    H7 1490   3.059   4.641   1.531  0.2311  0.0256  0.3240
   98TCq2    C1 1491   2.890   4.630   0.920 -0.8656 -0.4026  0.1484
   98TCq2    O2 1492   2.818   4.562   0.991 -0.6848  0.5362 -0.5474
   98TCq2    C2 1493   2.864   4.639   0.780 -0.0034  0.3114 -0.1589
   98TCq2    C3 1494   2.729   4.625   0.753 -0.1954  0.6147 -0.5020
   98TCq2    C4 1495   2.690   4.654   0.623 -0.1775  0.2898 -0.1777
   98TCq2    C5 1496   2.772   4.695   0.526  0.4088 -0.3826  0.4589
   98TCq2    C6 1497   2.901   4.713   0.560  0.5291 -0.0969  0.3433
   98TCq2    C7 1498   2.953   4.678   0.685  0.0240 -0.2784 -0.1803
   98TCq2    C8 1499   2.995   0.036   0.458 -0.7214  0.1397 -0.2839
   98TCq2    O4 1500   3.096   0.093   0.498 -0.3363  0.0736 -0.3286
   98TCq2    C9 1501   2.551   4.642   0.586 -0.2505  0.8385  0.3007
   98TCq2    O5 1502   2.469   4.670   0.681 -0.1662  0.1777  0.1738
   98TCq2    O6 1503   2.523   4.632   0.459  0.5141  0.7580  0.1734
   98TCq2    H2 1504   2.651   4.606   0.826 -0.8698  1.3498 -1.0324
   98TCq2    H3 1505   2.732   4.710   0.426  1.6075  1.4359  0.2634
   98TCq2    H4 1506   3.061   4.678   0.696  0.0380  1.2835 -0.2958
   99MPD2     C 1507   1.855   1.473   1.764 -0.5488 -0.2177 -0.2278
   99MPD2    C1 1508   1.730   1.502   1.730  0.1221  0.2041 -0.4346
   99MPD2    C2 1509   1.701   1.513   1.597  0.2644  0.7889  0.5682
   99MPD2    C3 1510   1.807   1.505   1.503 -0.0864 -1.2620  0.5038
   99MPD2    C4 1511   1.935   1.487   1.541  0.1566  0.1033 -0.2897
   99MPD2    C5 1512   1.957   1.464   1.673 -0.6974  0.0714  0.0403
   99MPD2     H 1513   1.600   1.521   1.558 -0.2021 -0.9599  1.4277
   99MPD2    H1 1514   2.019   1.481   1.473 -1.0520 -2.7567 -1.5267
   99MPD2    H2 1515   1.876   1.444   1.866  2.1010 -1.5503 -1.1207
   99MPD2    H3 1516   2.058   1.433   1.700 -1.4795 -1.0621  1.6157
   99MPD2     N 1517   1.768   1.525   1.366 -0.3441 -0.2619  0.4790
   99MPD2    H5 1518   1.668   1.542   1.356 -0.0220  0.7651 -1.0579
   99MPD2    N1 1519   1.625   1.512   1.822  0.0367 -0.0966  0.2750
   99MPD2    H7 1520   1.534   1.530   1.781  0.8481  0.9620 -1.0570
  100TCq2    C1 1521   1.637   1.529   1.958 -0.8333  0.8102 -0.2114
  100TCq2    O2 1522   1.742   1.543   2.025 -0.3880 -0.0970 -0.6028
  100TCq2    C2 1523   1.510   1.560   2.029 -0.1787 -0.7273 -0.3914
  100TCq2    C3 1524   1.514   1.604   2.159  0.7342 -1.3796  0.6421
  100TCq2    C4 1525   1.402   1.616   2.239 -0.4495  0.7133  0.0489
  100TCq2    C5 1526   1.280   1.583   2.184 -0.2325  0.8739  0.4249
  100TCq2    C6 1527   1.277   1.534   2.053  0.3819  0.1282 -0.0657
  100TCq2    C7 1528   1.386   1.526   1.968 -0.2418  0.3778 -0.1669
  100TCq2    C8 1529   1.150   1.506   1.992  0.7126 -0.0544 -0.2901
  100TCq2    O4 1530   1.155   1.436   1.890 -0.2243 -0.1450  0.1735
  100TCq2    C9 1531   1.408   1.649   2.375 -0.6481  0.0982 -0.8736
  100TCq2    O5 1532   1.523   1.637   2.431 -0.6299 -0.0574  0.4325
  100TCq2    O6 1533   1.312   1.711   2.429  0.3446  0.0533 -0.4028
  100TCq2    H2 1534   1.609   1.642   2.194  0.0561  0.1955  0.7653
  100TCq2    H3 1535   1.198   1.591   2.254 -0.1306  0.1638  0.6233
  100TCq2    H4 1536   1.367   1.509   1.863 -0.9135 -1.6078  0.2638
  101MPD2     C 1537   1.798   2.221  12.928 -0.3732 -0.0512 -0.6033
  101MPD2    C1 1538   1.687   2.287  12.968 -0.2321  0.1836 -0.7846
  101MPD2    C2 1539   1.584   2.226  13.041  0.0893 -0.2692 -0.3579
  101MPD2    C3 1540   1.610   2.102  13.088 -1.1952 -0.5620 -0.4912
  101MPD2    C4 1541   1.728   2.039  13.049  0.7579 -0.4787  0.0060
  101MPD2    C5 1542   1.817   2.094  12.967 -0.4174 -0.5034 -0.0767
  101MPD2     H 1543   1.484   2.263  13.061  0.9630  1.5464  0.6536
  101MPD2    H1 1544   1.757   1.944  13.093 -1.4409 -0.7848  0.7711
  101MPD2    H2 1545   1.867   2.270  12.861 -1.9789 -0.1460 -2.3188
  101MPD2    H3 1546   1.903   2.042  12.927  1.8240  2.5516  0.7364
  101MPD2     N 1547   1.512   2.041  13.176 -0.4058 -0.2676 -0.4719
  101MPD2    H5 1548   1.442   2.106  13.210 -1.7113 -1.2535 -1.2814
  101MPD2    N1 1549   1.677   2.422  12.930  0.5058 -0.6889  0.1045
  101MPD2    H7 1550   1.754   2.462  12.877 -2.1115 -1.7432 -4.4311
  102TCq2    C1 1551   1.862   2.863  12.808  0.1938  0.4289 -0.6082
  102TCq2    O2 1552   1.944   2.773  12.804  0.6114  0.3820  0.1973
  102TCq2    C2 1553   1.728   2.824  12.852 -0.5684  0.4559  0.5327
  102TCq2    C3 1554   1.615   2.905  12.835  0.1936  0.1039  0.2948
  102TCq2    C4 1555   1.490   2.850  12.850  0.7802  0.5739 -1.0878
  102TCq2    C5 1556   1.480   2.720  12.886 -0.2215  1.0123 -0.5485
  102TCq2    C6 1557   1.595   2.641  12.911 -0.5575 -0.3372  0.1891
  102TCq2    C7 1558   1.719   2.693  12.893 -0.3500 -0.4251  0.0179
  102TCq2    C8 1559   1.576   2.504  12.963  0.5978 -0.8090  0.2088
  102TCq2    O4 1560   1.470   2.486  13.022  0.6267  0.4334  0.9319
  102TCq2    C9 1561   1.374   2.923  12.823 -0.7206 -0.3700  1.0557
  102TCq2    O5 1562   1.274   2.851  12.806  0.4973  0.3359 -0.0418
  102TCq2    O6 1563   1.388   3.047  12.787  0.2848  0.5112  0.9929
  102TCq2    H2 1564   1.623   3.011  12.810 -0.5721  0.4835  1.6519
  102TCq2    H3 1565   1.384   2.674  12.906  1.2543 -1.1244  1.7016
  102TCq2    H4 1566   1.803   2.643  12.941  0.9503  2.2161  0.4887
  103TMC2    C1 1567   0.220   2.498  12.857 -0.2273 -0.8784  0.6083
  103TMC2    C2 1568   0.357   2.497  12.879  0.6023  0.8145 -0.2114
  103TMC2    C3 1569   0.392   2.551  12.996  0.3970  0.0810 -0.3626
  103TMC2    C4 1570   0.131   2.538  12.950  0.1916 -0.0421  0.3483
  103TMC2    C5 1571   0.176   2.572  13.072 -0.5460 -0.3399 -0.4474
  103TMC2    C6 1572   0.307   2.580  13.100  0.7369 -0.3686 -0.1552
  103TMC2     C 1573   0.166   2.426  12.745  0.7809  0.2854 -0.3536
  103TMC2     O 1574   0.047   2.436  12.720  0.1880  0.4814  0.1422
  103TMC2     H 1575   0.436   2.480  12.807 -0.2336  3.8482 -1.8162
  103TMC2    H1 1576   0.025   2.531  12.931  0.1928 -1.3702  0.8216
  103TMC2    H2 1577   0.343   2.611  13.197 -0.3679 -1.7310  0.6864
  103TMC2    C7 1578   0.080   2.588  13.182  0.5886 -0.0460 -0.1533
  103TMC2    C8 1579   0.529   2.559  13.022 -0.2832 -0.3967  0.2233
  103TMC2    O1 1580   0.118   2.651  13.281  0.1667  0.0896 -0.2242
  103TMC2    O2 1581   0.609   2.475  12.977 -0.3918 -0.4204  0.2517
  103TMC2    O5 1582   0.554   2.656  13.110  0.3103 -0.0399 -0.8038
  103TMC2    H5 1583   0.494   2.732  13.096  0.9731  0.2466 -2.1216
  104MPD2     C 1584   0.340   2.169  12.553  0.2853  0.6446  0.2181
  104MPD2    C1 1585   0.241   2.260  12.581 -0.2218  0.0292  0.1084
  104MPD2    C2 1586   0.129   2.265  12.494 -0.8536 -0.4491 -0.0704
  104MPD2    C3 1587   0.118   2.164  12.394  0.7714 -0.1907  0.1737
  104MPD2    C4 1588   0.221   2.075  12.375  0.1477  0.2549  0.0164
  104MPD2    C5 1589   0.334   2.078  12.453 -0.6584 -0.0846 -1.2316
  104MPD2     H 1590   0.059   2.348  12.501  1.8823  1.9201 -0.8344
  104MPD2    H1 1591   0.219   1.998  12.299  1.2750  0.6164 -0.3815
  104MPD2    H2 1592   0.432   2.166  12.610  0.9026  2.0240 -0.6961
  104MPD2    H3 1593   0.419   2.020  12.420 -0.3618 -0.3018 -0.0705
  104MPD2     N 1594   4.715   2.149  12.334 -0.0709 -0.1186  0.0393
  104MPD2    H5 1595   4.653   2.228  12.349 -0.6278 -0.6014  0.2882
  104MPD2    N1 1596   0.262   2.348  12.688 -0.0715  0.7997  0.2347
  104MPD2    H7 1597   0.353   2.347  12.733 -0.1575 -2.8682  0.3387
  105MPD2     C 1598   1.687   2.055   0.184  0.0511  0.1678  0.0283
  105MPD2    C1 1599   1.600   2.153   0.157 -0.2488  0.0408  0.0332
  105MPD2    C2 1600   1.492   2.173   0.244  0.3978 -0.3636  0.8604
  105MPD2    C3 1601   1.463   2.096   0.351 -0.2459 -0.3839  0.4872
  105MPD2    C4 1602   1.553   1.989   0.373 -0.4259 -0.1973 -0.4580
  105MPD2    C5 1603   1.665   1.980   0.301 -0.4737  0.5243  0.2102
  105MPD2     H 1604   1.435   2.264   0.230 -0.1763 -0.7244  0.8535
  105MPD2    H1 1605   1.540   1.909   0.445 -2.7730  0.9939  0.4308
  105MPD2    H2 1606   1.744   2.013   0.102  1.6070  0.0013  1.1895
  105MPD2    H3 1607   1.725   1.896   0.334 -0.7321 -0.4052 -1.6794
  105MPD2     N 1608   1.350   2.117   0.436 -0.1864  0.2043  0.6088
  105MPD2    H5 1609   1.295   2.200   0.415  0.3078  0.4258  0.2011
  105MPD2    N1 1610   1.599   2.229   0.035  0.5102  0.1789  0.7452
  105MPD2    H7 1611   1.529   2.302   0.028  0.9188  0.5566  0.6279
  106TCq2    C1 1612   1.318   2.048   0.553  0.0394 -0.0339  0.4649
  106TCq2    O2 1613   1.381   1.953   0.603  0.5596 -0.8581 -0.3397
  106TCq2    C2 1614   1.216   2.111   0.631 -0.1573 -0.2668  0.2896
  106TCq2    C3 1615   1.155   2.233   0.582 -0.4619 -0.0361  0.5903
  106TCq2    C4 1616   1.061   2.286   0.664 -0.3200 -0.3888 -0.0280
  106TCq2    C5 1617   1.035   2.231   0.790  0.2119 -1.3465 -1.6012
  106TCq2    C6 1618   1.100   2.118   0.830  0.6906  0.3408 -0.3089
  106TCq2    C7 1619   1.181   2.054   0.747 -0.4836  0.1708  0.1158
  106TCq2    C8 1620   1.073   2.059   0.962 -0.1347 -0.6581 -0.2371
  106TCq2    O4 1621   1.133   1.957   0.977 -0.9674  0.4452 -0.0478
  106TCq2    C9 1622   0.985   2.396   0.615  0.5278  0.0982  0.1822
  106TCq2    O5 1623   0.901   2.449   0.696  0.3069  0.7016 -0.5588
  106TCq2    O6 1624   1.019   2.437   0.498 -0.1105  0.2785 -0.1499
  106TCq2    H2 1625   1.180   2.286   0.491 -1.9102 -2.3268 -1.1719
  106TCq2    H3 1626   0.964   2.282   0.854  3.3365 -0.5351  1.2384
  106TCq2    H4 1627   1.244   1.973   0.784  0.4614  0.3323 -1.1673
  107TMC2    C1 1628   2.548   0.669  11.646  0.8479 -0.7418 -0.1261
  107TMC2    C2 1629   2.665   0.637  11.704  0.4560 -0.6238  0.1680
  107TMC2    C3 1630   2.762   0.584  11.615  0.2190  0.6069 -0.0871
  107TMC2    C4 1631   2.526   0.645  11.512 -0.6859  0.4535 -0.2152
  107TMC2    C5 1632   2.622   0.600  11.431 -0.1721 -0.3116  0.1269
  107TMC2    C6 1633   2.746   0.566  11.482  0.4572  0.1385 -0.1218
  107TMC2     C 1634   2.445   0.730  11.729  0.8309 -0.2650 -0.4111
  107TMC2     O 1635   2.460   0.721  11.850  0.4936  0.2762  0.4642
  107TMC2     H 1636   2.683   0.681  11.801  0.2216  0.5013 -0.2978
  107TMC2    H1 1637   2.433   0.660  11.458 -0.9310 -1.4678 -0.3447
  107TMC2    H2 1638   2.823   0.520  11.422 -0.6464  0.3644 -1.7341
  107TMC2    C7 1639   2.588   0.560  11.292  0.1311  0.4241 -0.1963
  107TMC2    C8 1640   2.899   0.569  11.657  0.4076  0.1917 -0.3479
  107TMC2    O1 1641   2.477   0.508  11.272  0.6182 -0.0123  0.3400
  107TMC2    O2 1642   2.990   0.583  11.581  0.2431  0.5359 -0.4068
  107TMC2    O5 1643   2.893   0.532  11.794 -0.5898 -0.2558 -0.1846
  107TMC2    H5 1644   2.808   0.492  11.822 -0.2437  0.6941  2.2502
  108MPD2     C 1645   2.123   0.842  11.610 -0.0055 -0.2505  0.2842
  108MPD2    C1 1646   2.215   0.820  11.712 -0.3481 -0.3653 -0.1122
  108MPD2    C2 1647   2.180   0.848  11.845  0.0545  0.1491  0.8826
  108MPD2    C3 1648   2.052   0.887  11.879  0.1472  0.6881  0.0558
  108MPD2    C4 1649   1.965   0.906  11.774  0.2857  0.6164  0.4107
  108MPD2    C5 1650   1.994   0.875  11.642  0.2735  0.1388  0.3183
  108MPD2     H 1651   2.260   0.827  11.915  0.7191 -0.0563  0.0653
  108MPD2    H1 1652   1.864   0.938  11.794 -0.0333 -1.0114  1.3452
  108MPD2    H2 1653   2.151   0.828  11.507 -1.3602 -0.6992 -0.0254
  108MPD2    H3 1654   1.922   0.903  11.566 -0.6455  0.8063  1.4182
  108MPD2     N 1655   2.006   0.922  12.011 -0.3676  0.0235 -0.3511
  108MPD2    H5 1656   1.908   0.945  12.020 -0.6684 -1.2478 -0.3550
  108MPD2    N1 1657   2.337   0.779  11.658  0.0519  1.1074  0.0263
  108MPD2    H7 1658   2.355   0.779  11.558 -1.1863  0.1949 -0.1960
  109MPD2     C 1659   2.984   3.199   2.540 -0.5816  0.4703  0.3567
  109MPD2    C1 1660   2.908   3.311   2.514 -0.3396  0.2441  0.7068
  109MPD2    C2 1661   2.972   3.425   2.470  0.4055  0.6668 -0.2179
  109MPD2    C3 1662   3.101   3.422   2.435  0.3105 -0.4394  0.3719
  109MPD2    C4 1663   3.180   3.308   2.456  0.6601  0.0415 -0.3983
  109MPD2    C5 1664   3.120   3.203   2.522  0.8582  0.1577 -0.2458
  109MPD2     H 1665   2.918   3.510   2.430 -0.5246  0.8960  1.5271
  109MPD2    H1 1666   3.282   3.300   2.420  1.1795  1.5776  0.7272
  109MPD2    H2 1667   2.942   3.109   2.583 -2.4100  0.3204 -1.7589
  109MPD2    H3 1668   3.177   3.113   2.542  1.6763  0.1984 -2.4345
  109MPD2     N 1669   3.155   3.538   2.376 -1.0450  0.3574 -0.0623
  109MPD2    H5 1670   3.092   3.616   2.363 -0.6266  0.3645 -1.9912
  109MPD2    N1 1671   2.775   3.299   2.543 -0.1643  0.3191 -0.4656
  109MPD2    H7 1672   2.744   3.204   2.559  0.5916  0.0242 -0.7807
  110TCq2    C1 1673   3.283   3.558   2.336  0.2574 -0.4260  0.0686
  110TCq2    O2 1674   3.385   3.485   2.349 -0.4820  0.7785 -0.0568
  110TCq2    C2 1675   3.288   3.691   2.268 -0.6437  0.7905  0.3262
  110TCq2    C3 1676   3.402   3.755   2.266  0.2815 -0.0527 -0.3881
  110TCq2    C4 1677   3.414   3.876   2.206  0.4031 -0.0668 -0.7440
  110TCq2    C5 1678   3.308   3.925   2.132  0.4763 -0.6259 -0.0328
  110TCq2    C6 1679   3.198   3.846   2.120 -0.2567 -0.0486  0.6061
  110TCq2    C7 1680   3.183   3.729   2.187  0.4733 -0.6550 -0.4150
  110TCq2    C8 1681   3.090   3.912   2.051  0.5293  0.0890  0.1243
  110TCq2    O4 1682   3.113   4.017   2.002  0.0174  0.2428  0.1912
  110TCq2    C9 1683   3.534   3.944   2.209 -0.3678 -0.1272  0.1275
  110TCq2    O5 1684   3.534   4.067   2.179 -0.7674 -0.4149 -0.6376
  110TCq2    O6 1685   3.621   3.890   2.280 -0.2927 -0.0096 -0.3258
  110TCq2    H2 1686   3.490   3.714   2.315  0.0592  0.6144  0.5613
  110TCq2    H3 1687   3.328   4.013   2.072 -0.8567  0.8580  1.6951
  110TCq2    H4 1688   3.091   3.672   2.176  0.1453  0.3515 -2.8542
  111TMC2    C1 1689   2.818   3.448  11.598 -0.0835  0.5170 -0.9383
  111TMC2    C2 1690   2.922   3.448  11.512  0.0413 -0.5941  0.7531
  111TMC2    C3 1691   3.024   3.371  11.535  0.6113 -0.8893  0.8119
  111TMC2    C4 1692   2.823   3.370  11.703 -0.6545 -0.2968  0.6074
  111TMC2    C5 1693   2.929   3.286  11.735 -0.1637 -0.1793 -0.4233
  111TMC2    C6 1694   3.034   3.284  11.646  0.0858  0.4091  0.5079
  111TMC2     C 1695   2.685   3.486  11.561  0.2872  0.0380  0.4120
  111TMC2     O 1696   2.659   3.496  11.444  0.2567 -0.3532 -0.1203
  111TMC2     H 1697   2.899   3.492  11.416  1.4266 -2.4526 -0.4128
  111TMC2    H1 1698   2.735   3.373  11.766 -0.4788  3.6016  0.6407
  111TMC2    H2 1699   3.121   3.220  11.659  0.2722  0.7098  0.7594
  111TMC2    C7 1700   2.913   3.190  11.848  0.1129 -0.0177 -0.1890
  111TMC2    C8 1701   3.134   3.368  11.432  0.2217 -0.3202 -0.1594
  111TMC2    O1 1702   2.828   3.213  11.933 -0.1707  0.2037  0.1728
  111TMC2    O2 1703   3.196   3.264  11.414  0.0323  0.0729  0.2516
  111TMC2    O5 1704   3.176   3.500  11.410  0.2985  0.2794 -0.1990
  111TMC2    H5 1705   3.140   3.565  11.474 -0.4846  0.8098 -1.1886
  112MPD2     C 1706   2.193   3.600  11.645  0.0142  0.4981  0.0205
  112MPD2    C1 1707   2.260   3.556  11.535 -0.0416  0.4968  0.6910
  112MPD2    C2 1708   2.387   3.519  11.541  0.3439  0.3198 -0.4019
  112MPD2    C3 1709   2.463   3.542  11.656 -0.3945  0.2814  0.9412
  112MPD2    C4 1710   2.397   3.575  11.773  0.6747 -0.8488  0.1825
  112MPD2    C5 1711   2.262   3.601  11.763 -0.0825 -0.1296 -0.1121
  112MPD2     H 1712   2.430   3.483  11.448 -2.8165 -1.2500 -1.2515
  112MPD2    H1 1713   2.445   3.604  11.866 -2.1137  0.8484  1.0979
  112MPD2    H2 1714   2.087   3.624  11.651  0.1156  1.0237 -0.3063
  112MPD2    H3 1715   2.215   3.638  11.854  1.0899  1.3862 -0.1270
  112MPD2     N 1716   2.602   3.527  11.669  0.5794  0.0938  0.1360
  112MPD2    H5 1717   2.646   3.546  11.758 -0.9123 -1.8277  1.2962
  112MPD2    N1 1718   2.205   3.550  11.409  0.0817 -0.3700  0.8410
  112MPD2    H7 1719   2.268   3.541  11.331 -1.2157 -0.1148 -0.2308
  113MPD2     C 1720   0.914   1.386   1.081 -0.1162  0.1314 -0.2949
  113MPD2    C1 1721   0.811   1.472   1.132 -0.0002  0.6423  0.5136
  113MPD2    C2 1722   0.733   1.529   1.037  0.6264  0.4849  0.0660
  113MPD2    C3 1723   0.746   1.496   0.905  0.3224 -0.1518  0.0468
  113MPD2    C4 1724   0.852   1.416   0.863 -0.2835 -0.3541 -0.1582
  113MPD2    C5 1725   0.933   1.353   0.951 -0.1480  0.5937  0.1789
  113MPD2     H 1726   0.672   1.615   1.063  0.7074  0.3516  0.6997
  113MPD2    H1 1727   0.872   1.410   0.757  0.4894 -1.1448  0.0301
  113MPD2    H2 1728   0.985   1.346   1.152  1.5371  1.0185 -1.4388
  113MPD2    H3 1729   1.014   1.290   0.917 -0.4985 -0.4033  1.2315
  113MPD2     N 1730   0.662   1.558   0.815 -0.9349 -0.2385 -0.5355
  113MPD2    H5 1731   0.671   1.524   0.719  0.5629 -0.7193 -0.2247
  113MPD2    N1 1732   0.790   1.518   1.264 -0.3400  0.1656 -0.8019
  113MPD2    H7 1733   0.723   1.593   1.273  1.0151  1.2984 -0.1366
  114TCq2    C1 1734   0.550   1.632   0.842 -0.8864  0.3579 -0.5401
  114TCq2    O2 1735   0.482   1.634   0.944 -0.1444  0.4338 -0.4215
  114TCq2    C2 1736   0.470   1.670   0.732 -0.0154 -0.5141  0.3696
  114TCq2    C3 1737   0.538   1.715   0.617 -0.5281  0.1500  0.1904
  114TCq2    C4 1738   0.461   1.758   0.510  0.2534 -0.3816 -0.1401
  114TCq2    C5 1739   0.323   1.779   0.520  0.0332 -0.1935 -0.4958
  114TCq2    C6 1740   0.263   1.729   0.629  0.2112  0.0167 -0.2867
  114TCq2    C7 1741   0.335   1.680   0.741 -0.6856 -0.0786  0.4579
  114TCq2    C8 1742   0.141   1.661   0.598 -0.0132  1.1181  0.2250
  114TCq2    O4 1743   0.113   1.629   0.485 -0.9284 -0.1220 -0.1053
  114TCq2    C9 1744   0.518   1.785   0.381 -0.0371 -0.3121 -0.8309
  114TCq2    O5 1745   0.645   1.786   0.370 -0.1200 -0.0433  0.1937
  114TCq2    O6 1746   0.442   1.772   0.286  0.1996 -0.8347  0.0596
  114TCq2    H2 1747   0.645   1.698   0.616 -0.3934  0.9796  1.0281
  114TCq2    H3 1748   0.262   1.802   0.434  0.0813  1.0495 -0.1945
  114TCq2    H4 1749   0.287   1.616   0.814 -1.1530 -0.2332  0.0129
  115TMC2    C1 1750   1.122   4.065   0.029  0.0963  0.6608  0.2562
  115TMC2    C2 1751   1.232   4.015  17.662 -0.1497  0.0236 -0.5585
  115TMC2    C3 1752   1.343   4.087  17.655  0.3941  0.1888  0.3658
  115TMC2    C4 1753   1.117   4.198   0.072 -0.6795 -0.0424  0.0759
  115TMC2    C5 1754   1.234   4.270   0.057  0.7741 -0.3088 -0.5415
  115TMC2    C6 1755   1.346   4.213   0.011 -0.4121 -0.2085 -0.1716
  115TMC2     C 1756   1.004   4.011  17.655  0.0008  0.8299  0.0724
  115TMC2     O 1757   1.021   3.933  17.564  0.2562  0.3650 -0.2969
  115TMC2     H 1758   1.230   3.916  17.616 -2.4035  0.3950 -1.2535
  115TMC2    H1 1759   1.029   4.251   0.108  0.2611  1.0507  0.7575
  115TMC2    H2 1760   1.431   4.275  17.678 -0.4368 -0.5795 -1.2015
  115TMC2    C7 1761   1.221   4.414   0.073 -0.1206 -0.3079  0.2794
  115TMC2    C8 1762   1.458   4.022  17.615  0.1943  0.0599  0.0324
  115TMC2    O1 1763   1.133   4.444   0.150 -0.1372  0.2328  0.3358
  115TMC2    O2 1764   1.446   3.911  17.565  0.0045  0.0568  0.0575
  115TMC2    O5 1765   1.547   4.050   0.021 -0.2562  0.5896 -0.1792
  115TMC2    H5 1766   1.577   4.143   0.031  1.4686  0.0263 -0.0475
  116MPD2     C 1767   0.513   3.877  17.657 -0.0016  0.1274  0.3542
  116MPD2    C1 1768   0.617   3.829  17.589 -0.0305 -0.4130  0.0567
  116MPD2    C2 1769   0.743   3.881  17.606 -0.0376  0.2726  0.0168
  116MPD2    C3 1770   0.765   3.990  17.692  1.1556 -0.6904  0.2303
  116MPD2    C4 1771   0.658   4.040   0.074  0.4535 -0.3952  0.2163
  116MPD2    C5 1772   0.537   3.977   0.060  0.2244 -0.5069 -0.5028
  116MPD2     H 1773   0.818   3.816  17.561 -2.5581 -0.9248 -2.4437
  116MPD2    H1 1774   0.661   4.128   0.137  3.2260 -0.5460  0.2994
  116MPD2    H2 1775   0.414   3.834  17.658  0.3785 -0.7335  1.6021
  116MPD2    H3 1776   0.446   4.018   0.104 -0.2271 -0.9250 -1.0604
  116MPD2     N 1777   0.890   4.045   0.017 -0.5413  0.1227 -0.1558
  116MPD2    H5 1778   0.894   4.103   0.100  0.4088 -0.3643  0.1334
  116MPD2    N1 1779   0.599   3.714  17.505 -0.0569  0.6682 -0.4153
  116MPD2    H7 1780   0.682   3.680  17.457  1.5535  0.2683  2.6892
  117TMC2    C1 1781   0.009   0.247  14.032  0.4382 -0.9188  0.4605
  117TMC2    C2 1782   0.071   0.173  14.129  0.0483  0.1237  0.2869
  117TMC2    C3 1783   0.140   0.235  14.230 -0.1244  0.3868 -0.6363
  117TMC2    C4 1784   0.010   0.385  14.041 -0.2383 -0.3614  0.2481
  117TMC2    C5 1785   0.048   0.440  14.163 -0.0784 -0.0172 -0.3061
  117TMC2    C6 1786   0.115   0.365  14.254  0.6533  0.7462  0.0433
  117TMC2     C 1787   4.651   0.178  13.934  0.2617 -0.3404 -0.6013
  117TMC2     O 1788   4.667   0.059  13.906 -0.2407  0.0174 -0.1127
  117TMC2     H 1789   0.067   0.065  14.121  1.5309 -0.0494  1.8976
  117TMC2    H1 1790   4.698   0.450  13.962  1.3041  1.7853  1.3611
  117TMC2    H2 1791   0.144   0.408  14.349 -2.9894 -0.0692  1.5296
  117TMC2    C7 1792   4.720   0.564  14.193  0.6135  0.1478 -0.7488
  117TMC2    C8 1793   0.139   0.162  14.355  0.1097 -0.6177  0.3162
  117TMC2    O1 1794   0.084   0.639  14.239  0.1094  0.3232  0.1276
  117TMC2    O2 1795   0.053   0.185  14.441 -0.0366  0.5108 -0.0929
  117TMC2    O5 1796   0.264   0.131  14.386  0.3592  0.0324  0.6607
  117TMC2    H5 1797   0.310   0.103  14.304  1.9812 -1.4294  2.0702
  118MPD2     C 1798   4.397   0.684  14.107 -0.7400  1.4069 -0.0825
  118MPD2    C1 1799   4.531   0.695  14.121  0.1664  0.3576  0.5534
  118MPD2    C2 1800   4.589   0.820  14.093 -0.3401  0.2304  0.6420
  118MPD2    C3 1801   4.507   0.929  14.065  0.2623  0.6263 -0.0102
  118MPD2    C4 1802   4.372   0.919  14.076  0.4044  1.0841  0.0387
  118MPD2    C5 1803   4.315   0.795  14.088 -0.1523 -0.2458 -0.2983
  118MPD2     H 1804   4.696   0.835  14.102  0.0329 -1.1755 -1.4231
  118MPD2    H1 1805   4.305   1.004  14.065 -1.2382  0.1737  3.0873
  118MPD2    H2 1806   4.349   0.587  14.117  3.4554 -0.2957  3.3257
  118MPD2    H3 1807   4.208   0.792  14.069 -0.0379  3.1190 -1.3427
  118MPD2     N 1808   4.554   1.058  14.027 -0.2266  0.0446 -0.4728
  118MPD2    H5 1809   4.485   1.127  13.998  0.1216 -0.6960 -3.0597
  118MPD2    N1 1810   4.597   0.576  14.148 -0.4049  0.1539  0.3241
  118MPD2    H7 1811   4.553   0.485  14.144  1.8532 -0.8983 -0.8845
  119MPD2     C 1812   3.258   1.801  13.679 -0.0025  0.5258  1.0983
  119MPD2    C1 1813   3.127   1.806  13.715  0.3254  0.4748  0.6999
  119MPD2    C2 1814   3.027   1.779  13.622  0.0788  0.2152 -0.9983
  119MPD2    C3 1815   3.065   1.732  13.498  0.7941  0.3419  0.6109
  119MPD2    C4 1816   3.203   1.736  13.459  0.4961 -1.1010 -0.1006
  119MPD2    C5 1817   3.299   1.761  13.555  0.6490  0.0125  1.3129
  119MPD2     H 1818   2.923   1.781  13.652  0.5385 -1.2437  0.7152
  119MPD2    H1 1819   3.229   1.704  13.359 -1.3093 -2.1612 -0.2353
  119MPD2    H2 1820   3.330   1.823  13.758  2.1169 -1.8119 -0.2003
  119MPD2    H3 1821   3.402   1.748  13.522  0.4650 -1.8189  1.4584
  119MPD2     N 1822   2.975   1.702  13.397 -0.0032 -0.4164  0.0303
  119MPD2    H5 1823   3.012   1.646  13.321 -1.1914  0.5745 -1.2755
  119MPD2    N1 1824   3.108   1.843  13.854  0.1456  0.0284  0.0862
  119MPD2    H7 1825   3.187   1.846  13.916  1.1006  1.3468 -1.1809
  120TCq2    C1 1826   2.842   1.741  13.402 -0.0799 -0.2496 -0.7937
  120TCq2    O2 1827   2.785   1.814  13.485 -0.1870 -0.6833 -0.7988
  120TCq2    C2 1828   2.754   1.685  13.299 -0.3045  0.2318  0.3450
  120TCq2    C3 1829   2.792   1.567  13.243  0.1303 -0.0608 -0.3774
  120TCq2    C4 1830   2.695   1.478  13.212  0.3501  0.4589 -0.2199
  120TCq2    C5 1831   2.563   1.499  13.237 -0.2311  0.1615 -0.3524
  120TCq2    C6 1832   2.535   1.612  13.305 -0.2302 -0.4561  0.7594
  120TCq2    C7 1833   2.621   1.709  13.328 -0.4572 -0.0318  0.2035
  120TCq2    C8 1834   2.409   1.620  13.379  0.8537  0.0634  0.6528
  120TCq2    O4 1835   2.315   1.571  13.322 -0.0826 -0.0016 -0.2569
  120TCq2    C9 1836   2.731   1.355  13.155 -0.2637 -0.1039  0.0025
  120TCq2    O5 1837   2.854   1.331  13.149 -0.1012 -0.0512  0.2788
  120TCq2    O6 1838   2.640   1.268  13.141  0.2463  0.0766 -0.5686
  120TCq2    H2 1839   2.890   1.559  13.196  0.9265  0.7676  1.1197
  120TCq2    H3 1840   2.487   1.426  13.212  1.8019 -1.8531 -0.7741
  120TCq2    H4 1841   2.593   1.804  13.372  0.6505 -0.0115  0.8825
  121TMC2    C1 1842   4.164   3.323  14.192  0.2064  1.0607  0.2248
  121TMC2    C2 1843   4.111   3.315  14.319 -0.3614 -0.1500 -0.1660
  121TMC2    C3 1844   4.002   3.232  14.326  0.2858 -0.6925 -0.5216
  121TMC2    C4 1845   4.111   3.262  14.077  0.4633  0.6176  0.0997
  121TMC2    C5 1846   4.007   3.179  14.097 -0.3865  0.2199 -0.3408
  121TMC2    C6 1847   3.944   3.163  14.218  0.1433  0.3957 -0.1120
  121TMC2     C 1848   4.287   3.393  14.193  0.1033 -0.0291 -0.2183
  121TMC2     O 1849   4.343   3.407  14.303 -0.4414  0.1705 -0.3050
  121TMC2     H 1850   4.151   3.360  14.409 -1.8093  0.2316  0.2918
  121TMC2    H1 1851   4.165   3.253  13.983  1.4760  1.0930  0.6283
  121TMC2    H2 1852   3.859   3.096  14.219 -0.4678  1.1859  0.9330
  121TMC2    C7 1853   3.922   3.159  13.978 -0.8332  0.6365  1.0428
  121TMC2    C8 1854   3.983   3.180  14.457 -0.0270 -0.0354 -0.2641
  121TMC2    O1 1855   3.981   3.105  13.888  0.1494 -0.0195  0.3623
  121TMC2    O2 1856   4.080   3.148  14.527  0.3561 -0.1269  1.0832
  121TMC2    O5 1857   3.870   3.106  14.460  0.3255  0.0736  0.6818
  121TMC2    H5 1858   3.790   3.131  14.409 -0.1351 -1.7960  0.5074
  122MPD2     C 1859   4.545   3.531  14.153 -0.1230 -0.1739  0.3842
  122MPD2    C1 1860   4.451   3.509  14.054  0.4293  0.1485 -0.3478
  122MPD2    C2 1861   4.477   3.563  13.928 -0.0728 -0.4787  0.1422
  122MPD2    C3 1862   4.593   3.640  13.898 -0.3923  0.1705 -0.2801
  122MPD2    C4 1863   4.683   3.657  14.002 -0.0498  0.2137  0.4021
  122MPD2    C5 1864   4.659   3.605  14.130  0.2823  0.4387 -0.1717
  122MPD2     H 1865   4.389   3.554  13.864  0.6281  0.1939 -0.9063
  122MPD2    H1 1866   0.053   3.711  13.987 -0.3894  0.3932 -1.0264
  122MPD2    H2 1867   4.552   3.473  14.245  0.4878 -0.6868  0.0178
  122MPD2    H3 1868   0.015   3.612  14.204  1.9033 -1.3248 -1.7292
  122MPD2     N 1869   4.622   3.693  13.767 -0.3061  0.5346 -0.0029
  122MPD2    H5 1870   4.716   3.729  13.752  0.2949 -0.9380  0.2505
  122MPD2    N1 1871   4.322   3.448  14.075 -0.6245 -0.3444 -0.7483
  122MPD2    H7 1872   4.251   3.438  14.003 -1.1125 -1.3680 -0.1250
  123MPD2     C 1873   2.780   1.835  10.838  0.2817  0.0996  0.3266
  123MPD2    C1 1874   2.836   1.817  10.717 -0.3594 -0.1616 -0.9096
  123MPD2    C2 1875   2.856   1.929  10.632  0.2148 -0.5397 -0.0253
  123MPD2    C3 1876   2.814   2.057  10.663  0.1291 -0.7205  0.7252
  123MPD2    C4 1877   2.761   2.071  10.790 -0.5840  0.4417 -0.3201
  123MPD2    C5 1878   2.743   1.964  10.873 -0.1182 -0.4706 -0.2161
  123MPD2     H 1879   2.910   1.914  10.540  2.1111 -2.4809  1.4143
  123MPD2    H1 1880   2.737   2.171  10.824 -0.2750 -0.0122  1.2541
  123MPD2    H2 1881   2.782   1.753  10.908 -0.7026 -0.7754 -0.6656
  123MPD2    H3 1882   2.701   1.974  10.972  0.2883 -0.9889  0.0112
  123MPD2     N 1883   2.823   2.158  10.563 -0.0294  0.5782  0.0956
  123MPD2    H5 1884   2.852   2.124  10.472 -2.9227 -0.6822 -0.3602
  123MPD2    N1 1885   2.846   1.682  10.673 -0.0415 -0.5661  0.3115
  123MPD2    H7 1886   2.797   1.612  10.728  0.0795 -0.8003  0.1218
  124TCq2    C1 1887   2.763   2.284  10.564  0.3459  0.0494 -0.1341
  124TCq2    O2 1888   2.693   2.338  10.653 -0.0203 -0.5180 -0.2758
  124TCq2    C2 1889   2.799   2.364  10.447 -0.0404  1.1555 -0.6319
  124TCq2    C3 1890   2.735   2.478  10.414  0.1574  0.1255 -0.7676
  124TCq2    C4 1891   2.759   2.535  10.292 -0.0100 -0.2024 -0.8604
  124TCq2    C5 1892   2.833   2.473  10.198  0.4505 -0.5026  0.8017
  124TCq2    C6 1893   2.891   2.355  10.233 -0.3992 -0.4450  0.1298
  124TCq2    C7 1894   2.882   2.298  10.357 -0.0236  0.7297 -0.4623
  124TCq2    C8 1895   2.929   2.269  10.118  0.2666 -0.3994 -0.0802
  124TCq2    O4 1896   2.930   2.147  10.139 -0.4296  0.6989  0.0146
  124TCq2    C9 1897   2.696   2.661  10.255  0.2480 -0.3559 -0.2696
  124TCq2    O5 1898   2.719   2.718  10.147  0.5832  0.4006  0.0490
  124TCq2    O6 1899   2.608   2.699  10.336  0.1972 -0.4441 -0.6873
  124TCq2    H2 1900   2.680   2.535  10.488 -0.0989 -3.2378  1.6411
  124TCq2    H3 1901   2.841   2.520  10.101  1.0335 -0.4159  0.8937
  124TCq2    H4 1902   2.946   2.212  10.372 -2.5665 -1.2872 -0.9751
  125TMC2    C1 1903   2.369   3.509   9.565 -0.1827 -0.1401 -0.7669
  125TMC2    C2 1904   2.357   3.375   9.553 -0.2086 -0.8128 -0.2596
  125TMC2    C3 1905   2.449   3.315   9.470  0.2086  0.1925  0.6880
  125TMC2    C4 1906   2.479   3.578   9.520 -0.9702  0.2010  0.0119
  125TMC2    C5 1907   2.571   3.510   9.451  0.5038  0.3694 -0.0034
  125TMC2    C6 1908   2.558   3.379   9.417 -0.7039  0.4302 -0.1204
  125TMC2     C 1909   2.292   3.570   9.671 -0.6719  0.7154 -0.4811
  125TMC2     O 1910   2.234   3.495   9.753  0.5022 -0.2412  0.8139
  125TMC2     H 1911   2.269   3.318   9.583  0.5027 -1.7206  0.1048
  125TMC2    H1 1912   2.480   3.686   9.523  2.3736  0.1954 -0.4510
  125TMC2    H2 1913   2.616   3.328   9.341 -1.1867 -3.4201  2.0606
  125TMC2    C7 1914   2.673   3.583   9.376  0.3523 -0.3743 -0.1085
  125TMC2    C8 1915   2.406   3.192   9.407  0.0180 -0.2450  0.1471
  125TMC2    O1 1916   2.652   3.699   9.349  0.2981 -0.1533 -0.3107
  125TMC2    O2 1917   2.335   3.106   9.458  0.1998 -0.2186 -0.3714
  125TMC2    O5 1918   2.434   3.193   9.277 -0.1903  0.0071  0.3571
  125TMC2    H5 1919   2.436   3.287   9.249 -0.4265  0.0552  0.4968
  126MPD1     C 1920   2.095   3.969   9.938  0.3461 -0.2930  0.3917
  126MPD1    C1 1921   2.172   4.008   9.831 -0.5707  0.0400  0.4334
  126MPD1    C2 1922   2.231   3.920   9.744 -0.1835  0.2310 -0.4575
  126MPD1    C3 1923   2.227   3.783   9.768  0.4356 -0.0860  0.0061
  126MPD1    C4 1924   2.161   3.742   9.884 -0.1182  0.5495  0.0242
  126MPD1    C5 1925   2.095   3.831   9.965  0.4534 -0.2562 -0.1555
  126MPD1     H 1926   2.278   3.947   9.650 -0.6684  2.9407  0.0600
  126MPD1    H1 1927   2.156   3.636   9.908 -0.6675  0.6763  0.4890
  126MPD1    H2 1928   2.039   4.038  10.000 -1.4191 -1.6519  0.3325
  126MPD1    H3 1929   2.038   3.805  10.053  1.8168 -0.6160  0.6255
  126MPD1     N 1930   2.299   3.707   9.672 -0.7801  0.2392  0.2829
  126MPD1    H5 1931   2.339   3.762   9.596  0.2005 -0.4099  0.3294
  126MPD1    N1 1932   2.174   4.143   9.788 -0.7249 -0.2532 -0.7397
  126MPD1    H6 1933   2.160   4.205   9.868 -0.9771 -0.3639 -0.6958
  126MPD1    H7 1934   2.265   4.171   9.755 -0.7194  1.4511  0.7221
  127MPD2     C 1935   4.645   2.655   8.978  0.0965  0.3545 -0.0897
  127MPD2    C1 1936   4.687   2.682   9.109  0.2837  0.2979  0.6432
  127MPD2    C2 1937   4.705   2.823   9.144 -0.1295 -0.4232  0.9299
  127MPD2    C3 1938   4.675   2.927   9.057 -0.1902 -0.7732  0.2033
  127MPD2    C4 1939   4.636   2.891   8.930  0.1368 -0.6946  1.2253
  127MPD2    C5 1940   4.630   2.756   8.886 -0.0825  0.2987  0.4570
  127MPD2     H 1941   0.006   2.845   9.247 -0.0968  0.2472  0.7810
  127MPD2    H1 1942   4.603   2.967   8.859 -0.2019 -1.4548  0.5707
  127MPD2    H2 1943   4.637   2.551   8.950 -2.5209  0.5938 -0.1771
  127MPD2    H3 1944   4.573   2.739   8.795 -1.2418 -2.2138  1.6443
  127MPD2     N 1945   4.679   3.058   9.107 -0.5597 -0.1123  0.1860
  127MPD2    H5 1946   0.014   3.081   9.187 -1.3642  0.6465  0.5579
  127MPD2    N1 1947   4.700   2.569   9.191 -0.6816 -0.2249  0.1962
  127MPD2    H7 1948   4.674   2.476   9.161 -1.2465 -0.5738  1.7709
  128TCq2    C1 1949   0.027   2.576   9.314 -0.5351  0.6759  0.4984
  128TCq2    O2 1950   0.122   2.642   9.346 -0.7379  0.3424 -0.1797
  128TCq2    C2 1951   4.722   2.463   9.401  0.0851  0.0539 -0.5311
  128TCq2    C3 1952   0.063   2.447   9.519  0.4918  0.2259 -0.1007
  128TCq2    C4 1953   0.026   2.342   9.599  0.2835 -0.4387  0.1207
  128TCq2    C5 1954   4.649   2.248   9.567  0.6299  0.1384 -0.9853
  128TCq2    C6 1955   4.580   2.281   9.448 -0.0025 -0.8775 -0.3847
  128TCq2    C7 1956   4.618   2.380   9.367 -0.1939  0.3131  0.5476
  128TCq2    C8 1957   4.482   2.191   9.398  0.2599  0.0577  0.4390
  128TCq2    O4 1958   4.459   2.193   9.280 -0.1259  0.3505 -0.1165
  128TCq2    C9 1959   0.091   2.328   9.723  0.1645 -0.5839  0.8471
  128TCq2    O5 1960   0.082   2.216   9.781 -0.2515 -0.3415 -0.2831
  128TCq2    O6 1961   0.198   2.395   9.740 -0.0943  0.0347 -0.3975
  128TCq2    H2 1962   0.136   2.517   9.556  0.4944  0.2011 -0.0590
  128TCq2    H3 1963   4.635   2.160   9.628  0.5384  2.3832  2.2198
  128TCq2    H4 1964   4.560   2.383   9.275  2.0807 -4.4786 -1.0600
  129MPD2     C 1965   2.662   3.488   1.954 -0.7561  0.1997  0.2560
  129MPD2    C1 1966   2.801   3.509   1.949 -0.0176 -1.0965  0.0422
  129MPD2    C2 1967   2.848   3.612   1.869  0.3241  0.7067 -0.4118
  129MPD2    C3 1968   2.758   3.685   1.787 -0.0994  0.1214  0.4267
  129MPD2    C4 1969   2.622   3.667   1.811  0.5177  0.0830 -0.2087
  129MPD2    C5 1970   2.571   3.567   1.890 -0.2987  0.6025  0.9659
  129MPD2     H 1971   2.955   3.629   1.864  0.2478  1.6084  0.9339
  129MPD2    H1 1972   2.546   3.725   1.758  2.2764 -0.7389 -3.6078
  129MPD2    H2 1973   2.616   3.419   2.023 -3.4609  0.7513 -0.9950
  129MPD2    H3 1974   2.466   3.552   1.910 -0.1693 -2.3898 -0.5230
  129MPD2     N 1975   2.799   3.781   1.691 -0.0399  0.4604  0.2511
  129MPD2    H5 1976   2.720   3.826   1.645  0.5052  3.0958  1.9391
  129MPD2    N1 1977   2.900   3.434   2.024 -0.3992 -1.1423 -0.0096
  129MPD2    H7 1978   2.994   3.453   1.990 -0.5513 -1.3070 -0.5325
  130TCq2    C1 1979   2.873   3.317   2.094  0.4512  0.2300 -0.1814
  130TCq2    O2 1980   2.761   3.264   2.100  0.0100  0.3046 -0.0019
  130TCq2    C2 1981   2.989   3.238   2.120  0.5822  0.1554  0.2156
  130TCq2    C3 1982   3.114   3.288   2.099 -0.4500  0.2046  0.1200
  130TCq2    C4 1983   3.213   3.201   2.071 -0.2314 -0.2226 -0.2256
  130TCq2    C5 1984   3.189   3.068   2.071  0.0711  0.7249  0.0776
  130TCq2    C6 1985   3.064   3.019   2.098 -0.0053 -0.1344  0.0361
  130TCq2    C7 1986   2.969   3.103   2.130  0.3153  0.2303  0.2428
  130TCq2    C8 1987   3.043   2.877   2.106 -0.1905 -0.0731 -0.2615
  130TCq2    O4 1988   2.938   2.839   2.155  0.5559 -0.5021  0.5584
  130TCq2    C9 1989   3.345   3.253   2.047 -0.4831 -0.3592 -0.3024
  130TCq2    O5 1990   3.346   3.374   2.019 -0.0286  0.4959  0.3760
  130TCq2    O6 1991   3.443   3.177   2.050 -0.4993  0.0395  0.2587
  130TCq2    H2 1992   3.134   3.394   2.111  0.4302  0.2824 -2.0267
  130TCq2    H3 1993   3.278   3.010   2.049 -1.0978 -1.5345  1.3483
  130TCq2    H4 1994   2.866   3.071   2.136 -0.2948  1.8968 -1.7073
  131MPD2     C 1995   2.377   1.797   9.890 -0.2522  0.2080 -0.0814
  131MPD2    C1 1996   2.465   1.862   9.970 -0.6687 -0.0926  0.2355
  131MPD2    C2 1997   2.541   1.789  10.060 -0.1065  0.2643  0.4225
  131MPD2    C3 1998   2.528   1.649  10.069 -0.0763 -0.0417 -0.7080
  131MPD2    C4 1999   2.451   1.582   9.980  0.2878  0.7491  0.1819
  131MPD2    C5 2000   2.383   1.660   9.886 -0.0229  0.0896  0.5121
  131MPD2     H 2001   2.611   1.844  10.123  0.6309  1.0204 -1.0522
  131MPD2    H1 2002   2.454   1.474   9.971  0.7850  0.5182  2.9054
  131MPD2    H2 2003   2.316   1.852   9.820  2.3844 -0.4659 -2.8788
  131MPD2    H3 2004   2.316   1.608   9.819 -0.4855 -0.1858  1.1921
  131MPD2     N 2005   2.599   1.592  10.177 -0.0564 -0.1021 -0.1808
  131MPD2    H5 2006   2.651   1.659  10.233  1.6789 -1.3197 -0.3333
  131MPD2    N1 2007   2.467   2.005   9.972  0.4388  0.1383 -0.2254
  131MPD2    H7 2008   2.430   2.050   9.889 -1.4812 -2.2406 -0.6666
  132TCq2    C1 2009   2.600   2.455   9.778  0.0746  0.1196  0.2846
  132TCq2    O2 2010   2.604   2.385   9.672  0.2030 -0.3577 -0.5623
  132TCq2    C2 2011   2.531   2.400   9.892  0.5726  0.0945  0.4299
  132TCq2    C3 2012   2.478   2.489   9.983 -0.4809  0.0533 -0.7751
  132TCq2    C4 2013   2.427   2.438  10.097  0.0851 -0.5293  0.2567
  132TCq2    C5 2014   2.448   2.309  10.130  0.0882 -0.3240 -0.4174
  132TCq2    C6 2015   2.493   2.223  10.037 -0.3460 -0.0209  0.4836
  132TCq2    C7 2016   2.524   2.267   9.911 -0.1232  0.0542 -0.3599
  132TCq2    C8 2017   2.509   2.086  10.077 -0.1016 -0.2309  1.4209
  132TCq2    O4 2018   2.527   2.060  10.199  0.3282  0.0593 -0.4854
  132TCq2    C9 2019   2.371   2.522  10.198 -0.2348  0.4022  0.2969
  132TCq2    O5 2020   2.304   2.473  10.292 -0.0942 -0.1747 -0.1919
  132TCq2    O6 2021   2.371   2.644  10.171  0.6655 -0.1802 -0.1367
  132TCq2    H2 2022   2.475   2.596   9.963  0.0503  0.7739  2.9993
  132TCq2    H3 2023   2.406   2.276  10.224  1.3564 -0.2344  0.1804
  132TCq2    H4 2024   2.562   2.191   9.843 -0.7667 -0.3437 -0.2812
  133MPD2     C 2025   1.649   2.227   9.920  0.8539  0.0366  0.0642
  133MPD2    C1 2026   1.639   2.171   9.792  0.0209 -0.3698  0.5702
  133MPD2    C2 2027   1.685   2.248   9.685 -0.1388  0.5411  0.2241
  133MPD2    C3 2028   1.714   2.382   9.700  0.4135  0.4172  0.6150
  133MPD2    C4 2029   1.703   2.438   9.825  0.3650  0.8822 -0.2208
  133MPD2    C5 2030   1.678   2.360   9.930 -0.5471  0.1239 -0.1307
  133MPD2     H 2031   1.688   2.196   9.590 -1.2389  0.9522 -0.0394
  133MPD2    H1 2032   1.729   2.541   9.845 -1.3181  0.9647  1.4930
  133MPD2    H2 2033   1.625   2.167  10.007 -1.8854 -0.1347 -0.8219
  133MPD2    H3 2034   1.674   2.405  10.029  1.7379 -0.6358  0.3007
  133MPD2     N 2035   1.736   2.473   9.589  0.3595 -0.5686 -0.1532
  133MPD2    H5 2036   1.732   2.573   9.606  2.2211  0.0382 -3.2976
  133MPD2    N1 2037   1.608   2.030   9.778  0.6100  0.2345  0.0534
  133MPD2    H7 2038   1.580   1.976   9.860 -0.3108  0.6948  0.0372
  134TCq2    C1 2039   1.607   1.953   9.664  0.1606 -0.2798  0.2879
  134TCq2    O2 2040   1.606   1.986   9.549  0.1660 -0.0094  0.4407
  134TCq2    C2 2041   1.584   1.812   9.690 -0.2555 -0.0583  0.3209
  134TCq2    C3 2042   1.528   1.733   9.595 -0.4379 -0.5569  0.7691
  134TCq2    C4 2043   1.518   1.597   9.615  0.1570 -0.2324  0.8782
  134TCq2    C5 2044   1.540   1.541   9.739 -0.4829 -0.3925  0.3668
  134TCq2    C6 2045   1.586   1.619   9.830 -0.3069  0.7817 -0.4313
  134TCq2    C7 2046   1.613   1.755   9.813  0.3809 -0.7559  0.3753
  134TCq2    C8 2047   1.609   1.567   9.962 -0.3665  0.3810 -0.5051
  134TCq2    O4 2048   1.695   1.615  10.032 -0.3377  0.0404  0.2890
  134TCq2    C9 2049   1.462   1.514   9.512  0.0389  0.3882 -1.0131
  134TCq2    O5 2050   1.440   1.569   9.400  0.4047 -0.5116 -0.2265
  134TCq2    O6 2051   1.421   1.403   9.548  0.5477  0.5971 -0.2292
  134TCq2    H2 2052   1.494   1.770   9.499  1.6140  0.0109  0.2666
  134TCq2    H3 2053   1.519   1.435   9.753 -0.4888 -0.5991 -1.1057
  134TCq2    H4 2054   1.659   1.799   9.900 -1.1949 -0.2870  0.9819
  135MPD2     C 2055   4.706   4.029   9.437  0.6793  0.2309 -0.1652
  135MPD2    C1 2056   4.657   3.954   9.334 -0.0610  0.9818  0.1446
  135MPD2    C2 2057   0.020   3.877   9.260  0.1466 -0.7058  0.1561
  135MPD2    C3 2058   0.162   3.879   9.273 -0.5264 -0.3650  0.0491
  135MPD2    C4 2059   0.208   3.960   9.378  0.0636 -0.3959  0.1837
  135MPD2    C5 2060   0.120   4.039   9.448 -0.0089  0.2426  0.4920
  135MPD2     H 2061   4.686   3.817   9.190  1.2613  0.8975 -2.1034
  135MPD2    H1 2062   0.312   3.960   9.408  0.4790 -0.9044 -1.2472
  135MPD2    H2 2063   4.648   4.090   9.504  0.5391  1.3815 -1.3237
  135MPD2    H3 2064   0.170   4.101   9.521  1.7143  0.5363 -0.9287
  135MPD2     N 2065   0.248   3.798   9.191 -0.0559  0.8492  0.3167
  135MPD2    H5 2066   0.349   3.802   9.204 -0.2569  0.5515  1.9225
  135MPD2    N1 2067   4.522   3.933   9.323  0.2366 -0.0708  0.5704
  135MPD2    H7 2068   4.492   3.877   9.243 -1.4176  1.0454  0.3951
  136TCq2    C1 2069   4.419   3.976   9.403 -0.2764  0.6251 -0.0279
  136TCq2    O2 2070   4.417   4.073   9.476 -0.7365 -0.0923  0.2660
  136TCq2    C2 2071   4.302   3.884   9.401  0.2385  0.6244  0.3537
  136TCq2    C3 2072   4.186   3.944   9.419  0.5070 -0.1042  0.5829
  136TCq2    C4 2073   4.080   3.874   9.453 -0.4026 -0.6038 -0.3337
  136TCq2    C5 2074   4.093   3.738   9.477  0.2544 -0.0861  0.1263
  136TCq2    C6 2075   4.220   3.683   9.477  0.8398 -0.5384 -0.3083
  136TCq2    C7 2076   4.328   3.751   9.432 -0.3922 -0.5715 -0.6728
  136TCq2    C8 2077   4.252   3.561   9.550  0.1016  0.0014 -0.3931
  136TCq2    O4 2078   4.369   3.544   9.570  0.2852  0.1489 -0.6835
  136TCq2    C9 2079   3.952   3.943   9.470  0.1554  0.4851  0.3862
  136TCq2    O5 2080   3.850   3.872   9.496 -0.1204  0.7114  0.3447
  136TCq2    O6 2081   3.953   4.072   9.474  0.3947 -0.6154 -0.1099
  136TCq2    H2 2082   4.170   4.048   9.393  0.3029 -0.2448  0.1583
  136TCq2    H3 2083   4.007   3.681   9.512 -0.1634  1.5237  1.6739
  136TCq2    H4 2084   4.424   3.703   9.416 -0.5337 -1.4955  1.2093
  137MPD2     C 2085   4.011   2.296   9.558 -0.2524  0.4243 -0.5951
  137MPD2    C1 2086   4.030   2.412   9.626 -0.0737  0.3791 -0.6895
  137MPD2    C2 2087   3.997   2.409   9.759 -0.5099 -0.3122  0.4147
  137MPD2    C3 2088   3.978   2.298   9.834  0.1417 -0.1794 -0.2192
  137MPD2    C4 2089   3.983   2.179   9.765  0.2435 -0.3042 -0.0495
  137MPD2    C5 2090   3.998   2.175   9.625  0.0648  0.2967 -0.1861
  137MPD2     H 2091   3.990   2.506   9.807 -0.8658 -0.7256  1.1984
  137MPD2    H1 2092   3.975   2.087   9.823 -2.6562 -0.5691 -0.8760
  137MPD2    H2 2093   4.016   2.296   9.450 -1.1694 -4.6008 -0.6312
  137MPD2    H3 2094   3.981   2.085   9.567  2.0640 -0.8143  0.9586
  137MPD2     N 2095   3.968   2.320   9.974  0.3188  0.5916  0.0567
  137MPD2    H5 2096   3.964   2.418  10.002 -1.6849  1.0073 -1.7023
  137MPD2    N1 2097   4.054   2.533   9.549 -0.1759 -0.2553 -0.9891
  137MPD2    H7 2098   4.080   2.513   9.453  1.0885  0.3401 -0.7802
  138TCq2    C1 2099   4.032   2.660   9.582  0.2121  0.1450 -0.5330
  138TCq2    O2 2100   3.973   2.705   9.682 -0.3914  0.1035  0.0654
  138TCq2    C2 2101   4.029   2.759   9.473 -0.2408 -0.2046 -0.3305
  138TCq2    C3 2102   4.037   2.715   9.342 -0.3683  0.1402  0.0592
  138TCq2    C4 2103   4.024   2.805   9.244 -0.6446  0.5162  0.4959
  138TCq2    C5 2104   4.008   2.936   9.269  0.2930  0.2162  0.2258
  138TCq2    C6 2105   3.982   2.977   9.392 -0.7992  0.0619 -0.7748
  138TCq2    C7 2106   3.986   2.893   9.499 -0.0830 -0.0714  0.4940
  138TCq2    C8 2107   3.938   3.115   9.415  0.1485  0.9035  0.0931
  138TCq2    O4 2108   3.957   3.198   9.321  0.1452 -0.1027  0.1118
  138TCq2    C9 2109   4.029   2.776   9.102 -0.3389  0.6847 -0.3302
  138TCq2    O5 2110   3.955   2.847   9.024  0.0204  0.6646  0.1444
  138TCq2    O6 2111   4.075   2.666   9.071 -0.0674  0.3790 -0.6722
  138TCq2    H2 2112   4.068   2.617   9.309 -3.1111 -0.9670  0.7690
  138TCq2    H3 2113   4.008   3.004   9.185  1.0956  0.0214  0.0709
  138TCq2    H4 2114   3.990   2.923   9.603  1.9329  1.8285 -0.1460
  139TMC2    C1 2115   3.989   1.112  13.330  0.3078  0.4653  0.0083
  139TMC2    C2 2116   3.861   1.067  13.299  0.1704  0.2705  0.2078
  139TMC2    C3 2117   3.766   1.154  13.275  0.1864 -0.2020 -0.9173
  139TMC2    C4 2118   4.015   1.245  13.337 -0.1051 -0.4744 -0.2409
  139TMC2    C5 2119   3.912   1.333  13.328 -0.2867  0.1104  0.0246
  139TMC2    C6 2120   3.788   1.289  13.285  0.3910  0.0647  0.8907
  139TMC2     C 2121   4.089   1.015  13.347  0.3006 -0.1816  0.1147
  139TMC2     O 2122   4.072   0.911  13.283  0.2529 -0.4295  0.1519
  139TMC2     H 2123   3.842   0.961  13.280 -1.1778  0.6988 -0.8162
  139TMC2    H1 2124   4.111   1.284  13.369 -0.1154 -0.5116 -0.1644
  139TMC2    H2 2125   3.706   1.358  13.296  1.3418  1.1958  0.8541
  139TMC2    C7 2126   3.904   1.472  13.380  0.2432  0.4650 -0.1497
  139TMC2    C8 2127   3.632   1.110  13.298 -0.0946  0.1403  0.3871
  139TMC2    O1 2128   3.810   1.544  13.349  0.0876 -0.1834 -0.2093
  139TMC2    O2 2129   3.611   1.058  13.406 -0.4104 -0.9398 -0.1838
  139TMC2    O5 2130   3.548   1.180  13.217 -0.4519  0.2141  0.3140
  139TMC2    H5 2131   3.601   1.190  13.134 -0.1456 -1.8123  0.2684
  140MPD2     C 2132   4.395   1.006  13.561 -0.8672  0.5679 -0.4530
  140MPD2    C1 2133   4.322   0.987  13.445  0.6950 -0.0607 -0.0757
  140MPD2    C2 2134   4.377   0.894  13.362 -0.2610  0.7106  0.2822
  140MPD2    C3 2135   4.508   0.848  13.376  0.4323  0.6829 -0.3598
  140MPD2    C4 2136   4.587   0.885  13.484 -0.0379  0.4216  0.1374
  140MPD2    C5 2137   4.521   0.952  13.578 -0.0651  0.0012  0.0941
  140MPD2     H 2138   4.322   0.861  13.274 -0.4027  0.5036  0.4492
  140MPD2    H1 2139   4.695   0.878  13.494 -0.0731 -0.7062 -0.2879
  140MPD2    H2 2140   4.362   1.069  13.643 -0.8752  0.3572 -0.2950
  140MPD2    H3 2141   4.577   0.989  13.664  1.3381 -0.0554 -0.7962
  140MPD2     N 2142   4.559   0.768  13.272 -0.5937  0.3332 -0.6857
  140MPD2    H5 2143   4.507   0.761  13.185  0.7119  0.1235 -1.4529
  140MPD2    N1 2144   4.198   1.054  13.428  0.2986  0.1898 -0.5778
  140MPD2    H7 2145   4.190   1.136  13.488 -1.0838  1.8313 -2.9693
  141TCq2    C1 2146   0.109   3.246  14.211 -0.0732 -0.1589  0.8247
  141TCq2    O2 2147   0.007   3.184  14.245  0.2016 -0.6373 -0.2695
  141TCq2    C2 2148   0.142   3.363  14.291 -0.3248 -0.0899 -0.4008
  141TCq2    C3 2149   0.108   3.371  14.424 -0.1030 -0.3124  0.3351
  141TCq2    C4 2150   0.167   3.467  14.504 -0.0993 -0.5923  0.5639
  141TCq2    C5 2151   0.246   3.557  14.447 -0.1550  0.2662  0.8227
  141TCq2    C6 2152   0.259   3.562  14.312  0.1728  1.0301  0.2949
  141TCq2    C7 2153   0.215   3.461  14.226  0.0298  0.0746  0.5482
  141TCq2    C8 2154   0.362   3.644  14.258 -0.6936  0.3600  0.1354
  141TCq2    O4 2155   0.354   3.670  14.139 -0.0613 -0.2562 -0.3202
  141TCq2    C9 2156   0.119   3.486  14.633 -0.7099 -0.2106  0.0588
  141TCq2    O5 2157   0.013   3.424  14.664  0.2574  0.6172  0.2968
  141TCq2    O6 2158   0.179   3.572  14.702  0.2588  0.5524  0.7466
  141TCq2    H2 2159   0.034   3.299  14.459  0.1634 -0.2810  0.9563
  141TCq2    H3 2160   0.279   3.639  14.510  0.0208  0.7589  0.0847
  141TCq2    H4 2161   0.236   3.462  14.119  2.2274  2.7012  1.0029
  142MPD2     C 2162   2.853   1.103  10.135 -0.6728 -0.3641 -0.2533
  142MPD2    C1 2163   2.760   1.077  10.041 -0.0701 -0.2238  0.5523
  142MPD2    C2 2164   2.744   1.168   9.938 -0.0798  0.5667 -0.2261
  142MPD2    C3 2165   2.823   1.282   9.927 -0.4716 -0.8184  1.1110
  142MPD2    C4 2166   2.930   1.283  10.007 -0.3337  0.1963  0.2028
  142MPD2    C5 2167   2.946   1.200  10.109 -0.0241 -0.2557 -0.3633
  142MPD2     H 2168   2.658   1.160   9.873 -2.7495  0.4255  3.3057
  142MPD2    H1 2169   3.007   1.358   9.994 -3.0835  2.8666 -0.7316
  142MPD2    H2 2170   2.877   1.032  10.214 -0.5137  0.3501  0.3419
  142MPD2    H3 2171   3.037   1.196  10.169  0.2716 -0.1254 -0.7982
  142MPD2     N 2172   2.808   1.385   9.831 -0.2219 -0.3069 -0.7642
  142MPD2    H5 2173   2.883   1.453   9.835 -0.6329  0.0797  0.2309
  142MPD2    N1 2174   2.676   0.958  10.052 -0.3390  0.3405  0.1780
  142MPD2    H7 2175   2.701   0.900  10.131  0.2682  1.3176  0.7105
  143TCq2    C1 2176   2.692   1.421   9.761 -1.1121  1.0903 -0.0713
  143TCq2    O2 2177   2.581   1.366   9.758 -0.3163 -0.0874 -0.1261
  143TCq2    C2 2178   2.694   1.553   9.701 -0.0378  0.3940  0.1519
  143TCq2    C3 2179   2.616   1.573   9.596  0.5995  0.3902 -1.1744
  143TCq2    C4 2180   2.589   1.700   9.550  0.6573  0.0373 -0.2384
  143TCq2    C5 2181   2.640   1.813   9.616  0.6455 -0.3448 -0.1574
  143TCq2    C6 2182   2.727   1.784   9.721  0.2201 -0.4388 -0.2997
  143TCq2    C7 2183   2.761   1.655   9.762  0.0398 -0.3609 -0.4429
  143TCq2    C8 2184   2.799   1.893   9.785 -0.2358  0.4958 -0.7807
  143TCq2    O4 2185   2.870   1.877   9.882 -0.2101 -0.3322 -0.0772
  143TCq2    C9 2186   2.497   1.724   9.442 -0.0307 -0.3866  0.5826
  143TCq2    O5 2187   2.429   1.628   9.397  0.0465  0.0524  0.2856
  143TCq2    O6 2188   2.472   1.847   9.413  0.0422 -0.2877  0.5491
  143TCq2    H2 2189   2.580   1.482   9.548 -1.9569 -0.2608  2.0280
  143TCq2    H3 2190   2.613   1.915   9.591  1.7261  0.0681  0.3558
  143TCq2    H4 2191   2.824   1.642   9.849 -3.5957  1.2555  2.4657
  144MPD2     C 2192   0.393   0.601   0.534 -0.0432 -0.2243 -0.0946
  144MPD2    C1 2193   0.481   0.511   0.478  0.0739 -0.5092 -0.0665
  144MPD2    C2 2194   0.610   0.532   0.495  0.1173 -0.3618 -1.7604
  144MPD2    C3 2195   0.667   0.627   0.571 -0.7739 -0.0126 -0.7334
  144MPD2    C4 2196   0.584   0.712   0.636 -0.4632  0.1292 -0.6584
  144MPD2    C5 2197   0.445   0.700   0.620 -0.3914 -0.1305  0.0017
  144MPD2     H 2198   0.666   0.451   0.450 -0.6807 -1.4257 -0.8512
  144MPD2    H1 2199   0.628   0.783   0.705 -0.0238 -1.0387  0.2685
  144MPD2    H2 2200   0.290   0.621   0.505  0.0981 -2.0054 -1.8030
  144MPD2    H3 2201   0.374   0.770   0.662 -0.3413 -1.4011  2.1764
  144MPD2     N 2202   0.808   0.633   0.589  0.3984  0.6017  0.2173
  144MPD2    H5 2203   0.843   0.704   0.652 -1.4917  2.3254 -0.6694
  144MPD2    N1 2204   0.440   0.406   0.391 -0.4456  0.1658  0.4213
  144MPD2    H7 2205   0.511   0.346   0.351 -2.5003 -0.8133 -1.7229
  145TCq2    C1 2206   0.906   0.547   0.550 -0.1435 -0.3475 -0.0504
  145TCq2    O2 2207   0.907   0.458   0.468 -0.0401  0.5637 -0.3071
  145TCq2    C2 2208   1.044   0.592   0.591  0.0450 -0.6586  0.5806
  145TCq2    C3 2209   1.138   0.564   0.502 -0.8622  0.6322  0.4943
  145TCq2    C4 2210   1.268   0.591   0.539  0.8055 -0.6946  1.0163
  145TCq2    C5 2211   1.304   0.663   0.646  0.5673 -0.3118  0.7457
  145TCq2    C6 2212   1.204   0.703   0.730  0.6556 -0.0460 -0.0939
  145TCq2    C7 2213   1.069   0.664   0.705 -0.3729 -0.7913 -0.5388
  145TCq2    C8 2214   1.250   0.738   0.869  0.4102  0.5144  0.3009
  145TCq2    O4 2215   1.370   0.742   0.892  0.7805 -0.0026  0.0088
  145TCq2    C9 2216   1.383   0.530   0.463  0.6272 -0.5421 -0.2529
  145TCq2    O5 2217   1.502   0.565   0.487 -0.1869 -0.3351 -0.1701
  145TCq2    O6 2218   1.358   0.428   0.395 -0.1192 -0.0948  0.3504
  145TCq2    H2 2219   1.113   0.503   0.416  0.1141 -0.1007  0.7326
  145TCq2    H3 2220   1.409   0.674   0.669  1.0559  1.0312 -2.1172
  145TCq2    H4 2221   0.989   0.698   0.769 -0.6242 -0.2400 -1.1516
  146TMC2    C1 2222   1.459   4.046  12.864  0.1584  0.1086 -0.0642
  146TMC2    C2 2223   1.396   4.154  12.817  0.0771 -0.4576  0.2113
  146TMC2    C3 2224   1.446   4.204  12.697 -0.9211  0.0160 -0.2996
  146TMC2    C4 2225   1.571   3.993  12.798  0.1150 -0.7448 -0.7045
  146TMC2    C5 2226   1.638   4.060  12.698 -0.3530 -0.2744 -0.3437
  146TMC2    C6 2227   1.562   4.160  12.639  0.3519  0.3172  0.7510
  146TMC2     C 2228   1.447   4.027  13.008 -0.3531 -0.1338  0.3509
  146TMC2     O 2229   1.386   4.110  13.074 -0.0630  0.0135  0.0745
  146TMC2     H 2230   1.314   4.200  12.872  0.7899 -1.1119  1.8141
  146TMC2    H1 2231   1.633   3.924  12.854 -1.5091  0.3127  2.4380
  146TMC2    H2 2232   1.598   4.216  12.553 -1.5378 -0.6109 -0.6373
  146TMC2    C7 2233   1.768   4.020  12.650 -0.9040  0.5061  0.1196
  146TMC2    C8 2234   1.360   4.280  12.609 -0.1150  1.0382  0.4582
  146TMC2    O1 2235   1.810   4.087  12.559  0.0166  0.0262 -0.4506
  146TMC2    O2 2236   1.395   4.363  12.525  0.1171  0.4681  0.0200
  146TMC2    O5 2237   1.238   4.226  12.627 -0.2439  0.1708  0.4326
  146TMC2    H5 2238   1.243   4.152  12.691 -1.2048 -2.0468 -2.0783
  147MPD2     C 2239   2.228   3.803  12.673  0.3592  0.1347 -0.3499
  147MPD2    C1 2240   2.158   3.760  12.782  0.2608  0.5221 -0.0235
  147MPD2    C2 2241   2.030   3.805  12.808  0.3387 -0.2858  0.1860
  147MPD2    C3 2242   1.972   3.889  12.717 -0.1150  0.2952  0.3943
  147MPD2    C4 2243   2.048   3.936  12.606  0.2760 -0.0402 -0.0533
  147MPD2    C5 2244   2.168   3.884  12.585  0.4943  0.1737 -0.2143
  147MPD2     H 2245   1.980   3.773  12.899 -2.1958  2.4514 -0.2365
  147MPD2    H1 2246   2.002   3.999  12.531  0.7749 -0.1433 -0.4372
  147MPD2    H2 2247   2.324   3.758  12.653  0.5257  0.4643 -0.2930
  147MPD2    H3 2248   2.217   3.907  12.491  1.2909  0.6389  0.3067
  147MPD2     N 2249   1.837   3.928  12.732  0.8150 -0.0336  0.1235
  147MPD2    H5 2250   1.804   3.890  12.820  0.9013  1.9283  0.9998
  147MPD2    N1 2251   2.225   3.671  12.868 -0.0867  0.9941 -0.5610
  147MPD2    H7 2252   2.320   3.642  12.848 -0.4492 -0.1449 -0.6199
  148MPD2     C 2253   2.293   0.807  11.146  0.5211  0.2665 -0.8810
  148MPD2    C1 2254   2.278   0.940  11.132 -0.5522  0.6297 -0.1401
  148MPD2    C2 2255   2.237   0.983  11.011 -0.7865 -0.5415 -0.0448
  148MPD2    C3 2256   2.203   0.890  10.911  0.4395 -0.3811 -0.0526
  148MPD2    C4 2257   2.225   0.754  10.925 -0.3610  0.0760  0.3880
  148MPD2    C5 2258   2.272   0.718  11.047  0.2594  0.3370  0.0905
  148MPD2     H 2259   2.240   1.087  10.980 -1.8004 -0.5548 -0.1851
  148MPD2    H1 2260   2.198   0.686  10.845  0.5158  1.2718 -0.9465
  148MPD2    H2 2261   2.311   0.777  11.249 -0.3369 -1.4422 -1.2416
  148MPD2    H3 2262   2.292   0.611  11.051  0.8990  0.5043  1.3628
  148MPD2     N 2263   2.167   0.933  10.781  0.0128 -0.2564  0.2001
  148MPD2    H5 2264   2.156   0.861  10.710 -2.1533  0.3746 -0.1027
  148MPD2    N1 2265   2.302   1.031  11.231  0.5843 -0.2032  0.9407
  148MPD2    H7 2266   2.296   1.126  11.195  0.6705 -0.0813  1.2423
  149TCq2    C1 2267   2.371   1.010  11.348  0.0075 -0.1226  0.0284
  149TCq2    O2 2268   2.399   0.908  11.407  0.1231  0.1486 -0.0864
  149TCq2    C2 2269   2.430   1.134  11.396 -0.2633  0.0864  0.4971
  149TCq2    C3 2270   2.363   1.196  11.494  0.2937  0.9105  0.1386
  149TCq2    C4 2271   2.359   1.332  11.501  0.5595 -0.0513  0.6567
  149TCq2    C5 2272   2.391   1.400  11.384 -0.1302  0.0965  0.2041
  149TCq2    C6 2273   2.469   1.343  11.286 -0.5409  0.6014  0.6016
  149TCq2    C7 2274   2.491   1.206  11.295  0.1274 -0.0298 -0.0248
  149TCq2    C8 2275   2.518   1.418  11.171 -0.5480 -0.7463 -0.2610
  149TCq2    O4 2276   2.586   1.361  11.088  0.4661 -0.1804  0.8452
  149TCq2    C9 2277   2.275   1.401  11.595  0.8012 -0.0874  0.3348
  149TCq2    O5 2278   2.326   1.514  11.633 -0.1226  0.3347 -0.4333
  149TCq2    O6 2279   2.164   1.357  11.631 -0.1730  0.7923 -0.3382
  149TCq2    H2 2280   2.306   1.143  11.570 -0.0497  0.9784 -0.0695
  149TCq2    H3 2281   2.360   1.503  11.377 -1.4603 -0.3124  0.0356
  149TCq2    H4 2282   2.532   1.156  11.207 -0.2674 -0.1821 -0.1200
  150MPD2     C 2283   3.625   1.468  12.176 -0.5227 -0.0322  0.2190
  150MPD2    C1 2284   3.588   1.588  12.114  0.0688 -1.0642 -0.5827
  150MPD2    C2 2285   3.657   1.702  12.144  0.5775 -0.5425  0.5357
  150MPD2    C3 2286   3.765   1.701  12.228  0.2918 -0.0432  0.2273
  150MPD2    C4 2287   3.799   1.584  12.293 -0.7336 -0.4182  0.8578
  150MPD2    C5 2288   3.727   1.469  12.269 -0.2790  0.2102 -0.5528
  150MPD2     H 2289   3.627   1.796  12.099 -0.6229 -1.3876 -0.4056
  150MPD2    H1 2290   3.877   1.568  12.368 -0.6184  1.1201  1.0768
  150MPD2    H2 2291   3.573   1.375  12.160  1.9073 -1.2510 -0.5283
  150MPD2    H3 2292   3.759   1.381  12.323 -0.7765 -0.4686 -1.3579
  150MPD2     N 2293   3.833   1.826  12.247 -0.3821  0.1560  0.4236
  150MPD2    H5 2294   3.802   1.910  12.199  0.3144  0.2938  0.2111
  150MPD2    N1 2295   3.477   1.572  12.022 -0.0063 -0.4210 -0.0209
  150MPD2    H7 2296   3.444   1.479  11.998  0.0816 -0.9439  1.8528
  151TCq2    C1 2297   3.956   1.830  12.315 -0.3572  0.0604 -0.1466
  151TCq2    O2 2298   4.030   1.740  12.352 -1.0996  0.1270 -0.1887
  151TCq2    C2 2299   4.016   1.955  12.288 -0.0457  0.5981  0.4861
  151TCq2    C3 2300   3.982   2.037  12.189 -0.1722  0.0499  0.5065
  151TCq2    C4 2301   4.041   2.162  12.187 -0.6795 -0.3181  0.9051
  151TCq2    C5 2302   4.131   2.203  12.275  0.5787 -0.9440 -0.7149
  151TCq2    C6 2303   4.169   2.113  12.369  0.2554  0.8750 -0.1621
  151TCq2    C7 2304   4.116   1.988  12.372  0.4188  0.1548 -0.3167
  151TCq2    C8 2305   4.276   2.132  12.454  0.0871 -0.0948  0.9102
  151TCq2    O4 2306   4.313   2.248  12.476  0.2820 -0.1219 -0.7757
  151TCq2    C9 2307   4.000   2.253  12.082 -0.0399  0.7739 -0.1461
  151TCq2    O5 2308   4.021   2.377  12.107 -0.4149  0.2102 -0.4345
  151TCq2    O6 2309   3.935   2.217  11.980  0.1485 -0.0708  0.3432
  151TCq2    H2 2310   3.907   2.019  12.113  1.5374 -2.5960 -0.5420
  151TCq2    H3 2311   4.166   2.303  12.253  0.3236 -1.1019 -1.8219
  151TCq2    H4 2312   4.133   1.923  12.457 -2.1785 -0.4460 -0.2480
  152MPD2     C 2313   3.215   1.155  12.653 -0.8930 -0.6689  0.1423
  152MPD2    C1 2314   3.261   1.268  12.586 -0.7101 -0.2466 -0.3305
  152MPD2    C2 2315   3.166   1.330  12.501  0.2372 -0.2434  0.7133
  152MPD2    C3 2316   3.036   1.286  12.488 -0.5163  1.4242  0.1355
  152MPD2    C4 2317   3.000   1.175  12.562  0.1431 -0.1728  0.1793
  152MPD2    C5 2318   3.090   1.107  12.635  0.1279  0.2955 -0.2526
  152MPD2     H 2319   3.182   1.428  12.458  1.2422 -0.9871 -0.5918
  152MPD2    H1 2320   2.911   1.120  12.535  0.0531  0.7102 -1.3299
  152MPD2    H2 2321   3.277   1.092  12.716  0.8288  0.7177 -0.1934
  152MPD2    H3 2322   3.063   1.008  12.671 -1.9242  1.4322  1.3610
  152MPD2     N 2323   2.948   1.348  12.396  0.3011 -0.0716 -0.2587
  152MPD2    H5 2324   2.986   1.427  12.345 -2.2641  1.1958 -0.1962
  152MPD2    N1 2325   3.391   1.314  12.607  0.1800  0.2239  0.2416
  152MPD2    H7 2326   3.450   1.261  12.672 -0.1559  0.3680  0.6652
  153TCq2    C1 2327   3.452   1.424  12.549 -0.4182  0.1503 -0.1536
  153TCq2    O2 2328   3.395   1.515  12.485 -0.7066 -0.4657  0.8897
  153TCq2    C2 2329   3.583   1.448  12.599  0.1133 -0.6459 -0.4697
  153TCq2    C3 2330   3.660   1.330  12.617 -0.0789 -0.4040 -0.1435
  153TCq2    C4 2331   3.788   1.351  12.640  0.1196  0.0355 -0.0316
  153TCq2    C5 2332   3.841   1.476  12.649  0.0064 -0.2703 -0.2948
  153TCq2    C6 2333   3.758   1.586  12.642 -0.7593  0.2817 -0.0247
  153TCq2    C7 2334   3.628   1.575  12.621 -0.2992  0.3867  0.2618
  153TCq2    C8 2335   3.816   1.718  12.651 -0.8507 -0.4750 -0.2083
  153TCq2    O4 2336   3.737   1.807  12.628  0.0246 -0.7027 -0.2865
  153TCq2    C9 2337   3.873   1.241  12.648 -0.2040 -0.0263 -0.1701
  153TCq2    O5 2338   3.822   1.129  12.676  0.6074  0.4108 -0.2044
  153TCq2    O6 2339   3.999   1.255  12.657  0.3242  0.8628 -0.1513
  153TCq2    H2 2340   3.621   1.229  12.605  1.7255 -1.4867  3.1077
  153TCq2    H3 2341   3.949   1.475  12.647  0.0522  0.5032  1.5558
  153TCq2    H4 2342   3.565   1.656  12.587 -0.6277  0.0141 -0.0171
  154MPD2     C 2343   1.189   1.713   0.404  0.5774 -0.0556 -0.6170
  154MPD2    C1 2344   1.150   1.673   0.529  0.2415  0.0457  0.2961
  154MPD2    C2 2345   1.046   1.736   0.583  0.3559 -0.6308 -0.6462
  154MPD2    C3 2346   1.000   1.855   0.529  0.4664  0.7578 -0.8319
  154MPD2    C4 2347   1.062   1.907   0.420  0.5820  0.1288  0.3656
  154MPD2    C5 2348   1.155   1.835   0.346 -0.2720 -0.5386 -0.1223
  154MPD2     H 2349   0.986   1.695   0.663  1.2635  0.9542  0.8359
  154MPD2    H1 2350   1.035   2.003   0.377  2.1445  0.2354 -0.3840
  154MPD2    H2 2351   1.267   1.655   0.358  1.6091  2.8179 -2.5044
  154MPD2    H3 2352   1.203   1.863   0.253 -2.5228 -2.0328 -1.7350
  154MPD2     N 2353   0.883   1.911   0.583 -0.3170  0.1791  0.6530
  154MPD2    H5 2354   0.852   1.875   0.673  1.2979  0.1676  1.2018
  154MPD2    N1 2355   1.205   1.558   0.588  0.1923 -0.0289 -0.3566
  154MPD2    H7 2356   1.269   1.500   0.534 -0.9376 -1.3793 -0.2333
  155TCq2    C1 2357   1.189   1.526   0.719  0.1948 -0.3801  0.8091
  155TCq2    O2 2358   1.149   1.602   0.805 -0.2262  0.1179  0.0615
  155TCq2    C2 2359   1.260   1.405   0.754  0.0033  0.3120 -0.3599
  155TCq2    C3 2360   1.294   1.390   0.885 -0.1230 -0.3311 -0.2342
  155TCq2    C4 2361   1.366   1.280   0.912  1.1197 -0.0229 -0.0751
  155TCq2    C5 2362   1.395   1.183   0.826  0.1791  0.4024 -0.0270
  155TCq2    C6 2363   1.349   1.199   0.697 -0.3578 -0.0913  0.2151
  155TCq2    C7 2364   1.283   1.307   0.654  0.0866  0.5353  0.3085
  155TCq2    C8 2365   1.348   1.081   0.609  0.1934 -0.1849  0.3160
  155TCq2    O4 2366   1.427   0.995   0.634 -0.4685 -0.1363 -0.2233
  155TCq2    C9 2367   1.403   1.256   1.043 -0.3230 -0.2485 -0.2191
  155TCq2    O5 2368   1.361   1.330   1.131 -0.3187 -0.2880  0.0794
  155TCq2    O6 2369   1.484   1.165   1.075 -0.5956  0.7809  0.3377
  155TCq2    H2 2370   1.276   1.463   0.963 -0.5515  0.9357 -1.5298
  155TCq2    H3 2371   1.446   1.096   0.866  1.7985  1.2694 -0.1718
  155TCq2    H4 2372   1.250   1.319   0.551 -3.4249 -2.7678  1.0833
  156MPD2     C 2373   3.675   3.404  12.131 -0.4739 -0.0861  0.6834
  156MPD2    C1 2374   3.713   3.503  12.047  0.4307  0.1289 -0.3724
  156MPD2    C2 2375   3.842   3.548  12.059  0.1990 -0.5774 -0.0291
  156MPD2    C3 2376   3.939   3.470  12.126  0.3807  0.3974 -0.4265
  156MPD2    C4 2377   3.897   3.353  12.186  0.1736  0.4897  0.0526
  156MPD2    C5 2378   3.763   3.320  12.190 -0.3686  0.2445 -0.7147
  156MPD2     H 2379   3.885   3.638  12.017  1.2997 -0.5771  1.0948
  156MPD2    H1 2380   3.961   3.285  12.242 -1.2056 -0.5595  0.3548
  156MPD2    H2 2381   3.569   3.380  12.134 -0.2612 -0.8967  1.8991
  156MPD2    H3 2382   3.728   3.238  12.252  1.7012 -1.8492 -2.3039
  156MPD2     N 2383   4.074   3.506  12.119 -0.2035 -0.0174  0.2877
  156MPD2    H5 2384   4.108   3.584  12.064 -1.5229  2.0716  2.4128
  156MPD2    N1 2385   3.613   3.579  11.989  0.0107  0.1445 -0.0457
  156MPD2    H7 2386   3.518   3.555  12.014  0.0833  0.0479  0.1408
  157TCq2    C1 2387   3.625   3.680  11.896  0.0392  0.3023  0.1367
  157TCq2    O2 2388   3.723   3.740  11.849  0.1870  0.0018 -0.6234
  157TCq2    C2 2389   3.497   3.738  11.874  0.0309 -0.1245 -0.3776
  157TCq2    C3 2390   3.403   3.740  11.976 -0.2892  0.7291  0.3758
  157TCq2    C4 2391   3.294   3.820  11.962 -0.5759 -0.1848  0.0250
  157TCq2    C5 2392   3.271   3.887  11.850 -0.0110 -0.0379  0.2013
  157TCq2    C6 2393   3.369   3.887  11.753 -0.0287 -0.4996  0.2867
  157TCq2    C7 2394   3.489   3.824  11.769 -0.1682 -0.6219 -0.0725
  157TCq2    C8 2395   3.380   3.997  11.658 -0.3547  0.1230 -0.3951
  157TCq2    O4 2396   3.484   4.012  11.593  0.3500  0.7024 -0.5762
  157TCq2    C9 2397   3.205   3.808  12.069  0.6436 -0.0610  0.6622
  157TCq2    O5 2398   3.215   3.703  12.135 -0.2991  0.4668  0.8593
  157TCq2    O6 2399   3.110   3.886  12.062 -0.0085  0.2325  0.0340
  157TCq2    H2 2400   3.427   3.692  12.071 -0.3496  0.1307  0.0873
  157TCq2    H3 2401   3.173   3.932  11.842 -0.1543  0.0505  2.3184
  157TCq2    H4 2402   3.562   3.826  11.689 -1.4792  1.1910 -1.2436
  158TMC2    C1 2403   4.410   2.862  13.449 -0.2677  0.2175 -0.1146
  158TMC2    C2 2404   4.507   2.866  13.348 -0.6875 -0.2765 -0.0628
  158TMC2    C3 2405   4.461   2.881  13.219 -0.6881  0.2481 -0.2822
  158TMC2    C4 2406   4.273   2.851  13.418 -0.5609  0.3696 -1.3895
  158TMC2    C5 2407   4.232   2.850  13.286 -0.0235  0.2504  0.2134
  158TMC2    C6 2408   4.326   2.868  13.187 -0.5687 -1.1902 -1.1469
  158TMC2     C 2409   4.456   2.894  13.587  0.0856 -0.6202 -0.2404
  158TMC2     O 2410   4.572   2.925  13.607  0.0781 -0.3830  0.6328
  158TMC2     H 2411   4.612   2.884  13.370 -0.1367 -2.5611 -0.8005
  158TMC2    H1 2412   4.194   2.856  13.492  1.0513 -0.3704  0.3568
  158TMC2    H2 2413   4.291   2.892  13.088  3.6920  2.8549 -1.6785
  158TMC2    C7 2414   4.104   2.795  13.249 -0.2418 -0.2361 -1.2241
  158TMC2    C8 2415   4.557   2.875  13.113  0.0496 -0.4212  0.4274
  158TMC2    O1 2416   4.071   2.812  13.133  0.0021  0.3824 -0.4409
  158TMC2    O2 2417   4.516   2.843  13.003  0.7599 -0.4252 -0.0461
  158TMC2    O5 2418   4.675   2.936  13.141 -0.3239 -0.2421 -0.4054
  158TMC2    H5 2419   4.678   2.982  13.227  1.2804  0.0317 -0.6170
  159MPD2     C 2420   4.401   3.008  14.076  0.2948 -0.1481  0.2623
  159MPD2    C1 2421   4.285   2.943  14.033  0.7778 -0.0598 -0.3101
  159MPD2    C2 2422   4.271   2.921  13.897 -0.0455  0.0691 -0.2727
  159MPD2    C3 2423   4.369   2.953  13.812 -0.1126 -0.9410 -0.0578
  159MPD2    C4 2424   4.483   3.020  13.854 -0.1693 -0.3715 -0.3460
  159MPD2    C5 2425   4.491   3.055  13.985 -0.3027  0.2479 -0.2609
  159MPD2     H 2426   4.179   2.875  13.863 -1.4054  1.7269  1.1692
  159MPD2    H1 2427   4.564   3.047  13.787 -1.0593 -0.7832 -1.5981
  159MPD2    H2 2428   4.414   3.026  14.182 -1.0165 -0.9924  0.5762
  159MPD2    H3 2429   4.584   3.100  14.016 -0.4090  0.6880 -0.5754
  159MPD2     N 2430   4.353   2.903  13.679  0.2991 -0.9549 -0.1543
  159MPD2    H5 2431   4.270   2.852  13.649  0.1405 -1.1554  0.6243
  159MPD2    N1 2432   4.189   2.904  14.132  0.5080 -0.5179 -0.3095
  159MPD2    H7 2433   4.197   2.940  14.227  0.2085 -0.8693 -0.1495
  160TMC2    C1 2434   4.118   1.749   0.710  0.2385  0.0981 -0.8105
  160TMC2    C2 2435   4.077   1.634   0.643 -1.1202 -0.0285  0.1717
  160TMC2    C3 2436   4.132   1.614   0.519 -0.3135  0.4517  0.0598
  160TMC2    C4 2437   4.198   1.843   0.646 -0.1142 -0.3705 -0.0516
  160TMC2    C5 2438   4.254   1.810   0.526  0.4718 -0.7764  0.0237
  160TMC2    C6 2439   4.222   1.696   0.463 -0.2246 -0.0569  0.7328
  160TMC2     C 2440   4.156   1.741   0.849  0.1795 -0.4493 -0.3417
  160TMC2     O 2441   4.275   1.770   0.877 -0.0573 -0.0506  0.0213
  160TMC2     H 2442   4.024   1.554   0.692 -0.8548 -0.6385 -0.5305
  160TMC2    H1 2443   4.245   1.923   0.703 -0.7583  1.0071 -1.4698
  160TMC2    H2 2444   4.277   1.659   0.377  1.5548  1.6432  1.1264
  160TMC2    C7 2445   4.390   1.856   0.507  0.4894  0.4890 -0.5833
  160TMC2    C8 2446   4.091   1.502   0.443  0.3411 -0.2492  0.0107
  160TMC2    O1 2447   4.436   1.857   0.396  0.2525 -0.1555 -0.3205
  160TMC2    O2 2448   4.165   1.444   0.373 -0.2529 -0.0768 -0.0394
  160TMC2    O5 2449   3.960   1.510   0.436 -0.2356  0.9062  0.2638
  160TMC2    H5 2450   3.924   1.594   0.474 -0.0685  1.7260 -1.3937
  161MPD2     C 2451   4.160   1.702   1.140 -0.1769  0.9494 -0.4221
  161MPD2    C1 2452   4.041   1.692   1.063  0.0841 -0.2701  0.6319
  161MPD2    C2 2453   3.925   1.680   1.133 -0.0821  0.4875 -0.6330
  161MPD2    C3 2454   3.914   1.664   1.269  0.3047  0.2481  0.4874
  161MPD2    C4 2455   4.028   1.689   1.342  0.2660  0.2785 -0.5183
  161MPD2    C5 2456   4.150   1.700   1.281 -0.3152 -0.3863  0.0257
  161MPD2     H 2457   3.836   1.683   1.071  0.2904  0.1647 -1.1796
  161MPD2    H1 2458   4.032   1.689   1.450  1.9317  0.3231 -0.5847
  161MPD2    H2 2459   4.257   1.728   1.100 -0.4747  2.3272 -0.2334
  161MPD2    H3 2460   4.240   1.725   1.336 -1.1399  1.8440  0.3807
  161MPD2     N 2461   3.791   1.654   1.334 -0.3215  0.7392  0.0562
  161MPD2    H5 2462   3.794   1.651   1.435  0.3358 -0.1472  0.0037
  161MPD2    N1 2463   4.045   1.706   0.925 -0.4080  0.3070 -0.3476
  161MPD2    H7 2464   3.963   1.706   0.865  0.1393 -2.4998 -1.1092
  162TMC2    C1 2465   1.899   2.820   1.964  0.9328 -0.1046  0.0550
  162TMC2    C2 2466   1.769   2.856   1.996  0.0736 -0.1970 -0.5153
  162TMC2    C3 2467   1.739   2.875   2.128  0.1806 -0.9399 -0.5118
  162TMC2    C4 2468   1.981   2.771   2.055 -0.6160  0.5947 -0.4754
  162TMC2    C5 2469   1.946   2.771   2.189 -0.3401 -0.0973 -0.4824
  162TMC2    C6 2470   1.824   2.829   2.224 -0.4850 -0.2041  0.9109
  162TMC2     C 2471   1.959   2.870   1.841 -0.5333 -0.6918  0.1427
  162TMC2     O 2472   2.056   2.805   1.796  0.1187 -0.3180  0.6391
  162TMC2     H 2473   1.702   2.887   1.918 -1.1198 -0.2320  0.5029
  162TMC2    H1 2474   2.083   2.751   2.022 -0.3075 -1.5117  1.7943
  162TMC2    H2 2475   1.797   2.846   2.328 -0.9519  2.6713  0.3342
  162TMC2    C7 2476   2.053   2.770   2.290 -0.0831 -0.0826 -0.2964
  162TMC2    C8 2477   1.627   2.952   2.169  0.3199 -0.7487  0.4387
  162TMC2    O1 2478   2.047   2.836   2.392  0.1019 -0.5489  0.3128
  162TMC2    O2 2479   1.555   2.915   2.259 -0.4160  0.3694 -0.4833
  162TMC2    O5 2480   1.600   3.051   2.080 -0.0091 -0.1809 -0.0386
  162TMC2    H5 2481   1.686   3.075   2.039 -0.2193 -0.8121 -0.8511
  163MPD2     C 2482   1.914   3.184   1.427  0.1324  0.7866 -0.3573
  163MPD2    C1 2483   1.970   3.066   1.440 -0.4327  0.4070 -1.1220
  163MPD2    C2 2484   1.984   2.997   1.560 -0.1027 -0.1448  0.2121
  163MPD2    C3 2485   1.935   3.060   1.670 -0.0218 -0.0134  0.9481
  163MPD2    C4 2486   1.888   3.187   1.665 -0.1341  0.8190  0.1889
  163MPD2    C5 2487   1.877   3.249   1.538 -0.0447 -0.2815  0.1758
  163MPD2     H 2488   2.039   2.904   1.563 -0.7808 -0.5528  0.0824
  163MPD2    H1 2489   1.830   3.238   1.741 -0.9711 -1.5309  1.1319
  163MPD2    H2 2490   1.914   3.238   1.333  1.5415 -0.3253 -0.9931
  163MPD2    H3 2491   1.812   3.336   1.537 -0.1255 -0.3522 -0.7862
  163MPD2     N 2492   1.917   2.993   1.800  0.0490  0.5293 -0.0986
  163MPD2    H5 2493   1.861   3.048   1.865  2.8155  1.0750  1.8151
  163MPD2    N1 2494   2.030   3.001   1.330 -0.3765 -0.3414  0.3028
  163MPD2    H7 2495   2.071   2.912   1.356  1.7594 -0.3329 -3.0713
  164TCq2    C1 2496   2.524   2.828  10.829  0.4134  0.3114 -0.4380
  164TCq2    O2 2497   2.504   2.791  10.945  0.9136  0.3216 -0.1270
  164TCq2    C2 2498   2.430   2.921  10.760  0.4021  0.0603  0.4518
  164TCq2    C3 2499   2.423   2.928  10.621  0.0859 -1.0571  0.3774
  164TCq2    C4 2500   2.322   2.999  10.570 -0.3795 -0.3753 -0.8006
  164TCq2    C5 2501   2.223   3.054  10.646 -0.3758 -0.8252  0.0290
  164TCq2    C6 2502   2.228   3.035  10.785 -0.2666  0.0119  0.2733
  164TCq2    C7 2503   2.329   2.964  10.840 -0.2116  0.2809 -0.0675
  164TCq2    C8 2504   2.114   3.078  10.863  0.2467 -0.0871 -0.8960
  164TCq2    O4 2505   2.005   3.086  10.805 -0.1665 -0.1799 -0.1659
  164TCq2    C9 2506   2.293   2.998  10.427  0.6891 -0.0503 -1.0161
  164TCq2    O5 2507   2.361   2.913  10.363  0.2893  0.1587  0.0524
  164TCq2    O6 2508   2.211   3.079  10.372  0.5264  0.5029 -0.1854
  164TCq2    H2 2509   2.499   2.889  10.554  2.1409  1.4328  1.2417
  164TCq2    H3 2510   2.148   3.121  10.606  0.5905  1.4658  2.0247
  164TCq2    H4 2511   2.347   2.962  10.947 -2.4688  0.2522  0.3151
  165MPD2     C 2512   3.008   0.596   1.761 -0.4347  0.2706 -0.0127
  165MPD2    C1 2513   3.065   0.566   1.884  0.3231  0.6234 -0.3212
  165MPD2    C2 2514   3.166   0.645   1.926  0.4805  0.1425  0.1373
  165MPD2    C3 2515   3.223   0.745   1.851  0.0939 -0.4716  0.6606
  165MPD2    C4 2516   3.174   0.770   1.722  0.3226 -0.3447 -0.1215
  165MPD2    C5 2517   3.068   0.702   1.688 -0.1925 -0.2300 -0.0950
  165MPD2     H 2518   3.207   0.622   2.024  1.3047 -1.7318 -0.6472
  165MPD2    H1 2519   3.204   0.847   1.653  1.0503 -1.4728 -1.0612
  165MPD2    H2 2520   2.917   0.547   1.729  0.6224 -0.4421 -1.9099
  165MPD2    H3 2521   3.020   0.727   1.594  0.2315  0.9667  0.0115
  165MPD2     N 2522   3.341   0.820   1.881 -0.1367 -0.3798 -0.0350
  165MPD2    H5 2523   3.366   0.895   1.817 -0.9531  0.0307  0.1355
  165MPD2    N1 2524   3.010   0.457   1.951 -0.3033 -0.1474  1.4137
  165MPD2    H7 2525   2.936   0.413   1.897  0.6505 -0.5904  0.4687
  166TCq2    C1 2526   3.396   0.805   2.006 -0.1245  0.1508 -0.2552
  166TCq2    O2 2527   3.349   0.764   2.111  0.2392  0.2438  0.0456
  166TCq2    C2 2528   3.511   0.895   2.021 -0.5279 -0.1363  0.3181
  166TCq2    C3 2529   3.542   0.943   2.148 -0.8081  0.1916  0.0817
  166TCq2    C4 2530   3.650   1.029   2.165  0.5454  0.3805  0.1233
  166TCq2    C5 2531   3.718   1.083   2.055  0.3112  0.0667  0.3060
  166TCq2    C6 2532   3.679   1.041   1.932  0.5786  0.7524  0.0599
  166TCq2    C7 2533   3.571   0.950   1.910 -0.5154 -0.4466  0.0493
  166TCq2    C8 2534   3.756   1.095   1.822 -0.5373  0.0320 -0.2958
  166TCq2    O4 2535   3.872   1.137   1.843 -0.2146  0.0571 -0.2630
  166TCq2    C9 2536   3.684   1.067   2.300  0.3206  0.4215  0.7580
  166TCq2    O5 2537   3.608   1.018   2.388  0.2336 -0.2206  0.2488
  166TCq2    O6 2538   3.780   1.150   2.315  0.6792  0.3827  0.3868
  166TCq2    H2 2539   3.494   0.909   2.239  1.9890 -1.3098  1.0005
  166TCq2    H3 2540   3.809   1.139   2.073  0.2137 -0.0299  1.1336
  166TCq2    H4 2541   3.552   0.918   1.809 -0.0109  0.0703 -0.2160
  167TMC2    C1 2542   1.306   2.293  12.749  0.0448  0.1114 -0.5835
  167TMC2    C2 2543   1.190   2.302  12.821  0.5902 -0.1205  0.0785
  167TMC2    C3 2544   1.152   2.196  12.892  0.3621  0.1818 -0.9677
  167TMC2    C4 2545   1.388   2.181  12.747  0.4506  0.2851  0.1070
  167TMC2    C5 2546   1.341   2.075  12.821  0.3111  0.3838  0.2304
  167TMC2    C6 2547   1.229   2.080  12.893  0.3319 -0.6341 -0.0598
  167TMC2     C 2548   1.348   2.412  12.680 -0.2531 -0.2390  0.2458
  167TMC2     O 2549   1.303   2.518  12.721  0.5917  0.5475  0.0348
  167TMC2     H 2550   1.128   2.391  12.822  1.3272  0.3828  1.4334
  167TMC2    H1 2551   1.484   2.172  12.697 -0.0814  2.5722 -1.2955
  167TMC2    H2 2552   1.194   1.985  12.933 -2.8837  0.6090  0.1166
  167TMC2    C7 2553   1.416   1.953  12.823 -0.4205 -0.8042 -0.1965
  167TMC2    C8 2554   1.011   2.201  12.932  0.0177 -0.3611 -0.0733
  167TMC2    O1 2555   1.380   1.862  12.895 -0.0202  0.0737 -0.3719
  167TMC2    O2 2556   0.929   2.284  12.908 -0.3842 -0.0906 -1.1016
  167TMC2    O5 2557   0.976   2.067  12.934 -0.0120 -0.2820 -0.0123
  167TMC2    H5 2558   1.037   2.015  12.990 -1.3984 -1.7440  0.1342
  168MPD2     C 2559   1.523   2.617  12.530 -0.0194  0.3741 -0.1223
  168MPD2    C1 2560   1.492   2.486  12.491  0.7852  0.2248  0.0636
  168MPD2    C2 2561   1.540   2.448  12.367 -0.0837 -0.1660  0.1916
  168MPD2    C3 2562   1.616   2.532  12.285 -0.4182  0.5481  0.5582
  168MPD2    C4 2563   1.645   2.660  12.329  0.0039  0.4012  0.0970
  168MPD2    C5 2564   1.599   2.703  12.448 -0.1222 -0.5528  0.8980
  168MPD2     H 2565   1.517   2.349  12.332 -1.4819  0.8828 -1.8517
  168MPD2    H1 2566   1.693   2.733  12.265 -1.1200  1.7155  0.7361
  168MPD2    H2 2567   1.493   2.658  12.626  0.6778 -0.0555  0.2778
  168MPD2    H3 2568   1.619   2.803  12.484 -1.6826 -1.2836  3.7893
  168MPD2     N 2569   1.655   2.497  12.154  0.0997  0.1056 -0.3520
  168MPD2    H5 2570   1.711   2.569  12.110 -0.1536 -1.8517 -3.8517
  168MPD2    N1 2571   1.432   2.389  12.574  0.0415  0.2179  0.6886
  168MPD2    H7 2572   1.446   2.291  12.552  0.8007 -0.0899  2.5433
  169MPD1     C 2573   3.412   1.599   8.783  0.3977  0.1072  0.3193
  169MPD1    C1 2574   3.388   1.546   8.905  0.3507 -0.3947 -0.2321
  169MPD1    C2 2575   3.498   1.509   8.985  0.1051 -0.5714  0.6345
  169MPD1    C3 2576   3.631   1.546   8.944  0.8002 -0.2494 -0.4954
  169MPD1    C4 2577   3.644   1.616   8.826  0.0777 -0.2911 -0.1303
  169MPD1    C5 2578   3.536   1.638   8.739  0.4379  0.2089  0.0936
  169MPD1     H 2579   3.484   1.468   9.084 -1.1698 -0.9660  0.2924
  169MPD1    H1 2580   3.746   1.647   8.805  0.1515 -0.8484 -0.6114
  169MPD1    H2 2581   3.336   1.611   8.707  1.0006  0.8394 -0.1741
  169MPD1    H3 2582   3.550   1.676   8.638 -0.1060  2.6149  0.9301
  169MPD1     N 2583   3.739   1.524   9.034  0.1547  0.1946  0.0243
  169MPD1    H5 2584   3.720   1.479   9.123  0.1014  1.2577  0.5383
  169MPD1    N1 2585   3.259   1.497   8.928  0.8016  0.3303  0.1758
  169MPD1    H6 2586   3.191   1.568   8.905 -1.0373 -1.2847  0.6409
  169MPD1    H7 2587   3.243   1.477   9.027  0.1478 -1.9852 -0.4156
  170MPD1     C 2588   2.895   4.445  12.508 -0.1096  0.4482  0.1763
  170MPD1    C1 2589   2.812   4.546  12.546  0.4660  0.4198  0.8009
  170MPD1    C2 2590   2.799   4.572  12.690 -0.1761  0.1992  0.4438
  170MPD1    C3 2591   2.887   4.506  12.775 -0.3694  0.3485 -0.1350
  170MPD1    C4 2592   2.977   4.416  12.727 -0.4568 -1.1872  0.7212
  170MPD1    C5 2593   2.975   4.382  12.598 -0.1927 -0.4276  0.6888
  170MPD1     H 2594   2.724   4.639  12.730  1.0053  0.5439  2.0704
  170MPD1    H1 2595   3.052   4.360  12.782 -0.9350 -0.8785  1.6869
  170MPD1    H2 2596   2.899   4.402  12.408 -4.2729  0.3068  0.0638
  170MPD1    H3 2597   3.049   4.312  12.563  0.3719  0.6740 -0.3377
  170MPD1     N 2598   2.882   4.529  12.911  0.4260 -0.0204  0.2149
  170MPD1    H5 2599   2.834   4.610  12.947 -1.3421  0.1242 -2.4366
  170MPD1    N1 2600   2.720   4.593  12.449  0.0151  0.5267 -0.6032
  170MPD1    H6 2601   2.683   4.686  12.465  0.3907  0.5168  0.3230
  170MPD1    H7 2602   2.756   4.581  12.354  0.6955  1.4102 -0.4641
  171MPD1     C 2603   1.477   1.584  15.416 -0.0107  0.2613 -0.1353
  171MPD1    C1 2604   1.447   1.453  15.379 -0.0864  0.3521  0.4890
  171MPD1    C2 2605   1.503   1.356  15.464  0.5006 -0.4143 -0.0776
  171MPD1    C3 2606   1.617   1.391  15.540 -0.0643  0.0448  0.0419
  171MPD1    C4 2607   1.655   1.518  15.556  0.5649 -0.3243 -0.0767
  171MPD1    C5 2608   1.578   1.620  15.504  0.0941  0.2701  0.0090
  171MPD1     H 2609   1.468   1.254  15.457 -3.8269  1.0579 -0.2931
  171MPD1    H1 2610   1.754   1.542  15.593 -0.0198  0.4174  1.0267
  171MPD1    H2 2611   1.434   1.667  15.362 -0.5027 -0.7238 -1.2653
  171MPD1    H3 2612   1.609   1.724  15.513  1.4410 -0.2861  1.9249
  171MPD1     N 2613   1.688   1.288  15.610 -0.0450  0.6719 -0.7929
  171MPD1    H5 2614   1.768   1.318  15.666  0.0327 -1.8306  0.4578
  171MPD1    N1 2615   1.337   1.426  15.292 -0.3111 -0.3767  0.4432
  171MPD1    H6 2616   1.347   1.334  15.247  1.9747 -0.0291  0.2498
  171MPD1    H7 2617   1.335   1.494  15.216 -1.9409 -0.7941  0.1049
  172MPD1     C 2618   1.179   4.459  17.148  0.1115  0.3542  0.6908
  172MPD1    C1 2619   1.165   4.469  17.283  0.6707 -0.0769  0.4181
  172MPD1    C2 2620   1.112   4.591  17.328 -0.6275 -0.6861  0.0885
  172MPD1    C3 2621   1.052   4.689  17.247 -0.1163 -0.2747 -0.1735
  172MPD1    C4 2622   1.068   4.669  17.114  0.1382 -0.3698 -0.4240
  172MPD1    C5 2623   1.137   4.560  17.062  0.7130  0.5180 -0.1961
  172MPD1     H 2624   1.095   4.603  17.434 -0.1260  1.1725 -0.0242
  172MPD1    H1 2625   1.028   0.016  17.041  3.1021  1.2626 -0.5136
  172MPD1    H2 2626   1.206   4.361  17.111 -1.0505  0.6138 -0.8583
  172MPD1    H3 2627   1.138   4.543  16.955  3.2074  1.8337 -0.3699
  172MPD1     N 2628   0.983   0.082  17.290 -0.1271  0.5406 -0.2436
  172MPD1    H5 2629   0.992   0.162  17.229 -1.3964  1.0641  0.2620
  172MPD1    N1 2630   1.163   4.351  17.362  0.3149  0.3936 -0.0616
  172MPD1    H6 2631   1.182   4.381  17.457  0.9955 -1.0475  0.2550
  172MPD1    H7 2632   1.228   4.285  17.320  0.4037  2.0880 -2.6237
  173MPD1     C 2633   2.522   1.167  14.717 -0.6468 -0.0280  0.0207
  173MPD1    C1 2634   2.553   1.068  14.806  0.5224  0.1677 -0.0722
  173MPD1    C2 2635   2.483   0.955  14.808  0.0452 -1.0376 -0.1930
  173MPD1    C3 2636   2.358   0.950  14.744 -0.2628 -0.7980  0.4215
  173MPD1    C4 2637   2.319   1.057  14.660 -0.1690  0.6118 -0.5992
  173MPD1    C5 2638   2.406   1.162  14.650 -0.1124  0.7049  0.3325
  173MPD1     H 2639   2.504   0.875  14.877 -0.7471 -0.5675  0.5926
  173MPD1    H1 2640   2.220   1.063  14.616 -0.9510  2.2491  1.4164
  173MPD1    H2 2641   2.576   1.261  14.711 -1.4711  0.3594 -1.3870
  173MPD1    H3 2642   2.386   1.242  14.579  0.6929  0.1076 -0.5625
  173MPD1     N 2643   2.277   0.832  14.759 -0.5358  0.1657 -0.1143
  173MPD1    H5 2644   2.302   0.775  14.840  0.7015  0.5404 -0.2198
  173MPD1    N1 2645   2.679   1.075  14.874  0.3834  0.4327  0.1121
  173MPD1    H6 2646   2.683   1.012  14.953 -0.2981 -0.1970 -0.3558
  173MPD1    H7 2647   2.711   1.166  14.907 -1.8062  1.0037  0.6479
  174MPD1     C 2648   2.088   0.198  14.055 -0.2423 -0.4743 -0.0252
  174MPD1    C1 2649   2.065   0.121  14.165  0.0915 -0.0418 -0.0440
  174MPD1    C2 2650   2.026   0.181  14.283 -0.3166 -0.3594  0.1795
  174MPD1    C3 2651   2.012   0.321  14.282 -0.6932  0.7860 -0.0759
  174MPD1    C4 2652   2.022   0.389  14.165  0.1795 -0.7259 -0.4013
  174MPD1    C5 2653   2.052   0.329  14.048 -1.0879 -0.4193  0.2734
  174MPD1     H 2654   2.028   0.120  14.373  2.5348  0.3703  0.5969
  174MPD1    H1 2655   2.010   0.497  14.167  2.9412 -0.3908 -3.6669
  174MPD1    H2 2656   2.135   0.150  13.971 -0.1505 -0.7741  0.1972
  174MPD1    H3 2657   2.071   0.382  13.955 -0.5560 -1.3527 -0.1432
  174MPD1     N 2658   2.020   0.399  14.397 -0.0724 -0.3668 -0.1973
  174MPD1    H5 2659   2.034   0.500  14.393  1.2354 -0.4751  1.7011
  174MPD1    N1 2660   2.128   4.717  14.164 -0.4295  0.6863 -0.0642
  174MPD1    H6 2661   2.103   4.644  14.231 -0.8091 -0.5764 -1.5827
  174MPD1    H7 2662   2.144   4.678  14.071  0.3954  0.8115  0.0211
  175MPD1     C 2663   0.329   0.971  15.956  0.8857  0.5111  0.2413
  175MPD1    C1 2664   0.208   1.044  15.953  0.6763  0.0756 -0.4372
  175MPD1    C2 2665   0.178   1.124  16.060 -0.1283  0.2465 -0.5444
  175MPD1    C3 2666   0.271   1.136  16.161  0.5268  0.5523 -0.1235
  175MPD1    C4 2667   0.392   1.072  16.156 -0.0741 -0.5265 -0.2443
  175MPD1    C5 2668   0.420   0.987  16.051 -0.0282 -0.5714 -0.0942
  175MPD1     H 2669   0.092   1.190  16.059  1.1831  1.9135 -1.4619
  175MPD1    H1 2670   0.466   1.087  16.234  1.7898 -0.4946 -2.0048
  175MPD1    H2 2671   0.359   0.898  15.882 -3.3536 -0.1747 -0.8370
  175MPD1    H3 2672   0.516   0.937  16.057  1.7381  2.8501  0.5370
  175MPD1     N 2673   0.255   1.223  16.268 -0.0691 -0.0764 -0.3680
  175MPD1    H5 2674   0.332   1.215  16.334 -0.3658  0.3761  0.0268
  175MPD1    N1 2675   0.124   1.036  15.838  0.0615  0.1044  0.1444
  175MPD1    H6 2676   0.027   1.065  15.843  0.5606  1.7355  0.3452
  175MPD1    H7 2677   0.162   1.096  15.765 -0.1136  1.6672  1.3546
  176MPD1     C 2678   2.503   2.471  16.455 -0.4330  0.4419 -0.0427
  176MPD1    C1 2679   2.464   2.579  16.386 -0.1488 -0.2365 -0.0264
  176MPD1    C2 2680   2.402   2.684  16.455 -0.3617  0.0557  0.7858
  176MPD1    C3 2681   2.388   2.682  16.593  0.1032  0.5071 -0.9492
  176MPD1    C4 2682   2.445   2.576  16.662 -0.0360  0.7043  0.2875
  176MPD1    C5 2683   2.494   2.467  16.590 -0.4997  0.0631  0.4318
  176MPD1     H 2684   2.355   2.760  16.394  0.4318 -0.8087 -0.9260
  176MPD1    H1 2685   2.447   2.574  16.770 -0.1646 -1.2782  0.2571
  176MPD1    H2 2686   2.553   2.386  16.412  0.3910 -0.3803  2.5236
  176MPD1    H3 2687   2.532   2.379  16.640  1.2509  0.1523 -0.7466
  176MPD1     N 2688   2.316   2.789  16.661 -0.0876  0.2775 -0.0310
  176MPD1    H5 2689   2.311   2.876  16.609 -2.4162  0.4892  0.5738
  176MPD1    N1 2690   2.431   2.570  16.250 -0.1094 -0.0066 -1.2625
  176MPD1    H6 2691   2.432   2.661  16.204  0.3749 -0.0779 -1.3968
  176MPD1    H7 2692   2.494   2.501  16.209 -0.9472 -0.5819 -1.5604
  177MPD1     C 2693   0.439   3.748   9.635  0.5741 -1.0273 -0.5631
  177MPD1    C1 2694   0.306   3.768   9.671 -0.0418  0.2504 -0.8214
  177MPD1    C2 2695   0.216   3.711   9.579  0.9257 -0.1238  0.1876
  177MPD1    C3 2696   0.249   3.626   9.474  0.4667 -0.1136 -0.2415
  177MPD1    C4 2697   0.383   3.601   9.457  0.1080  0.8269 -0.5569
  177MPD1    C5 2698   0.479   3.666   9.533  0.2135 -0.0590 -0.1183
  177MPD1     H 2699   0.111   3.735   9.593  0.2136 -1.0862 -3.7570
  177MPD1    H1 2700   0.420   3.528   9.386 -2.3511 -1.2953  0.3507
  177MPD1    H2 2701   0.513   3.787   9.704 -0.4840 -0.4741  0.2517
  177MPD1    H3 2702   0.581   3.652   9.497  0.6177  0.6256  0.7688
  177MPD1     N 2703   0.148   3.568   9.402  0.0694 -0.5180  0.8338
  177MPD1    H5 2704   0.058   3.604   9.431  0.9050  2.0774  0.1572
  177MPD1    N1 2705   0.258   3.844   9.784  0.1587  0.6338  0.0817
  177MPD1    H6 2706   0.168   3.809   9.818 -1.3054  0.6085 -3.8788
  177MPD1    H7 2707   0.322   3.854   9.863  1.4561  0.9515 -1.0162
  178MPD1     C 2708   2.630   4.289   0.595  0.6780  0.3556  0.4145
  178MPD1    C1 2709   2.544   4.190   0.562 -0.4179  0.3385 -0.0307
  178MPD1    C2 2710   2.555   4.137   0.426 -0.1356  0.2785 -0.1425
  178MPD1    C3 2711   2.661   4.162   0.347 -0.3227 -0.0497  0.0485
  178MPD1    C4 2712   2.750   4.265   0.392  0.3554  0.2525  0.8360
  178MPD1    C5 2713   2.733   4.326   0.511  0.3209  0.7600 -0.0645
  178MPD1     H 2714   2.485   4.057   0.407  1.2451 -0.3854 -2.4641
  178MPD1    H1 2715   2.831   4.296   0.327 -0.6273  1.6314  0.2811
  178MPD1    H2 2716   2.621   4.344   0.688 -3.2067 -2.4649  1.7106
  178MPD1    H3 2717   2.795   4.410   0.540 -3.4150  3.4807  0.1065
  178MPD1     N 2718   2.692   4.101   0.227 -0.0296 -0.1144  0.3454
  178MPD1    H5 2719   2.770   4.141   0.176  0.7710  1.1316  2.5447
  178MPD1    N1 2720   2.429   4.170   0.635 -0.5357 -0.2554  0.3117
  178MPD1    H6 2721   2.435   4.194   0.734 -2.7547  0.5939  0.2394
  178MPD1    H7 2722   2.392   4.075   0.629 -0.6179 -0.1318 -1.1341
  179MPD1     C 2723   3.264   2.262  15.830 -0.6199  0.6712  0.7578
  179MPD1    C1 2724   3.169   2.292  15.740  0.1057 -0.6574  0.3340
  179MPD1    C2 2725   3.040   2.253  15.762 -0.4537 -0.2603  0.9156
  179MPD1    C3 2726   3.015   2.170  15.867  0.3244  0.9767 -0.3009
  179MPD1    C4 2727   3.112   2.126  15.953 -0.3368  0.1605 -0.3962
  179MPD1    C5 2728   3.235   2.184  15.936  0.0645 -0.0737 -0.1730
  179MPD1     H 2729   2.961   2.272  15.690 -1.2977  0.9484  2.1725
  179MPD1    H1 2730   3.093   2.074  16.046  0.4242  1.1603  0.3165
  179MPD1    H2 2731   3.368   2.291  15.816 -1.1378  2.2223  0.0766
  179MPD1    H3 2732   3.313   2.171  16.010  1.0702 -0.1499 -1.2322
  179MPD1     N 2733   2.881   2.122  15.902  0.1032 -1.0366 -0.0222
  179MPD1    H5 2734   2.876   2.066  15.987 -1.7635  1.5212  1.5404
  179MPD1    N1 2735   3.187   2.391  15.640  0.0571 -0.5335  0.4569
  179MPD1    H6 2736   3.285   2.397  15.613  0.0497  0.2128  0.6009
  179MPD1    H7 2737   3.137   2.369  15.555 -0.8159  3.4176 -0.0328
  180MPD1     C 2738   2.335   3.926  14.753  0.0877  0.1308 -0.4435
  180MPD1    C1 2739   2.442   3.854  14.692 -0.9732  0.4868 -0.0182
  180MPD1    C2 2740   2.412   3.742  14.615  0.0555 -0.8825  0.3819
  180MPD1    C3 2741   2.284   3.705  14.584  0.3772  0.3072  0.0562
  180MPD1    C4 2742   2.183   3.777  14.639 -0.1394  0.1909 -0.4722
  180MPD1    C5 2743   2.207   3.885  14.729  0.3092 -0.0292  0.0458
  180MPD1     H 2744   2.494   3.692  14.565  1.3391 -0.0304  1.6192
  180MPD1    H1 2745   2.080   3.749  14.620 -0.4510  1.2002 -0.2693
  180MPD1    H2 2746   2.351   4.006  14.824  0.7139 -1.4341  1.1899
  180MPD1    H3 2747   2.126   3.939  14.778 -0.4696 -1.2743  0.1420
  180MPD1     N 2748   2.260   3.599  14.490  0.3815 -0.4794 -0.4216
  180MPD1    H5 2749   2.345   3.547  14.472  0.4275 -0.7092  0.4747
  180MPD1    N1 2750   2.575   3.901  14.701  0.2390 -0.0287 -0.0105
  180MPD1    H6 2751   2.597   3.947  14.788 -0.3292 -1.2541  0.7783
  180MPD1    H7 2752   2.649   3.834  14.679 -0.9637  0.0944 -4.5655
  181MPD1     C 2753   3.634   4.109  10.022 -0.0105 -0.6688 -0.2124
  181MPD1    C1 2754   3.655   4.233  10.083  0.4694  0.1879  0.0079
  181MPD1    C2 2755   3.754   4.315  10.036  0.2141  0.1939 -0.3241
  181MPD1    C3 2756   3.819   4.280   9.913  0.2983  1.4795 -0.9512
  181MPD1    C4 2757   3.787   4.159   9.848 -0.4268 -0.4770  0.4730
  181MPD1    C5 2758   3.702   4.075   9.908 -0.4610  0.0872 -0.0495
  181MPD1     H 2759   3.770   4.411  10.083  2.2869  1.0103 -2.6818
  181MPD1    H1 2760   3.834   4.119   9.759  0.3741 -0.7352  1.0074
  181MPD1    H2 2761   3.563   4.038  10.064  0.0257  0.1375  1.2092
  181MPD1    H3 2762   3.672   3.986   9.853 -1.8841  0.9276 -0.6355
  181MPD1     N 2763   3.936   4.356   9.862  1.1597  0.3076  0.1172
  181MPD1    H5 2764   3.986   4.319   9.782 -1.2550 -1.1374 -0.7324
  181MPD1    N1 2765   3.569   4.279  10.184 -0.1656  0.0902 -0.3156
  181MPD1    H6 2766   3.595   4.370  10.221 -0.3769 -0.2165  0.5634
  181MPD1    H7 2767   3.579   4.216  10.263  2.7802  3.0291  1.6746
  182MPD1     C 2768   1.184   0.179   1.325  0.0531  0.3313  0.3992
  182MPD1    C1 2769   1.122   0.228   1.439 -0.2529 -0.2815 -0.3982
  182MPD1    C2 2770   0.985   0.208   1.456  0.3528 -0.4400 -0.1308
  182MPD1    C3 2771   0.911   0.147   1.361  0.0880  0.1788 -0.4145
  182MPD1    C4 2772   0.972   0.095   1.248 -0.1518 -0.1079  0.4341
  182MPD1    C5 2773   1.109   0.108   1.229 -0.2343 -0.1029 -0.7943
  182MPD1     H 2774   0.943   0.229   1.554 -0.2668  0.2167 -0.5440
  182MPD1    H1 2775   0.910   0.050   1.171 -1.4724 -0.8505  1.9459
  182MPD1    H2 2776   1.287   0.200   1.300 -0.5096  1.3430 -1.0159
  182MPD1    H3 2777   1.167   0.082   1.141 -1.4939 -1.7659 -1.1299
  182MPD1     N 2778   0.772   0.119   1.373  0.2754 -1.0759 -0.2704
  182MPD1    H5 2779   0.732   0.061   1.300  0.0399  0.4580 -1.3820
  182MPD1    N1 2780   1.211   0.273   1.544  0.4418 -0.2137  0.2582
  182MPD1    H6 2781   1.298   0.317   1.514  0.4245  0.3100  0.9610
  182MPD1    H7 2782   1.171   0.336   1.614 -0.1204 -0.2500 -0.0306
  183MPD1     C 2783   1.114   0.472   9.888  0.1568  0.4352 -0.3602
  183MPD1    C1 2784   1.094   0.333   9.897  0.5015  0.4815  0.2420
  183MPD1    C2 2785   0.989   0.275   9.828 -0.0791  0.3303  0.2206
  183MPD1    C3 2786   0.919   0.351   9.733 -0.5091 -0.6811  0.3019
  183MPD1    C4 2787   0.946   0.484   9.718  0.1872 -0.1991 -0.1960
  183MPD1    C5 2788   1.054   0.542   9.787 -0.4358 -0.0828  0.1834
  183MPD1     H 2789   0.961   0.174   9.858  2.4963 -0.9125 -1.5194
  183MPD1    H1 2790   0.899   0.550   9.647 -0.9377  1.6837  2.2907
  183MPD1    H2 2791   1.176   0.525   9.960  1.7525  0.8047 -1.9977
  183MPD1    H3 2792   1.064   0.649   9.785 -1.3505  0.0336  1.1975
  183MPD1     N 2793   0.807   0.286   9.681  0.2630  0.6312  0.2135
  183MPD1    H5 2794   0.787   0.189   9.706 -1.2208  0.5519 -1.3183
  183MPD1    N1 2795   1.151   0.276  10.012  0.3178 -0.0926 -0.2399
  183MPD1    H6 2796   1.134   0.180  10.038 -1.1939  0.0759 -0.6138
  183MPD1    H7 2797   1.246   0.306  10.036  1.3508 -2.0814 -1.8297
  184MPD1     C 2798   4.480   2.361   9.897  0.2655 -0.5525 -0.2303
  184MPD1    C1 2799   4.392   2.369   9.789 -0.0593  0.2405  0.6716
  184MPD1    C2 2800   4.386   2.493   9.718  0.2511 -0.6489  0.6692
  184MPD1    C3 2801   4.473   2.595   9.752 -0.7307  0.1998 -0.0949
  184MPD1    C4 2802   4.556   2.580   9.860  0.2756  0.3775  0.7440
  184MPD1    C5 2803   4.558   2.462   9.937 -0.1347  0.5673  0.2830
  184MPD1     H 2804   4.321   2.502   9.632  0.5304 -1.3401  0.3880
  184MPD1    H1 2805   4.620   2.660   9.895  1.1013  0.0474 -0.0131
  184MPD1    H2 2806   4.472   2.272   9.958 -1.0871 -0.3504 -0.1097
  184MPD1    H3 2807   4.626   2.453  10.021 -2.3981 -0.0963  2.0738
  184MPD1     N 2808   4.487   2.715   9.684 -0.2895 -0.0497  0.0599
  184MPD1    H5 2809   4.557   2.776   9.725  0.6577  0.7460 -2.7454
  184MPD1    N1 2810   4.321   2.252   9.749 -0.4915  1.2122 -0.0228
  184MPD1    H6 2811   4.230   2.268   9.708 -0.0679  0.1473 -1.3670
  184MPD1    H7 2812   4.309   2.187   9.827 -3.4321  0.1358 -1.3813
  185MPD1     C 2813   4.129   3.105   8.793  0.5963  0.0687 -0.1281
  185MPD1    C1 2814   4.097   3.184   8.896  0.0881  0.7550  0.1520
  185MPD1    C2 2815   4.159   3.162   9.020 -0.6119 -0.0774 -0.1044
  185MPD1    C3 2816   4.253   3.058   9.032  0.2778 -0.3461  0.1318
  185MPD1    C4 2817   4.266   2.968   8.931  0.4775  0.0700 -0.9082
  185MPD1    C5 2818   4.214   2.996   8.807 -0.8307  0.0783 -0.0689
  185MPD1     H 2819   4.127   3.222   9.105  1.7784  0.7180  0.2156
  185MPD1    H1 2820   4.326   2.879   8.948  0.0106  0.1387  1.1607
  185MPD1    H2 2821   4.085   3.124   8.696 -4.3173  1.2685  2.3272
  185MPD1    H3 2822   4.237   2.938   8.718  2.2462 -0.5098  1.1306
  185MPD1     N 2823   4.318   3.027   9.155 -0.0125  0.0965 -0.0503
  185MPD1    H5 2824   4.374   2.942   9.158 -0.5516 -0.2343  0.8579
  185MPD1    N1 2825   3.988   3.274   8.873  0.7141  0.3148 -0.4744
  185MPD1    H6 2826   3.988   3.313   8.779 -1.9015 -2.6192 -1.6728
  185MPD1    H7 2827   3.986   3.358   8.931  0.3272 -0.8053  1.1175
  186MPD1     C 2828   2.938   1.414  17.042 -0.1510 -0.3368 -0.1531
  186MPD1    C1 2829   3.002   1.476  16.939 -0.1527 -0.7175  0.3359
  186MPD1    C2 2830   2.961   1.603  16.901  0.1889  0.1693  0.2119
  186MPD1    C3 2831   2.876   1.674  16.983  0.0354 -0.1273 -0.2515
  186MPD1    C4 2832   2.814   1.612  17.090  0.1680  0.5152  0.0175
  186MPD1    C5 2833   2.836   1.479  17.102  0.0378 -0.3264  0.2246
  186MPD1     H 2834   3.014   1.654  16.821 -0.4968  3.2266  1.6967
  186MPD1    H1 2835   2.737   1.659  17.151 -0.9208 -0.0244 -0.9392
  186MPD1    H2 2836   2.961   1.315  17.079 -0.4640 -0.0388  0.8590
  186MPD1    H3 2837   2.784   1.427  17.181 -1.7071  1.6741  0.3971
  186MPD1     N 2838   2.846   1.810  16.976 -0.2844  0.1682  0.6101
  186MPD1    H5 2839   2.772   1.843  17.038 -1.3721 -1.6824  0.2960
  186MPD1    N1 2840   3.104   1.405  16.871 -0.3608 -0.4534 -0.1954
  186MPD1    H6 2841   3.160   1.339  16.925 -0.6473  0.9169  1.7599
  186MPD1    H7 2842   3.178   1.467  16.839 -1.0481  0.9043  0.8789
  187MPD1     C 2843   2.112   3.664   0.139  0.0383  0.1356  0.1004
  187MPD1    C1 2844   2.057   3.584   0.040  0.3459  0.2142 -0.4391
  187MPD1    C2 2845   2.097   3.612  17.600  0.8319  0.2702 -0.0360
  187MPD1    C3 2846   2.172   3.723  17.566 -0.3676 -0.5294 -0.1878
  187MPD1    C4 2847   2.217   3.798  17.670 -0.0530  0.0733  0.2668
  187MPD1    C5 2848   2.189   3.772   0.107  0.4698  0.1208  0.5584
  187MPD1     H 2849   2.070   3.545  17.519  0.9006 -0.0502  0.2036
  187MPD1    H1 2850   2.282   3.881  17.643 -2.9102  1.8145 -1.2426
  187MPD1    H2 2851   2.111   3.649   0.246  2.6859  0.3695  0.1365
  187MPD1    H3 2852   2.234   3.832   0.185 -0.2978  1.4587 -0.0427
  187MPD1     N 2853   2.184   3.768  17.428 -0.8093  0.9177 -0.3690
  187MPD1    H5 2854   2.232   3.855  17.411  1.1822  0.1441  1.3390
  187MPD1    N1 2855   1.987   3.464   0.074  0.0823 -0.3916  0.4910
  187MPD1    H6 2856   1.920   3.493   0.145  1.2930  0.8156  1.1404
  187MPD1    H7 2857   1.924   3.433   0.001 -2.0152  2.6523  0.9821
  188MPD1     C 2858   1.553   4.142  10.355  0.8602  0.4814  0.3712
  188MPD1    C1 2859   1.559   4.060  10.460  0.7062  0.6724  0.4389
  188MPD1    C2 2860   1.627   3.942  10.451 -0.8004  0.1184  0.1598
  188MPD1    C3 2861   1.683   3.900  10.331 -0.5622  0.0510 -0.0184
  188MPD1    C4 2862   1.683   3.993  10.226  0.6205  0.6369 -0.5274
  188MPD1    C5 2863   1.626   4.114  10.241  0.0499  0.0502 -1.3084
  188MPD1     H 2864   1.623   3.879  10.539  0.8728 -0.1252  0.0577
  188MPD1    H1 2865   1.754   3.977  10.145  0.0004 -1.6669 -0.6244
  188MPD1    H2 2866   1.509   4.241  10.356  1.4998  0.7767 -1.1942
  188MPD1    H3 2867   1.616   4.179  10.155  2.6368 -1.0087 -2.3883
  188MPD1     N 2868   1.749   3.779  10.305 -0.2490  0.4026 -0.4330
  188MPD1    H5 2869   1.777   3.750  10.211 -1.3479  2.1381 -1.2938
  188MPD1    N1 2870   1.505   4.101  10.583  0.2053 -0.2969  0.5940
  188MPD1    H6 2871   1.487   4.025  10.648  3.4940 -0.9522  0.7105
  188MPD1    H7 2872   1.415   4.147  10.567  0.9442  0.4597 -1.3806
  189MPD1     C 2873   4.187   4.705   0.260  0.3837  0.1517 -0.9217
  189MPD1    C1 2874   4.069   4.645   0.233  0.3303 -0.2118  0.3667
  189MPD1    C2 2875   3.960   0.004   0.205 -0.1687 -0.4202 -0.1137
  189MPD1    C3 2876   3.971   0.147   0.200  0.2481 -0.1222  0.5099
  189MPD1    C4 2877   4.097   0.199   0.213  0.1620 -0.8658 -0.3482
  189MPD1    C5 2878   4.206   0.120   0.240 -0.1153 -0.0016  0.5082
  189MPD1     H 2879   3.867   4.672   0.212 -0.8707  0.7586 -0.4802
  189MPD1    H1 2880   4.113   0.305   0.201 -0.2640 -0.8391 -0.7040
  189MPD1    H2 2881   4.274   4.650   0.293  0.5320  0.7828 -0.2530
  189MPD1    H3 2882   4.309   0.151   0.253 -0.0419 -0.2998  0.6350
  189MPD1     N 2883   3.860   0.227   0.173 -0.3340 -0.2093  0.1439
  189MPD1    H5 2884   3.779   0.177   0.139 -0.6038  0.7975 -0.6529
  189MPD1    N1 2885   4.041   4.516   0.285 -0.1252  0.2667  0.3883
  189MPD1    H6 2886   3.973   4.483   0.216 -0.9667  1.5862  0.5917
  189MPD1    H7 2887   4.120   4.453   0.274  0.3907  0.9033  0.4993
  190MPD1     C 2888   2.025   2.856  15.314 -0.4473 -0.7348  0.3913
  190MPD1    C1 2889   2.025   2.905  15.438 -0.0357  0.4724 -0.4983
  190MPD1    C2 2890   2.139   2.972  15.483  0.5974 -0.0208 -0.5122
  190MPD1    C3 2891   2.249   2.999  15.411 -0.0959 -0.0148 -0.1357
  190MPD1    C4 2892   2.245   2.944  15.290  0.1187 -0.8855  0.3770
  190MPD1    C5 2893   2.136   2.880  15.244 -0.1730  0.0347  0.1088
  190MPD1     H 2894   2.143   2.989  15.590  1.6410  1.0018 -0.7058
  190MPD1    H1 2895   2.325   2.952  15.217 -1.2059 -0.9933 -1.1019
  190MPD1    H2 2896   1.942   2.805  15.266  0.9266 -2.1300 -0.4941
  190MPD1    H3 2897   2.133   2.843  15.143  1.2284  1.4852 -0.4533
  190MPD1     N 2898   2.359   3.070  15.466  0.5128  0.0315  0.1236
  190MPD1    H5 2899   2.336   3.094  15.562 -0.7282  0.8519 -0.3853
  190MPD1    N1 2900   1.906   2.885  15.514  0.4931  0.5914  0.3068
  190MPD1    H6 2901   1.915   2.912  15.612  1.8293  1.1377  0.0321
  190MPD1    H7 2902   1.864   2.793  15.509 -0.2084  0.8639  1.0746
  191MPD1     C 2903   1.633   0.452  13.426 -0.3266  0.4113  0.3707
  191MPD1    C1 2904   1.670   0.412  13.298  0.1256 -0.6530 -0.3155
  191MPD1    C2 2905   1.623   0.490  13.193 -0.2014  0.2910  0.4504
  191MPD1    C3 2906   1.523   0.577  13.205  0.4312 -0.4909 -0.3801
  191MPD1    C4 2907   1.481   0.611  13.334  0.5006  0.5041 -0.4544
  191MPD1    C5 2908   1.540   0.547  13.440 -0.3178 -0.4345  0.7250
  191MPD1     H 2909   1.654   0.464  13.093  2.1105 -1.6586  1.6555
  191MPD1    H1 2910   1.412   0.690  13.360  1.4438  0.5950  1.7659
  191MPD1    H2 2911   1.679   0.400  13.509 -0.7905  0.0929  0.4323
  191MPD1    H3 2912   1.517   0.583  13.539 -0.5200  1.4109  0.0083
  191MPD1     N 2913   1.477   0.642  13.092  0.1029  0.2327 -0.3161
  191MPD1    H5 2914   1.523   0.621  13.005  0.9937 -1.5987  0.5885
  191MPD1    N1 2915   1.780   0.329  13.277  0.2276  0.0491 -0.2661
  191MPD1    H6 2916   1.763   0.286  13.186 -0.9545  1.2691 -0.6192
  191MPD1    H7 2917   1.782   0.258  13.349  0.7210  0.7983  0.4551
  192MPD1     C 2918   0.601   0.720  12.685  0.3913 -0.0184 -0.5901
  192MPD1    C1 2919   0.678   0.800  12.600 -0.2635 -0.5368 -0.9688
  192MPD1    C2 2920   0.804   0.844  12.651  0.2066 -0.1434 -0.1967
  192MPD1    C3 2921   0.863   0.800  12.770 -0.0391 -0.1393  0.8452
  192MPD1    C4 2922   0.781   0.716  12.844  0.1015  0.4425 -0.0822
  192MPD1    C5 2923   0.655   0.675  12.797  0.2030 -0.6355 -0.8673
  192MPD1     H 2924   0.856   0.914  12.587 -0.6283 -0.1137 -0.8522
  192MPD1    H1 2925   0.817   0.675  12.938  0.9296  1.1114 -0.1118
  192MPD1    H2 2926   0.501   0.685  12.663 -0.4670  0.3384  2.6880
  192MPD1    H3 2927   0.604   0.611  12.867  0.2557 -1.7186 -1.8218
  192MPD1     N 2928   0.993   0.827  12.815  0.4410  0.1047 -0.0269
  192MPD1    H5 2929   1.016   0.777  12.900 -0.3839 -1.5302 -0.7612
  192MPD1    N1 2930   0.616   0.850  12.487 -0.2694 -1.0970  0.1078
  192MPD1    H6 2931   0.691   0.868  12.420  1.4491  0.5418  2.4450
  192MPD1    H7 2932   0.546   0.788  12.447  0.2139 -2.3693  1.2361
  193MPD1     C 2933   1.248   1.157  16.101 -0.0307  0.2254  0.6446
  193MPD1    C1 2934   1.340   1.078  16.151  0.4477  0.3920 -0.2843
  193MPD1    C2 2935   1.433   1.120  16.240 -0.0138 -0.1202 -0.2878
  193MPD1    C3 2936   1.453   1.253  16.270  0.6449  0.3507 -0.3250
  193MPD1    C4 2937   1.370   1.343  16.203  0.4135  0.3134 -0.0867
  193MPD1    C5 2938   1.268   1.290  16.124 -0.9259 -0.7625 -0.2267
  193MPD1     H 2939   1.497   1.046  16.287  0.4456 -0.0573 -0.8145
  193MPD1    H1 2940   1.371   1.449  16.222 -2.4022  0.6087 -1.5103
  193MPD1    H2 2941   1.160   1.123  16.048 -1.5448  1.6053  2.2476
  193MPD1    H3 2942   1.206   1.364  16.075  1.2387  0.0678 -1.6954
  193MPD1     N 2943   1.549   1.307  16.358 -0.0825  0.3460  0.1726
  193MPD1    H5 2944   1.553   1.408  16.353  1.9512  0.2343 -0.4770
  193MPD1    N1 2945   1.330   0.943  16.110  0.4759  0.3032 -0.0817
  193MPD1    H6 2946   1.417   0.891  16.109  2.2192  3.2239 -0.9153
  193MPD1    H7 2947   1.279   0.932  16.022  0.9855  0.3139 -0.3819
  194MPD1     C 2948   3.450   2.480   0.797  0.4203  0.2599 -0.3073
  194MPD1    C1 2949   3.477   2.371   0.713 -0.6861  0.3164 -0.7298
  194MPD1    C2 2950   3.506   2.391   0.575  0.3061 -0.2026 -0.2173
  194MPD1    C3 2951   3.500   2.523   0.533  0.1311 -0.3739 -0.6486
  194MPD1    C4 2952   3.480   2.632   0.620 -0.3003 -0.4950 -0.1959
  194MPD1    C5 2953   3.442   2.605   0.745  0.6262  0.5080 -0.5935
  194MPD1     H 2954   3.533   2.311   0.508  2.4258 -0.0015  0.4130
  194MPD1    H1 2955   3.487   2.735   0.586  0.6330 -0.5255 -0.0811
  194MPD1    H2 2956   3.431   2.468   0.903 -1.1353 -0.7814 -0.6973
  194MPD1    H3 2957   3.419   2.687   0.813 -0.8474 -0.2242 -0.2122
  194MPD1     N 2958   3.552   2.563   0.407  1.1193  0.0392  0.2414
  194MPD1    H5 2959   3.556   2.662   0.386  0.3184  0.1641  0.6763
  194MPD1    N1 2960   3.502   2.250   0.777  0.8692 -0.2845  0.3451
  194MPD1    H6 2961   3.423   2.230   0.838  0.3034 -1.8003 -0.8833
  194MPD1    H7 2962   3.495   2.180   0.704  2.1625  2.5509 -2.4860
  195MPD1     C 2963   1.948   4.150  17.360  0.0926  0.5031 -0.3826
  195MPD1    C1 2964   2.011   4.111  17.483  0.0914  0.2656  0.1577
  195MPD1    C2 2965   1.956   4.009  17.555  0.4304  0.1104 -0.5650
  195MPD1    C3 2966   1.831   3.955  17.512  0.4381  0.4397  0.1472
  195MPD1    C4 2967   1.786   3.982  17.389  0.0950 -0.0959  0.4909
  195MPD1    C5 2968   1.843   4.085  17.318  0.3079 -0.0369 -0.3746
  195MPD1     H 2969   1.992   3.963  17.646 -0.3016  0.5738 -0.0443
  195MPD1    H1 2970   1.708   3.922  17.343 -0.8484  1.5143  0.0036
  195MPD1    H2 2971   1.972   4.232  17.294 -0.6831  0.4963 -0.6763
  195MPD1    H3 2972   1.803   4.121  17.224  1.5539  0.6179 -0.6568
  195MPD1     N 2973   1.768   3.852  17.572 -0.0710 -0.5759 -0.5742
  195MPD1    H5 2974   1.698   3.800  17.519 -1.4646  0.8423 -0.1110
  195MPD1    N1 2975   2.132   4.172  17.523  0.0480 -0.4655  0.0734
  195MPD1    H6 2976   2.133   4.269  17.492 -1.9216  0.7228  3.7910
  195MPD1    H7 2977   2.148   4.166  17.623  2.3728  1.3813 -0.2095
  196MPD1     C 2978   1.751   4.603  17.679  0.2073 -0.4208 -0.4229
  196MPD1    C1 2979   1.845   4.551   0.080  0.0444 -0.0291 -0.1903
  196MPD1    C2 2980   1.857   4.605   0.205 -0.2167  0.0289  0.1818
  196MPD1    C3 2981   1.782   4.719   0.241 -0.6527 -1.2382 -0.7745
  196MPD1    C4 2982   1.696   0.051   0.146  0.3498  0.0643  0.6698
  196MPD1    C5 2983   1.683   4.718   0.023 -0.3131  0.1415 -0.1023
  196MPD1     H 2984   1.915   4.546   0.276  0.9556  1.2473  0.2308
  196MPD1    H1 2985   1.626   0.132   0.161 -0.3547 -0.4435  0.1352
  196MPD1    H2 2986   1.722   4.570  17.580  1.8192 -0.0652 -1.0049
  196MPD1    H3 2987   1.627   0.046  17.637  0.4761  0.5459 -0.4071
  196MPD1     N 2988   1.791   0.049   0.371  0.4747 -0.1769  0.6168
  196MPD1    H5 2989   1.722   0.115   0.407 -0.8302 -1.1413 -0.1140
  196MPD1    N1 2990   1.911   4.432   0.058  0.4277 -0.4998  0.3453
  196MPD1    H6 2991   1.941   4.413  17.655 -0.5889 -1.9984  0.3130
  196MPD1    H7 2992   2.006   4.431   0.096  0.6223 -1.6616 -0.1689
  197MPD1     C 2993   4.231   2.513   0.002  0.0801  0.3842  0.0774
  197MPD1    C1 2994   4.348   2.456   0.023 -0.0329  0.0705 -0.1352
  197MPD1    C2 2995   4.415   2.404  17.600  0.1499  0.1927 -0.4326
  197MPD1    C3 2996   4.357   2.411  17.473  0.2513  0.3551 -0.6733
  197MPD1    C4 2997   4.232   2.470  17.463 -0.1088 -0.6320  0.0764
  197MPD1    C5 2998   4.166   2.515  17.568 -0.7278  0.0532 -0.8085
  197MPD1     H 2999   4.515   2.363  17.611  0.1031  0.3891  0.7124
  197MPD1    H1 3000   4.181   2.482  17.369 -0.9397  1.1178  0.7484
  197MPD1    H2 3001   4.177   2.563   0.081 -0.9367  0.0687 -0.4230
  197MPD1    H3 3002   4.070   2.563  17.553 -0.6663  0.1314 -0.9527
  197MPD1     N 3003   4.420   2.377  17.357  0.3876  0.0501 -0.3248
  197MPD1    H5 3004   4.375   2.405  17.271  1.2812 -1.4113 -1.2724
  197MPD1    N1 3005   4.425   2.482   0.143 -0.7355 -0.1748 -0.0882
  197MPD1    H6 3006   4.491   2.407   0.162 -0.2199  0.0929 -0.8567
  197MPD1    H7 3007   4.373   2.493   0.230 -1.9296  0.3379 -0.8636
  198MPD1     C 3008   2.078   0.041  15.695  0.8892  0.6853  0.2518
  198MPD1    C1 3009   2.125   4.637  15.674  1.0965 -0.2212  0.8189
  198MPD1    C2 3010   2.257   4.601  15.711  0.3339  0.1562 -0.0266
  198MPD1    C3 3011   2.336   4.690  15.790 -0.2991  0.2254  0.0874
  198MPD1    C4 3012   2.282   0.096  15.809  0.2701 -0.1950  0.8676
  198MPD1    C5 3013   2.153   0.123  15.766 -0.2968  0.1703  1.0317
  198MPD1     H 3014   2.296   4.501  15.697  0.9196  0.1158  1.8688
  198MPD1    H1 3015   2.332   0.183  15.849  0.5777 -0.8571  1.9348
  198MPD1    H2 3016   1.975   0.061  15.669  0.0816 -2.5950  0.9890
  198MPD1    H3 3017   2.109   0.221  15.783 -1.1197 -0.2050  1.0877
  198MPD1     N 3018   2.464   4.650  15.845  0.0590  0.2163  0.1053
  198MPD1    H5 3019   2.512   4.566  15.816  0.4145  0.3845  0.2026
  198MPD1    N1 3020   2.048   4.555  15.590 -0.6113 -0.3624  0.6312
  198MPD1    H6 3021   2.058   4.454  15.600 -0.6612 -0.3185  1.1492
  198MPD1    H7 3022   1.950   4.576  15.603  0.0666  1.9867  1.8206
  199MPD1     C 3023   0.567   0.518   9.898 -0.1262  0.2503 -0.6079
  199MPD1    C1 3024   0.528   0.637   9.838 -0.8647  0.3445  0.3984
  199MPD1    C2 3025   0.408   0.644   9.763 -0.2837  0.5827 -0.2553
  199MPD1    C3 3026   0.325   0.527   9.761  0.0078  0.0458 -0.2965
  199MPD1    C4 3027   0.369   0.416   9.823 -0.3649  0.2861 -0.2406
  199MPD1    C5 3028   0.486   0.409   9.895  0.8008  0.6106  0.1947
  199MPD1     H 3029   0.372   0.738   9.723  0.7303  2.3270  2.9495
  199MPD1    H1 3030   0.304   0.329   9.819  0.7904 -0.4966 -2.1663
  199MPD1    H2 3031   0.659   0.512   9.955 -0.4779  3.8053  0.3015
  199MPD1    H3 3032   0.515   0.323   9.953 -1.0130  0.1043  0.3671
  199MPD1     N 3033   0.203   0.506   9.684  0.2429 -0.6836 -0.6009
  199MPD1    H5 3034   0.156   0.416   9.693 -0.2274 -0.3353  0.4058
  199MPD1    N1 3035   0.609   0.748   9.858  0.2891  0.5060  0.4239
  199MPD1    H6 3036   0.562   0.837   9.877 -0.1525 -0.0189  1.7990
  199MPD1    H7 3037   0.681   0.730   9.928 -0.1759  0.5048  0.9031
  200MPD1     C 3038   3.189   0.885  15.016  0.4315 -0.2843  0.3767
  200MPD1    C1 3039   3.165   0.825  14.896  0.2963 -0.1226 -0.0718
  200MPD1    C2 3040   3.280   0.776  14.833 -0.0143  0.6279  0.4025
  200MPD1    C3 3041   3.412   0.798  14.876 -0.2372 -0.4571 -0.2708
  200MPD1    C4 3042   3.426   0.858  15.002  0.0114  0.0065 -0.4100
  200MPD1    C5 3043   3.312   0.899  15.064  0.6358  0.2439 -0.2575
  200MPD1     H 3044   3.263   0.720  14.742  1.0597  0.0086  0.5804
  200MPD1    H1 3045   3.521   0.874  15.051 -0.3582 -0.7920  0.5723
  200MPD1    H2 3046   3.118   0.931  15.085 -0.7928 -0.4610 -0.7810
  200MPD1    H3 3047   3.328   0.948  15.160 -2.0824  2.8332 -1.1079
  200MPD1     N 3048   3.517   0.744  14.798 -0.1721 -0.0189 -0.0867
  200MPD1    H5 3049   3.493   0.690  14.716 -1.9799  1.7491 -0.7379
  200MPD1    N1 3050   3.039   0.793  14.849  0.2200 -0.3159 -0.0982
  200MPD1    H6 3051   3.036   0.783  14.747  1.1556  0.1505 -0.1788
  200MPD1    H7 3052   2.969   0.856  14.887  0.9056  1.2290 -1.3662
  201MPD1     C 3053   1.369   0.229  13.055  0.1778 -0.1504 -0.7712
  201MPD1    C1 3054   1.326   0.182  13.184  0.2379  0.0544  0.1569
  201MPD1    C2 3055   1.265   0.065  13.199  0.9743 -0.5897  0.6747
  201MPD1    C3 3056   1.259   4.699  13.089 -0.0566  0.0295 -0.7833
  201MPD1    C4 3057   1.301   0.013  12.966  0.5060  0.1979 -0.0780
  201MPD1    C5 3058   1.369   0.137  12.953 -0.2803  0.4397  0.4146
  201MPD1     H 3059   1.223   0.033  13.294 -1.6185  3.5623  0.9275
  201MPD1    H1 3060   1.299   4.668  12.881 -0.6178 -1.4624  1.2700
  201MPD1    H2 3061   1.413   0.328  13.051  1.6049 -0.7667 -0.3172
  201MPD1    H3 3062   1.422   0.162  12.862 -0.8877  0.4451  0.0637
  201MPD1     N 3063   1.197   4.579  13.110  0.4870 -0.7222  0.3297
  201MPD1    H5 3064   1.168   4.561  13.206  1.4012 -4.2334 -0.0410
  201MPD1    N1 3065   1.331   0.279  13.288 -0.1366 -0.0715  0.3863
  201MPD1    H6 3066   1.405   0.348  13.300 -1.1085  0.7705  1.5222
  201MPD1    H7 3067   1.301   0.235  13.374 -1.2405 -0.8107 -0.3662
  202MPD1     C 3068   1.506   4.539   9.650  0.4700  0.5619 -0.3112
  202MPD1    C1 3069   1.555   4.484   9.763  0.2588 -0.0370  0.1790
  202MPD1    C2 3070   1.475   4.387   9.821  0.4040 -0.4543  1.1522
  202MPD1    C3 3071   1.357   4.339   9.768 -0.3139  0.2607 -0.1327
  202MPD1    C4 3072   1.326   4.385   9.639  0.0427 -0.1585 -0.4206
  202MPD1    C5 3073   1.405   4.479   9.577  0.3350 -0.4668 -0.0507
  202MPD1     H 3074   1.519   4.345   9.911 -3.2346 -0.6362  2.8428
  202MPD1    H1 3075   1.237   4.343   9.594  0.4812 -1.7223  0.1916
  202MPD1    H2 3076   1.561   4.622   9.607 -2.2754  1.1709 -2.6527
  202MPD1    H3 3077   1.385   4.514   9.477  0.8031  0.2425  0.1095
  202MPD1     N 3078   1.264   4.243   9.823  0.5269  0.0264  0.4507
  202MPD1    H5 3079   1.169   4.243   9.786 -0.2816  1.9001  2.5332
  202MPD1    N1 3080   1.638   4.557   9.848  0.1168  0.3920 -0.1966
  202MPD1    H6 3081   1.705   4.617   9.801  0.2436 -0.7902 -1.5184
  202MPD1    H7 3082   1.702   4.512   9.912 -1.7279 -0.7471  0.8661
  203MPD1     C 3083   4.485   0.502  12.420  0.6090 -0.1043 -0.1027
  203MPD1    C1 3084   4.434   0.405  12.337 -0.3501 -0.4519  0.1678
  203MPD1    C2 3085   4.432   0.277  12.388 -0.0485 -0.7130  0.1846
  203MPD1    C3 3086   4.494   0.250  12.508  0.0184 -0.0933  0.2473
  203MPD1    C4 3087   4.567   0.345  12.579 -0.1714 -0.2531 -0.5280
  203MPD1    C5 3088   4.557   0.469  12.529 -0.9664 -1.0189  0.5265
  203MPD1     H 3089   4.381   0.200  12.332 -0.8404 -0.0055 -0.0798
  203MPD1    H1 3090   4.620   0.311  12.668 -1.0079 -0.4825 -0.1180
  203MPD1    H2 3091   4.473   0.608  12.398 -0.7475  0.0170  1.2234
  203MPD1    H3 3092   4.618   0.545  12.576 -2.0974 -0.4422  1.0739
  203MPD1     N 3093   4.500   0.111  12.544  0.1310  0.5904 -0.8163
  203MPD1    H5 3094   4.457   0.043  12.483 -0.0321  0.9021 -1.0494
  203MPD1    N1 3095   4.358   0.438  12.226  0.7836  0.1428 -0.4149
  203MPD1    H6 3096   4.339   0.366  12.156 -1.8169  0.2156  0.2246
  203MPD1    H7 3097   4.401   0.519  12.183 -2.2129  1.6967 -0.4792
  204MPD1     C 3098   3.818   1.736   0.064 -0.7326 -0.7580  0.0677
  204MPD1    C1 3099   3.775   1.699  17.628 -0.4022  0.1668  0.1644
  204MPD1    C2 3100   3.794   1.569  17.587  0.0527  0.8361  0.6238
  204MPD1    C3 3101   3.874   1.478  17.656  0.2705  0.7424 -0.1772
  204MPD1    C4 3102   3.922   1.523   0.088  0.4097 -0.3607  0.2024
  204MPD1    C5 3103   3.894   1.649   0.136  0.3753  0.4576  0.4176
  204MPD1     H 3104   3.761   1.552  17.485  0.9362 -0.9835  0.6489
  204MPD1    H1 3105   3.994   1.467   0.146  0.9972  0.2810  0.0883
  204MPD1    H2 3106   3.812   1.840   0.091  0.3523 -0.6847 -0.0081
  204MPD1    H3 3107   3.938   1.685   0.228  0.2954 -1.0887  1.0502
  204MPD1     N 3108   3.903   1.357  17.589 -0.3676 -0.3688  0.5643
  204MPD1    H5 3109   3.867   1.346  17.495 -0.5949  0.8353  0.5097
  204MPD1    N1 3110   3.694   1.784  17.550  0.0474 -0.6965 -0.0080
  204MPD1    H6 3111   3.657   1.742  17.465  0.8698  0.7415 -1.0798
  204MPD1    H7 3112   3.713   1.884  17.549 -0.1121 -0.6925 -1.7219
  205MPD1     C 3113   3.474   4.430  17.038  0.2412 -0.0888 -0.0273
  205MPD1    C1 3114   3.493   4.567  17.029 -0.2616  0.5131  0.4353
  205MPD1    C2 3115   3.598   4.624  17.106  0.0099 -1.1084 -0.1652
  205MPD1    C3 3116   3.651   4.548  17.205 -0.1473 -0.1166  0.0071
  205MPD1    C4 3117   3.624   4.411  17.212 -0.1393 -0.5468 -0.5498
  205MPD1    C5 3118   3.547   4.352  17.113  0.3885 -0.1438  0.6053
  205MPD1     H 3119   3.640   4.721  17.086 -1.9480 -0.1151  0.4757
  205MPD1    H1 3120   3.669   4.355  17.292 -2.7305 -0.1773  1.1713
  205MPD1    H2 3121   3.399   4.385  16.975 -0.2313  0.2135  0.3191
  205MPD1    H3 3122   3.541   4.244  17.105 -0.1285 -0.1863  1.5147
  205MPD1     N 3123   3.746   4.595  17.300  0.2169  0.5169  0.0941
  205MPD1    H5 3124   3.794   4.521  17.351 -1.9542  1.7342  3.8912
  205MPD1    N1 3125   3.424   4.643  16.932 -0.4389  0.9912  0.1653
  205MPD1    H6 3126   3.486   4.698  16.873  0.6346  0.3526  0.7108
  205MPD1    H7 3127   3.372   4.581  16.871 -0.4221  0.5207  0.6233
  206MPD1     C 3128   3.178   3.547  16.131 -0.0033 -0.3727  0.4965
  206MPD1    C1 3129   3.160   3.427  16.187  0.0570 -0.3103 -1.1934
  206MPD1    C2 3130   3.262   3.337  16.181 -0.6395 -0.5234  0.0777
  206MPD1    C3 3131   3.369   3.355  16.100  0.4636  0.0155  0.0486
  206MPD1    C4 3132   3.375   3.470  16.022 -0.0161  0.0673  0.4264
  206MPD1    C5 3133   3.282   3.566  16.035  0.4405  0.0424  0.1061
  206MPD1     H 3134   3.267   3.253  16.249  1.4129 -1.7164 -1.5247
  206MPD1    H1 3135   3.461   3.490  15.958  0.8601  1.7331  2.1058
  206MPD1    H2 3136   3.107   3.628  16.142  0.8203  0.2572  1.2573
  206MPD1    H3 3137   3.294   3.657  15.979  0.9206 -0.7051 -1.0039
  206MPD1     N 3138   3.474   3.268  16.080  0.0609  0.2280 -0.8199
  206MPD1    H5 3139   3.549   3.305  16.022  0.9948 -3.0588 -1.7161
  206MPD1    N1 3140   3.060   3.408  16.286 -0.2674 -0.0615  0.0728
  206MPD1    H6 3141   2.981   3.471  16.267 -1.0678 -1.0729  0.0624
  206MPD1    H7 3142   3.022   3.316  16.308 -0.3631 -0.2455 -0.8660
  207MPD1     C 3143   1.766   0.755   9.634  0.1188  0.5789 -0.8201
  207MPD1    C1 3144   1.799   0.634   9.696 -0.1799  0.3659  0.2841
  207MPD1    C2 3145   1.914   0.634   9.775  0.3571  0.6074 -0.1492
  207MPD1    C3 3146   1.978   0.754   9.810 -0.6205  0.2379 -0.1437
  207MPD1    C4 3147   1.921   0.870   9.764 -0.0818  0.0560  0.5995
  207MPD1    C5 3148   1.818   0.871   9.685  0.0649  0.3729  0.0324
  207MPD1     H 3149   1.954   0.539   9.808  1.1885  1.1944  0.5275
  207MPD1    H1 3150   1.954   0.970   9.791  0.2184  0.0853  0.1312
  207MPD1    H2 3151   1.693   0.766   9.555 -0.1229  2.1238 -0.3938
  207MPD1    H3 3152   1.781   0.964   9.644  0.8549 -0.2330 -2.0160
  207MPD1     N 3153   2.097   0.768   9.883  0.3349  0.0955 -0.4384
  207MPD1    H5 3154   2.131   0.860   9.912  1.1861 -0.8571  1.6218
  207MPD1    N1 3155   1.733   0.517   9.647 -0.5131  0.2695  0.0555
  207MPD1    H6 3156   1.633   0.529   9.637 -0.8469 -1.2889  1.3039
  207MPD1    H7 3157   1.752   0.430   9.698  2.3405  0.8143 -0.0746
  208MPD1     C 3158   0.873   0.033   0.275  0.3624 -0.0168 -0.2061
  208MPD1    C1 3159   0.819   0.107   0.375  0.0695 -0.3201 -0.0285
  208MPD1    C2 3160   0.688   0.085   0.411  0.1657 -0.1463  0.2284
  208MPD1    C3 3161   0.604   0.012   0.325 -0.1414 -0.1256 -0.1796
  208MPD1    C4 3162   0.661   4.679   0.213  0.1682  0.1886  0.2211
  208MPD1    C5 3163   0.794   4.691   0.183 -0.0306 -0.3555 -0.1856
  208MPD1     H 3164   0.641   0.122   0.501  3.2579  0.3698  1.6272
  208MPD1    H1 3165   0.593   4.616   0.158 -0.1999 -0.1654  1.0755
  208MPD1    H2 3166   0.981   0.042   0.269  0.3455  0.6967  0.5754
  208MPD1    H3 3167   0.842   4.643   0.098 -0.2487  1.3355 -1.2665
  208MPD1     N 3168   0.471   4.711   0.357 -0.1676 -0.3185 -0.2179
  208MPD1    H5 3169   0.440   0.008   0.451  1.2883  0.7779  0.0213
  208MPD1    N1 3170   0.906   0.152   0.477  0.2020 -0.3272 -0.5498
  208MPD1    H6 3171   0.995   0.181   0.438 -0.8591 -1.4721 -3.8751
  208MPD1    H7 3172   0.873   0.236   0.524  0.7341 -1.2489  1.4700
  209MPD1     C 3173   2.738   0.223  11.567 -0.9144  0.2905  0.2628
  209MPD1    C1 3174   2.640   0.205  11.468 -0.0339 -1.3345  0.0025
  209MPD1    C2 3175   2.668   0.231  11.339  0.2408  0.2783  0.0924
  209MPD1    C3 3176   2.802   0.253  11.298 -0.9841  0.1501 -0.1711
  209MPD1    C4 3177   2.898   0.257  11.396 -0.2993  0.1616 -0.0887
  209MPD1    C5 3178   2.867   0.251  11.526 -0.2497 -0.5069  0.8354
  209MPD1     H 3179   2.587   0.232  11.267  0.8839 -1.0660 -0.6462
  209MPD1    H1 3180   3.004   0.273  11.377 -0.5115  0.7449 -0.7978
  209MPD1    H2 3181   2.727   0.213  11.674  0.5341  1.0759  0.4848
  209MPD1    H3 3182   2.942   0.272  11.601  0.4382 -1.5419  0.4414
  209MPD1     N 3183   2.830   0.261  11.156  0.0405 -0.1800 -0.2546
  209MPD1    H5 3184   2.760   0.227  11.092 -1.8929  1.5230  0.9706
  209MPD1    N1 3185   2.508   0.185  11.507  0.2787  0.4210 -0.6386
  209MPD1    H6 3186   2.449   0.158  11.428  0.7014 -2.9162  0.1676
  209MPD1    H7 3187   2.496   0.120  11.584  0.0258 -0.6301 -1.5469
  210MPD1     C 3188   3.572   0.518  10.360 -0.5279  0.3342 -0.0798
  210MPD1    C1 3189   3.557   0.578  10.484  0.6665  0.3686 -0.3352
  210MPD1    C2 3190   3.451   0.539  10.564  0.3429 -0.0111  0.4897
  210MPD1    C3 3191   3.368   0.430  10.527 -0.1601 -0.5097 -0.1005
  210MPD1    C4 3192   3.380   0.373  10.403  1.1295 -0.4245  0.3182
  210MPD1    C5 3193   3.485   0.414  10.323 -0.7621  0.1496 -0.2807
  210MPD1     H 3194   3.432   0.589  10.658 -1.5758  1.0878 -0.4613
  210MPD1    H1 3195   3.317   0.290  10.373 -0.1170  0.8469 -0.6093
  210MPD1    H2 3196   3.654   0.537  10.291  2.0171 -4.0663  1.7597
  210MPD1    H3 3197   3.494   0.371  10.223  1.8498  2.9127 -1.2324
  210MPD1     N 3198   3.268   0.378  10.603 -1.1957  0.1392  0.1194
  210MPD1    H5 3199   3.217   0.306  10.552  0.2871 -1.3426  0.7160
  210MPD1    N1 3200   3.633   0.697  10.513  0.2585  0.0201 -0.8517
  210MPD1    H6 3201   3.724   0.702  10.467  0.9298  1.4154  0.6389
  210MPD1    H7 3202   3.650   0.709  10.612 -4.0508  0.8827 -0.2558
  211MPD1     C 3203   0.282   4.387  16.826  0.4800  0.4410  0.2032
  211MPD1    C1 3204   0.215   4.390  16.943  0.0990 -0.9207  0.7700
  211MPD1    C2 3205   0.149   4.508  16.983  0.3855  0.4208  0.5287
  211MPD1    C3 3206   0.124   4.608  16.890  0.5188 -0.1100 -0.0484
  211MPD1    C4 3207   0.190   4.598  16.770  0.2439  0.3850 -0.1411
  211MPD1    C5 3208   0.270   4.494  16.737  0.1738 -0.5530  0.0312
  211MPD1     H 3209   0.108   4.508  17.083  1.0356 -0.7502  0.7916
  211MPD1    H1 3210   0.187   4.683  16.703 -0.7467 -0.7207 -1.4840
  211MPD1    H2 3211   0.347   4.303  16.805 -1.0180 -0.4483 -0.8610
  211MPD1    H3 3212   0.323   4.492  16.643  0.7027 -2.9261  0.3771
  211MPD1     N 3213   0.031   4.710  16.929  0.4409  0.6304  0.1843
  211MPD1    H5 3214   4.705   4.701  17.017 -0.5329  1.3002 -0.2856
  211MPD1    N1 3215   0.241   4.296  17.045 -0.0065 -0.7067  0.0096
  211MPD1    H6 3216   0.251   4.203  17.006 -1.4989 -1.1022  0.5481
  211MPD1    H7 3217   0.175   4.297  17.123  0.8520 -1.0946  0.7336
  212MPD1     C 3218   3.903   3.216  17.047  0.1302 -1.2890  0.5153
  212MPD1    C1 3219   3.805   3.293  17.111 -0.7797 -0.2141  0.2937
  212MPD1    C2 3220   3.699   3.222  17.159 -0.0567 -0.3040 -0.1682
  212MPD1    C3 3221   3.671   3.085  17.138 -0.2625  1.1713  0.2202
  212MPD1    C4 3222   3.770   3.019  17.071 -0.3822  0.8318  0.0395
  212MPD1    C5 3223   3.885   3.083  17.032  0.2640  0.9318 -1.1913
  212MPD1     H 3224   3.634   3.280  17.224 -1.4498 -1.7749 -0.2387
  212MPD1    H1 3225   3.757   2.916  17.039  0.1931  0.7500  0.0670
  212MPD1    H2 3226   4.000   3.256  17.022  0.5089 -1.8629  1.0872
  212MPD1    H3 3227   3.957   3.019  16.983  0.6533  0.5887 -0.1626
  212MPD1     N 3228   3.561   3.014  17.181 -0.6492 -0.0461  0.1457
  212MPD1    H5 3229   3.552   2.918  17.149  2.2729  0.3484 -1.9056
  212MPD1    N1 3230   3.820   3.429  17.140 -0.2277 -0.2754 -0.6639
  212MPD1    H6 3231   3.881   3.475  17.073  0.7173  1.0937  1.1345
  212MPD1    H7 3232   3.730   3.476  17.152 -0.9005 -1.3514 -1.5822
  213MPD1     C 3233   1.784   3.692  15.903 -0.2817  0.0875 -0.1886
  213MPD1    C1 3234   1.821   3.582  15.832  0.2551 -0.0252  0.2489
  213MPD1    C2 3235   1.942   3.601  15.756 -0.3796 -0.1860 -0.6439
  213MPD1    C3 3236   1.999   3.725  15.732  0.0457  0.4955  0.1025
  213MPD1    C4 3237   1.948   3.834  15.798 -0.2223  0.2314  0.2994
  213MPD1    C5 3238   1.834   3.817  15.879 -0.1030  0.6214 -0.4095
  213MPD1     H 3239   1.992   3.515  15.712  1.7877 -0.5473  2.4612
  213MPD1    H1 3240   1.967   3.937  15.771 -0.9388  0.1927 -0.3527
  213MPD1    H2 3241   1.684   3.680  15.943 -0.7159 -0.3062 -1.3746
  213MPD1    H3 3242   1.780   3.902  15.921  0.4276  1.0089 -0.5137
  213MPD1     N 3243   2.090   3.735  15.620 -0.3169 -0.4004  0.2559
  213MPD1    H5 3244   2.104   3.653  15.562 -1.2842 -1.0764  0.9716
  213MPD1    N1 3245   1.770   3.455  15.874  0.0983 -0.5829  0.1206
  213MPD1    H6 3246   1.675   3.446  15.910 -0.9118  0.2095 -2.4014
  213MPD1    H7 3247   1.766   3.399  15.790  0.1811  0.4425 -0.5612
  214MPD1     C 3248   2.112   3.369  14.740 -0.0425 -0.3148 -0.1812
  214MPD1    C1 3249   2.019   3.423  14.826 -0.2322  0.2848  0.1595
  214MPD1    C2 3250   2.064   3.499  14.934  0.4910 -0.2955 -0.4468
  214MPD1    C3 3251   2.198   3.537  14.945  0.1072 -0.0912  0.0322
  214MPD1    C4 3252   2.291   3.472  14.861 -0.2607  0.1705 -0.2756
  214MPD1    C5 3253   2.244   3.391  14.760 -0.2985 -0.6576 -0.0259
  214MPD1     H 3254   1.986   3.535  15.000  0.1859 -1.7937  0.0046
  214MPD1    H1 3255   2.397   3.487  14.877 -0.2562 -2.2005  1.9230
  214MPD1    H2 3256   2.082   3.297  14.665 -2.3461  2.5437 -1.9850
  214MPD1    H3 3257   2.324   3.354  14.697 -1.8516 -2.7247 -0.7727
  214MPD1     N 3258   2.244   3.626  15.043 -0.2659 -0.0073  0.8911
  214MPD1    H5 3259   2.344   3.639  15.052  0.0472 -0.2909 -2.2793
  214MPD1    N1 3260   1.884   3.379  14.819 -0.0810  0.3375  0.1826
  214MPD1    H6 3261   1.873   3.283  14.851  1.3976 -0.4178 -1.5595
  214MPD1    H7 3262   1.829   3.418  14.894 -0.0955 -0.2221  0.4657
  215MPD1     C 3263   1.008   0.061  10.933 -0.0791  0.5087  0.2569
  215MPD1    C1 3264   1.091   4.688  10.879 -0.3468 -0.0513  0.8197
  215MPD1    C2 3265   1.213   0.001  10.834 -0.3126  0.6665  0.2432
  215MPD1    C3 3266   1.270   0.123  10.880 -0.1230  0.2729  0.1187
  215MPD1    C4 3267   1.191   0.217  10.940  0.5134 -0.3193  0.7437
  215MPD1    C5 3268   1.060   0.183  10.976  0.4164  0.6723 -0.6060
  215MPD1     H 3269   1.272   4.648  10.782 -0.4271 -0.8363  2.2437
  215MPD1    H1 3270   1.244   0.307  10.969  0.1745 -0.5506  2.0824
  215MPD1    H2 3271   0.906   0.034  10.957  0.6375 -0.3433  2.3514
  215MPD1    H3 3272   0.998   0.241  11.043  0.1113 -1.9515  1.3940
  215MPD1     N 3273   1.401   0.160  10.847 -0.4662  0.0408  0.6745
  215MPD1    H5 3274   1.432   0.251  10.882 -1.4352  1.3332 -1.8114
  215MPD1    N1 3275   1.042   4.564  10.842  0.2497 -0.3190 -0.0492
  215MPD1    H6 3276   0.973   4.533  10.910  0.3121 -0.7290 -0.1701
  215MPD1    H7 3277   1.113   4.495  10.820 -0.5039 -1.9712  2.7262
  216MPD1     C 3278   2.688   2.777   1.411  0.3474 -0.2054 -0.3002
  216MPD1    C1 3279   2.810   2.847   1.400 -0.6994  0.1328 -1.5911
  216MPD1    C2 3280   2.929   2.777   1.365  0.0927 -0.8594  0.0401
  216MPD1    C3 3281   2.931   2.639   1.377 -0.5519 -0.0737  0.4267
  216MPD1    C4 3282   2.816   2.567   1.403 -0.4802 -0.0397 -0.0981
  216MPD1    C5 3283   2.700   2.639   1.417  0.5438 -0.4227  0.3336
  216MPD1     H 3284   3.015   2.832   1.329  0.4101 -1.4081 -0.0367
  216MPD1    H1 3285   2.822   2.461   1.425 -0.4087  0.1777  0.9308
  216MPD1    H2 3286   2.592   2.827   1.425 -0.4899 -1.4517 -1.6617
  216MPD1    H3 3287   2.608   2.585   1.431  2.1250 -2.8771  1.1976
  216MPD1     N 3288   3.063   2.582   1.347 -1.1186  0.6474 -0.1713
  216MPD1    H5 3289   3.134   2.654   1.338  0.5841 -1.4001 -2.7905
  216MPD1    N1 3290   2.821   2.988   1.375  0.4609  0.3824  0.3092
  216MPD1    H6 3291   2.913   3.026   1.398  0.8861  0.1637 -1.0088
  216MPD1    H7 3292   2.749   3.036   1.428 -0.7939 -1.0293 -0.1103
  217MPD1     C 3293   0.169   2.850   8.648 -0.0710 -0.5044 -0.1222
  217MPD1    C1 3294   0.088   2.964   8.647 -0.4295 -0.4723  0.1100
  217MPD1    C2 3295   0.150   3.078   8.704  0.2614 -0.5151 -0.8106
  217MPD1    C3 3296   0.274   3.078   8.767  1.0963  0.2669  0.0916
  217MPD1    C4 3297   0.340   2.957   8.774  0.3371 -0.4789  0.6546
  217MPD1    C5 3298   0.280   2.843   8.725  0.0116  0.2056  0.6244
  217MPD1     H 3299   0.096   3.170   8.684  2.4398  1.3181  1.7209
  217MPD1    H1 3300   0.440   2.950   8.817  0.1547 -2.7178  0.7476
  217MPD1    H2 3301   0.125   2.754   8.622  0.8072 -1.2794  1.2130
  217MPD1    H3 3302   0.329   2.746   8.727 -0.2926  0.0834  2.4059
  217MPD1     N 3303   0.336   3.198   8.822 -0.3105 -0.0400 -0.1056
  217MPD1    H5 3304   0.432   3.190   8.854  0.5332  0.6375 -2.4316
  217MPD1    N1 3305   4.702   2.972   8.563 -0.5331  0.0331  0.1018
  217MPD1    H6 3306   4.644   2.891   8.583 -0.8088  0.5317  1.3603
  217MPD1    H7 3307   4.651   3.056   8.591 -1.3950 -0.5490  0.2826
  218MPD1     C 3308   1.187   0.688  12.529  0.1848  0.5678  0.6931
  218MPD1    C1 3309   1.296   0.719  12.446 -0.9851 -0.7115  0.0371
  218MPD1    C2 3310   1.401   0.628  12.436  0.0441  0.1140  0.2828
  218MPD1    C3 3311   1.416   0.527  12.521 -0.3580  0.1857 -0.1593
  218MPD1    C4 3312   1.315   0.500  12.611 -0.6105  0.0550  0.7180
  218MPD1    C5 3313   1.205   0.577  12.605 -0.0280 -0.1905 -0.1392
  218MPD1     H 3314   1.479   0.649  12.363 -0.1715 -1.5486 -0.4247
  218MPD1    H1 3315   1.309   0.419  12.682 -3.0417 -0.3538  0.0309
  218MPD1    H2 3316   1.100   0.750  12.542  1.2849  2.7665 -2.4400
  218MPD1    H3 3317   1.131   0.559  12.682  0.6823 -1.0649  0.3390
  218MPD1     N 3318   1.528   0.443  12.515 -0.6035 -0.1688 -0.2475
  218MPD1    H5 3319   1.598   0.471  12.447 -1.0679  1.8429  0.0942
  218MPD1    N1 3320   1.280   0.834  12.356  0.6419 -0.1445 -1.0279
  218MPD1    H6 3321   1.229   0.913  12.393  1.1070 -0.0926 -0.4943
  218MPD1    H7 3322   1.371   0.870  12.327  1.0538 -0.9398 -0.7056
  219MPD1     C 3323   2.159   0.504  11.933  0.0664 -0.0137 -0.2664
  219MPD1    C1 3324   2.212   0.400  12.009 -0.1648 -0.0265  0.6480
  219MPD1    C2 3325   2.139   0.356  12.116 -0.4539 -0.8289 -0.5567
  219MPD1    C3 3326   2.016   0.410  12.155  0.2925  0.1343 -0.0567
  219MPD1    C4 3327   1.969   0.511  12.079  0.8032 -0.3616 -0.5473
  219MPD1    C5 3328   2.036   0.559  11.974  0.6796 -0.1255 -0.4965
  219MPD1     H 3329   2.184   0.277  12.176 -0.8779 -0.2110  0.5815
  219MPD1    H1 3330   1.878   0.560  12.113  1.5860 -0.0477  1.0991
  219MPD1    H2 3331   2.203   0.545  11.842  0.1195  1.7845  0.5590
  219MPD1    H3 3332   2.001   0.638  11.909  0.1932  0.3346  0.3227
  219MPD1     N 3333   1.936   0.366  12.269 -0.0969  0.5078  0.1059
  219MPD1    H5 3334   1.841   0.400  12.278  1.0548  3.4873  1.1314
  219MPD1    N1 3335   2.350   0.363  11.983  0.2965 -0.8808 -0.5263
  219MPD1    H6 3336   2.372   0.382  11.885  0.3610  0.9362 -0.1416
  219MPD1    H7 3337   2.369   0.263  11.986 -1.3632 -1.2256 -1.0935
  220MPD1     C 3338   1.369   0.271   8.989 -0.7042 -0.2090 -0.2583
  220MPD1    C1 3339   1.471   0.195   9.030 -0.3440  0.3177 -0.2806
  220MPD1    C2 3340   1.484   0.172   9.164  0.0676  0.4370 -0.5416
  220MPD1    C3 3341   1.399   0.222   9.259 -0.1924  0.6891  0.2014
  220MPD1    C4 3342   1.290   0.294   9.219 -0.4229  0.4047 -0.2089
  220MPD1    C5 3343   1.276   0.316   9.087  0.1991  0.3812  0.9281
  220MPD1     H 3344   1.564   0.108   9.199 -0.2126 -0.7143 -1.9818
  220MPD1    H1 3345   1.219   0.344   9.283  0.1294  1.8397 -0.7131
  220MPD1    H2 3346   1.348   0.288   8.884  1.0611 -0.9458 -0.7287
  220MPD1    H3 3347   1.194   0.379   9.057 -1.5937 -2.4980 -0.2689
  220MPD1     N 3348   1.425   0.182   9.392 -0.5106  0.0837  0.4531
  220MPD1    H5 3349   1.514   0.133   9.400 -0.0890  0.9044  0.7437
  220MPD1    N1 3350   1.542   0.125   8.932  0.5480 -0.1312 -0.3377
  220MPD1    H6 3351   1.560   0.180   8.849  0.3630  0.7351  0.1914
  220MPD1    H7 3352   1.630   0.086   8.967  0.4020  1.4598  1.8391
  221MPD1     C 3353   3.323   3.093  16.860 -0.2652 -0.3562  0.5606
  221MPD1    C1 3354   3.406   3.026  16.776 -0.2620  0.5580 -1.0131
  221MPD1    C2 3355   3.524   3.086  16.745  0.8336  0.6903  0.6207
  221MPD1    C3 3356   3.556   3.212  16.783  0.2097 -0.6393 -0.0057
  221MPD1    C4 3357   3.471   3.283  16.859  0.3211  0.8106  0.2767
  221MPD1    C5 3358   3.349   3.224  16.884 -0.0379  0.4823  0.2257
  221MPD1     H 3359   3.602   3.023  16.703  1.0923  1.6720 -0.3916
  221MPD1    H1 3360   3.489   3.385  16.889  0.8154  0.8029  0.0114
  221MPD1    H2 3361   3.221   3.058  16.874 -0.1544 -1.0766 -0.4556
  221MPD1    H3 3362   3.277   3.281  16.941 -0.2828 -0.0203  0.4201
  221MPD1     N 3363   3.677   3.276  16.754  0.0188 -0.2017 -0.3733
  221MPD1    H5 3364   3.688   3.366  16.799 -0.4297 -1.2306  1.8042
  221MPD1    N1 3365   3.376   2.891  16.746  0.1769 -0.6442 -0.0068
  221MPD1    H6 3366   3.419   2.867  16.657 -1.2547 -1.0203 -0.6034
  221MPD1    H7 3367   3.279   2.864  16.732 -0.5069  0.0182  3.5770
  222MPD1     C 3368   3.940   3.288  17.634 -0.3660  0.1371  0.7178
  222MPD1    C1 3369   3.881   3.223  17.528  0.0940  0.7677 -0.3909
  222MPD1    C2 3370   3.763   3.158  17.547  0.5207  0.0515  0.0823
  222MPD1    C3 3371   3.700   3.161  17.667  0.6604  0.3832 -0.2192
  222MPD1    C4 3372   3.754   3.237   0.072  0.4977  0.9347 -0.1210
  222MPD1    C5 3373   3.872   3.298   0.057 -0.7672  0.1101 -0.4656
  222MPD1     H 3374   3.712   3.114  17.463  0.2686 -1.6227  1.1106
  222MPD1    H1 3375   3.709   3.236   0.171  2.2902 -1.4197  0.6840
  222MPD1    H2 3376   4.039   3.331  17.625 -2.0418  3.4022 -2.3526
  222MPD1    H3 3377   3.911   3.361   0.136 -0.1435  0.0609 -0.7314
  222MPD1     N 3378   3.580   3.099  17.692  0.2432 -0.3387  0.5949
  222MPD1    H5 3379   3.536   3.119   0.089 -0.1563  0.5081  0.2169
  222MPD1    N1 3380   3.958   3.218  17.407  0.1802  0.3144  0.8896
  222MPD1    H6 3381   4.001   3.305  17.378 -1.2584  0.3913 -1.0472
  222MPD1    H7 3382   3.901   3.185  17.329  0.4641 -0.1509  0.8817
  223MPD1     C 3383   3.307   2.116   0.147 -0.2266 -0.1365 -0.6835
  223MPD1    C1 3384   3.338   2.173   0.025 -0.4801 -0.2865  0.6100
  223MPD1    C2 3385   3.360   2.309   0.014 -0.4967 -0.2459 -0.5859
  223MPD1    C3 3386   3.321   2.396   0.113 -0.8563 -0.4182  0.7137
  223MPD1    C4 3387   3.268   2.344   0.226  0.2925 -0.6758 -0.5759
  223MPD1    C5 3388   3.258   2.207   0.241  0.0320 -0.1928  0.0915
  223MPD1     H 3389   3.401   2.351  17.615 -1.6151  2.6121  0.2305
  223MPD1    H1 3390   3.235   2.405   0.308 -0.6577 -2.4535  0.3575
  223MPD1    H2 3391   3.310   2.010   0.168  0.0251 -0.1374 -0.7150
  223MPD1    H3 3392   3.235   2.167   0.339 -2.2067 -2.4502 -1.3283
  223MPD1     N 3393   3.330   2.533   0.095 -0.1989  0.1010 -0.4682
  223MPD1    H5 3394   3.373   2.551   0.004  1.1695  2.7046  0.6774
  223MPD1    N1 3395   3.390   2.090  17.618  0.4792  0.2826 -0.1641
  223MPD1    H6 3396   3.378   2.136  17.528  1.0337 -0.1072 -0.4352
  223MPD1    H7 3397   3.340   2.002  17.608 -1.8360  1.5399  0.3260
  224MPD1     C 3398   0.473   0.161   9.161  0.0858  0.3761 -0.4533
  224MPD1    C1 3399   0.591   0.126   9.230  0.1056  0.1394  0.2235
  224MPD1    C2 3400   0.593   0.009   9.301  0.8052  0.5912 -0.1740
  224MPD1    C3 3401   0.482   4.646   9.308 -0.6136 -0.5573 -0.1611
  224MPD1    C4 3402   0.367   4.676   9.235  0.1386  0.4479 -0.3741
  224MPD1    C5 3403   0.370   0.067   9.155 -0.1004 -0.1376 -0.2024
  224MPD1     H 3404   0.681   4.708   9.360  0.3508  0.1727  0.3250
  224MPD1    H1 3405   0.276   4.617   9.233  0.2881  0.1306  1.7254
  224MPD1    H2 3406   0.465   0.251   9.102  0.5446 -0.5795 -1.9744
  224MPD1    H3 3407   0.280   0.096   9.102 -0.6237  0.5797  1.0838
  224MPD1     N 3408   0.481   4.531   9.393  0.0485  0.2511 -0.3787
  224MPD1    H5 3409   0.403   4.466   9.396  0.4631 -0.1864  0.8089
  224MPD1    N1 3410   0.706   0.209   9.226 -0.3486 -0.2451 -0.1220
  224MPD1    H6 3411   0.692   0.278   9.152  2.8295 -0.8045 -1.2379
  224MPD1    H7 3412   0.795   0.160   9.233  1.0411  2.4887  1.4947
  225MPD1     C 3413   1.409   1.492  12.622 -0.0194  0.2532  0.7844
  225MPD1    C1 3414   1.479   1.410  12.540  0.0952 -0.3970  0.1096
  225MPD1    C2 3415   1.409   1.345  12.436  0.5466  0.4515  0.4692
  225MPD1    C3 3416   1.271   1.373  12.426  0.2932 -0.1688 -0.5198
  225MPD1    C4 3417   1.210   1.462  12.511 -0.5740  0.4089 -0.8649
  225MPD1    C5 3418   1.282   1.523  12.606 -0.0019  0.0819  0.0525
  225MPD1     H 3419   1.458   1.285  12.359  0.9708 -0.0833  1.1603
  225MPD1    H1 3420   1.106   1.492  12.501 -1.1823 -1.7287 -0.8539
  225MPD1    H2 3421   1.446   1.550  12.706 -0.4622  0.9639  0.4826
  225MPD1    H3 3422   1.230   1.585  12.679 -0.9984  1.2197 -1.6026
  225MPD1     N 3423   1.192   1.316  12.324  0.6640  0.6074 -0.1388
  225MPD1    H5 3424   1.103   1.362  12.308  0.3250  0.3541  1.0220
  225MPD1    N1 3425   1.601   1.363  12.589 -0.4357  0.0487 -0.7106
  225MPD1    H6 3426   1.663   1.345  12.511  0.7429  2.6977 -0.3879
  225MPD1    H7 3427   1.652   1.428  12.648  2.3705 -1.3893 -1.5767
  226MPD1     C 3428   3.519   0.136   9.300  0.1204  0.3074  0.7070
  226MPD1    C1 3429   3.561   0.043   9.211  0.1274  0.2746  0.4144
  226MPD1    C2 3430   3.691   0.059   9.170  0.3837 -0.3400 -0.3003
  226MPD1    C3 3431   3.773   0.152   9.228  0.3937 -0.4646  0.2930
  226MPD1    C4 3432   3.729   0.234   9.327  0.4484 -0.5913 -0.2912
  226MPD1    C5 3433   3.603   0.225   9.364 -0.2781  0.8708  0.1477
  226MPD1     H 3434   3.726   4.712   9.095 -0.1538  0.0151 -0.8891
  226MPD1    H1 3435   3.795   0.301   9.380  0.7765  0.5458 -2.1304
  226MPD1    H2 3436   3.413   0.147   9.317  0.0031 -0.5804  0.5663
  226MPD1    H3 3437   3.577   0.291   9.447  0.1834  1.8555 -0.4973
  226MPD1     N 3438   3.909   0.155   9.180  0.6321  0.2348 -0.0128
  226MPD1    H5 3439   3.926   0.086   9.107  0.4020  0.7054 -0.5095
  226MPD1    N1 3440   3.472   4.684   9.134 -0.4616 -0.0806 -0.0177
  226MPD1    H6 3441   3.513   4.596   9.103 -1.9215 -0.7350 -0.0662
  226MPD1    H7 3442   3.380   4.661   9.169  0.2049  1.1410  2.5551
  227MPD1     C 3443   4.349   4.201   8.902 -0.0479 -0.8558  0.2730
  227MPD1    C1 3444   4.222   4.246   8.881  0.6652 -0.5221  0.7034
  227MPD1    C2 3445   4.189   4.379   8.913  0.4621 -0.6218 -0.3023
  227MPD1    C3 3446   4.288   4.468   8.947 -0.0055 -0.3542 -0.0085
  227MPD1    C4 3447   4.418   4.426   8.951 -0.3934  0.0407  0.1744
  227MPD1    C5 3448   4.450   4.292   8.930  0.4368  0.1655  0.0832
  227MPD1     H 3449   4.086   4.409   8.897  0.1345 -1.5375  0.0415
  227MPD1    H1 3450   4.506   4.489   8.961  0.5091 -1.0721 -0.7783
  227MPD1    H2 3451   4.369   4.095   8.912 -1.2818 -0.8886  2.4848
  227MPD1    H3 3452   4.541   4.242   8.960  0.8599 -0.5231 -2.3792
  227MPD1     N 3453   4.245   4.603   8.977  0.5565  0.3351  0.2894
  227MPD1    H5 3454   4.145   4.623   8.974  0.1256 -1.9816 -1.5014
  227MPD1    N1 3455   4.122   4.152   8.848  0.2061  0.0393  0.4109
  227MPD1    H6 3456   4.156   4.069   8.800 -0.4086 -0.2088  0.4122
  227MPD1    H7 3457   4.049   4.196   8.792 -0.4983 -1.2568  0.2984
  228MPD1     C 3458   2.933   3.901  13.322 -0.0390  0.2337 -0.7955
  228MPD1    C1 3459   2.844   3.953  13.236 -0.3572  0.8770 -0.2518
  228MPD1    C2 3460   2.736   3.877  13.204 -0.6390  0.0284  0.5000
  228MPD1    C3 3461   2.719   3.746  13.251 -0.0829 -0.6793 -0.0722
  228MPD1    C4 3462   2.815   3.703  13.333 -0.5452  0.3456 -0.3967
  228MPD1    C5 3463   2.920   3.774  13.366  0.0487  0.7057 -0.1881
  228MPD1     H 3464   2.659   3.928  13.148 -0.2745  0.3986  0.3319
  228MPD1    H1 3465   2.792   3.609  13.382  1.6147  0.1496  0.2222
  228MPD1    H2 3466   3.011   3.959  13.370 -2.1281  2.2290  0.2126
  228MPD1    H3 3467   2.981   3.734  13.446  0.7055  0.2645 -0.9129
  228MPD1     N 3468   2.601   3.669  13.218  0.0112 -0.2679 -0.1134
  228MPD1    H5 3469   2.543   3.708  13.144  2.1595  0.2228 -1.5534
  228MPD1    N1 3470   2.856   4.089  13.197 -0.0363 -0.0590  0.0214
  228MPD1    H6 3471   2.791   4.119  13.125  0.0343  0.3297  0.1236
  228MPD1    H7 3472   2.952   4.101  13.167 -0.0598  0.7132  0.2713
  229MPD1     C 3473   2.186   2.141  15.235 -0.6377 -0.4571 -0.4774
  229MPD1    C1 3474   2.192   2.115  15.373 -0.3010 -0.1612  0.5899
  229MPD1    C2 3475   2.306   2.042  15.416  0.2072 -0.6087 -0.5231
  229MPD1    C3 3476   2.401   1.993  15.328  0.2936  0.8996 -0.1969
  229MPD1    C4 3477   2.387   2.020  15.193 -0.1267  0.4341  0.3896
  229MPD1    C5 3478   2.287   2.100  15.150 -0.6765  0.9431  0.1845
  229MPD1     H 3479   2.323   2.025  15.521  0.5510  0.4945 -0.4036
  229MPD1    H1 3480   2.460   1.984  15.122 -0.7091  1.8374 -0.9184
  229MPD1    H2 3481   2.108   2.206  15.196 -1.3259 -0.4127  0.9789
  229MPD1    H3 3482   2.268   2.107  15.044 -1.5722  2.0727  0.4199
  229MPD1     N 3483   2.518   1.920  15.366  0.1074  0.0199 -0.3273
  229MPD1    H5 3484   2.581   1.895  15.290 -0.2163 -0.8402 -0.3193
  229MPD1    N1 3485   2.104   2.168  15.473 -0.0350  0.1226 -0.0838
  229MPD1    H6 3486   2.088   2.100  15.547 -2.5383  0.9105  0.0849
  229MPD1    H7 3487   2.014   2.192  15.432  0.3389  1.8967  0.1362
  230MPD1     C 3488   3.383   1.837  15.958 -0.1084 -0.5270  0.5964
  230MPD1    C1 3489   3.395   1.792  15.832 -0.4105  0.6086  0.0015
  230MPD1    C2 3490   3.288   1.753  15.752  0.1508 -0.7976 -0.0061
  230MPD1    C3 3491   3.161   1.765  15.804 -0.6410 -0.3668  0.3118
  230MPD1    C4 3492   3.147   1.814  15.935  0.2755  0.5734 -0.9904
  230MPD1    C5 3493   3.258   1.850  16.011 -0.0806  0.2964  0.8082
  230MPD1     H 3494   3.294   1.704  15.655  1.2686  0.6534 -0.6705
  230MPD1    H1 3495   3.049   1.826  15.979  0.4226  1.6296 -0.9523
  230MPD1    H2 3496   3.468   1.874  16.014 -0.3796  2.0840 -0.6807
  230MPD1    H3 3497   3.242   1.894  16.109 -1.0517 -1.5069  1.4606
  230MPD1     N 3498   3.061   1.713  15.726 -0.5420 -0.0945 -0.0234
  230MPD1    H5 3499   3.088   1.675  15.636 -3.4567 -2.3801  0.0448
  230MPD1    N1 3500   3.530   1.773  15.789 -0.0370 -0.2160 -0.0878
  230MPD1    H6 3501   3.526   1.738  15.693 -0.7233 -1.2400  0.3171
  230MPD1    H7 3502   3.581   1.861  15.789 -0.0965 -0.1551 -2.9903
  231MPD1     C 3503   1.043   3.941  15.466  1.0740  0.5737 -0.5339
  231MPD1    C1 3504   1.145   3.882  15.394 -0.3707 -0.1857 -0.4197
  231MPD1    C2 3505   1.236   3.965  15.341 -0.9278 -0.1567 -0.0842
  231MPD1    C3 3506   1.245   4.101  15.361  0.5826 -0.1883 -0.1266
  231MPD1    C4 3507   1.151   4.157  15.440 -0.4578 -0.0286  0.5046
  231MPD1    C5 3508   1.058   4.072  15.495  0.0868  0.5462  0.0851
  231MPD1     H 3509   1.305   3.924  15.267 -1.6350 -2.4590  0.5305
  231MPD1    H1 3510   1.153   4.260  15.473 -0.6068 -0.4806  1.9167
  231MPD1    H2 3511   0.981   3.871  15.521  1.3480  1.4075  0.8581
  231MPD1    H3 3512   0.991   4.106  15.572  0.2339  1.2206 -0.0879
  231MPD1     N 3513   1.362   4.169  15.318 -0.5011  0.2808 -0.2187
  231MPD1    H5 3514   1.411   4.118  15.245  0.3018 -1.0794  1.2817
  231MPD1    N1 3515   1.130   3.757  15.343 -0.3099  0.1831  0.5057
  231MPD1    H6 3516   1.215   3.730  15.293 -1.8452  1.1727 -2.6206
  231MPD1    H7 3517   1.092   3.682  15.400  0.1070 -0.3641  0.0826
  232MPD1     C 3518   2.327   2.617   1.481  0.7101  0.1798  0.2557
  232MPD1    C1 3519   2.328   2.699   1.368 -0.2950  0.5859 -0.3548
  232MPD1    C2 3520   2.341   2.634   1.250  0.5888 -0.3337  0.4281
  232MPD1    C3 3521   2.365   2.499   1.233  0.3960 -0.0872 -0.6602
  232MPD1    C4 3522   2.376   2.424   1.349  0.2799 -0.3019 -0.6933
  232MPD1    C5 3523   2.347   2.479   1.468 -0.1264 -0.0485 -0.7203
  232MPD1     H 3524   2.316   2.678   1.154 -1.3538 -2.1389  0.1290
  232MPD1    H1 3525   2.392   2.317   1.339 -1.2104 -0.5929 -0.0144
  232MPD1    H2 3526   2.292   2.650   1.578 -0.6560  1.3172 -0.6258
  232MPD1    H3 3527   2.319   2.418   1.554  2.1286 -0.8175 -0.5438
  232MPD1     N 3528   2.379   2.461   1.097  0.3987 -0.1837 -0.8240
  232MPD1    H5 3529   2.374   2.537   1.031  1.3059 -0.7591 -1.5508
  232MPD1    N1 3530   2.275   2.829   1.364  0.4294 -0.0138 -0.0510
  232MPD1    H6 3531   2.297   2.888   1.284  0.6933 -0.7004 -0.4806
  232MPD1    H7 3532   2.292   2.879   1.451 -0.8874  0.5728 -0.1255
  233MPD1     C 3533   4.568   1.320   2.233  0.1914  0.7713  0.5105
  233MPD1    C1 3534   4.470   1.238   2.181  0.1937  0.6586 -0.0745
  233MPD1    C2 3535   4.506   1.102   2.167  0.0310  0.0846 -0.1666
  233MPD1    C3 3536   4.619   1.052   2.233 -0.3547 -0.1800 -0.0664
  233MPD1    C4 3537   4.694   1.135   2.317  0.7187  0.5035 -0.3447
  233MPD1    C5 3538   4.670   1.268   2.304 -1.0300 -0.1835  0.2797
  233MPD1     H 3539   4.432   1.034   2.127  0.2929  0.7321 -1.7263
  233MPD1    H1 3540   0.053   1.095   2.375  0.7606  1.2205  0.0937
  233MPD1    H2 3541   4.555   1.428   2.234 -0.5807  0.6946 -2.9697
  233MPD1    H3 3542   0.017   1.340   2.345 -0.3526 -0.5622 -0.2048
  233MPD1     N 3543   4.651   0.914   2.239  0.5648 -0.3389 -0.1131
  233MPD1    H5 3544   0.020   0.890   2.276  0.0435 -1.3261  0.5373
  233MPD1    N1 3545   4.364   1.288   2.107  0.6040 -0.2140  0.3085
  233MPD1    H6 3546   4.336   1.380   2.141  2.0893  0.0500  0.8353
  233MPD1    H7 3547   4.286   1.223   2.108  0.0616  0.4138 -1.5123
  234MPD1     C 3548   1.414   2.740   9.827  0.1401  0.2441  0.7648
  234MPD1    C1 3549   1.420   2.796   9.696  0.1727 -0.1546  0.5036
  234MPD1    C2 3550   1.407   2.933   9.670  0.2224 -0.1069 -0.1211
  234MPD1    C3 3551   1.374   3.015   9.779  0.6377  0.7846  0.1481
  234MPD1    C4 3552   1.365   2.964   9.909 -0.8170  0.1559 -0.4146
  234MPD1    C5 3553   1.381   2.828   9.929  0.5869  0.1673  0.2249
  234MPD1     H 3554   1.396   2.957   9.564 -0.1911  0.4618  0.0483
  234MPD1    H1 3555   1.335   3.019   9.998  0.0128 -0.4447  0.2339
  234MPD1    H2 3556   1.425   2.636   9.854  0.2541 -0.2342 -1.0982
  234MPD1    H3 3557   1.371   2.779  10.025 -0.8433  1.2669  0.6348
  234MPD1     N 3558   1.334   3.152   9.762 -0.2614 -0.1461 -0.3078
  234MPD1    H5 3559   1.344   3.184   9.666 -1.2153  0.1704 -0.3062
  234MPD1    N1 3560   1.451   2.712   9.585  0.6756  0.0839  0.1120
  234MPD1    H6 3561   1.419   2.620   9.615  0.0905 -0.2994 -1.7116
  234MPD1    H7 3562   1.403   2.751   9.504  0.0576 -0.1404  0.3645
  235MPD1     C 3563   2.666   0.931  11.032  0.2603  0.1184 -0.0238
  235MPD1    C1 3564   2.735   1.045  11.056  0.1518 -0.4375  0.3506
  235MPD1    C2 3565   2.758   1.136  10.958  0.4423 -0.4924 -0.4704
  235MPD1    C3 3566   2.702   1.124  10.835 -0.0254  0.0159  0.5885
  235MPD1    C4 3567   2.608   1.024  10.820  0.1025 -0.6184 -0.0483
  235MPD1    C5 3568   2.590   0.930  10.915  0.0438 -0.0727 -0.1477
  235MPD1     H 3569   2.821   1.222  10.980  1.2572 -1.1283 -0.3060
  235MPD1    H1 3570   2.559   0.999  10.727 -1.0155  1.4295  0.0031
  235MPD1    H2 3571   2.651   0.838  11.086  0.0980  0.2318  0.1262
  235MPD1    H3 3572   2.548   0.835  10.884 -0.9897  0.9711 -1.9914
  235MPD1     N 3573   2.722   1.225  10.734 -0.4721 -0.1675 -0.2139
  235MPD1    H5 3574   2.795   1.294  10.745  0.2473 -0.6706 -1.9289
  235MPD1    N1 3575   2.800   1.056  11.180  0.1017 -0.4748  0.4635
  235MPD1    H6 3576   2.755   1.003  11.254  0.6773  0.7405  1.6859
  235MPD1    H7 3577   2.808   1.151  11.216 -3.0048 -0.6467  1.6202
  236MPD1     C 3578   2.083   1.848  10.756  0.5463  0.0186  0.2125
  236MPD1    C1 3579   2.049   1.830  10.624  0.2607 -0.5350  0.0254
  236MPD1    C2 3580   2.033   1.699  10.577 -0.2656 -0.4990  0.1422
  236MPD1    C3 3581   2.058   1.593  10.661  0.3648  0.0424 -0.2411
  236MPD1    C4 3582   2.104   1.611  10.788 -0.1771 -0.3852 -0.0449
  236MPD1    C5 3583   2.115   1.738  10.829  0.0121  0.1693 -1.1272
  236MPD1     H 3584   1.989   1.683  10.479  1.7902  1.1640 -1.0594
  236MPD1    H1 3585   2.125   1.526  10.852 -0.4287 -0.9273 -0.6973
  236MPD1    H2 3586   2.099   1.942  10.806  1.4606  0.6394 -1.2623
  236MPD1    H3 3587   2.160   1.750  10.927  0.4281  1.9348 -1.5277
  236MPD1     N 3588   2.059   1.461  10.619 -0.1912  0.6035  0.4684
  236MPD1    H5 3589   2.102   1.390  10.679  2.6424 -0.7549 -3.1583
  236MPD1    N1 3590   2.011   1.943  10.553  0.6870  0.1737  0.0341
  236MPD1    H6 3591   2.051   1.940  10.459 -1.5277  1.1092 -0.9324
  236MPD1    H7 3592   2.053   2.029  10.587  0.2128 -0.6787  2.7922
  237MPD1     C 3593   0.729   1.221  15.566 -0.0237 -0.1859  0.1568
  237MPD1    C1 3594   0.630   1.149  15.622  0.1733 -0.1194 -0.5313
  237MPD1    C2 3595   0.607   1.024  15.562  0.7081  0.2849 -0.6503
  237MPD1    C3 3596   0.663   0.988  15.440  0.3753  0.0938 -0.4652
  237MPD1    C4 3597   0.759   1.066  15.387 -0.1441 -0.2105  0.2657
  237MPD1    C5 3598   0.790   1.186  15.449 -0.2531  0.3664  0.0073
  237MPD1     H 3599   0.546   0.955  15.619  1.5539 -0.0674 -0.1806
  237MPD1    H1 3600   0.808   1.036  15.295  0.4417  1.2530  0.0952
  237MPD1    H2 3601   0.751   1.320  15.603 -2.0972  0.8557 -1.4121
  237MPD1    H3 3602   0.859   1.258  15.407  0.5512  0.1410  0.9466
  237MPD1     N 3603   0.631   0.862  15.383  0.3625 -0.2108  0.2054
  237MPD1    H5 3604   0.702   0.819  15.323  0.3140  0.9764 -0.7095
  237MPD1    N1 3605   0.565   1.191  15.743 -0.4462  0.2083 -0.5346
  237MPD1    H6 3606   0.555   1.292  15.744 -1.3772  0.1020  0.8534
  237MPD1    H7 3607   0.469   1.158  15.736 -0.3139 -0.0226 -1.2923
  238MPD1     C 3608   3.452   3.845  14.612 -0.1733  0.1311  0.1620
  238MPD1    C1 3609   3.435   3.771  14.722  0.5540  0.4818  0.8368
  238MPD1    C2 3610   3.319   3.702  14.738 -0.1701 -0.6560 -0.4975
  238MPD1    C3 3611   3.204   3.738  14.664 -0.3301 -0.5330 -0.4986
  238MPD1    C4 3612   3.224   3.821  14.556  0.3692 -0.2332 -0.3356
  238MPD1    C5 3613   3.345   3.874  14.528 -0.0540 -0.5052  0.6936
  238MPD1     H 3614   3.303   3.642  14.826  0.6011 -0.5286 -0.2715
  238MPD1    H1 3615   3.143   3.853  14.492  0.8899 -0.5434 -1.1600
  238MPD1    H2 3616   3.542   3.899  14.585  0.5796 -1.3108 -0.1785
  238MPD1    H3 3617   3.352   3.931  14.436  1.3554 -1.5370  0.1668
  238MPD1     N 3618   3.078   3.682  14.677 -0.4845  0.4248 -0.0450
  238MPD1    H5 3619   3.008   3.736  14.629 -1.5360 -0.3455  0.6163
  238MPD1    N1 3620   3.540   3.731  14.808  0.3304 -0.0063 -0.4088
  238MPD1    H6 3621   3.526   3.693  14.901 -1.8446  1.1356 -0.2568
  238MPD1    H7 3622   3.612   3.803  14.808 -1.7613  2.0855 -1.0242
  239MPD1     C 3623   2.403   4.285  14.696 -0.3037 -0.0913 -0.2360
  239MPD1    C1 3624   2.467   4.281  14.573  1.1427 -0.2831  0.2407
  239MPD1    C2 3625   2.466   4.400  14.498  0.5690  0.1647  0.0618
  239MPD1    C3 3626   2.391   4.511  14.531  0.3250  0.2681  0.1365
  239MPD1    C4 3627   2.326   4.504  14.648  0.1839  1.1866  0.0656
  239MPD1    C5 3628   2.331   4.396  14.728 -0.2351 -0.3625 -0.0084
  239MPD1     H 3629   2.530   4.401  14.411  1.0004 -1.5073  0.3521
  239MPD1    H1 3630   2.275   4.592  14.687  0.5472  2.0584 -1.4381
  239MPD1    H2 3631   2.418   4.207  14.770 -0.2000  1.5676  1.4968
  239MPD1    H3 3632   2.281   4.404  14.824  0.5873  1.5454  0.2606
  239MPD1     N 3633   2.388   4.633  14.458  0.5942 -0.2453  0.2372
  239MPD1    H5 3634   2.322   4.704  14.487  1.1058 -0.4636  1.8999
  239MPD1    N1 3635   2.551   4.174  14.530  0.2070  0.4489 -0.7495
  239MPD1    H6 3636   2.543   4.172  14.429  2.3079 -0.4328 -0.8978
  239MPD1    H7 3637   2.528   4.085  14.573  1.6907  1.6260  2.5563
  240MPD1     C 3638   1.501   4.635  13.387 -0.1592  0.5837 -0.3309
  240MPD1    C1 3639   1.579   4.721  13.470  1.0386  0.3137  0.2168
  240MPD1    C2 3640   1.710   4.690  13.489 -0.2236 -0.2584 -0.2513
  240MPD1    C3 3641   1.773   4.590  13.418 -0.0346  0.0523 -0.4786
  240MPD1    C4 3642   1.696   4.507  13.333 -0.4562 -0.8752 -0.4554
  240MPD1    C5 3643   1.561   4.534  13.310  0.8331  0.1682  0.2817
  240MPD1     H 3644   1.759   0.022  13.569 -2.1067 -0.1871  0.8447
  240MPD1    H1 3645   1.743   4.425  13.280  0.2153 -0.9090  0.1902
  240MPD1    H2 3646   1.396   4.652  13.367 -0.6263 -1.7163  0.1430
  240MPD1    H3 3647   1.504   4.454  13.264  1.1274  1.2034 -1.8927
  240MPD1     N 3648   1.916   4.562  13.438 -0.0588  0.2420  0.1145
  240MPD1    H5 3649   1.958   4.615  13.513 -1.3035  1.8259 -0.3065
  240MPD1    N1 3650   1.516   0.086  13.559 -0.1041 -0.9374  0.7236
  240MPD1    H6 3651   1.418   0.106  13.535  0.5827  1.3552 -0.2034
  240MPD1    H7 3652   1.565   0.169  13.592 -1.4458 -0.6898  2.0917
  241MPD1     C 3653   2.591   4.305  12.777 -0.7756  0.3388 -0.2034
  241MPD1    C1 3654   2.660   4.261  12.891  0.4923 -0.3530  0.5558
  241MPD1    C2 3655   2.607   4.311  13.014 -0.2925  0.5059 -0.4599
  241MPD1    C3 3656   2.493   4.392  13.021 -0.2441  0.6641 -0.3049
  241MPD1    C4 3657   2.437   4.435  12.905  0.1320  0.4544 -0.0821
  241MPD1    C5 3658   2.488   4.393  12.783  0.1852 -0.3902  0.7725
  241MPD1     H 3659   2.667   4.296  13.103 -0.0888 -0.0161 -0.6853
  241MPD1    H1 3660   2.363   4.514  12.908  2.7099  2.9683 -2.5317
  241MPD1    H2 3661   2.633   4.287  12.678  1.9181 -0.4032  1.0613
  241MPD1    H3 3662   2.437   4.415  12.690  0.1820  3.5196  1.6897
  241MPD1     N 3663   2.427   4.424  13.140 -0.6000 -0.1687  0.1310
  241MPD1    H5 3664   2.348   4.488  13.135  1.1514  2.2574  3.0840
  241MPD1    N1 3665   2.778   4.184  12.885  0.1778 -0.0361  0.1471
  241MPD1    H6 3666   2.849   4.238  12.935  1.0180 -0.5032 -0.5345
  241MPD1    H7 3667   2.821   4.164  12.795 -0.3028 -0.5963  0.0454
  242MPD1     C 3668   1.806   2.558  16.033 -0.9195 -0.6006 -0.6926
  242MPD1    C1 3669   1.746   2.630  15.935  0.4027 -0.0755 -0.3466
  242MPD1    C2 3670   1.782   2.608  15.808 -0.6122  0.8582  0.3155
  242MPD1    C3 3671   1.879   2.511  15.770 -0.3446  0.0091 -0.7380
  242MPD1    C4 3672   1.930   2.434  15.872 -0.5946  0.0417  0.6307
  242MPD1    C5 3673   1.896   2.462  16.002  0.2894 -0.3968  0.6475
  242MPD1     H 3674   1.752   2.684  15.737 -0.6767 -1.2645 -1.9149
  242MPD1    H1 3675   1.999   2.351  15.861 -0.8784 -0.2136  0.7783
  242MPD1    H2 3676   1.780   2.579  16.136 -1.5836  0.3055 -1.0460
  242MPD1    H3 3677   1.930   2.400  16.084  0.2065  1.4021  2.0463
  242MPD1     N 3678   1.920   2.486  15.638  0.1134 -0.2590 -0.2686
  242MPD1    H5 3679   2.005   2.431  15.632 -0.7134 -1.3072 -2.3651
  242MPD1    N1 3680   1.668   2.744  15.961  0.4831 -0.0374 -0.0715
  242MPD1    H6 3681   1.630   2.753  16.055 -0.0500 -0.9935 -0.1994
  242MPD1    H7 3682   1.598   2.757  15.889 -0.4126  0.8482  0.9527
  243MPD1     C 3683   3.634   1.472   0.878  0.8598 -0.4017 -0.7388
  243MPD1    C1 3684   3.595   1.470   0.748  0.5667 -0.2975  0.3643
  243MPD1    C2 3685   3.676   1.405   0.652  0.5850  0.5472 -0.1624
  243MPD1    C3 3686   3.796   1.350   0.696 -0.2202 -0.1419  0.3218
  243MPD1    C4 3687   3.837   1.367   0.826 -0.0760  0.3712  0.1519
  243MPD1    C5 3688   3.754   1.424   0.921 -0.0073  0.2251 -0.5445
  243MPD1     H 3689   3.647   1.418   0.548  2.8826  0.2197 -0.8676
  243MPD1    H1 3690   3.924   1.327   0.875 -0.5910  1.3049  1.8340
  243MPD1    H2 3691   3.560   1.511   0.947 -0.9508 -0.3863 -2.6980
  243MPD1    H3 3692   3.770   1.412   1.027  0.5832  0.4308 -0.6101
  243MPD1     N 3693   3.872   1.271   0.617  0.0067  0.3597  0.4547
  243MPD1    H5 3694   3.833   1.272   0.523  1.4182  1.7252 -0.1107
  243MPD1    N1 3695   3.469   1.503   0.711  0.5624  0.7465  0.0813
  243MPD1    H6 3696   3.422   1.569   0.773 -0.0542 -0.7779  1.2246
  243MPD1    H7 3697   3.477   1.541   0.617  0.8349  1.3339  0.3382
  244MPD1     C 3698   4.632   0.563   0.604  0.3243 -0.4884  0.8149
  244MPD1    C1 3699   4.501   0.519   0.583  0.9273 -0.8199 -0.3309
  244MPD1    C2 3700   4.407   0.606   0.519 -0.8523  0.3284  0.5796
  244MPD1    C3 3701   4.439   0.739   0.495  0.3140 -0.3055  0.1371
  244MPD1    C4 3702   4.573   0.775   0.513 -0.2010  0.3636 -0.2470
  244MPD1    C5 3703   4.666   0.688   0.561 -0.4663  0.4841  1.1822
  244MPD1     H 3704   4.306   0.575   0.492 -0.9245 -1.4022  2.8818
  244MPD1    H1 3705   4.601   0.877   0.488  1.4851  0.2210  1.0772
  244MPD1    H2 3706   4.707   0.496   0.644  0.4933 -0.9857 -0.3506
  244MPD1    H3 3707   0.034   0.733   0.601  1.0327  0.2263 -1.8829
  244MPD1     N 3708   4.345   0.836   0.459 -0.2676  1.0774 -0.1837
  244MPD1    H5 3709   4.253   0.802   0.432 -0.5670  0.5318  1.4894
  244MPD1    N1 3710   4.473   0.391   0.619  0.3881 -0.5691 -0.1623
  244MPD1    H6 3711   4.526   0.356   0.698  2.5791  2.3194 -0.3515
  244MPD1    H7 3712   4.374   0.371   0.623  0.2785  0.3500  1.5309
  245MPD1     C 3713   0.513   2.009  13.110 -0.8745 -0.5463 -0.0528
  245MPD1    C1 3714   0.626   2.074  13.071  0.2737  0.7314  0.0500
  245MPD1    C2 3715   0.682   2.170  13.156  0.1057 -0.6818  0.2645
  245MPD1    C3 3716   0.625   2.198  13.277  0.3167 -0.2429  0.0934
  245MPD1    C4 3717   0.503   2.137  13.312 -0.8873 -0.5008 -0.2470
  245MPD1    C5 3718   0.452   2.042  13.234  0.2745  0.2003 -0.2361
  245MPD1     H 3719   0.778   2.218  13.136  0.3617 -1.5401 -0.5457
  245MPD1    H1 3720   0.463   2.150  13.412  1.3799  2.5145  0.2953
  245MPD1    H2 3721   0.461   1.930  13.058 -1.4642  0.6367 -1.2424
  245MPD1    H3 3722   0.367   1.987  13.272  0.8116 -1.0584 -0.8385
  245MPD1     N 3723   0.691   2.297  13.357  0.3654  0.0712 -0.8393
  245MPD1    H5 3724   0.777   2.343  13.328  0.0101  2.5454  2.0239
  245MPD1    N1 3725   0.686   2.046  12.948 -0.6550  0.0329 -0.1773
  245MPD1    H6 3726   0.785   2.071  12.948 -0.0678 -2.3683  0.5517
  245MPD1    H7 3727   0.684   1.945  12.940  1.3780 -0.2959  3.7619
  246MPD1     C 3728   1.434   1.389  10.394  0.0288 -0.1919  0.2292
  246MPD1    C1 3729   1.325   1.386  10.305  0.2741  0.4984 -0.1595
  246MPD1    C2 3730   1.355   1.429  10.180 -0.4996  0.2603 -0.9097
  246MPD1    C3 3731   1.486   1.444  10.138 -0.1569 -0.9980  0.1084
  246MPD1    C4 3732   1.595   1.421  10.221  0.2413  0.0791 -0.6504
  246MPD1    C5 3733   1.566   1.386  10.352 -0.1128  1.2311 -0.4009
  246MPD1     H 3734   1.277   1.459  10.110 -1.3209 -1.2451 -0.6354
  246MPD1    H1 3735   1.698   1.418  10.187  1.0010 -1.2186  1.7067
  246MPD1    H2 3736   1.414   1.386  10.500  1.1885  2.0449  0.5028
  246MPD1    H3 3737   1.643   1.376  10.428  0.4630 -1.6458 -1.3723
  246MPD1     N 3738   1.497   1.496  10.007  0.0588  0.5233  0.0654
  246MPD1    H5 3739   1.417   1.512   9.945 -0.4476 -1.4031  0.2220
  246MPD1    N1 3740   1.198   1.389  10.364 -0.0946  0.2869  0.4485
  246MPD1    H6 3741   1.125   1.375  10.295  1.4271  0.7397 -1.2551
  246MPD1    H7 3742   1.188   1.323  10.441 -2.2871 -2.8333 -2.5439
  247MPD1     C 3743   4.167   1.471  15.968 -0.0357 -0.3086 -0.5904
  247MPD1    C1 3744   4.216   1.437  16.095 -0.1959  0.4150 -0.6994
  247MPD1    C2 3745   4.334   1.488  16.140 -0.2286  0.5523 -0.8413
  247MPD1    C3 3746   4.406   1.584  16.070  0.4759 -0.1641 -0.2977
  247MPD1    C4 3747   4.359   1.619  15.948  0.3445  0.1792  0.7528
  247MPD1    C5 3748   4.245   1.560  15.901 -0.7318  0.5452 -0.3112
  247MPD1     H 3749   4.376   1.449  16.232  0.6392  1.4706 -0.8442
  247MPD1    H1 3750   4.407   1.694  15.886  1.2083 -1.2009 -0.2476
  247MPD1    H2 3751   4.087   1.423  15.913 -0.9227  0.7344 -0.2071
  247MPD1    H3 3752   4.212   1.587  15.801  0.3929 -0.2988 -0.9177
  247MPD1     N 3753   4.513   1.660  16.123  0.1762 -0.5148 -0.5154
  247MPD1    H5 3754   4.548   1.729  16.057 -2.3486  3.5007  2.3036
  247MPD1    N1 3755   4.158   1.323  16.161 -0.0771  0.5102  0.8663
  247MPD1    H6 3756   4.062   1.303  16.136 -0.7002  3.4438  0.8555
  247MPD1    H7 3757   4.159   1.322  16.262  4.5061 -2.9028  0.7578
  248MPD1     C 3758   1.208   0.839   0.179 -0.2903 -0.1316  0.6660
  248MPD1    C1 3759   1.097   0.902   0.232  0.0726  0.0754 -0.4776
  248MPD1    C2 3760   1.114   0.991   0.336  1.0606  0.6395  0.3583
  248MPD1    C3 3761   1.236   0.999   0.413 -0.5416 -0.9087  0.5409
  248MPD1    C4 3762   1.335   0.920   0.367 -0.0962 -0.3827  0.8371
  248MPD1    C5 3763   1.320   0.844   0.255 -0.2202  0.7030  0.0223
  248MPD1     H 3764   1.033   1.057   0.365  0.8507  2.0830 -3.4775
  248MPD1    H1 3765   1.427   0.914   0.424  0.3933 -1.5905 -0.0800
  248MPD1    H2 3766   1.201   0.766   0.099  3.7041 -0.3558  0.5149
  248MPD1    H3 3767   1.408   0.790   0.223 -0.5105 -0.0959  0.5834
  248MPD1     N 3768   1.252   1.093   0.518  0.4082 -0.5200 -0.3202
  248MPD1    H5 3769   1.180   1.161   0.540 -0.0422 -1.6190  1.5556
  248MPD1    N1 3770   0.974   0.900   0.164  0.1194  0.0928 -0.3845
  248MPD1    H6 3771   0.966   0.815   0.109 -0.4119  0.5087 -0.9398
  248MPD1    H7 3772   0.893   0.921   0.222  0.6897  1.7662 -0.1897
  249MPD1     C 3773   2.254   0.061  10.092 -0.1293  0.1460  0.2269
  249MPD1    C1 3774   2.194   0.102   9.969 -0.3571 -0.9202  0.2278
  249MPD1    C2 3775   2.257   0.198   9.894  0.2020  0.3413 -0.7241
  249MPD1    C3 3776   2.376   0.252   9.929 -0.4906 -0.0099  0.1594
  249MPD1    C4 3777   2.435   0.210  10.048 -0.7205  0.2680 -0.0144
  249MPD1    C5 3778   2.372   0.116  10.134 -0.2272 -0.0790  0.1589
  249MPD1     H 3779   2.209   0.221   9.799  0.2645  0.7079 -0.6658
  249MPD1    H1 3780   2.531   0.250  10.076 -0.1367 -0.2795 -1.2375
  249MPD1    H2 3781   2.210   4.700  10.146  1.6437  0.3430  1.9766
  249MPD1    H3 3782   2.417   0.091  10.229  1.3672 -1.5699 -0.9730
  249MPD1     N 3783   2.438   0.343   9.841  0.7856 -0.1538  0.3420
  249MPD1    H5 3784   2.390   0.369   9.755  1.3904 -0.9763 -0.2409
  249MPD1    N1 3785   2.085   0.024   9.916  0.7562 -0.4967  0.1925
  249MPD1    H6 3786   2.024   4.705   9.987  0.5643  1.3942  1.1399
  249MPD1    H7 3787   2.029   0.068   9.844  0.4958 -1.3779 -0.1463
  250MPD2     C 3788   4.147   0.189  12.641  0.4059  0.3855  0.3800
  250MPD2    C1 3789   4.029   0.203  12.707  0.3013 -0.1418  0.0943
  250MPD2    C2 3790   3.947   0.092  12.711  0.3498  0.1619  0.3563
  250MPD2    C3 3791   3.985   4.698  12.648  0.1986  0.0599  0.4842
  250MPD2    C4 3792   4.109   4.689  12.586 -0.3995  0.2936  0.7271
  250MPD2    C5 3793   4.188   0.074  12.577 -0.2495 -0.0071  0.9745
  250MPD2     H 3794   3.846   0.100  12.749 -0.2173  0.1051 -1.1337
  250MPD2    H1 3795   4.140   4.599  12.534 -1.9548 -0.0863  0.4565
  250MPD2    H2 3796   4.211   0.274  12.619  0.2992  0.6378  1.0439
  250MPD2    H3 3797   4.272   0.066  12.509 -1.7877 -2.2323 -0.6662
  250MPD2     N 3798   3.903   4.579  12.655 -0.0899  0.2893 -0.1448
  250MPD2    H5 3799   3.938   4.504  12.596  0.1901  0.1429  0.2098
  250MPD2    N1 3800   3.985   0.332  12.746 -0.1379  0.1919  0.5291
  250MPD2    H7 3801   4.050   0.409  12.742 -0.4569  0.4903  1.1627
  251TMC3    C1 3802   3.852   0.502  12.862  0.2805  0.0563 -0.1378
  251TMC3    C2 3803   3.763   0.524  12.967  0.0346  0.2029 -0.2504
  251TMC3    C3 3804   3.764   0.654  13.011 -0.7082 -0.3595 -0.1935
  251TMC3    C4 3805   3.945   0.591  12.814  0.1484  0.4501 -0.5556
  251TMC3    C5 3806   3.943   0.719  12.860  0.3054 -0.3283 -0.1538
  251TMC3    C6 3807   3.853   0.747  12.965 -0.1452 -0.6051 -0.3357
  251TMC3     C 3808   3.869   0.360  12.820  0.1116  0.9154  0.3061
  251TMC3     O 3809   3.791   0.281  12.869 -0.0282  0.0231 -0.2295
  251TMC3     H 3810   3.696   0.445  13.001  0.7862 -1.2244 -2.0968
  251TMC3    H1 3811   4.008   0.565  12.730 -0.6678  0.5325 -1.1970
  251TMC3    H2 3812   3.859   0.842  13.017 -3.7316 -1.1859  1.0775
  251TMC3    C7 3813   4.072   0.780  12.856 -0.4784 -0.3802  0.7920
  251TMC3    C8 3814   3.668   0.690  13.107 -0.5599  0.2830  0.4232
  251TMC3    O1 3815   4.164   0.700  12.842 -0.3006  0.0322 -0.1705
  251TMC3    O2 3816   3.654   0.807  13.133  0.7891 -0.0586 -0.6504
  252TMC3    C1 3817   3.957   1.540   9.133  0.0661 -0.0148  0.2505
  252TMC3    C2 3818   4.077   1.610   9.138 -0.3816 -0.8043  0.4110
  252TMC3    C3 3819   4.173   1.551   9.219  0.3845 -0.1481 -0.5387
  252TMC3    C4 3820   3.934   1.419   9.203 -0.5002  0.9770 -0.1186
  252TMC3    C5 3821   4.033   1.370   9.270  0.2518 -0.7110 -0.5079
  252TMC3    C6 3822   4.154   1.435   9.287  0.2834 -0.0179  0.1573
  252TMC3     C 3823   3.868   1.582   9.025  0.5224 -0.3148 -0.6231
  252TMC3     O 3824   3.903   1.679   8.964  0.2122 -0.8063  0.2108
  252TMC3     H 3825   4.099   1.698   9.078  1.1485 -0.8329  0.9364
  252TMC3    H1 3826   3.847   1.356   9.190  0.6651 -0.6628  0.0769
  252TMC3    H2 3827   4.230   1.386   9.347  0.2736  0.0276  0.2059
  252TMC3    C7 3828   4.000   1.257   9.356  0.4324  0.5651 -0.2668
  252TMC3    C8 3829   4.294   1.622   9.236 -0.0030 -0.1484 -0.2990
  252TMC3    O1 3830   3.883   1.245   9.386 -0.1190 -0.2471  0.2053
  252TMC3    O2 3831   4.338   1.695   9.142  0.2858  0.6707 -0.2847
  253MPD2     C 3832   0.237   0.623  15.059  0.3443  0.6103  0.1305
  253MPD2    C1 3833   0.200   0.491  15.102  0.1805  0.0873 -0.4283
  253MPD2    C2 3834   0.160   0.475  15.233  0.0535 -0.2109 -0.0339
  253MPD2    C3 3835   0.152   0.575  15.326  0.7291  0.5992 -0.6324
  253MPD2    C4 3836   0.189   0.702  15.280 -0.5286  0.4240  0.1018
  253MPD2    C5 3837   0.230   0.725  15.149  0.2956  0.5736 -0.2290
  253MPD2     H 3838   0.129   0.374  15.257 -0.0915 -0.1538  0.0183
  253MPD2    H1 3839   0.185   0.785  15.349 -1.7339 -1.3280  2.1007
  253MPD2    H2 3840   0.280   0.650  14.964  2.1039  1.5796  1.1918
  253MPD2    H3 3841   0.270   0.820  15.116 -0.5098  0.7583 -0.6887
  253MPD2     N 3842   0.101   0.565  15.455 -0.0302 -0.4429 -0.5445
  253MPD2    H5 3843   0.086   0.649  15.510 -0.5191  0.3312 -1.8833
  253MPD2    N1 3844   0.193   0.379  15.011  0.2843 -0.0360  0.1505
  253MPD2    H7 3845   0.154   0.292  15.046  1.0265 -0.5550 -0.3129
  254TMC3    C1 3846   0.012   0.465  15.644 -0.6649 -0.0858 -0.5044
  254TMC3    C2 3847   4.634   0.563  15.652 -0.0018 -0.1365  0.2262
  254TMC3    C3 3848   4.558   0.571  15.766  0.0975  0.3555  1.1102
  254TMC3    C4 3849   0.014   0.363  15.740 -0.2067 -0.6750  0.0164
  254TMC3    C5 3850   4.643   0.366  15.846 -1.3066 -0.4640 -0.4607
  254TMC3    C6 3851   4.551   0.468  15.852 -0.9195 -0.3482  0.1884
  254TMC3     C 3852   0.078   0.443  15.516 -0.3002 -0.0243  0.3952
  254TMC3     O 3853   0.100   0.324  15.487 -0.8640 -0.2299  0.3881
  254TMC3     H 3854   4.636   0.645  15.581 -2.5847 -1.4523 -1.3709
  254TMC3    H1 3855   0.095   0.291  15.742 -0.7102 -1.2706 -0.7104
  254TMC3    H2 3856   4.479   0.464  15.933 -0.7371 -1.3190  0.2938
  254TMC3    C7 3857   4.682   0.301  15.963  0.0053 -1.0080 -0.2061
  254TMC3    C8 3858   4.511   0.699  15.815 -0.3234  0.2709 -0.5825
  254TMC3    O1 3859   0.081   0.298  15.975  0.0316  0.0137  0.8444
  254TMC3    O2 3860   4.436   0.693  15.914  0.7944 -0.5919  0.4349
  255MPD2     C 3861   3.487   2.707  10.565  0.0547  0.2772 -0.0919
  255MPD2    C1 3862   3.551   2.707  10.441  0.1744 -0.3380  0.1378
  255MPD2    C2 3863   3.583   2.582  10.389  0.3713  0.5058  0.2208
  255MPD2    C3 3864   3.595   2.475  10.471  0.3528 -0.5737 -0.5246
  255MPD2    C4 3865   3.552   2.478  10.602 -0.3740 -0.3095  0.0319
  255MPD2    C5 3866   3.499   2.597  10.649  1.0691 -0.4651  0.3072
  255MPD2     H 3867   3.627   2.568  10.291 -1.3744  0.5021 -0.5658
  255MPD2    H1 3868   3.540   2.397  10.674  1.6911 -0.7283 -0.1102
  255MPD2    H2 3869   3.460   2.800  10.613  1.0284  0.0167  0.9637
  255MPD2    H3 3870   3.449   2.605  10.745  0.8412  0.0432  0.1476
  255MPD2     N 3871   3.662   2.364  10.414 -0.1238  0.4045 -0.1631
  255MPD2    H5 3872   3.689   2.364  10.316 -0.1077  0.1000 -0.1602
  255MPD2    N1 3873   3.577   2.829  10.368  0.0246  0.3385 -0.0718
  255MPD2    H7 3874   3.542   2.918  10.405  0.3271 -0.0015  1.0332
  256TMC3    C1 3875   3.697   2.971  10.212 -0.4312  0.1925  0.0615
  256TMC3    C2 3876   3.794   2.964  10.117 -0.0223  0.0982  0.2821
  256TMC3    C3 3877   3.798   3.063  10.018 -0.4042 -0.3503 -0.3186
  256TMC3    C4 3878   3.593   3.060  10.202  0.4123 -0.0152 -0.1286
  256TMC3    C5 3879   3.605   3.153  10.096  0.6679 -0.0871 -0.3716
  256TMC3    C6 3880   3.712   3.168  10.008  0.0723  0.0213 -0.0705
  256TMC3     C 3881   3.669   2.839  10.264 -0.3540 -0.2628 -0.1982
  256TMC3     O 3882   3.738   2.750  10.219  0.0092 -0.3617  0.3614
  256TMC3     H 3883   3.887   2.916  10.144  0.2948 -0.0726 -1.1042
  256TMC3    H1 3884   3.499   3.065  10.257  0.5468 -0.7953  0.1825
  256TMC3    H2 3885   3.707   3.227   9.918  0.0713  0.2597  0.0836
  256TMC3    C7 3886   3.510   3.257  10.083  0.2206 -0.6839 -0.1607
  256TMC3    C8 3887   3.915   3.065   9.934 -0.4886  0.3875  0.1724
  256TMC3    O1 3888   3.394   3.219  10.107  0.3874 -0.1844 -0.1121
  256TMC3    O2 3889   3.971   2.954   9.915 -1.1142  0.2620  0.2916
  257MPD2     C 3890   2.247   0.215  13.217 -0.5440 -0.4195  0.1661
  257MPD2    C1 3891   2.356   0.239  13.140  0.6691 -0.1276  0.3166
  257MPD2    C2 3892   2.474   0.160  13.146  0.7078  0.1928  0.0511
  257MPD2    C3 3893   2.485   0.062  13.239 -0.5131 -0.2131  0.0672
  257MPD2    C4 3894   2.374   0.033  13.312  0.4953  0.3272  0.4259
  257MPD2    C5 3895   2.254   0.108  13.298 -0.2950  0.3889  0.4267
  257MPD2     H 3896   2.558   0.182  13.082  2.4613 -0.1530  2.2246
  257MPD2    H1 3897   2.374   4.672  13.380  1.1744 -1.6679 -2.0437
  257MPD2    H2 3898   2.162   0.281  13.222 -0.1174  0.1410  0.0176
  257MPD2    H3 3899   2.166   0.087  13.357 -0.5963  1.3366  0.3149
  257MPD2     N 3900   2.608   4.712  13.241 -0.7684  0.4358 -0.0107
  257MPD2    H5 3901   2.670   4.718  13.161  1.0713 -0.2657  1.3718
  257MPD2    N1 3902   2.347   0.340  13.049  0.1248  0.0042  0.8882
  257MPD2    H7 3903   2.253   0.378  13.039  0.1168 -1.0712 -2.9184
  258TMC3    C1 3904   2.752   4.546  13.311 -1.1616 -0.5443  0.5951
  258TMC3    C2 3905   2.786   4.532  13.181 -0.3708  0.9141  0.0582
  258TMC3    C3 3906   2.910   4.476  13.151 -0.5334  0.1479 -0.1774
  258TMC3    C4 3907   2.828   4.488  13.412  0.3326  0.8389 -0.0520
  258TMC3    C5 3908   2.955   4.437  13.385  0.4441 -0.1168  0.1805
  258TMC3    C6 3909   2.991   4.432  13.252  0.4866  0.2048  0.4139
  258TMC3     C 3910   2.648   4.641  13.349  0.0109 -0.1663  0.7739
  258TMC3     O 3911   2.605   4.650  13.462 -0.2254 -0.2735 -0.4093
  258TMC3     H 3912   2.718   4.559  13.102 -0.5695  1.1624  0.3114
  258TMC3    H1 3913   2.796   4.483  13.515 -1.1511  0.8990 -0.5155
  258TMC3    H2 3914   3.087   4.390  13.222  0.5484  0.9427 -0.4179
  258TMC3    C7 3915   3.049   4.396  13.489 -0.3655  0.0632 -0.1043
  258TMC3    C8 3916   2.950   4.452  13.010 -0.4055 -0.0477 -0.0211
  258TMC3    O1 3917   3.161   4.451  13.484  0.0481 -0.1373  0.3677
  258TMC3    O2 3918   3.034   4.369  12.995 -0.1213 -0.1777  0.2206
  259MPD2     C 3919   1.652   1.986   0.959 -0.5188 -0.0275  0.4339
  259MPD2    C1 3920   1.775   1.944   1.009  0.8447 -0.1028  0.7340
  259MPD2    C2 3921   1.857   1.872   0.928 -0.0569  0.8421  0.3062
  259MPD2    C3 3922   1.819   1.840   0.797 -0.1657 -0.0624 -1.0830
  259MPD2    C4 3923   1.704   1.882   0.744  0.2200  0.0720  0.7466
  259MPD2    C5 3924   1.617   1.954   0.827  0.3217 -0.1650  0.7299
  259MPD2     H 3925   1.955   1.839   0.962 -0.1636  1.3403  1.0924
  259MPD2    H1 3926   1.677   1.862   0.641  0.8066  0.2451  0.5582
  259MPD2    H2 3927   1.582   2.042   1.020  0.3056 -0.6439  1.9665
  259MPD2    H3 3928   1.524   1.994   0.789  1.3580  0.0749 -1.5187
  259MPD2     N 3929   1.911   1.769   0.719  0.0877 -0.1432  0.0796
  259MPD2    H5 3930   1.998   1.749   0.767 -1.2239 -1.8494  1.7891
  259MPD2    N1 3931   1.796   1.958   1.148 -0.2820 -0.4590 -0.2547
  259MPD2    H7 3932   1.727   2.003   1.207  0.6721  0.7984 -0.0990
  260TMC3    C1 3933   2.034   1.707   0.537  0.6272 -0.3562 -0.6016
  260TMC3    C2 3934   2.086   1.824   0.483  0.1070  0.3430 -0.2470
  260TMC3    C3 3935   2.125   1.834   0.354 -0.0028 -0.0925 -0.1578
  260TMC3    C4 3936   2.029   1.602   0.446 -0.1104  0.5401  0.3701
  260TMC3    C5 3937   2.073   1.612   0.322  0.0342 -0.1124  0.3138
  260TMC3    C6 3938   2.124   1.731   0.265  0.5784  0.5150  0.4728
  260TMC3     C 3939   1.902   1.728   0.591  0.2792  0.4334  0.2527
  260TMC3     O 3940   1.811   1.738   0.516 -0.2537  0.2813 -0.0916
  260TMC3     H 3941   2.038   1.909   0.530 -0.2251 -0.4188  0.8136
  260TMC3    H1 3942   1.972   1.513   0.472 -1.7637  1.4363 -0.2192
  260TMC3    H2 3943   2.159   1.750   0.164  0.1352 -1.1572  0.0199
  260TMC3    C7 3944   2.052   1.503   0.229 -0.5244  0.1165 -0.3104
  260TMC3    C8 3945   2.110   1.959   0.289  0.2276 -0.7787 -0.2292
  260TMC3    O1 3946   2.037   1.537   0.114  0.2572 -0.2438 -0.3201
  260TMC3    O2 3947   2.077   1.960   0.169  0.0972  0.4799  0.4963
  261MPD2     C 3948   3.223   4.638  12.380 -0.0701 -0.7489  0.5697
  261MPD2    C1 3949   3.364   4.646  12.380  0.1889 -0.4530 -0.2933
  261MPD2    C2 3950   3.416   0.039  12.321 -0.4265 -0.5800 -0.3529
  261MPD2    C3 3951   3.340   0.144  12.268 -0.7473 -0.0111 -0.2913
  261MPD2    C4 3952   3.210   0.132  12.272 -0.1539  0.4306 -0.1927
  261MPD2    C5 3953   3.151   0.022  12.327 -0.2326  0.1987 -0.1515
  261MPD2     H 3954   3.524   0.047  12.313 -0.5530  2.2879  0.7951
  261MPD2    H1 3955   3.137   0.207  12.243 -0.9776 -0.0529  0.6507
  261MPD2    H2 3956   3.172   4.560  12.435  0.5343 -0.8135  1.0382
  261MPD2    H3 3957   3.043   0.015  12.335  0.0746 -2.3959  1.6363
  261MPD2     N 3958   3.411   0.264  12.220  0.1810  0.1053 -0.1133
  261MPD2    H5 3959   3.512   0.269  12.210  0.2974  1.1160  1.4483
  261MPD2    N1 3960   3.450   4.548  12.428 -0.2210 -0.2289  0.0839
  261MPD2    H7 3961   3.546   4.575  12.445  0.0112 -1.3655  0.5993
  262TMC3    C1 3962   3.420   0.498  12.167 -1.0611 -0.0199 -0.1929
  262TMC3    C2 3963   3.352   0.622  12.158  0.2749  0.4321  0.0079
  262TMC3    C3 3964   3.408   0.714  12.079 -0.5809  0.0129 -0.1107
  262TMC3    C4 3965   3.547   0.473  12.112  0.4051 -0.3618  0.5282
  262TMC3    C5 3966   3.597   0.575  12.034 -0.3203 -0.7287 -0.2728
  262TMC3    C6 3967   3.526   0.691  12.013 -0.4526  0.6759 -0.1091
  262TMC3     C 3968   3.343   0.389  12.225  0.7730  0.0046 -0.4618
  262TMC3     O 3969   3.241   0.422  12.289 -0.1888  0.2852  0.1970
  262TMC3     H 3970   3.259   0.633  12.213  1.2591  0.6930  1.6127
  262TMC3    H1 3971   3.587   0.372  12.117 -1.6651 -1.1590  1.3487
  262TMC3    H2 3972   3.549   0.771  11.943  3.2692  2.5761  3.3016
  262TMC3    C7 3973   3.678   0.534  11.920 -0.2706  0.2081  0.0246
  262TMC3    C8 3974   3.341   0.842  12.052  0.4215  0.0444 -0.4307
  262TMC3    O1 3975   3.681   0.422  11.879 -0.2187 -0.0870 -0.3461
  262TMC3    O2 3976   3.405   0.932  12.003 -0.2961  0.0946  0.3996
  263MPD2     C 3977   4.110   4.434  11.443  0.2226 -0.1973  0.3382
  263MPD2    C1 3978   4.245   4.420  11.413 -1.0567 -0.4676 -0.3504
  263MPD2    C2 3979   4.292   4.509  11.313 -0.0272  0.5673  0.4418
  263MPD2    C3 3980   4.212   4.601  11.245  0.3476 -0.1250 -0.1163
  263MPD2    C4 3981   4.081   4.599  11.271  0.0401  0.1169 -0.3138
  263MPD2    C5 3982   4.036   4.519  11.365  0.3132 -1.0370 -0.2172
  263MPD2     H 3983   4.398   4.514  11.290 -0.4495  0.7880 -1.4876
  263MPD2    H1 3984   4.008   4.649  11.208  0.4267 -1.4371 -1.9824
  263MPD2    H2 3985   4.057   4.382  11.521 -1.0636  0.2739 -0.2130
  263MPD2    H3 3986   3.929   4.522  11.381  0.3664 -0.9275  0.1136
  263MPD2     N 3987   4.269   4.680  11.141  0.8653  0.0824 -0.5673
  263MPD2    H5 3988   4.369   4.664  11.128  0.6862 -0.9015 -0.6953
  263MPD2    N1 3989   4.326   4.322  11.487  0.5114 -0.5468  0.9391
  263MPD2    H7 3990   4.277   4.264  11.554 -0.5328 -0.2137  0.4555
  264TMC3    C1 3991   4.305   0.127  10.989  0.2388  0.1645 -0.6608
  264TMC3    C2 3992   4.285   0.266  10.978  0.8909 -0.3541  0.1879
  264TMC3    C3 3993   4.349   0.333  10.869 -0.1636 -0.0174 -0.0704
  264TMC3    C4 3994   4.386   0.056  10.899  0.6019 -0.0045 -0.2740
  264TMC3    C5 3995   4.432   0.123  10.796  0.1296  0.0650  0.0450
  264TMC3    C6 3996   4.418   0.261  10.779 -0.4304 -0.8058  0.0728
  264TMC3     C 3997   4.211   0.061  11.078 -0.4218 -0.4948 -0.4991
  264TMC3     O 3998   4.130   0.131  11.141  0.0289 -0.7766 -0.0303
  264TMC3     H 3999   4.255   0.324  11.065  1.7444 -0.1178  0.3229
  264TMC3    H1 4000   4.393   4.671  10.891  2.0419 -0.0566  1.8168
  264TMC3    H2 4001   4.460   0.299  10.688 -0.8415 -1.0299 -0.2116
  264TMC3    C7 4002   4.562   0.081  10.738 -0.0486 -0.1132 -0.0586
  264TMC3    C8 4003   4.427   0.452  10.900 -0.3549  0.0105  0.0831
  264TMC3    O1 4004   4.575   4.685  10.710 -0.5935 -0.0341 -0.3477
  264TMC3    O2 4005   4.527   0.461  10.827 -0.0456  0.1292  0.0756
  265MPD2     C 4006   2.149   0.656  15.948  0.6315  0.0514 -0.3855
  265MPD2    C1 4007   2.091   0.664  15.821  0.0311 -0.5457  0.0831
  265MPD2    C2 4008   2.147   0.597  15.714 -0.2814 -0.1248 -0.2073
  265MPD2    C3 4009   2.242   0.498  15.740  0.2841 -0.5503  0.2314
  265MPD2    C4 4010   2.300   0.487  15.868 -0.4511 -0.0556  0.0665
  265MPD2    C5 4011   2.254   0.572  15.968 -0.6927 -0.0576 -0.2003
  265MPD2     H 4012   2.100   0.606  15.617  0.1465  1.8387 -0.2204
  265MPD2    H1 4013   2.376   0.415  15.893  0.3297  1.3025  1.6423
  265MPD2    H2 4014   2.112   0.716  16.031  0.7432 -1.6312  0.8930
  265MPD2    H3 4015   2.298   0.567  16.067  1.0413  0.9446 -0.9044
  265MPD2     N 4016   2.301   0.423  15.636 -0.4827  0.6860  0.1592
  265MPD2    H5 4017   2.359   0.346  15.668  0.9146  1.4684 -0.4875
  265MPD2    N1 4018   1.973   0.748  15.822  0.3111  0.2875  0.2254
  265MPD2    H7 4019   1.942   0.802  15.902  2.0305  0.1703  0.9831
  266TMC3    C1 4020   1.792   0.858  15.754 -0.4257 -0.1575  0.3800
  266TMC3    C2 4021   1.798   0.899  15.884 -0.1090  0.3690  0.4689
  266TMC3    C3 4022   1.776   1.032  15.913  0.2300  0.4397  0.3128
  266TMC3    C4 4023   1.770   0.948  15.650 -0.6534 -0.3890  0.2059
  266TMC3    C5 4024   1.747   1.078  15.692  0.5400  0.9523  0.3212
  266TMC3    C6 4025   1.748   1.127  15.819 -0.1107  0.0772 -0.7435
  266TMC3     C 4026   1.872   0.740  15.730  0.6440 -0.5542 -0.1221
  266TMC3     O 4027   1.866   0.684  15.624 -0.0360 -0.3846 -0.1147
  266TMC3     H 4028   1.791   0.824  15.962  1.0108  0.1426  0.3522
  266TMC3    H1 4029   1.768   0.922  15.545 -0.2625 -0.2414  0.1621
  266TMC3    H2 4030   1.764   1.232  15.839 -0.6586  0.0013  0.0501
  266TMC3    C7 4031   1.675   1.152  15.595  0.4168  0.5920 -0.2128
  266TMC3    C8 4032   1.849   1.065  16.035 -0.1245 -0.1834 -0.0651
  266TMC3    O1 4033   1.614   1.093  15.507  0.0552 -0.3998  0.2398
  266TMC3    O2 4034   1.906   0.966  16.080  0.1683  0.6482 -0.1649
  267MPD2     C 4035   3.665   3.042   0.999  0.0884  0.4419  0.7515
  267MPD2    C1 4036   3.742   2.938   1.038 -0.5019 -0.0171  0.1435
  267MPD2    C2 4037   3.681   2.821   1.077  0.0607  0.7574 -0.2192
  267MPD2    C3 4038   3.538   2.817   1.087  0.3378  0.0347  0.2349
  267MPD2    C4 4039   3.460   2.932   1.067  0.3339  0.7978 -0.5209
  267MPD2    C5 4040   3.525   3.040   1.018  0.0704 -0.0410 -0.4141
  267MPD2     H 4041   3.736   2.728   1.094 -0.1300  0.6282 -0.3121
  267MPD2    H1 4042   3.352   2.931   1.077  0.3117 -1.3673 -0.9452
  267MPD2    H2 4043   3.715   3.130   0.961  0.6661 -0.9247 -1.6564
  267MPD2    H3 4044   3.476   3.135   1.004 -0.0382 -0.2391 -1.4260
  267MPD2     N 4045   3.468   2.704   1.130  0.6720 -0.0779  0.2115
  267MPD2    H5 4046   3.367   2.709   1.133  0.4866 -2.5776 -1.8382
  267MPD2    N1 4047   3.881   2.958   1.020 -0.0303 -0.1164  0.6592
  267MPD2    H7 4048   3.910   3.047   0.981  3.8420 -2.0103 -0.8030
  268TMC3    C1 4049   4.107   2.922   1.025  0.3228  0.5301  0.8755
  268TMC3    C2 4050   4.127   2.972   0.891 -0.9195  0.0976  0.2448
  268TMC3    C3 4051   4.255   2.973   0.849 -0.5151  0.6142 -0.1291
  268TMC3    C4 4052   4.211   2.882   1.102  0.1812 -0.3719 -0.5009
  268TMC3    C5 4053   4.336   2.888   1.049  0.0000 -1.0401 -0.7039
  268TMC3    C6 4054   4.366   2.932   0.925  0.6564  0.2628  0.4315
  268TMC3     C 4055   3.980   2.874   1.069 -0.7634 -0.2461 -0.1133
  268TMC3     O 4056   3.976   2.769   1.132 -0.1191 -0.4753  0.0463
  268TMC3     H 4057   4.039   3.009   0.839 -1.6432 -0.3997  1.1070
  268TMC3    H1 4058   4.194   2.839   1.201  0.2319  2.4122  0.7054
  268TMC3    H2 4059   4.464   2.937   0.878 -0.0313 -2.0313 -1.2082
  268TMC3    C7 4060   4.420   2.782   1.108 -0.0537  0.3450  0.3668
  268TMC3    C8 4061   4.266   3.012   0.709  0.0454 -0.6621  0.2344
  268TMC3    O1 4062   4.439   2.679   1.046  0.3230 -0.3464  0.0167
  268TMC3    O2 4063   4.377   3.053   0.673 -0.2761  0.2544 -0.2628
  269MPD2     C 4064   4.224   0.900  15.519  0.1133  0.3321 -0.8921
  269MPD2    C1 4065   4.159   0.911  15.641 -0.8644  0.0979  0.1688
  269MPD2    C2 4066   4.114   1.035  15.682  0.5121  0.7652  0.4384
  269MPD2    C3 4067   4.120   1.145  15.601  0.2714 -0.1540  0.2967
  269MPD2    C4 4068   4.186   1.127  15.482  0.4705 -0.2652 -0.2506
  269MPD2    C5 4069   4.238   1.008  15.441 -0.1150 -0.4215  0.0775
  269MPD2     H 4070   4.078   1.054  15.783  1.0205 -0.4253  0.8442
  269MPD2    H1 4071   4.213   1.206  15.413  1.1090  1.8657  2.4326
  269MPD2    H2 4072   4.274   0.810  15.485  0.0227  0.9740 -2.7204
  269MPD2    H3 4073   4.286   0.999  15.344  0.1368 -2.0070  0.3398
  269MPD2     N 4074   4.048   1.258  15.638 -0.0337  0.7385  0.4431
  269MPD2    H5 4075   4.004   1.257  15.729 -2.7693  1.9789 -0.8801
  269MPD2    N1 4076   4.139   0.792  15.718  0.7824  0.1622 -0.0881
  269MPD2    H7 4077   4.169   0.709  15.670 -1.2958  0.2604 -1.5420
  270TMC3    C1 4078   4.033   0.649  15.865  0.3699 -0.2658  0.0055
  270TMC3    C2 4079   3.901   0.628  15.842  0.6567  0.3641 -0.6301
  270TMC3    C3 4080   3.861   0.497  15.833  0.4137  0.1845  0.4078
  270TMC3    C4 4081   4.125   0.542  15.864 -0.4615 -0.8825  0.1951
  270TMC3    C5 4082   4.080   0.410  15.864  0.4997  0.4580 -0.1694
  270TMC3    C6 4083   3.951   0.393  15.858 -1.1074 -0.1095  0.3020
  270TMC3     C 4084   4.078   0.786  15.840  1.0082 -0.2444  0.1182
  270TMC3     O 4085   4.007   0.870  15.897  0.3755  0.1105  0.4334
  270TMC3     H 4086   3.828   0.707  15.833 -0.4392 -0.4545  1.1486
  270TMC3    H1 4087   4.233   0.556  15.857 -0.8532  1.6436 -0.6891
  270TMC3    H2 4088   3.912   0.294  15.834 -0.1702 -0.4606  0.2367
  270TMC3    C7 4089   4.177   0.308  15.906  0.6064  0.2373  0.0218
  270TMC3    C8 4090   3.761   0.472  15.732 -0.2275  0.3949 -1.0631
  270TMC3    O1 4091   4.290   0.324  15.863  0.5856  0.1680 -0.2849
  270TMC3    O2 4092   3.682   0.558  15.708 -0.1732  0.0392  0.1360
  271MPD2     C 4093   3.152   0.080  14.021 -0.1091 -0.2847 -0.3686
  271MPD2    C1 4094   3.194   0.184  14.097  0.3967 -0.1942  0.7991
  271MPD2    C2 4095   3.147   0.316  14.072 -0.1547 -0.1541  0.4116
  271MPD2    C3 4096   3.071   0.342  13.963  0.8043 -0.3432 -0.8310
  271MPD2    C4 4097   3.012   0.237  13.900  0.2372 -0.1578  0.2768
  271MPD2    C5 4098   3.053   0.112  13.936  0.0419  0.2225  0.9058
  271MPD2     H 4099   3.183   0.394  14.139 -0.4166 -0.2237  0.6330
  271MPD2    H1 4100   2.951   0.258  13.813  0.4756 -0.6656 -0.0105
  271MPD2    H2 4101   3.175   4.697  14.037 -1.5269 -0.7645 -1.5272
  271MPD2    H3 4102   3.003   0.031  13.882  2.6417 -0.1089 -0.9920
  271MPD2     N 4103   3.050   0.471  13.911  0.1358 -0.5526 -0.8704
  271MPD2    H5 4104   2.974   0.475  13.844  1.6152  2.0003 -2.3878
  271MPD2    N1 4105   3.283   0.162  14.199 -0.0168  0.4614 -0.0465
  271MPD2    H7 4106   3.309   0.247  14.250  2.2234  0.1564 -0.6977
  272TMC3    C1 4107   3.436   0.067  14.337  0.6928 -0.3051  0.1682
  272TMC3    C2 4108   3.567   0.035  14.320  0.1268 -0.0720  0.0570
  272TMC3    C3 4109   3.652   0.027  14.431 -0.3532  0.1805  0.3204
  272TMC3    C4 4110   3.394   0.094  14.466 -0.2764 -0.3464  0.0640
  272TMC3    C5 4111   3.483   0.100  14.574  0.0918  0.4907 -0.7575
  272TMC3    C6 4112   3.614   0.067  14.558  0.0454 -0.2478 -0.0942
  272TMC3     C 4113   3.342   0.042  14.231 -0.7883  0.6400  0.8423
  272TMC3     O 4114   3.350   4.655  14.176  0.0137 -0.1462  0.0035
  272TMC3     H 4115   3.594   4.709  14.227  2.0479  2.4294 -0.6578
  272TMC3    H1 4116   3.288   0.104  14.485 -0.1383  2.9431 -0.9630
  272TMC3    H2 4117   3.676   0.049  14.645  0.4565  1.4885 -0.0283
  272TMC3    C7 4118   3.426   0.140  14.702 -0.3031  0.3323 -0.5777
  272TMC3    C8 4119   3.797   0.004  14.408  0.1924  1.0086 -0.1443
  272TMC3    O1 4120   3.310   0.114  14.734  0.1677  0.4503 -0.4168
  272TMC3    O2 4121   3.837   0.045  14.298 -0.1603 -0.5531  0.4474
  273MPD2     C 4122   4.714   2.728  11.540  0.3501 -0.0126 -0.6863
  273MPD2    C1 4123   0.091   2.809  11.587 -0.7497 -0.5997 -0.2786
  273MPD2    C2 4124   0.156   2.911  11.512  0.3701 -0.7890 -0.4584
  273MPD2    C3 4125   0.113   2.936  11.383  0.9516  0.1155  0.4045
  273MPD2    C4 4126   0.022   2.846  11.330  0.3460 -0.1257 -0.3317
  273MPD2    C5 4127   4.686   2.749  11.406 -0.5609  0.3050 -0.3135
  273MPD2     H 4128   0.225   2.978  11.560 -0.4293  1.7835 -2.8587
  273MPD2    H1 4129   4.693   2.871  11.238 -0.8655 -2.2302 -0.1994
  273MPD2    H2 4130   4.664   2.654  11.601 -0.3256  0.9110 -0.1216
  273MPD2    H3 4131   4.601   2.693  11.367  0.5287 -0.6555 -1.3073
  273MPD2     N 4132   0.162   3.038  11.299 -0.2803  0.8042 -0.0220
  273MPD2    H5 4133   0.155   3.026  11.198  0.5444  0.7576 -0.0714
  273MPD2    N1 4134   0.124   2.798  11.726  0.7279 -0.2892 -0.6733
  273MPD2    H7 4135   0.070   2.735  11.784  0.1878  0.1627 -0.6873
  274TMC3    C1 4136   0.270   3.241  11.251 -0.2194  0.4265 -0.2842
  274TMC3    C2 4137   0.203   3.240  11.132 -0.4172  0.4229  0.3068
  274TMC3    C3 4138   0.203   3.358  11.059  0.3443 -0.1794  0.5991
  274TMC3    C4 4139   0.342   3.351  11.287 -0.8826 -0.1680 -0.0276
  274TMC3    C5 4140   0.354   3.462  11.203 -1.1049 -0.5716  0.1847
  274TMC3    C6 4141   0.283   3.467  11.084  0.0586  0.0981  0.2913
  274TMC3     C 4142   0.224   3.150  11.351 -0.3182  0.0295  0.2167
  274TMC3     O 4143   0.248   3.181  11.466 -0.3071  0.0055 -0.3965
  274TMC3     H 4144   0.147   3.153  11.099  3.2400 -0.8972 -2.3871
  274TMC3    H1 4145   0.392   3.364  11.383 -2.9449 -0.4177  1.0859
  274TMC3    H2 4146   0.273   3.564  11.035 -1.4507  0.8711  2.0976
  274TMC3    C7 4147   0.347   3.594  11.276  1.2192  0.4592  0.1502
  274TMC3    C8 4148   0.130   3.336  10.930 -0.7765 -0.5825 -0.2994
  274TMC3    O1 4149   0.276   3.602  11.380 -0.2675 -0.4454  0.6438
  274TMC3    O2 4150   0.059   3.233  10.922  0.2192  0.1657 -0.0961
  275MPD2     C 4151   0.201   1.354  14.388  0.2515  0.3713 -0.0782
  275MPD2    C1 4152   0.234   1.231  14.453 -0.4771  0.1077 -0.3987
  275MPD2    C2 4153   0.129   1.141  14.466  0.7775  0.3478  0.8570
  275MPD2    C3 4154   0.004   1.171  14.421  0.8746 -0.5784  0.1045
  275MPD2    C4 4155   4.698   1.287  14.356  0.5047  0.0074 -0.4749
  275MPD2    C5 4156   0.075   1.379  14.338 -0.5359  0.1400  0.1941
  275MPD2     H 4157   0.147   1.052  14.525 -0.7554 -0.0679  0.7037
  275MPD2    H1 4158   4.602   1.314  14.313  0.0882  0.7924  0.9196
  275MPD2    H2 4159   0.277   1.431  14.378  2.3682 -1.8986 -1.6712
  275MPD2    H3 4160   0.051   1.475  14.292  0.8852 -0.2238 -1.2978
  275MPD2     N 4161   4.621   1.076  14.454  0.8087 -0.4939 -0.0337
  275MPD2    H5 4162   4.529   1.117  14.442 -0.5007 -3.1128  1.0450
  275MPD2    N1 4163   0.353   1.192  14.511 -0.8754  0.4504  0.4986
  275MPD2    H7 4164   0.349   1.098  14.550 -1.0693 -0.7723 -2.4665
  276TMC3    C1 4165   0.521   1.225  14.661 -1.3687 -0.1988  0.3451
  276TMC3    C2 4166   0.446   1.130  14.727 -0.2954 -0.3802  0.9625
  276TMC3    C3 4167   0.406   1.152  14.859 -0.2787 -0.3035  0.6678
  276TMC3    C4 4168   0.571   1.329  14.731 -0.0100 -0.4133  0.3195
  276TMC3    C5 4169   0.538   1.346  14.865 -0.0317 -0.1960 -0.0569
  276TMC3    C6 4170   0.445   1.259  14.926  0.1749  0.9423 -0.4981
  276TMC3     C 4171   0.461   1.272  14.541  0.1090  1.0554  0.3531
  276TMC3     O 4172   0.481   1.391  14.513 -0.0610 -0.3149 -0.2317
  276TMC3     H 4173   0.445   1.029  14.688  1.9279  0.3106 -0.8614
  276TMC3    H1 4174   0.632   1.400  14.676  1.2393 -2.2891 -0.7520
  276TMC3    H2 4175   0.432   1.270  15.033 -1.8309 -0.8827 -0.5597
  276TMC3    C7 4176   0.603   1.446  14.941  0.2693 -0.0062 -0.1223
  276TMC3    C8 4177   0.262   1.128  14.867 -0.5889  0.0174  0.5001
  276TMC3    O1 4178   0.602   1.427  15.064  0.1538 -0.1555  0.8088
  276TMC3    O2 4179   0.192   1.228  14.888  0.4644 -0.0649 -0.2052
  277MPD2     C 4180   2.171   0.432  13.462  0.4316  0.3647  0.6039
  277MPD2    C1 4181   2.039   0.463  13.502  0.5494  0.0491  0.0717
  277MPD2    C2 4182   1.964   0.377  13.580 -0.3738  0.2025 -0.5116
  277MPD2    C3 4183   2.021   0.264  13.632 -0.2854  0.3965 -0.2526
  277MPD2    C4 4184   2.157   0.235  13.601  0.3396 -0.1465  0.6135
  277MPD2    C5 4185   2.224   0.319  13.521  0.5414 -0.8588 -0.8565
  277MPD2     H 4186   1.864   0.407  13.609  0.3035  2.5560 -0.6172
  277MPD2    H1 4187   2.216   0.149  13.630 -0.9168 -0.5104  2.1221
  277MPD2    H2 4188   2.225   0.504  13.402 -0.7776  1.2267  0.5454
  277MPD2    H3 4189   2.324   0.294  13.488 -0.2060 -1.6950 -2.5062
  277MPD2     N 4190   1.937   0.197  13.726  0.3580  0.3870 -0.2507
  277MPD2    H5 4191   1.846   0.240  13.738  0.3984  0.8820 -1.8515
  277MPD2    N1 4192   1.990   0.582  13.455  0.6030  0.1538  0.2238
  277MPD2    H7 4193   2.041   0.630  13.381 -0.4831  0.0198 -0.6030
  278TMC3    C1 4194   1.863   0.026  13.862  0.4892 -0.2623 -0.9362
  278TMC3    C2 4195   1.822   4.619  13.837 -0.8877  0.0162 -0.3835
  278TMC3    C3 4196   1.710   4.575  13.897 -0.8018 -0.2887 -0.6848
  278TMC3    C4 4197   1.788   0.117  13.935  0.2289  0.2615  0.2772
  278TMC3    C5 4198   1.677   0.067  13.993 -0.6278 -0.4400 -0.4284
  278TMC3    C6 4199   1.636   4.658  13.980  0.1125  0.3376  0.4295
  278TMC3     C 4200   1.962   0.070  13.770  0.0231  0.7090  0.8330
  278TMC3     O 4201   2.042   4.709  13.728  0.6044 -0.2333 -0.0682
  278TMC3     H 4202   1.874   4.551  13.770  1.2605  3.1783 -1.9322
  278TMC3    H1 4203   1.815   0.220  13.958  0.2908  0.4794 -0.7754
  278TMC3    H2 4204   1.556   4.611  14.037 -0.7446  1.9628  0.5540
  278TMC3    C7 4205   1.601   0.160  14.072  0.0667  0.0123  0.1105
  278TMC3    C8 4206   1.664   4.443  13.843 -0.4049  0.4083 -0.8336
  278TMC3    O1 4207   1.671   0.224  14.151 -0.0461  0.1510  0.1148
  278TMC3    O2 4208   1.749   4.368  13.814  0.0162 -0.6538  0.1459
  279MPD2     C 4209   1.263   0.798  17.486 -0.9119  0.7256 -0.3675
  279MPD2    C1 4210   1.199   0.732  17.386 -0.4406 -0.0196  0.2026
  279MPD2    C2 4211   1.222   0.775  17.263 -0.0182  0.0716  0.4658
  279MPD2    C3 4212   1.295   0.885  17.227  0.8498  0.1058 -0.4137
  279MPD2    C4 4213   1.362   0.947  17.331 -0.7377 -0.1564 -0.4040
  279MPD2    C5 4214   1.346   0.901  17.449 -0.6570 -0.1386  0.0195
  279MPD2     H 4215   1.170   0.726  17.182  0.9892 -1.7083  0.9105
  279MPD2    H1 4216   1.429   1.032  17.320  0.8946 -1.2285  1.2581
  279MPD2    H2 4217   1.259   0.765  17.589  0.5721  2.1529  0.1387
  279MPD2    H3 4218   1.404   0.950  17.526  0.4320 -1.7173  0.2044
  279MPD2     N 4219   1.304   0.945  17.097 -0.2459  0.0991 -0.0820
  279MPD2    H5 4220   1.355   1.033  17.100 -0.9168  0.5413 -1.8425
  279MPD2    N1 4221   1.110   0.629  17.413 -0.0782  0.0721 -0.2925
  279MPD2    H7 4222   1.110   0.603  17.511  0.4023  1.1641 -0.0051
  280TMC3    C1 4223   0.973   0.452  17.402  0.3109 -0.4576 -0.2441
  280TMC3    C2 4224   1.004   0.322  17.391 -0.2467  0.2940  0.1212
  280TMC3    C3 4225   0.926   0.235  17.460 -0.4768  0.4111  0.5843
  280TMC3    C4 4226   0.865   0.501  17.475  0.1213  0.3996 -0.2066
  280TMC3    C5 4227   0.793   0.409  17.542 -0.1279  0.0238 -0.0145
  280TMC3    C6 4228   0.824   0.277  17.541 -0.0837 -0.1848 -0.2450
  280TMC3     C 4229   1.053   0.539  17.328 -0.4092  0.7874  0.3585
  280TMC3     O 4230   1.063   0.526  17.206  0.2967  0.1644  0.6785
  280TMC3     H 4231   1.088   0.294  17.328 -0.0543  0.5645  0.2559
  280TMC3    H1 4232   0.844   0.606  17.461 -0.1015  0.5467  1.1841
  280TMC3    H2 4233   0.761   0.202  17.589 -1.7328  0.4501 -1.4254
  280TMC3    C7 4234   0.727   0.467  17.654  0.8415  0.0468 -0.2837
  280TMC3    C8 4235   0.931   0.093  17.418 -0.0940 -0.0548  0.3301
  280TMC3    O1 4236   0.733   0.400   0.061 -0.2756 -0.3598 -0.7452
  280TMC3    O2 4237   0.867   0.005  17.476 -0.0746 -0.2737 -0.3862
  281TMC3    C1 4238   4.705   0.640  13.149  0.1201 -0.1366  0.4059
  281TMC3    C2 4239   4.696   0.737  13.056 -0.2283 -0.2277 -0.4729
  281TMC3    C3 4240   4.650   0.710  12.927 -0.1915 -0.6391  0.7139
  281TMC3    C4 4241   4.665   0.514  13.118 -0.1171  0.4300  0.3221
  281TMC3    C5 4242   4.629   0.490  12.987 -0.7643 -0.8211 -0.6049
  281TMC3    C6 4243   4.616   0.585  12.893  0.5963 -0.4008 -1.0421
  281TMC3     C 4244   4.670   0.691  13.283  0.4903 -0.2121  0.2164
  281TMC3     O 4245   4.716   0.658  13.387 -0.6425 -0.1420 -0.0514
  281TMC3     H 4246   4.710   0.839  13.093  1.2097  1.1056 -4.7064
  281TMC3    H1 4247   4.650   0.443  13.199 -1.2541 -0.3067 -0.5336
  281TMC3    H2 4248   4.586   0.565  12.791 -1.5282 -0.5641 -0.3976
  281TMC3    C7 4249   4.542   0.378  12.959  0.8876 -0.4916  0.0809
  281TMC3    C8 4250   4.594   0.819  12.853  0.0286 -0.3312 -0.2147
  281TMC3    O1 4251   4.439   0.406  12.901 -0.1689  0.4457 -0.8088
  281TMC3    O2 4252   4.546   0.781  12.750  0.4881  0.2048 -0.4797
  282MPD2     C 4253   1.742   2.156  15.311  0.4305  0.1843 -0.3232
  282MPD2    C1 4254   1.642   2.249  15.310  0.6369 -0.1246 -0.4407
  282MPD2    C2 4255   1.598   2.298  15.189  1.2923  0.3328 -0.2519
  282MPD2    C3 4256   1.638   2.238  15.072  0.6619  0.1280 -0.6984
  282MPD2    C4 4257   1.745   2.160  15.073 -0.9085  0.3437  0.6624
  282MPD2    C5 4258   1.791   2.113  15.193 -0.5012 -0.5144 -0.2017
  282MPD2     H 4259   1.516   2.369  15.187  0.4238 -0.6645 -0.4340
  282MPD2    H1 4260   1.793   2.114  14.987 -1.3582  1.0602  0.0256
  282MPD2    H2 4261   1.784   2.111  15.400  0.7979  1.7635  0.3097
  282MPD2    H3 4262   1.868   2.037  15.196  0.2696  0.3986  3.2910
  282MPD2     N 4263   1.569   2.262  14.946  1.4212  0.0867 -0.0672
  282MPD2    H5 4264   1.482   2.312  14.956  1.3132 -0.1656  0.2412
  282MPD2    N1 4265   1.583   2.289  15.426 -0.6088 -0.0694  0.0416
  282MPD2    H7 4266   1.519   2.368  15.424  1.6130  1.6804 -0.7932
  283TMC3    C1 4267   1.498   2.276  15.651  0.2726  0.8884  0.1517
  283TMC3    C2 4268   1.488   2.410  15.654  0.2856  0.0020  0.1900
  283TMC3    C3 4269   1.405   2.464  15.745  0.0481 -0.4004 -0.5574
  283TMC3    C4 4270   1.448   2.196  15.756  0.1085  0.1426  0.0333
  283TMC3    C5 4271   1.367   2.248  15.849 -0.2073  0.4238 -0.1250
  283TMC3    C6 4272   1.342   2.384  15.842 -0.0310  0.6172  0.4476
  283TMC3     C 4273   1.578   2.217  15.543 -0.2281  0.1309  0.3588
  283TMC3     O 4274   1.624   2.103  15.564 -0.1360  0.0609  0.3638
  283TMC3     H 4275   1.539   2.478  15.586  1.1062 -2.1863 -1.3804
  283TMC3    H1 4276   1.441   2.091  15.729  0.7037 -0.4894  2.3625
  283TMC3    H2 4277   1.264   2.421  15.907  0.3032 -0.2140  1.3197
  283TMC3    C7 4278   1.276   2.174  15.934  0.4516 -0.2083  0.2461
  283TMC3    C8 4279   1.385   2.609  15.769  0.3738  0.7195 -0.3114
  283TMC3    O1 4280   1.215   2.232  16.021  0.5190 -0.0357  0.5266
  283TMC3    O2 4281   1.336   2.643  15.876  0.1814 -0.1071  0.0693
  284MPD2     C 4282   4.445   1.187  11.994 -0.3393 -0.2756  0.9069
  284MPD2    C1 4283   4.534   1.135  11.903 -0.5326 -1.4000 -0.2516
  284MPD2    C2 4284   4.489   1.033  11.820 -0.2366 -0.4280 -0.0972
  284MPD2    C3 4285   4.360   0.979  11.845 -0.0362  0.0937 -0.1325
  284MPD2    C4 4286   4.280   1.031  11.941 -0.2845  0.1606  0.8280
  284MPD2    C5 4287   4.323   1.135  12.015  0.2268  0.8082 -0.4005
  284MPD2     H 4288   4.546   1.000  11.733 -0.5418 -0.6552 -0.2110
  284MPD2    H1 4289   4.182   0.987  11.955 -0.8432  1.3775  0.7378
  284MPD2    H2 4290   4.462   1.277  12.052 -0.0324  1.9451 -2.6494
  284MPD2    H3 4291   4.253   1.169  12.090 -0.0879  2.0091 -1.2412
  284MPD2     N 4292   4.303   0.865  11.773 -0.2943  0.2193 -0.5412
  284MPD2    H5 4293   4.220   0.834  11.823 -0.0106  0.4615  0.0890
  284MPD2    N1 4294   4.668   1.179  11.890 -0.7281  0.3407 -1.1358
  284MPD2    H7 4295   0.005   1.140  11.818 -0.8666 -0.8332 -0.6182
  285TMC3    C1 4296   0.124   1.348  11.912  0.0675  0.5437 -0.4684
  285TMC3    C2 4297   0.215   1.283  11.831  0.9332  0.4032 -0.1990
  285TMC3    C3 4298   0.320   1.360  11.776 -0.1823  0.7666  0.6384
  285TMC3    C4 4299   0.138   1.476  11.947  0.5683  0.0661  0.2107
  285TMC3    C5 4300   0.251   1.549  11.909  0.4584  0.2626  0.2616
  285TMC3    C6 4301   0.342   1.485  11.830 -0.0943 -1.0419 -0.5880
  285TMC3     C 4302   0.002   1.283  11.961  0.0369  0.0689  0.3153
  285TMC3     O 4303   4.675   1.340  12.056 -0.0874 -0.0865  0.1912
  285TMC3     H 4304   0.197   1.190  11.779  1.8471  0.2149 -0.1794
  285TMC3    H1 4305   0.071   1.527  12.015  2.1276 -1.5397  2.9467
  285TMC3    H2 4306   0.426   1.542  11.792 -0.5458  0.6155  0.8608
  285TMC3    C7 4307   0.231   1.682  11.871 -0.2352 -0.2500 -0.1426
  285TMC3    C8 4308   0.384   1.311  11.656 -0.0686 -0.1080  0.4749
  285TMC3    O1 4309   0.334   1.736  11.827  0.1323  0.1734 -0.0781
  285TMC3    O2 4310   0.356   1.194  11.638  0.0079 -0.0476 -0.0594
  286MPD2     C 4311   4.633   1.123   1.758  0.0822  0.2370 -0.2389
  286MPD2    C1 4312   4.646   1.091   1.626  0.8205 -0.5278 -0.1069
  286MPD2    C2 4313   4.701   0.970   1.590 -0.3157  0.4679 -0.0906
  286MPD2    C3 4314   0.014   0.879   1.689  0.3679  0.6915 -0.0858
  286MPD2    C4 4315   4.719   0.913   1.818 -0.2368  0.8748  0.0898
  286MPD2    C5 4316   4.673   1.038   1.855  0.1552 -0.2066  0.1277
  286MPD2     H 4317   4.706   0.950   1.484  2.8797  1.5567 -0.1248
  286MPD2    H1 4318   0.035   0.849   1.897  0.5766  2.5270  1.0538
  286MPD2    H2 4319   4.614   1.222   1.799  0.5348  0.4721 -0.5985
  286MPD2    H3 4320   4.656   1.064   1.959  0.6115 -0.1163  0.1764
  286MPD2     N 4321   0.074   0.753   1.659 -0.3024  0.1822  0.3005
  286MPD2    H5 4322   0.105   0.693   1.735 -0.3564 -0.0089  0.1710
  286MPD2    N1 4323   4.596   1.174   1.527 -0.3295  0.3367  0.0708
  286MPD2    H7 4324   4.632   1.139   1.438 -0.8440  0.5321 -0.2144
  287TMC3    C1 4325   0.206   0.602   1.534  0.2963 -0.2074  0.5320
  287TMC3    C2 4326   0.235   0.540   1.419 -0.2456  0.0523 -0.1335
  287TMC3    C3 4327   0.361   0.491   1.403  0.4379  0.6153  0.8925
  287TMC3    C4 4328   0.300   0.603   1.637  0.2442 -0.5805  0.3017
  287TMC3    C5 4329   0.421   0.540   1.621  0.5894 -0.6627 -0.3411
  287TMC3    C6 4330   0.459   0.493   1.500  0.3029  0.9006  0.0164
  287TMC3     C 4331   0.104   0.711   1.529  0.4164  0.4411  0.9646
  287TMC3     O 4332   0.059   0.742   1.418  0.5291 -0.3456 -0.5472
  287TMC3     H 4333   0.149   0.516   1.357  0.3669 -2.0623 -0.1689
  287TMC3    H1 4334   0.294   0.670   1.723  1.3149 -0.1246  0.0283
  287TMC3    H2 4335   0.562   0.474   1.471  0.2180 -0.2304  0.4788
  287TMC3    C7 4336   0.518   0.555   1.721 -0.1976  0.9373  0.1050
  287TMC3    C8 4337   0.398   0.424   1.280 -0.7375 -0.4613 -0.6558
  287TMC3    O1 4338   0.470   0.578   1.830 -0.0467 -0.2659 -0.0954
  287TMC3    O2 4339   0.513   0.374   1.272  0.3141  0.2887  0.5588
  288TMC3    C1 4340   2.041   0.440  14.634  0.1577  0.2390  0.0324
  288TMC3    C2 4341   2.032   0.402  14.766 -0.8867  0.1327  0.2933
  288TMC3    C3 4342   2.090   0.478  14.866  0.4914 -0.0822 -0.3608
  288TMC3    C4 4343   2.090   0.568  14.606  1.5141 -0.2144 -0.2560
  288TMC3    C5 4344   2.146   0.645  14.707  0.3650  0.2554  0.4513
  288TMC3    C6 4345   2.150   0.598  14.836 -0.6573  0.2483 -0.0511
  288TMC3     C 4346   1.999   0.350  14.527  0.2464  0.4763  1.2862
  288TMC3     O 4347   1.967   0.235  14.558 -0.5510  0.7676  0.6964
  288TMC3     H 4348   1.987   0.306  14.784 -0.0449  0.0506  1.9909
  288TMC3    H1 4349   2.104   0.620  14.512 -0.6076 -0.4672 -0.7040
  288TMC3    H2 4350   2.184   0.656  14.921  0.0321 -1.2550  0.6902
  288TMC3    C7 4351   2.186   0.785  14.674  0.1704 -0.4685 -0.8942
  288TMC3    C8 4352   2.080   0.439  15.003  0.5330 -0.2264  0.9470
  288TMC3    O1 4353   2.145   0.824  14.567 -0.1597 -0.0036  0.2162
  288TMC3    O2 4354   2.101   0.521  15.091 -0.7259  0.6798  0.1079
  289MPD2     C 4355   2.532   4.074  13.812 -0.8767 -0.0870  0.4533
  289MPD2    C1 4356   2.409   4.133  13.816 -0.5918 -0.3374  0.2301
  289MPD2    C2 4357   2.334   4.111  13.928  0.8019  0.1394 -0.8112
  289MPD2    C3 4358   2.371   4.029  14.027 -0.6910 -0.0851 -0.3427
  289MPD2    C4 4359   2.488   3.957  14.014 -0.1285  0.2830  0.0165
  289MPD2    C5 4360   2.566   3.981  13.907 -0.7162 -0.1751  0.4701
  289MPD2     H 4361   2.238   4.160  13.941  0.6583 -0.6791  1.3508
  289MPD2    H1 4362   2.511   3.890  14.095 -0.8850  2.3552  1.9396
  289MPD2    H2 4363   2.598   4.089  13.727 -0.8277  0.7973  0.6488
  289MPD2    H3 4364   2.665   3.941  13.888 -0.4786 -0.0710  1.4532
  289MPD2     N 4365   2.279   4.008  14.135  0.0892  0.3784  0.3533
  289MPD2    H5 4366   2.209   4.079  14.154 -1.2734 -0.5829 -0.9674
  289MPD2    N1 4367   2.378   4.222  13.713 -0.1439  0.2172  0.0789
  289MPD2    H7 4368   2.453   4.226  13.645 -0.5618 -0.4179 -0.4233
  290TMC3    C1 4369   2.196   3.963  14.342  0.4637 -0.0706 -0.0613
  290TMC3    C2 4370   2.231   4.074  14.403  0.4033  0.7170 -0.1746
  290TMC3    C3 4371   2.127   4.128  14.470  0.3254  0.0431 -0.2399
  290TMC3    C4 4372   2.071   3.903  14.345  0.2640 -0.5858  0.3615
  290TMC3    C5 4373   1.978   3.953  14.436  0.2334 -0.1359 -0.0090
  290TMC3    C6 4374   2.011   4.066  14.506  0.0586  0.4778  0.8636
  290TMC3     C 4375   2.285   3.919  14.239 -0.4194 -0.1899 -0.3636
  290TMC3     O 4376   2.354   3.816  14.257  0.4029 -0.3169  0.3790
  290TMC3     H 4377   2.330   4.116  14.386  0.4616  0.2677 -0.9480
  290TMC3    H1 4378   2.059   3.815  14.282 -1.6945  0.8322 -1.2581
  290TMC3    H2 4379   1.931   4.113  14.562  0.6022  1.0049  1.1977
  290TMC3    C7 4380   1.842   3.932  14.399  0.6306  0.2726 -0.1111
  290TMC3    C8 4381   2.110   4.261  14.428 -0.2103  0.2599 -0.0668
  290TMC3    O1 4382   1.772   4.033  14.397  0.0581  0.0034  0.2312
  290TMC3    O2 4383   2.148   4.291  14.314  0.3468 -0.2378 -0.1189
  291MPD2     C 4384   1.030   3.995   0.412 -0.6209  0.0383  0.4009
  291MPD2    C1 4385   1.005   3.881   0.339  0.2629 -0.0943 -0.1927
  291MPD2    C2 4386   1.108   3.810   0.279 -0.2083  0.2833 -0.4117
  291MPD2    C3 4387   1.244   3.847   0.307 -1.3004  0.1247  0.5961
  291MPD2    C4 4388   1.262   3.962   0.382 -0.2590 -0.2259 -0.3624
  291MPD2    C5 4389   1.162   4.035   0.429  0.1283  0.4127 -0.1274
  291MPD2     H 4390   1.073   3.729   0.215 -0.9566 -0.6724  1.2163
  291MPD2    H1 4391   1.364   3.984   0.410  0.2885 -1.3451 -1.4391
  291MPD2    H2 4392   0.952   4.051   0.460 -2.1202 -1.6865 -0.0243
  291MPD2    H3 4393   1.176   4.120   0.495  0.5431  0.1720  0.0915
  291MPD2     N 4394   1.361   3.788   0.255 -0.3526 -0.1921 -1.1726
  291MPD2    H5 4395   1.447   3.843   0.260 -1.7315  1.8329 -0.0288
  291MPD2    N1 4396   0.871   3.830   0.325 -0.3848  0.8324  0.2100
  291MPD2    H7 4397   0.863   3.740   0.279  1.4752 -0.0047  1.5471
  292TMC3    C1 4398   0.637   3.794   0.379 -0.3393 -0.5215  0.8877
  292TMC3    C2 4399   0.525   3.825   0.455  0.0446  0.2638  0.2316
  292TMC3    C3 4400   0.409   3.754   0.442  0.2341  0.8800  0.3205
  292TMC3    C4 4401   0.634   3.698   0.279 -0.4318  0.2267  0.3786
  292TMC3    C5 4402   0.511   3.634   0.259 -0.2680 -0.1787  0.1402
  292TMC3    C6 4403   0.405   3.652   0.349  0.1106  0.1077  1.2897
  292TMC3     C 4404   0.755   3.879   0.385  0.3608  0.0685 -0.0761
  292TMC3     O 4405   0.746   3.990   0.442 -0.1989  0.3462  0.4969
  292TMC3     H 4406   0.540   3.897   0.534  1.9495 -0.0196  0.1251
  292TMC3    H1 4407   0.710   3.674   0.205 -0.6459 -2.3904  0.9970
  292TMC3    H2 4408   0.319   3.589   0.331  0.4814  0.1097 -0.4131
  292TMC3    C7 4409   0.511   3.536   0.149 -0.5639  0.2209  0.2634
  292TMC3    C8 4410   0.290   3.771   0.521  0.1281 -0.2182  0.3771
  292TMC3    O1 4411   0.617   3.498   0.103 -0.5292 -0.0576  0.2236
  292TMC3    O2 4412   0.289   3.878   0.581  0.2849 -0.1460  0.2013
  293MPD2     C 4413   3.128   0.187  12.594  0.5516  0.4871 -0.2760
  293MPD2    C1 4414   3.021   0.213  12.677  0.8758 -0.2827 -0.4064
  293MPD2    C2 4415   3.029   0.181  12.811  0.6420 -0.0053 -0.1265
  293MPD2    C3 4416   3.140   0.121  12.862  0.0832  0.9406  0.0687
  293MPD2    C4 4417   3.253   0.101  12.779  0.8720 -0.1205 -0.3257
  293MPD2    C5 4418   3.238   0.125  12.642 -0.2356 -0.8043 -0.2366
  293MPD2     H 4419   2.944   0.200  12.875  2.3069  2.7126  1.2726
  293MPD2    H1 4420   3.346   0.063  12.821 -0.4641 -0.2200  2.5362
  293MPD2    H2 4421   3.122   0.216  12.490 -2.2578 -1.3331 -0.6172
  293MPD2    H3 4422   3.318   0.101  12.573  0.3291 -1.3379  0.6034
  293MPD2     N 4423   3.136   0.090  13.001 -0.1133 -0.6894  0.5863
  293MPD2    H5 4424   3.061   0.133  13.054  0.4265  0.6302  0.2696
  293MPD2    N1 4425   2.898   0.271  12.630 -0.2976 -0.4878  0.2562
  293MPD2    H7 4426   2.899   0.317  12.539 -2.7859  1.0164  1.0016
  294TMC3    C1 4427   2.672   0.301  12.607 -0.4840  0.3893  0.4334
  294TMC3    C2 4428   2.546   0.267  12.664  0.2828  0.7521  0.0483
  294TMC3    C3 4429   2.442   0.270  12.578  0.1352  0.1672  0.1605
  294TMC3    C4 4430   2.693   0.313  12.471  0.7972 -0.3311  0.8669
  294TMC3    C5 4431   2.584   0.325  12.394  1.0438 -0.2782 -0.0184
  294TMC3    C6 4432   2.460   0.296  12.447 -0.4728  0.7299 -0.2079
  294TMC3     C 4433   2.778   0.246  12.686 -0.2488 -0.0091 -0.0220
  294TMC3     O 4434   2.744   0.167  12.775 -0.6584 -0.0066 -0.0631
  294TMC3     H 4435   2.528   0.238  12.767  0.4234 -0.4866 -0.2697
  294TMC3    H1 4436   2.790   0.323  12.424 -0.0072 -1.1165 -0.9354
  294TMC3    H2 4437   2.378   0.307  12.378 -1.4440  1.4487  1.0647
  294TMC3    C7 4438   2.585   0.232  12.280  0.1304 -0.1125 -0.1484
  294TMC3    C8 4439   2.346   0.163  12.604 -0.3459  0.3114 -0.6440
  294TMC3    O1 4440   2.504   0.143  12.283 -0.0689  0.8648  0.1833
  294TMC3    O2 4441   2.286   0.154  12.711 -0.1880 -0.1669 -0.1031
  295MPD2     C 4442   2.508   3.782   0.919 -0.1010  0.2253 -0.4755
  295MPD2    C1 4443   2.628   3.833   0.894 -0.2554 -0.5590  0.4950
  295MPD2    C2 4444   2.699   3.890   0.995  0.1961  0.5787 -0.6636
  295MPD2    C3 4445   2.658   3.894   1.120 -0.5471 -0.3740 -0.3827
  295MPD2    C4 4446   2.539   3.834   1.149 -0.1228  0.2557 -0.5655
  295MPD2    C5 4447   2.461   3.781   1.050  0.2153  0.2398 -0.3230
  295MPD2     H 4448   2.798   3.926   0.970  0.5999 -0.7441 -0.9895
  295MPD2    H1 4449   2.499   3.831   1.250  0.7073  0.3341 -0.2339
  295MPD2    H2 4450   2.446   3.745   0.838  1.9926 -3.7118 -0.2784
  295MPD2    H3 4451   2.372   3.728   1.084 -1.7388  1.8429 -2.9301
  295MPD2     N 4452   2.734   3.939   1.232 -0.0972  0.2143 -0.9470
  295MPD2    H5 4453   2.691   3.934   1.324 -0.0235 -0.2416 -0.9371
  295MPD2    N1 4454   2.685   3.838   0.767  0.0988  0.0135 -0.5886
  295MPD2    H7 4455   2.776   3.882   0.767  0.9567 -1.7442  2.1623
  296TMC3    C1 4456   2.917   4.003   1.355 -0.2275 -0.3593  0.5145
  296TMC3    C2 4457   3.007   4.102   1.372 -0.4502 -0.1237  0.2408
  296TMC3    C3 4458   3.055   4.116   1.496 -0.7583 -0.2405 -0.8834
  296TMC3    C4 4459   2.876   3.922   1.457  0.0594  0.7515  0.4203
  296TMC3    C5 4460   2.928   3.946   1.578 -0.3613 -0.7999 -0.6430
  296TMC3    C6 4461   3.020   4.043   1.603 -0.5971  0.9171 -0.0249
  296TMC3     C 4462   2.859   3.985   1.219  0.0288 -0.0992  0.2094
  296TMC3     O 4463   2.936   4.007   1.128  0.6703  0.1980  0.0695
  296TMC3     H 4464   3.027   4.176   1.295 -0.9567 -0.7519 -0.4839
  296TMC3    H1 4465   2.826   3.827   1.447 -2.0375  1.7647  1.2642
  296TMC3    H2 4466   3.059   4.063   1.703 -2.9379 -0.1342  1.0987
  296TMC3    C7 4467   2.920   3.841   1.680 -0.0865  0.3435 -0.8367
  296TMC3    C8 4468   3.168   4.202   1.517  0.7262  0.2952 -0.1360
  296TMC3    O1 4469   3.022   3.826   1.750 -0.2194 -0.1295 -0.2327
  296TMC3    O2 4470   3.240   4.227   1.418 -0.3599  0.0226  0.1132
  297MPD2     C 4471   0.661   1.397  16.747 -0.6550 -0.2142 -0.5452
  297MPD2    C1 4472   0.597   1.489  16.664 -0.2347  0.0066  0.5313
  297MPD2    C2 4473   0.671   1.591  16.605  0.3832  0.7532 -0.1011
  297MPD2    C3 4474   0.804   1.602  16.623  0.0788  0.0635  0.2025
  297MPD2    C4 4475   0.872   1.510  16.712 -0.3156 -0.0250 -0.6392
  297MPD2    C5 4476   0.795   1.407  16.767 -0.1240  0.7746  0.2900
  297MPD2     H 4477   0.621   1.665  16.543 -0.9869  0.6073  0.8255
  297MPD2    H1 4478   0.976   1.526  16.739 -0.6771  1.6129 -0.2536
  297MPD2    H2 4479   0.618   1.319  16.808  2.4346 -1.3626  0.1782
  297MPD2    H3 4480   0.844   1.342  16.839 -2.3862 -2.6065 -1.2356
  297MPD2     N 4481   0.865   1.712  16.571  0.4994  0.4525 -0.6823
  297MPD2    H5 4482   0.808   1.787  16.533  0.6740  0.7808 -0.2994
  297MPD2    N1 4483   0.460   1.478  16.639  0.0460 -0.1754  1.6336
  297MPD2    H7 4484   0.426   1.548  16.573 -1.9239 -2.4260  0.2228
  298TMC3    C1 4485   0.239   1.387  16.634  0.7801 -0.7259  0.5034
  298TMC3    C2 4486   0.248   1.363  16.496  0.0713  0.1541 -0.6678
  298TMC3    C3 4487   0.129   1.364  16.430 -0.4705  0.5510  0.5601
  298TMC3    C4 4488   0.117   1.404  16.700  0.0673 -0.9906 -0.0229
  298TMC3    C5 4489   4.720   1.415  16.626 -0.6726 -0.1418  0.0442
  298TMC3    C6 4490   0.011   1.401  16.491 -0.1202 -0.0489  0.0899
  298TMC3     C 4491   0.363   1.408  16.701  0.5069  0.1461  0.0516
  298TMC3     O 4492   0.378   1.374  16.819 -0.4813 -0.8034  0.0231
  298TMC3     H 4493   0.342   1.341  16.447 -1.2547 -2.5325 -2.0186
  298TMC3    H1 4494   0.128   1.437  16.802  0.3040 -0.7938 -0.1128
  298TMC3    H2 4495   4.647   1.394  16.426  0.2204 -1.3970 -0.2190
  298TMC3    C7 4496   4.587   1.442  16.684 -0.2937  0.3355  0.5456
  298TMC3    C8 4497   0.133   1.289  16.300 -0.3238 -0.9326 -0.1582
  298TMC3    O1 4498   4.579   1.438  16.807 -0.2904  0.1655  0.8713
  298TMC3    O2 4499   0.035   1.317  16.236  0.0174  0.5995  0.1675
  299MPD2     C 4500   1.662   1.062   9.975 -0.1219 -0.1236  0.6132
  299MPD2    C1 4501   1.589   0.957  10.040  0.1437 -0.3289  0.0775
  299MPD2    C2 4502   1.454   0.959  10.021  1.0720 -0.2472 -0.0294
  299MPD2    C3 4503   1.386   1.063   9.964  0.2470 -0.0117 -0.3233
  299MPD2    C4 4504   1.459   1.167   9.916  0.2510  0.0427 -0.1151
  299MPD2    C5 4505   1.594   1.167   9.925 -0.0106 -0.0699 -0.5470
  299MPD2     H 4506   1.405   0.879  10.076  0.4100 -0.5629 -1.0658
  299MPD2    H1 4507   1.409   1.246   9.861  0.9834  0.5915  0.0019
  299MPD2    H2 4508   1.768   1.081   9.982 -0.0302 -0.1621 -0.6049
  299MPD2    H3 4509   1.655   1.240   9.874  1.3683 -0.3292  0.7468
  299MPD2     N 4510   1.244   1.071   9.967  0.3147 -0.5564  0.0915
  299MPD2    H5 4511   1.202   1.162   9.950 -0.5742 -1.2314 -1.3309
  299MPD2    N1 4512   1.672   0.865  10.115  0.0825 -0.0704  0.2771
  299MPD2    H7 4513   1.770   0.891  10.127  0.1711 -0.8888  1.3016
  300TMC3    C1 4514   1.028   1.018  10.014 -0.4472 -0.1192 -0.7542
  300TMC3    C2 4515   0.999   1.144  10.058  0.3862  0.6303 -0.6143
  300TMC3    C3 4516   0.874   1.168  10.118 -0.1177  0.2101  0.1759
  300TMC3    C4 4517   0.951   0.910  10.040  0.2305  0.8597  0.0293
  300TMC3    C5 4518   0.838   0.933  10.108 -0.2376  0.4079 -0.2587
  300TMC3    C6 4519   0.798   1.057  10.150  0.2578 -0.1116  0.0060
  300TMC3     C 4520   1.163   0.972  10.011 -0.2013 -0.4110  0.2391
  300TMC3     O 4521   1.188   0.853  10.028 -0.2253  0.0891  0.0391
  300TMC3     H 4522   1.059   1.231  10.032 -0.1070  0.7422 -1.3805
  300TMC3    H1 4523   0.971   0.808  10.007  0.2304  1.0126 -0.4419
  300TMC3    H2 4524   0.700   1.066  10.196 -0.0179 -0.1195 -0.5789
  300TMC3    C7 4525   0.770   0.818  10.167  0.0418  0.7314 -0.1126
  300TMC3    C8 4526   0.869   1.287  10.202  0.1765 -0.0773  0.3056
  300TMC3    O1 4527   0.770   0.725  10.090 -0.1619  0.1507 -0.1924
  300TMC3    O2 4528   0.966   1.359  10.201 -0.9596  0.2422  0.3396
  301MPD2     C 4529   3.530   2.424   1.564  0.5146  0.6465  0.4736
  301MPD2    C1 4530   3.417   2.357   1.606 -0.2572 -0.1486  0.6559
  301MPD2    C2 4531   3.412   2.221   1.588 -0.1852 -0.9547  0.2590
  301MPD2    C3 4532   3.531   2.146   1.545  0.3436  0.5845  0.2441
  301MPD2    C4 4533   3.637   2.223   1.507 -0.2995 -0.1014 -0.5493
  301MPD2    C5 4534   3.634   2.357   1.515  0.4649  0.8469  0.2685
  301MPD2     H 4535   3.321   2.175   1.625 -0.9623 -0.6081 -1.2085
  301MPD2    H1 4536   3.724   2.173   1.466 -0.3057  0.3065 -1.0651
  301MPD2    H2 4537   3.529   2.532   1.554 -0.7766  0.6468  0.6554
  301MPD2    H3 4538   3.722   2.410   1.478  0.3218 -0.4359 -1.9342
  301MPD2     N 4539   3.524   2.010   1.507  0.4926  0.3075  0.1055
  301MPD2    H5 4540   3.607   1.969   1.467  0.5057 -1.8067  2.2766
  301MPD2    N1 4541   3.296   2.416   1.658 -0.3657 -0.3664 -0.1189
  301MPD2    H7 4542   3.219   2.352   1.674  0.3813 -0.9888  0.9777
  302TMC3    C1 4543   3.444   1.789   1.493 -0.0209 -0.0188  0.1419
  302TMC3    C2 4544   3.567   1.755   1.450 -0.3744  0.6130  0.2432
  302TMC3    C3 4545   3.565   1.641   1.376  0.1746 -0.1357  0.7332
  302TMC3    C4 4546   3.327   1.725   1.459  0.6672  0.5316 -0.2476
  302TMC3    C5 4547   3.335   1.615   1.379 -0.3210 -0.1662 -0.4607
  302TMC3    C6 4548   3.457   1.573   1.341  0.5990 -0.3909  0.1187
  302TMC3     C 4549   3.425   1.925   1.537 -0.2409  0.2047 -0.6135
  302TMC3     O 4550   3.323   1.941   1.603  0.4398 -0.1497  0.3478
  302TMC3     H 4551   3.657   1.807   1.480 -0.1722  0.9660 -0.9902
  302TMC3    H1 4552   3.236   1.772   1.496  0.3607  0.0374 -0.3865
  302TMC3    H2 4553   3.469   1.492   1.270  3.3152 -0.0052  0.1306
  302TMC3    C7 4554   3.226   1.524   1.360  0.3843 -0.0932 -0.1868
  302TMC3    C8 4555   3.670   1.619   1.280  0.2239  0.8244  0.8833
  302TMC3    O1 4556   3.246   1.408   1.327 -0.1131  0.1268 -0.3486
  302TMC3    O2 4557   3.640   1.604   1.163 -0.2185  0.1863 -0.0528
  303MPD2     C 4558   3.769   0.168  10.262  0.0420  0.3953  0.7286
  303MPD2    C1 4559   3.704   0.048  10.258  0.4102 -0.1114 -0.5482
  303MPD2    C2 4560   3.697   4.715  10.127 -0.5032 -0.0658  0.1010
  303MPD2    C3 4561   3.725   0.057  10.010  0.2867  0.2832 -0.1413
  303MPD2    C4 4562   3.785   0.183  10.024  0.5434 -0.6052  0.4575
  303MPD2    C5 4563   3.801   0.238  10.150  0.3497  0.1653 -0.2357
  303MPD2     H 4564   3.660   4.614  10.116  1.7319 -0.7820 -0.8865
  303MPD2    H1 4565   3.793   0.246   9.936  1.0292  1.4601  1.9704
  303MPD2    H2 4566   3.786   0.222  10.354 -2.4348  4.0736 -0.9595
  303MPD2    H3 4567   3.836   0.340  10.163  1.9559 -0.6521  1.7801
  303MPD2     N 4568   3.703   0.008   9.881 -0.4747 -0.1614  0.6340
  303MPD2    H5 4569   3.724   0.070   9.803 -1.7177  0.5423  0.8519
  303MPD2    N1 4570   3.640   4.722  10.375  0.7137  0.9569  0.3074
  303MPD2    H7 4571   3.634   0.063  10.454  1.6549 -0.4181  1.4900
  304TMC3    C1 4572   3.497   4.590  10.497 -0.1368  0.5610 -0.6863
  304TMC3    C2 4573   3.400   4.689  10.492 -0.1307  0.7236 -0.4383
  304TMC3    C3 4574   3.284   4.664  10.548  0.3262  0.4093  0.9793
  304TMC3    C4 4575   3.458   4.458  10.520  0.3743  0.6144 -0.1073
  304TMC3    C5 4576   3.331   4.432  10.562 -0.4761 -0.0336 -0.2933
  304TMC3    C6 4577   3.252   4.536  10.589 -0.1020  0.2535  0.1520
  304TMC3     C 4578   3.595   4.600  10.387  0.8282  0.0087 -0.3849
  304TMC3     O 4579   3.597   4.503  10.313 -0.0474 -0.0251 -0.4253
  304TMC3     H 4580   3.413   0.063  10.446 -0.2760  0.7585 -0.4072
  304TMC3    H1 4581   3.529   4.379  10.499 -0.6178 -0.5117  0.7693
  304TMC3    H2 4582   3.160   4.522  10.644 -1.4056  1.5711 -1.6944
  304TMC3    C7 4583   3.259   4.329  10.497 -0.6726 -0.1079 -0.3140
  304TMC3    C8 4584   3.177   0.015  10.489 -0.1769 -0.6926 -0.1450
  304TMC3    O1 4585   3.153   4.374  10.462  0.0523  0.7011 -0.0590
  304TMC3    O2 4586   3.191   0.134  10.470 -0.2797  0.0232 -0.2558
  305MPD2     C 4587   1.348   2.429  13.851  0.0039  0.5472 -0.1501
  305MPD2    C1 4588   1.391   2.309  13.900  0.2316 -0.0919 -0.0548
  305MPD2    C2 4589   1.380   2.197  13.820  0.3677 -0.1942 -0.1392
  305MPD2    C3 4590   1.297   2.202  13.709  0.1242  0.3075  0.1092
  305MPD2    C4 4591   1.238   2.326  13.676  0.1135 -0.6133  0.3058
  305MPD2    C5 4592   1.272   2.441  13.738  0.9021  0.4183  0.8883
  305MPD2     H 4593   1.421   2.101  13.849  1.4219 -0.1580 -1.5594
  305MPD2    H1 4594   1.181   2.335  13.585 -0.2869  2.4459  0.8774
  305MPD2    H2 4595   1.379   2.516  13.908  1.4047  0.0837 -0.1945
  305MPD2    H3 4596   1.238   2.540  13.710  2.0553  0.7032  0.4765
  305MPD2     N 4597   1.271   2.092  13.623  0.2553  0.3573  0.5929
  305MPD2    H5 4598   1.201   2.111  13.552  2.8478 -0.1880 -2.1367
  305MPD2    N1 4599   1.464   2.308  14.023  1.1406 -0.3605 -0.9245
  305MPD2    H7 4600   1.467   2.397  14.072  1.9986 -1.9803  1.9472
  306TMC3    C1 4601   1.580   2.225  14.212  0.2522  0.4317 -0.0087
  306TMC3    C2 4602   1.659   2.130  14.269 -0.1291  0.4219  0.1581
  306TMC3    C3 4603   1.742   2.179  14.372  0.4643 -0.3783  0.1888
  306TMC3    C4 4604   1.565   2.351  14.263 -0.3321 -0.2359  0.0497
  306TMC3    C5 4605   1.648   2.395  14.364  0.4929 -0.5379  0.3086
  306TMC3    C6 4606   1.744   2.310  14.417  0.1764 -0.1320 -0.8033
  306TMC3     C 4607   1.518   2.195  14.083  0.0412  0.3392  0.1015
  306TMC3     O 4608   1.548   2.085  14.042 -0.2404 -0.1664  0.7847
  306TMC3     H 4609   1.670   2.033  14.223  1.7178 -0.2014  1.8782
  306TMC3    H1 4610   1.502   2.431  14.224  0.4841 -0.6673 -2.1401
  306TMC3    H2 4611   1.802   2.316  14.508 -1.5865  1.1468  0.2569
  306TMC3    C7 4612   1.591   2.497  14.451 -0.5133  0.3607 -0.2250
  306TMC3    C8 4613   1.810   2.087  14.462 -0.2935  0.1214 -0.2269
  306TMC3    O1 4614   1.476   2.534  14.427  0.4749  0.4270  1.0250
  306TMC3    O2 4615   1.927   2.114  14.495 -0.1680 -0.4003  0.6058
  307MPD2     C 4616   3.532   0.485   2.068 -0.2123 -0.0993 -0.2771
  307MPD2    C1 4617   3.589   0.530   1.949 -0.2851  0.1111 -1.1616
  307MPD2    C2 4618   3.524   0.494   1.828 -0.7796 -0.5555 -0.1430
  307MPD2    C3 4619   3.409   0.414   1.831  1.2588 -0.2620 -0.0935
  307MPD2    C4 4620   3.357   0.368   1.948 -0.0689 -0.1524 -0.1040
  307MPD2    C5 4621   3.418   0.403   2.065 -0.5261  0.1093  0.0197
  307MPD2     H 4622   3.575   0.533   1.741 -0.5891 -1.0338 -0.2458
  307MPD2    H1 4623   3.279   0.293   1.950 -0.2139 -0.0297 -1.1057
  307MPD2    H2 4624   3.572   0.528   2.159 -0.2848 -0.7909  0.0787
  307MPD2    H3 4625   3.369   0.380   2.159 -2.8785  0.6507 -1.0750
  307MPD2     N 4626   3.357   0.377   1.704 -0.3930  0.5165  0.0472
  307MPD2    H5 4627   3.411   0.422   1.631  2.9766 -1.7672  1.1131
  307MPD2    N1 4628   3.706   0.613   1.945  0.1297 -0.2117  0.4135
  307MPD2    H7 4629   3.733   0.650   1.855 -0.7218  2.7455  1.3436
  308TMC3    C1 4630   3.010   0.365   1.394 -0.3603  0.0888  0.4734
  308TMC3    C2 4631   3.040   0.487   1.350 -0.2740  1.2204 -0.0290
  308TMC3    C3 4632   3.166   0.534   1.394 -0.4108  0.1525  0.2739
  308TMC3    C4 4633   3.079   0.298   1.496 -1.1228 -0.6310 -0.9754
  308TMC3    C5 4634   3.201   0.351   1.537  0.3487 -0.0316 -0.4231
  308TMC3    C6 4635   3.248   0.469   1.483 -0.9406  0.0745  0.1713
  308TMC3     C 4636   2.909   0.286   1.329  0.1064 -0.1725 -0.1752
  308TMC3     O 4637   2.837   0.209   1.390 -0.4982  0.2357 -0.2559
  308TMC3     H 4638   2.978   0.546   1.284  0.8040  1.3216 -0.9423
  308TMC3    H1 4639   3.033   0.207   1.534  0.7737 -0.6552  1.2419
  308TMC3    H2 4640   3.346   0.511   1.507 -0.9376  0.3700 -0.3608
  308TMC3    C7 4641   3.234   0.325   1.675 -0.3003  0.4660  0.6378
  308TMC3    C8 4642   3.221   0.671   1.348  0.2614 -0.0998 -0.0300
  308TMC3    O1 4643   3.169   0.245   1.742  0.1256  0.1351 -1.0236
  308TMC3    O2 4644   3.339   0.690   1.354  0.2067 -0.2723  0.4111
  309MPD2     C 4645   3.343   0.852  17.342 -0.5637 -0.3124 -0.1118
  309MPD2    C1 4646   3.309   0.902  17.218 -0.0201 -0.3858 -0.0572
  309MPD2    C2 4647   3.177   0.939  17.201  0.3686 -0.0874  0.0559
  309MPD2    C3 4648   3.091   0.937  17.311 -0.2260  0.4558 -0.3244
  309MPD2    C4 4649   3.129   0.881  17.431 -0.3656 -0.5241 -0.3476
  309MPD2    C5 4650   3.255   0.838  17.443 -0.0637 -0.6425  0.6853
  309MPD2     H 4651   3.148   0.987  17.109  0.8187  0.6064  0.2775
  309MPD2    H1 4652   3.066   0.878  17.520 -1.5098  0.2556 -1.1417
  309MPD2    H2 4653   3.448   0.831  17.356 -0.6286 -0.3508  0.3217
  309MPD2    H3 4654   3.295   0.800  17.537 -1.5962 -0.8137  1.2650
  309MPD2     N 4655   2.959   0.988  17.304 -0.2831 -0.1867 -0.6865
  309MPD2    H5 4656   2.912   0.986  17.394 -2.6719  2.0164 -1.8778
  309MPD2    N1 4657   3.394   0.931  17.114 -0.1313 -0.8742 -0.2969
  309MPD2    H7 4658   3.352   0.960  17.026 -0.2944  1.0400  0.4029
  310TMC3    C1 4659   3.593   0.936  16.984 -0.0486  0.2065  0.3236
  310TMC3    C2 4660   3.575   1.057  16.932  0.8322  0.4926 -0.0419
  310TMC3    C3 4661   3.656   1.094  16.823  0.1055  0.8973  0.5303
  310TMC3    C4 4662   3.680   0.845  16.929  0.2733  0.3751 -0.6918
  310TMC3    C5 4663   3.757   0.885  16.823 -0.1011 -0.0255  0.5152
  310TMC3    C6 4664   3.743   1.008  16.760  0.0596  0.6128  0.6408
  310TMC3     C 4665   3.525   0.891  17.112  0.3513  0.2225  0.3790
  310TMC3     O 4666   3.573   0.798  17.171 -0.3718  0.0884  0.1961
  310TMC3     H 4667   3.511   1.130  16.981  2.4325  0.7834  1.5747
  310TMC3    H1 4668   3.700   0.752  16.983  2.5160  1.0352 -0.4112
  310TMC3    H2 4669   3.809   1.033  16.677 -1.0439  0.9525 -0.1424
  310TMC3    C7 4670   3.889   0.822  16.825  0.9825  0.4997 -0.6803
  310TMC3    C8 4671   3.601   1.194  16.732 -0.4216  0.4265 -0.4980
  310TMC3    O1 4672   3.914   0.755  16.925 -0.3357  0.0564 -0.1893
  310TMC3    O2 4673   3.633   1.190  16.615 -0.0525  0.3628 -0.2896
  311MPD2     C 4674   0.524   1.825  12.544 -0.2239  0.1818 -0.1619
  311MPD2    C1 4675   0.540   1.916  12.646 -1.2300 -0.3419  0.0759
  311MPD2    C2 4676   0.448   1.914  12.749  0.6907 -0.0421 -0.2962
  311MPD2    C3 4677   0.347   1.816  12.762  0.0987  0.3358  0.2430
  311MPD2    C4 4678   0.346   1.714  12.663  0.2633  0.5584  0.1292
  311MPD2    C5 4679   0.430   1.722  12.556  0.3295 -0.1249 -0.7396
  311MPD2     H 4680   0.450   1.997  12.819  0.0864 -0.8580  0.7013
  311MPD2    H1 4681   0.298   1.617  12.671 -0.0822  0.7402  0.2636
  311MPD2    H2 4682   0.577   1.809  12.451 -2.5378  1.9611 -1.7933
  311MPD2    H3 4683   0.408   1.644  12.484 -1.3541 -0.3617  0.0429
  311MPD2     N 4684   0.257   1.817  12.875 -0.9539 -0.3015  0.9263
  311MPD2    H5 4685   0.260   1.895  12.939  0.4638 -0.4217  1.0029
  311MPD2    N1 4686   0.642   2.016  12.640  0.3620 -0.2204  0.0480
  311MPD2    H7 4687   0.646   2.086  12.713 -1.4101 -2.2689  2.1214
  312TMC3    C1 4688   0.046   1.765  12.977  0.0162  0.2874 -0.8427
  312TMC3    C2 4689   4.651   1.735  12.922  0.0312 -0.4874  0.2417
  312TMC3    C3 4690   4.547   1.822  12.942 -0.8170 -1.0522 -0.2712
  312TMC3    C4 4691   0.051   1.864  13.071 -0.4593 -0.3383  0.5778
  312TMC3    C5 4692   4.664   1.916  13.117  0.6870 -0.4658  0.3095
  312TMC3    C6 4693   4.548   1.913  13.043 -0.0258 -0.2542  0.3115
  312TMC3     C 4694   0.165   1.719  12.903  0.2227  0.3298 -0.0139
  312TMC3     O 4695   0.148   1.612  12.848  0.5601 -0.0361  0.4307
  312TMC3     H 4696   4.646   1.671  12.835  1.5407  1.3971 -1.2409
  312TMC3    H1 4697   0.144   1.879  13.124 -0.1217 -0.6223  0.0598
  312TMC3    H2 4698   4.459   1.945  13.096 -0.2303 -1.0497  0.4457
  312TMC3    C7 4699   4.656   2.018  13.217 -0.4327  0.2755 -0.0352
  312TMC3    C8 4700   4.418   1.794  12.881 -0.0327 -0.4356 -0.0711
  312TMC3    O1 4701   4.576   2.104  13.192 -0.3012  0.3280 -0.0177
  312TMC3    O2 4702   4.396   1.687  12.830 -0.2472 -0.5093  0.4554
  313MPD2     C 4703   0.418   1.129  10.593 -0.4291 -0.1261 -0.0019
  313MPD2    C1 4704   0.304   1.053  10.613  0.2155 -0.6271  0.4200
  313MPD2    C2 4705   0.263   0.951  10.525  0.6510  0.9997  0.1456
  313MPD2    C3 4706   0.341   0.923  10.415 -0.1400  0.0105 -0.1451
  313MPD2    C4 4707   0.462   0.995  10.392 -0.0072  0.2081  0.6180
  313MPD2    C5 4708   0.497   1.091  10.488  0.4282  0.0283  0.1263
  313MPD2     H 4709   0.176   0.889  10.543  1.1768 -0.0748 -1.0117
  313MPD2    H1 4710   0.519   0.968  10.303 -0.7248  2.5017 -0.5208
  313MPD2    H2 4711   0.443   1.211  10.658  0.2640 -1.0583  0.9062
  313MPD2    H3 4712   0.593   1.137  10.467  0.2612 -0.3142 -1.4154
  313MPD2     N 4713   0.306   0.810  10.349 -0.1199  0.7712 -0.1822
  313MPD2    H5 4714   0.237   0.746  10.389  0.1143  2.1005  2.3781
  313MPD2    N1 4715   0.217   1.080  10.718 -0.7486  0.0782 -0.0693
  313MPD2    H7 4716   0.125   1.036  10.715 -1.2160  1.0831 -0.3304
  314TMC3    C1 4717   0.134   1.181  10.915 -0.5836 -0.0656  0.1817
  314TMC3    C2 4718   0.162   1.250  11.029 -0.0786  0.2063 -0.0935
  314TMC3    C3 4719   0.057   1.286  11.105 -0.1591 -0.2021 -0.4680
  314TMC3    C4 4720   0.008   1.164  10.867 -0.5375 -0.2438 -0.5635
  314TMC3    C5 4721   4.627   1.195  10.950 -0.5345  0.4624  0.0364
  314TMC3    C6 4722   4.655   1.268  11.057  0.5033  0.4138 -0.2236
  314TMC3     C 4723   0.243   1.169  10.820  0.0527  0.2840  0.9403
  314TMC3     O 4724   0.336   1.240  10.845 -0.5372  0.1378 -0.0662
  314TMC3     H 4725   0.265   1.268  11.059 -0.8506  2.9566  0.9105
  314TMC3    H1 4726   4.707   1.123  10.770 -2.0172  1.8859 -1.1123
  314TMC3    H2 4727   4.565   1.302  11.107  0.6052 -0.1288  0.3468
  314TMC3    C7 4728   4.513   1.261  10.877 -0.8482  0.2418 -0.0539
  314TMC3    C8 4729   0.088   1.372  11.215  0.2349  0.0809 -0.4287
  314TMC3    O1 4730   4.405   1.256  10.932  0.5398 -0.1094  0.0294
  314TMC3    O2 4731   0.009   1.377  11.308 -0.1435  0.4361  0.1813
  315MPD2     C 4732   4.601   0.376  17.549  1.3123 -0.0029  0.0896
  315MPD2    C1 4733   4.668   0.427  17.659  0.2209 -0.3374 -0.6297
  315MPD2    C2 4734   4.666   0.557   0.001 -0.4508  0.4984  0.4198
  315MPD2    C3 4735   4.611   0.648  17.605  0.4397  0.2578 -0.0347
  315MPD2    C4 4736   4.540   0.601  17.500 -0.6335  0.8261  0.2724
  315MPD2    C5 4737   4.532   0.466  17.478 -0.2356  0.9301  0.3327
  315MPD2     H 4738   0.001   0.590   0.086 -1.5076  1.2607  0.8371
  315MPD2    H1 4739   4.495   0.667  17.426 -0.7432 -0.4691 -0.8188
  315MPD2    H2 4740   4.597   0.272  17.518 -2.6661  0.0158  0.5410
  315MPD2    H3 4741   4.483   0.431  17.388 -1.8530 -0.8188  1.8787
  315MPD2     N 4742   4.659   0.774  17.610 -0.2593  0.4563  0.3074
  315MPD2    H5 4743   0.007   0.793  17.680  0.1892 -2.1667  0.5597
  315MPD2    N1 4744   0.028   0.337   0.050 -0.5474 -0.3316 -0.2513
  315MPD2    H7 4745   0.093   0.387   0.110 -0.2494 -0.1826 -0.6918
  316TMC3    C1 4746   4.698   0.990  17.574 -0.2546 -0.2763 -0.5952
  316TMC3    C2 4747   0.099   0.967  17.623 -0.3561 -0.4432 -0.3343
  316TMC3    C3 4748   0.161   1.065   0.010  0.7366 -0.7201  0.5513
  316TMC3    C4 4749   4.635   1.112  17.587 -0.2952 -0.4784  0.2211
  316TMC3    C5 4750   4.700   1.205  17.666 -0.1648  0.1831  0.4926
  316TMC3    C6 4751   0.099   1.181   0.038  0.4890  0.3683  0.5371
  316TMC3     C 4752   4.621   0.876  17.538 -0.0796  0.1715  0.2660
  316TMC3     O 4753   4.526   0.891  17.463  0.0716 -0.9781  0.1148
  316TMC3     H 4754   0.154   0.876  17.601  1.9907  1.1096 -0.9166
  316TMC3    H1 4755   4.532   1.115  17.554  0.3761  0.9598 -1.7232
  316TMC3    H2 4756   0.144   1.244   0.114 -0.1803  1.2191  0.2159
  316TMC3    C7 4757   4.621   1.317   0.038 -0.3393  0.6006 -0.8756
  316TMC3    C8 4758   0.275   1.031   0.090  0.2891 -0.1604 -0.4889
  316TMC3    O1 4759   4.681   1.388   0.116 -0.4402 -0.0072 -0.8710
  316TMC3    O2 4760   0.296   1.088   0.199 -0.2749 -0.6674 -0.0722
  317MPD2     C 4761   1.557   4.010  13.276 -0.3477 -0.1192  0.2581
  317MPD2    C1 4762   1.547   3.902  13.192 -0.6304  0.7017 -0.3139
  317MPD2    C2 4763   1.599   3.782  13.236  0.4328 -0.4840 -1.1129
  317MPD2    C3 4764   1.650   3.767  13.368  0.5487 -0.5101  0.5742
  317MPD2    C4 4765   1.648   3.877  13.447  0.3975 -1.1718  0.4994
  317MPD2    C5 4766   1.613   3.998  13.404 -0.0350 -0.2185  0.6102
  317MPD2     H 4767   1.599   3.691  13.178 -1.0000 -0.9646 -0.3676
  317MPD2    H1 4768   1.680   3.883  13.551  1.4893  1.8026 -0.0143
  317MPD2    H2 4769   1.530   4.114  13.260 -1.2418 -0.4121 -0.0797
  317MPD2    H3 4770   1.627   4.082  13.471 -2.1324  0.4968  0.1611
  317MPD2     N 4771   1.703   3.645  13.422  0.3540  0.5796 -0.4038
  317MPD2    H5 4772   1.686   3.559  13.370 -2.1872  0.0604  1.2828
  317MPD2    N1 4773   1.501   3.913  13.060 -0.0235 -0.0646  0.1724
  317MPD2    H7 4774   1.520   3.833  13.000  3.4216  1.6419 -1.0215
  318TMC3    C1 4775   1.837   3.498  13.554  0.2405  0.0654  0.2620
  318TMC3    C2 4776   1.767   3.385  13.508  0.2848 -0.0689 -0.7936
  318TMC3    C3 4777   1.837   3.271  13.499  0.2603 -1.0750  0.0136
  318TMC3    C4 4778   1.958   3.493  13.618  0.3319  0.5471 -0.0314
  318TMC3    C5 4779   2.023   3.373  13.604  0.1492 -0.0113 -1.1414
  318TMC3    C6 4780   1.965   3.264  13.551 -0.4478  0.3902  0.4422
  318TMC3     C 4781   1.779   3.631  13.538 -0.7355 -0.1674 -0.2862
  318TMC3     O 4782   1.823   3.715  13.612 -1.0645 -0.0245  0.6563
  318TMC3     H 4783   1.674   3.406  13.456  0.0876 -1.3485 -0.9445
  318TMC3    H1 4784   2.023   3.574  13.647 -0.8009  1.5702 -0.3361
  318TMC3    H2 4785   2.021   3.175  13.524 -0.6265  0.5472 -0.4675
  318TMC3    C7 4786   2.170   3.375  13.602  0.0220 -0.9463 -0.2416
  318TMC3    C8 4787   1.782   3.154  13.442 -0.2541  0.1567 -0.8883
  318TMC3    O1 4788   2.226   3.481  13.572  0.1517  0.0599 -0.7009
  318TMC3    O2 4789   1.845   3.049  13.457  0.2399 -0.6251 -0.1755
  319MPD2     C 4790   3.184   0.779  16.468  0.0446 -0.0488  0.4092
  319MPD2    C1 4791   3.097   0.768  16.572  0.2835  0.2593  0.8574
  319MPD2    C2 4792   2.964   0.809  16.558 -0.4143 -0.0016  0.3521
  319MPD2    C3 4793   2.922   0.851  16.431  0.0311  0.2629  0.0402
  319MPD2    C4 4794   3.008   0.860  16.327  0.2163  0.1828  0.9096
  319MPD2    C5 4795   3.140   0.822  16.345  0.1335 -0.5024 -0.5838
  319MPD2     H 4796   2.896   0.788  16.639  1.0525  0.8514  1.7973
  319MPD2    H1 4797   2.972   0.875  16.226 -1.5224  1.4505  1.7243
  319MPD2    H2 4798   3.286   0.744  16.471  0.0536  0.1428  2.2068
  319MPD2    H3 4799   3.207   0.836  16.261  0.5750  0.5884 -0.0432
  319MPD2     N 4800   2.788   0.872  16.395  0.1462  0.0807 -0.2880
  319MPD2    H5 4801   2.772   0.908  16.301 -0.3422  2.4506  0.7037
  319MPD2    N1 4802   3.124   0.715  16.701 -0.2621 -0.3378 -0.0414
  319MPD2    H7 4803   3.041   0.707  16.757 -0.5867 -0.5571 -0.5524
  320TMC3    C1 4804   2.558   0.861  16.415 -0.3708 -0.2420  0.4486
  320TMC3    C2 4805   2.540   0.959  16.324 -0.0575  0.6023 -0.1525
  320TMC3    C3 4806   2.429   0.944  16.244  0.1774  0.1852  0.2949
  320TMC3    C4 4807   2.454   0.769  16.442  0.4972  0.6926 -0.3205
  320TMC3    C5 4808   2.336   0.774  16.374 -0.7132 -0.0795  0.0403
  320TMC3    C6 4809   2.328   0.858  16.265 -0.1412  0.4563 -0.4383
  320TMC3     C 4810   2.686   0.844  16.482 -0.0301  0.0065 -0.0433
  320TMC3     O 4811   2.690   0.765  16.574  0.1630 -0.1313  0.5901
  320TMC3     H 4812   2.616   1.029  16.292  0.0970 -0.2946 -1.7335
  320TMC3    H1 4813   2.478   0.689  16.510  1.5082  0.5432 -0.8594
  320TMC3    H2 4814   2.249   0.844  16.193  0.9273 -0.9687 -1.3315
  320TMC3    C7 4815   2.278   0.645  16.358 -0.4901  0.1048  0.1044
  320TMC3    C8 4816   2.427   1.031  16.131 -0.0571 -0.5144  0.0375
  320TMC3    O1 4817   2.342   0.546  16.393 -0.0481 -0.0481  0.2677
  320TMC3    O2 4818   2.479   1.142  16.131 -0.6781 -0.0265 -0.0182
  321TMC3    C1 4819   3.218   0.611  16.878  0.3919 -0.2648 -0.2469
  321TMC3    C2 4820   3.090   0.587  16.917  0.1524 -0.5732  0.3351
  321TMC3    C3 4821   3.062   0.581  17.055 -0.2208 -0.1748 -0.1050
  321TMC3    C4 4822   3.324   0.611  16.965 -0.8118  0.2901  0.4434
  321TMC3    C5 4823   3.292   0.595  17.100  0.1283  0.0462  0.2020
  321TMC3    C6 4824   3.161   0.589  17.144  0.7443 -0.2156 -0.1183
  321TMC3     C 4825   3.242   0.672  16.746 -0.5682 -0.5884  0.1315
  321TMC3     O 4826   3.354   0.674  16.705 -0.6456 -0.1924 -0.0744
  321TMC3     H 4827   3.013   0.564  16.844  1.0102 -2.7799  0.1082
  321TMC3    H1 4828   3.426   0.630  16.931 -0.5204 -1.9486  0.0598
  321TMC3    H2 4829   3.145   0.581  17.251 -2.0024  1.3345 -0.4084
  321TMC3    C7 4830   3.360   0.500  17.177  0.4972 -0.4019 -0.3782
  321TMC3    C8 4831   2.967   0.482  17.104 -0.3699  0.5817  0.1341
  321TMC3    O1 4832   3.301   0.401  17.210  0.5171 -0.2147 -0.4461
  321TMC3    O2 4833   2.849   0.479  17.076 -0.1954 -1.0528 -0.1802
  322MPD2     C 4834   1.689   1.617  13.637 -0.4134 -0.0205 -0.1787
  322MPD2    C1 4835   1.745   1.570  13.749 -1.0725  0.4721 -0.5186
  322MPD2    C2 4836   1.802   1.442  13.740  0.1829  0.1805  0.2479
  322MPD2    C3 4837   1.809   1.373  13.618 -0.6937 -0.6011  0.1163
  322MPD2    C4 4838   1.766   1.428  13.499 -0.0514 -0.5300  0.3147
  322MPD2    C5 4839   1.695   1.546  13.517 -0.1393  0.6403 -0.2714
  322MPD2     H 4840   1.850   1.390  13.822  1.8729  1.5032  0.1071
  322MPD2    H1 4841   1.767   1.371  13.406  2.2667  1.3420 -0.8065
  322MPD2    H2 4842   1.644   1.715  13.627 -3.6758 -1.4191  0.9492
  322MPD2    H3 4843   1.645   1.592  13.433 -2.7869 -2.6028 -0.4760
  322MPD2     N 4844   1.881   1.258  13.613 -0.4556  0.5116 -0.0181
  322MPD2    H5 4845   1.941   1.234  13.691  0.1197  1.1970 -0.2444
  322MPD2    N1 4846   1.755   1.646  13.864 -0.1748  0.2333  0.1647
  322MPD2    H7 4847   1.743   1.746  13.853  1.6880  0.4716  0.3334
  323TMC3    C1 4848   1.813   1.705  14.094  0.4430 -0.5567 -0.1098
  323TMC3    C2 4849   1.889   1.813  14.049  0.6230  0.1481  0.4597
  323TMC3    C3 4850   1.977   1.868  14.144  0.6317 -1.0481 -0.1196
  323TMC3    C4 4851   1.811   1.664  14.227  0.3668  0.2357 -0.2721
  323TMC3    C5 4852   1.894   1.731  14.315 -0.9010 -0.0383  0.6147
  323TMC3    C6 4853   1.964   1.843  14.276  0.1882 -0.5371  0.4190
  323TMC3     C 4854   1.783   1.603  13.997 -0.8180 -0.4937 -0.9828
  323TMC3     O 4855   1.783   1.486  14.040  0.4841 -0.1837  0.0926
  323TMC3     H 4856   1.887   1.844  13.946 -1.1118 -2.4109 -0.2642
  323TMC3    H1 4857   1.753   1.581  14.267  0.1365  0.5429  0.0402
  323TMC3    H2 4858   2.020   1.899  14.349  1.1061 -0.9463  0.0322
  323TMC3    C7 4859   1.956   1.651  14.417  0.0350 -0.3789 -0.4094
  323TMC3    C8 4860   2.116   1.876  14.108 -0.4094 -0.3419 -0.0055
  323TMC3    O1 4861   1.897   1.557  14.461  0.4070  0.2304  0.4622
  323TMC3    O2 4862   2.196   1.866  14.200 -0.3615 -0.6329  0.7606
  324MPD2     C 4863   3.189   2.343  14.486 -0.4774 -0.6055  0.0773
  324MPD2    C1 4864   3.189   2.461  14.410  0.4322 -0.3045  0.0181
  324MPD2    C2 4865   3.096   2.473  14.307 -0.2504  0.2412  0.1023
  324MPD2    C3 4866   3.003   2.373  14.281  0.4697 -0.3362 -0.2910
  324MPD2    C4 4867   3.011   2.256  14.354  0.5678  0.5173  0.0832
  324MPD2    C5 4868   3.095   2.244  14.460 -0.3659  0.0243 -0.2191
  324MPD2     H 4869   3.100   2.562  14.245  1.2937  0.2647  0.2372
  324MPD2    H1 4870   2.947   2.170  14.335 -0.4758  0.9675  1.6270
  324MPD2    H2 4871   3.258   2.324  14.568 -0.9495 -0.2258  0.5646
  324MPD2    H3 4872   3.097   2.149  14.512  1.4517 -0.8420 -1.8608
  324MPD2     N 4873   2.904   2.396  14.187  0.3989 -0.4152  0.2030
  324MPD2    H5 4874   2.906   2.491  14.149  0.2343 -0.1901  0.7536
  324MPD2    N1 4875   3.296   2.549  14.441  0.0839  0.4922 -0.4246
  324MPD2    H7 4876   3.357   2.527  14.519 -1.5869 -2.3992  0.0617
  325TMC3    C1 4877   2.723   2.387  14.053  0.2444 -0.6778 -0.6357
  325TMC3    C2 4878   2.588   2.354  14.041 -0.0070  0.4826 -0.1626
  325TMC3    C3 4879   2.501   2.451  13.991  0.4361 -0.4943 -0.1324
  325TMC3    C4 4880   2.772   2.505  14.007  0.1823 -0.5155 -0.3583
  325TMC3    C5 4881   2.680   2.598  13.967  0.5074  0.2685 -0.0550
  325TMC3    C6 4882   2.550   2.575  13.957  0.6852 -0.6735  0.5473
  325TMC3     C 4883   2.798   2.319  14.160  0.3735 -0.1368  0.1175
  325TMC3     O 4884   2.752   2.216  14.214  0.1217  0.1317 -0.3481
  325TMC3     H 4885   2.558   2.251  14.057 -0.4599  0.8779  1.5354
  325TMC3    H1 4886   2.871   2.548  14.015 -0.0278 -0.4076  1.6817
  325TMC3    H2 4887   2.483   2.649  13.917  2.1374  0.3113 -0.0658
  325TMC3    C7 4888   2.718   2.733  13.980  0.0107 -0.8370  0.0261
  325TMC3    C8 4889   2.364   2.432  13.963  0.1572  0.4182  0.1475
  325TMC3    O1 4890   2.820   2.769  13.913 -0.2339  0.0234 -0.4203
  325TMC3    O2 4891   2.314   2.504  13.873  0.6666 -0.1578  0.5785
  326MPD2     C 4892   4.100   3.585  11.056 -0.6651 -0.2453  0.3895
  326MPD2    C1 4893   4.201   3.517  10.994  0.1063  0.4950 -0.2804
  326MPD2    C2 4894   4.333   3.555  11.014  0.2464  0.4137  0.0949
  326MPD2    C3 4895   4.376   3.660  11.097  0.3564 -0.3357  0.5150
  326MPD2    C4 4896   4.269   3.722  11.159 -0.6016 -0.1984 -0.5926
  326MPD2    C5 4897   4.136   3.681  11.146  0.3491 -0.6015 -0.4610
  326MPD2     H 4898   4.415   3.509  10.960  0.3650  2.0285 -1.1010
  326MPD2    H1 4899   4.287   3.807  11.223  1.8150 -0.7798 -0.4966
  326MPD2    H2 4900   3.993   3.571  11.040 -0.2527 -2.1666 -0.7228
  326MPD2    H3 4901   4.054   3.727  11.200  0.1927 -1.6640  0.1856
  326MPD2     N 4902   4.508   3.717  11.117 -0.6283 -0.0712  0.4980
  326MPD2    H5 4903   4.511   3.801  11.174 -0.7031  0.1523  0.1715
  326MPD2    N1 4904   4.167   3.424  10.890 -0.1161  0.3907 -0.0651
  326MPD2    H7 4905   4.067   3.417  10.872 -0.0059 -2.1030  0.2821
  327TMC3    C1 4906   4.198   3.290  10.695  0.0406 -0.1860  0.5033
  327TMC3    C2 4907   4.101   3.371  10.643 -0.4771 -0.0510 -0.1517
  327TMC3    C3 4908   4.104   3.403  10.508  0.5816 -0.0358 -0.1385
  327TMC3    C4 4909   4.298   3.245  10.615  0.2953 -0.6446 -0.3139
  327TMC3    C5 4910   4.308   3.291  10.487  0.0143 -0.2965  0.1976
  327TMC3    C6 4911   4.214   3.374  10.435 -0.0022  0.4630  0.0905
  327TMC3     C 4912   4.248   3.341  10.824 -0.4650 -0.6136  0.0854
  327TMC3     O 4913   4.370   3.323  10.832 -0.3057  0.5506  0.1408
  327TMC3     H 4914   4.023   3.414  10.705  0.4154  2.2028 -0.5881
  327TMC3    H1 4915   4.362   3.169  10.657 -1.0798 -2.5148 -1.6455
  327TMC3    H2 4916   4.220   3.406  10.331  1.5935 -1.4715 -0.4412
  327TMC3    C7 4917   4.440   3.326  10.442 -0.3318 -0.1754  0.1410
  327TMC3    C8 4918   4.038   3.529  10.468  0.0106  0.2253  0.2216
  327TMC3    O1 4919   4.457   3.377  10.335 -0.2793  0.0514 -0.1611
  327TMC3    O2 4920   4.101   3.602  10.393  0.5366 -0.1816 -0.0593
  328MPD2     C 4921   2.004   3.217  16.391  0.3788 -0.4895  0.6111
  328MPD2    C1 4922   2.026   3.275  16.516  0.4001  0.6710 -0.2367
  328MPD2    C2 4923   2.000   3.417  16.530 -0.4026  0.1216  0.2557
  328MPD2    C3 4924   1.933   3.484  16.430  0.0617  0.1932 -0.5584
  328MPD2    C4 4925   1.908   3.425  16.312  0.2021 -0.0434 -0.0339
  328MPD2    C5 4926   1.954   3.297  16.292  0.2746  0.3820  0.9211
  328MPD2     H 4927   2.029   3.465  16.623  1.1626 -0.0356 -0.1395
  328MPD2    H1 4928   1.883   3.477  16.221 -0.4882  1.0433  0.7807
  328MPD2    H2 4929   2.015   3.110  16.375  1.0688 -0.8112  3.3010
  328MPD2    H3 4930   1.953   3.266  16.189 -0.2140  0.2860  0.9581
  328MPD2     N 4931   1.893   3.618  16.447 -0.6360 -0.0292  0.6663
  328MPD2    H5 4932   1.824   3.644  16.377 -0.6677 -1.0846  0.3156
  328MPD2    N1 4933   2.072   3.189  16.623 -0.1387  0.1430 -0.1054
  328MPD2    H7 4934   2.095   3.094  16.594  0.2448  0.3485 -0.4685
  329TMC3    C1 4935   2.110   3.088  16.837 -0.5344  0.2447 -0.6630
  329TMC3    C2 4936   2.071   3.092  16.969 -0.0943  0.3035 -0.3550
  329TMC3    C3 4937   2.123   2.993  17.043  0.3912 -0.8612 -0.1320
  329TMC3    C4 4938   2.191   2.999  16.776 -0.7901 -0.1857  0.0228
  329TMC3    C5 4939   2.215   2.888  16.851  0.5169 -0.3790 -0.5967
  329TMC3    C6 4940   2.192   2.891  16.984  0.0461 -0.1084  0.3226
  329TMC3     C 4941   2.074   3.211  16.759  0.5245  0.2029 -0.3144
  329TMC3     O 4942   2.033   3.314  16.815 -0.0084  0.7403  0.1499
  329TMC3     H 4943   1.990   3.154  17.005 -0.8031 -0.1946 -1.0966
  329TMC3    H1 4944   2.203   2.994  16.668 -1.3058 -2.5548  0.0769
  329TMC3    H2 4945   2.218   2.803  17.041  0.2415  0.0145  0.4222
  329TMC3    C7 4946   2.264   2.769  16.785  0.0312 -0.0016 -0.6431
  329TMC3    C8 4947   2.064   2.975  17.181 -0.0028  0.6037 -0.7599
  329TMC3    O1 4948   2.263   2.667  16.854  0.1410  0.1490  0.2625
  329TMC3    O2 4949   2.074   2.859  17.226  0.0908 -0.1735 -0.0967
  330TMC3    C1 4950   4.544   3.493   9.172  0.3980  0.3816  0.3409
  330TMC3    C2 4951   4.536   3.376   9.098  0.0785  0.4912  0.1664
  330TMC3    C3 4952   4.638   3.292   9.111  0.5851  0.3933  0.1822
  330TMC3    C4 4953   4.655   3.527   9.241  0.1304 -0.3804 -0.2262
  330TMC3    C5 4954   0.033   3.431   9.253 -0.4011  0.3859  0.4595
  330TMC3    C6 4955   0.031   3.318   9.173 -0.1651 -0.0777 -0.2670
  330TMC3     C 4956   4.438   3.582   9.159  0.3626  0.8875  0.5577
  330TMC3     O 4957   4.457   3.702   9.162 -0.5897 -0.0723  0.0373
  330TMC3     H 4958   4.450   3.360   9.035  0.4388 -1.1264  0.0823
  330TMC3    H1 4959   4.651   3.620   9.297  0.2044 -1.4814  1.6250
  330TMC3    H2 4960   0.111   3.245   9.178 -0.6505 -0.7159 -1.8442
  330TMC3    C7 4961   0.156   3.466   9.317 -0.5195  0.0666  0.0239
  330TMC3    C8 4962   4.622   3.163   9.043  0.1902 -0.0746 -0.1648
  330TMC3    O1 4963   0.253   3.410   9.276  0.1702 -0.3948  0.6690
  330TMC3    O2 4964   4.543   3.166   8.950  0.3611  0.4224  0.1798
  331MPD2     C 4965   2.321   1.924  12.596 -1.1193 -0.1268 -0.2873
  331MPD2    C1 4966   2.453   1.896  12.612 -0.7715  0.0687 -0.2057
  331MPD2    C2 4967   2.510   1.784  12.556  0.1296  0.9199 -0.1452
  331MPD2    C3 4968   2.443   1.719  12.453 -0.0585  0.1015 -0.5410
  331MPD2    C4 4969   2.323   1.766  12.421  0.0715  0.6927 -1.1840
  331MPD2    C5 4970   2.258   1.859  12.497  0.4198 -0.1058  0.5236
  331MPD2     H 4971   2.609   1.748  12.582  0.0744  0.9638  0.1230
  331MPD2    H1 4972   2.266   1.726  12.338  0.0629 -1.6437 -0.0663
  331MPD2    H2 4973   2.271   2.005  12.648  1.7032 -0.0322  2.2438
  331MPD2    H3 4974   2.153   1.872  12.478  0.3897  0.0061  0.7647
  331MPD2     N 4975   2.506   1.616  12.380 -0.1019  0.0911 -0.0105
  331MPD2    H5 4976   2.596   1.585  12.415  0.2244 -0.3551 -1.2675
  331MPD2    N1 4977   2.529   1.986  12.693  0.5978 -0.1016  0.3570
  331MPD2    H7 4978   2.472   2.064  12.724  0.4301  0.7082 -2.0575
  332TMC3    C1 4979   2.571   1.497  12.198 -0.4431  0.1666 -0.3525
  332TMC3    C2 4980   2.640   1.554  12.092  0.3761 -0.4327  0.4987
  332TMC3    C3 4981   2.774   1.512  12.072  0.3792 -0.2414 -0.7194
  332TMC3    C4 4982   2.628   1.413  12.286  0.6102  0.7400 -0.0701
  332TMC3    C5 4983   2.763   1.390  12.268  0.4371 -0.0779  0.1396
  332TMC3    C6 4984   2.839   1.435  12.168 -0.0569 -0.2837  0.1358
  332TMC3     C 4985   2.467   1.581  12.253  0.2512  0.0770  0.5429
  332TMC3     O 4986   2.399   1.645  12.176 -0.3137  0.4560 -0.1071
  332TMC3     H 4987   2.599   1.638  12.037  0.6014 -0.0999  0.8420
  332TMC3    H1 4988   2.576   1.376  12.373 -0.2161  0.2082 -0.7939
  332TMC3    H2 4989   2.938   1.394  12.146  0.1853 -0.2366  1.1564
  332TMC3    C7 4990   2.819   1.309  12.377  0.6081  0.2480  0.2040
  332TMC3    C8 4991   2.870   1.603  12.009 -0.9972  0.4217 -0.2248
  332TMC3    O1 4992   2.750   1.234  12.441 -0.1977  0.4148 -0.0549
  332TMC3    O2 4993   2.982   1.611  12.067  0.6637 -0.0357 -0.2093
  333MPD2     C 4994   2.885   2.017  11.161 -0.3646  0.4167  0.0408
  333MPD2    C1 4995   2.973   1.924  11.112 -0.3953  0.4438 -0.5816
  333MPD2    C2 4996   2.965   1.801  11.158 -0.0759 -0.1089 -0.4066
  333MPD2    C3 4997   2.869   1.764  11.256 -0.4794 -0.3743  0.4842
  333MPD2    C4 4998   2.784   1.858  11.312 -0.2122  0.3695 -0.2668
  333MPD2    C5 4999   2.796   1.983  11.258  0.1661 -0.1115  0.0987
  333MPD2     H 5000   3.041   1.728  11.133  0.5193  1.3847 -2.9590
  333MPD2    H1 5001   2.710   1.840  11.389 -0.2243  0.8270 -0.1724
  333MPD2    H2 5002   2.888   2.117  11.120  2.0955  0.4190  0.2058
  333MPD2    H3 5003   2.735   2.062  11.301  0.5999  0.7640 -0.8979
  333MPD2     N 5004   2.878   1.636  11.303 -0.0836 -0.1943 -0.3540
  333MPD2    H5 5005   2.947   1.579  11.256 -1.0196 -0.3882 -1.5067
  333MPD2    N1 5006   3.067   1.971  11.021 -0.4192 -0.2008  0.9217
  333MPD2    H7 5007   3.079   2.072  11.009  1.8376 -0.3166  2.2024
  334TMC3    C1 5008   3.263   1.976  10.905  0.1051 -0.8583 -0.1737
  334TMC3    C2 5009   3.340   1.914  10.816  0.4279 -0.1958 -0.5970
  334TMC3    C3 5010   3.461   1.979  10.777  0.3189  1.1888 -0.0574
  334TMC3    C4 5011   3.287   2.100  10.954 -0.0856  0.1096 -0.0855
  334TMC3    C5 5012   3.402   2.162  10.908 -0.2777 -0.0379  0.0484
  334TMC3    C6 5013   3.494   2.101  10.827 -0.4596 -0.2980  0.1093
  334TMC3     C 5014   3.163   1.886  10.959  0.8088 -0.9907  0.6026
  334TMC3     O 5015   3.156   1.770  10.931  0.0778  0.0215 -0.2316
  334TMC3     H 5016   3.316   1.819  10.770 -0.7619  0.0216 -0.4472
  334TMC3    H1 5017   3.226   2.143  11.032  1.4115 -0.0194  1.1456
  334TMC3    H2 5018   3.579   2.158  10.793  0.7986 -2.7379 -0.8667
  334TMC3    C7 5019   3.441   2.295  10.951  0.2345 -0.6432 -0.5030
  334TMC3    C8 5020   3.561   1.903  10.708 -0.0560  1.3939 -0.1178
  334TMC3    O1 5021   3.537   2.335  10.902 -0.2726 -0.0832  1.2827
  334TMC3    O2 5022   3.525   1.789  10.681  0.3136  0.5549  0.4396
  335TMC3    C1 5023   2.689   3.948   0.034  0.7256  0.0720  0.0658
  335TMC3    C2 5024   2.614   3.874  17.644 -0.1448 -0.2618 -0.9132
  335TMC3    C3 5025   2.677   3.834  17.527 -0.1471  0.8379 -0.1230
  335TMC3    C4 5026   2.816   3.968   0.016 -0.2720  0.2655 -0.2415
  335TMC3    C5 5027   2.883   3.913  17.601 -0.2302 -0.3881 -0.0940
  335TMC3    C6 5028   2.810   3.844  17.501 -0.4598 -0.2560 -0.2843
  335TMC3     C 5029   2.621   4.000   0.161 -0.0615  0.6368  0.4740
  335TMC3     O 5030   2.518   3.959   0.201 -0.4060 -0.2248  0.1092
  335TMC3     H 5031   2.507   3.871  17.659  0.1744  1.0518  1.6036
  335TMC3    H1 5032   2.868   4.026   0.091 -2.4174  0.5242  1.0638
  335TMC3    H2 5033   2.866   3.805  17.417 -0.6819  0.7532 -0.8881
  335TMC3    C7 5034   3.030   3.890  17.605  0.2512 -0.1123 -0.3939
  335TMC3    C8 5035   2.607   3.768  17.425  0.7044  0.0887  0.3966
  335TMC3    O1 5036   3.074   3.858  17.497  0.1745  0.3211 -0.1776
  335TMC3    O2 5037   2.646   3.783  17.312 -0.1610  0.1216 -0.0638
  336MPD2     C 5038   2.613   2.007  16.536 -0.0291  0.6296  0.0069
  336MPD2    C1 5039   2.669   1.939  16.427 -1.6034 -0.0839  0.3063
  336MPD2    C2 5040   2.724   1.818  16.443  0.3856 -0.2703  0.4830
  336MPD2    C3 5041   2.722   1.762  16.570  0.0972 -0.4781  0.7277
  336MPD2    C4 5042   2.665   1.823  16.673  0.0265 -0.2136  0.0809
  336MPD2    C5 5043   2.611   1.945  16.653 -0.6182 -0.3111 -0.3486
  336MPD2     H 5044   2.760   1.766  16.355  1.5768  0.3923  0.5743
  336MPD2    H1 5045   2.640   1.786  16.772 -2.8953 -1.5769 -1.1930
  336MPD2    H2 5046   2.586   2.111  16.522 -0.1119  0.4360 -1.2485
  336MPD2    H3 5047   2.558   1.985  16.739  1.3278  0.4083  0.5350
  336MPD2     N 5048   2.757   1.622  16.584 -0.3828  0.3688  0.1299
  336MPD2    H5 5049   2.744   1.577  16.674  1.8976 -1.2260 -0.3271
  336MPD2    N1 5050   2.662   1.983  16.294 -0.2461 -0.3281  0.4835
  336MPD2    H7 5051   2.711   1.932  16.222 -0.4107  1.1501 -0.6831
  337TMC3    C1 5052   2.544   2.053  16.107  0.2244  0.5485 -0.8731
  337TMC3    C2 5053   2.424   2.035  16.051  0.0515  0.4260 -0.3752
  337TMC3    C3 5054   2.412   2.038  15.922 -0.2320  0.0844  0.1455
  337TMC3    C4 5055   2.657   2.082  16.034 -0.3114 -1.2787  0.2794
  337TMC3    C5 5056   2.644   2.098  15.900 -0.7821  0.0880 -0.3455
  337TMC3    C6 5057   2.517   2.068  15.841  0.0434  0.6888  0.1351
  337TMC3     C 5058   2.555   2.053  16.253  0.1654 -0.3580  0.4724
  337TMC3     O 5059   2.450   2.063  16.317 -0.5473  0.3580 -0.0515
  337TMC3     H 5060   2.341   2.007  16.115  2.7667 -3.1268  1.6467
  337TMC3    H1 5061   2.745   2.109  16.090 -2.6039  4.0281  1.2770
  337TMC3    H2 5062   2.506   2.080  15.734  1.2412  0.5366 -0.0046
  337TMC3    C7 5063   2.764   2.142  15.830  0.1545 -0.0341 -0.2724
  337TMC3    C8 5064   2.271   2.044  15.873  0.4101  0.7176  0.6120
  337TMC3    O1 5065   2.740   2.191  15.719 -0.1621  0.5129 -0.3283
  337TMC3    O2 5066   2.195   2.083  15.957 -0.5640  0.0206 -0.2019
  338MPD2     C 5067   3.271   0.793   0.596 -0.0089 -0.0574  0.0927
  338MPD2    C1 5068   3.132   0.777   0.580  0.1499  0.0944 -0.7994
  338MPD2    C2 5069   3.048   0.864   0.644 -0.3914  0.8046  0.0966
  338MPD2    C3 5070   3.093   0.974   0.718  0.2668  0.5692 -0.2922
  338MPD2    C4 5071   3.227   0.988   0.737  0.3620  0.3708 -0.4581
  338MPD2    C5 5072   3.317   0.901   0.671  0.3169  1.1829 -0.1054
  338MPD2     H 5073   2.941   0.850   0.632 -0.1522 -0.9532  0.0493
  338MPD2    H1 5074   3.260   1.069   0.800 -1.4635  1.4020 -0.8607
  338MPD2    H2 5075   3.340   0.715   0.567  2.1760  2.5468 -1.7605
  338MPD2    H3 5076   3.425   0.900   0.672  0.2789 -2.2609 -1.3240
  338MPD2     N 5077   2.993   1.050   0.783 -0.0689  0.1874  0.0882
  338MPD2    H5 5078   2.898   1.015   0.770  0.5322 -0.0402 -3.7526
  338MPD2    N1 5079   3.082   0.668   0.508  0.4242  0.9575 -0.4298
  338MPD2    H7 5080   2.982   0.657   0.504  0.2545  2.6784 -1.0239
  339TMC3    C1 5081   2.884   1.203   0.917 -0.7708 -0.7572  0.5026
  339TMC3    C2 5082   2.790   1.107   0.955  0.0969  0.2426 -1.0222
  339TMC3    C3 5083   2.670   1.144   1.005  0.1789  0.1196 -0.0920
  339TMC3    C4 5084   2.868   1.339   0.949 -0.0865  0.4052 -0.0790
  339TMC3    C5 5085   2.739   1.369   0.986  0.0183  1.1781  0.7671
  339TMC3    C6 5086   2.641   1.279   1.018  0.3175 -0.1761  0.6925
  339TMC3     C 5087   3.006   1.163   0.855 -0.2476 -0.0746 -0.5452
  339TMC3     O 5088   3.096   1.243   0.881  0.0363  0.4991 -0.3463
  339TMC3     H 5089   2.803   1.001   0.936  1.2036  0.7120 -2.9189
  339TMC3    H1 5090   2.924   1.415   0.896 -0.7471  1.4480  0.7205
  339TMC3    H2 5091   2.550   1.322   1.059 -0.3450 -0.3462 -0.6141
  339TMC3    C7 5092   2.697   1.497   0.927 -0.1558 -0.1282  0.4588
  339TMC3    C8 5093   2.616   1.049   1.106  0.4306 -0.5643  0.5489
  339TMC3    O1 5094   2.773   1.592   0.952  0.3596 -0.7785  0.7037
  339TMC3    O2 5095   2.686   0.949   1.127  0.7391  0.1727 -0.1391
  340MPD2     C 5096   3.330   3.712   9.921  0.0844 -0.0267  0.0667
  340MPD2    C1 5097   3.264   3.596   9.960 -0.1989  0.6439  0.0102
  340MPD2    C2 5098   3.344   3.491  10.004  0.4020 -0.0059 -0.1497
  340MPD2    C3 5099   3.481   3.498  10.007  0.3078  0.0818  0.0179
  340MPD2    C4 5100   3.539   3.620   9.963 -0.0772 -1.0098  0.5738
  340MPD2    C5 5101   3.460   3.728   9.920  0.1780  0.0534  0.0278
  340MPD2     H 5102   3.292   3.396  10.011  1.9506 -0.7768  1.0228
  340MPD2    H1 5103   3.646   3.639   9.970 -0.1838 -0.0974 -0.2520
  340MPD2    H2 5104   3.269   3.798   9.895  1.3804  0.9401  0.2077
  340MPD2    H3 5105   3.505   3.821   9.887  0.4623  0.5125  1.7234
  340MPD2     N 5106   3.557   3.384  10.043  1.1108  0.5384 -0.3079
  340MPD2    H5 5107   3.656   3.402  10.029  0.9415 -1.1606 -3.5610
  340MPD2    N1 5108   3.122   3.585   9.953  0.1467 -0.4012 -0.7960
  340MPD2    H7 5109   3.073   3.674   9.959 -0.5660 -0.7056 -2.0777
  341TMC3    C1 5110   3.087   3.350   9.888  0.0235  1.0678 -0.2109
  341TMC3    C2 5111   3.042   3.232   9.934  0.3087  0.0342  0.5080
  341TMC3    C3 5112   3.087   3.115   9.876 -0.4453 -0.5442  0.0649
  341TMC3    C4 5113   3.186   3.353   9.794  0.3622  0.7230 -0.4665
  341TMC3    C5 5114   3.245   3.233   9.745 -0.1327 -0.0181  0.8171
  341TMC3    C6 5115   3.197   3.109   9.789  0.2745 -0.0697 -0.0147
  341TMC3     C 5116   3.051   3.464   9.976  1.4762  0.0514 -0.3923
  341TMC3     O 5117   2.941   3.457  10.036 -0.2926  0.5685 -0.6078
  341TMC3     H 5118   2.966   3.233  10.010 -0.1694  2.3732 -0.0084
  341TMC3    H1 5119   3.217   3.454   9.769  1.3900  0.4534 -0.2600
  341TMC3    H2 5120   3.224   3.010   9.754 -0.1809 -1.6033  4.0852
  341TMC3    C7 5121   3.385   3.224   9.723  0.4842  0.2670  0.5141
  341TMC3    C8 5122   3.008   2.989   9.881 -0.3981  0.9253 -0.1613
  341TMC3    O1 5123   3.438   3.122   9.774 -0.0835  0.2011 -0.0397
  341TMC3    O2 5124   2.930   2.979   9.971 -0.4345  0.7254 -0.2508
  342MPD2     C 5125   0.406   2.216  17.076 -0.3997 -0.0209  0.2990
  342MPD2    C1 5126   0.541   2.238  17.095 -0.2673 -0.0117  0.1238
  342MPD2    C2 5127   0.587   2.357  17.147 -0.1201 -0.3638  0.0421
  342MPD2    C3 5128   0.498   2.464  17.173 -0.3866 -0.2316 -0.0936
  342MPD2    C4 5129   0.367   2.442  17.148  0.4146 -0.1893 -0.5059
  342MPD2    C5 5130   0.321   2.318  17.103  0.7156 -0.0906 -0.2094
  342MPD2     H 5131   0.694   2.374  17.140 -0.0342 -0.0071  2.3712
  342MPD2    H1 5132   0.297   2.523  17.165  0.9295 -0.2844  2.0411
  342MPD2    H2 5133   0.367   2.121  17.041 -0.9228  0.1849  0.3115
  342MPD2    H3 5134   0.214   2.314  17.085  1.0083 -1.5350 -1.6389
  342MPD2     N 5135   0.533   2.594  17.220 -0.8009 -0.1647 -0.2877
  342MPD2    H5 5136   0.459   2.662  17.232  0.1662  0.8363  0.0259
  342MPD2    N1 5137   0.630   2.136  17.052 -0.2470  0.5496 -0.1338
  342MPD2    H7 5138   0.725   2.167  17.036 -0.3943  1.3447  0.5024
  343TMC3    C1 5139   0.721   1.915  17.012 -0.0749 -0.1967  0.2087
  343TMC3    C2 5140   0.825   1.968  16.948 -0.2816  0.9495  0.7421
  343TMC3    C3 5141   0.950   1.893  16.945 -0.1833  0.3084 -0.4755
  343TMC3    C4 5142   0.726   1.795  17.074 -0.7377  0.5130  0.0774
  343TMC3    C5 5143   0.843   1.727  17.066 -0.2718 -0.4168  0.1429
  343TMC3    C6 5144   0.955   1.770  17.000  0.1136  0.3743  0.2407
  343TMC3     C 5145   0.603   1.997  17.037  0.5256  0.3125  0.6671
  343TMC3     O 5146   0.508   1.943  17.095 -0.0422 -0.3131  0.2855
  343TMC3     H 5147   0.814   2.063  16.896 -0.3308 -0.3920 -1.6635
  343TMC3    H1 5148   0.642   1.752  17.128 -1.1723  1.3440  0.0684
  343TMC3    H2 5149   1.042   1.707  16.987  0.0124  0.3421 -0.2769
  343TMC3    C7 5150   0.834   1.592  17.103  0.0991 -0.1423 -0.4722
  343TMC3    C8 5151   1.068   1.960  16.890  0.1827  0.0716 -0.2630
  343TMC3    O1 5152   0.726   1.536  17.103 -0.2369 -0.4404  0.1620
  343TMC3    O2 5153   1.059   2.082  16.877  0.8218  0.2255  0.0093
  344MPD2     C 5154   2.326   0.768  10.375  0.0461  0.5058 -0.7384
  344MPD2    C1 5155   2.224   0.840  10.325 -0.3603 -0.5195 -1.2136
  344MPD2    C2 5156   2.237   0.977  10.308 -0.0861 -0.0326  0.1281
  344MPD2    C3 5157   2.353   1.039  10.344 -0.1178  0.4364  0.3094
  344MPD2    C4 5158   2.454   0.967  10.394 -0.4839  0.3973  0.7291
  344MPD2    C5 5159   2.445   0.831  10.407  0.0557  0.0941  0.1975
  344MPD2     H 5160   2.154   1.037  10.272 -1.0111 -2.4715 -1.8115
  344MPD2    H1 5161   2.556   0.996  10.415 -0.0052 -1.1762  0.5839
  344MPD2    H2 5162   2.338   0.660  10.382  0.5461  0.5381 -1.0931
  344MPD2    H3 5163   2.534   0.774  10.431  0.3345  1.0314  1.3775
  344MPD2     N 5164   2.371   1.182  10.341 -0.1433 -0.3005 -0.5663
  344MPD2    H5 5165   2.444   1.208  10.407  0.3526  0.5160 -1.4422
  344MPD2    N1 5166   2.097   0.780  10.298 -0.3880 -0.0246 -0.9247
  344MPD2    H7 5167   2.016   0.838  10.278 -1.9394 -1.0264  2.5652
  345TMC3    C1 5168   2.307   1.404  10.348 -0.1954  0.9044  0.1444
  345TMC3    C2 5169   2.381   1.423  10.469 -0.1966 -0.7793  0.3417
  345TMC3    C3 5170   2.400   1.553  10.516 -0.2573 -0.6092 -0.0598
  345TMC3    C4 5171   2.256   1.511  10.279  0.1468 -0.4897 -0.2389
  345TMC3    C5 5172   2.275   1.633  10.337  0.2493 -0.2077 -0.8576
  345TMC3    C6 5173   2.347   1.662  10.448  0.0830  0.2429  0.4009
  345TMC3     C 5174   2.282   1.271  10.291 -0.0343  0.9284 -0.1741
  345TMC3     O 5175   2.182   1.255  10.220  0.2744  0.7118  0.3235
  345TMC3     H 5176   2.410   1.336  10.527  1.6410  0.2610  0.9843
  345TMC3    H1 5177   2.182   1.498  10.202  1.8895  0.9644 -2.1766
  345TMC3    H2 5178   2.362   1.764  10.479 -0.9828  0.7414 -0.7487
  345TMC3    C7 5179   2.204   1.750  10.281 -0.1161  0.1304 -0.2496
  345TMC3    C8 5180   2.449   1.566  10.650 -0.5395 -0.4547 -0.3825
  345TMC3    O1 5181   2.193   1.856  10.344  0.1236  0.3354  0.5311
  345TMC3    O2 5182   2.489   1.462  10.700  0.2564 -0.0999 -1.3627
  346MPD2     C 5183   1.635   2.853  14.028  0.1115 -0.5500  0.0478
  346MPD2    C1 5184   1.764   2.802  14.049  0.4953 -0.0926  0.2126
  346MPD2    C2 5185   1.855   2.887  14.100 -0.0613  0.1171 -0.2915
  346MPD2    C3 5186   1.818   3.015  14.132  0.4264  0.2315  0.0478
  346MPD2    C4 5187   1.695   3.066  14.092 -0.1538 -0.4285  0.0900
  346MPD2    C5 5188   1.606   2.982  14.046 -0.7517  0.2625  0.2125
  346MPD2     H 5189   1.960   2.862  14.115  0.1469  0.2635 -1.4667
  346MPD2    H1 5190   1.665   3.169  14.102 -0.6400 -0.5029 -0.5382
  346MPD2    H2 5191   1.554   2.794  13.987 -0.2328 -0.5890  0.7907
  346MPD2    H3 5192   1.510   3.028  14.028 -0.5674  0.8416  0.6768
  346MPD2     N 5193   1.918   3.094  14.193  0.3572  0.5774  0.0758
  346MPD2    H5 5194   2.011   3.055  14.193  0.2007  0.1995 -1.2882
  346MPD2    N1 5195   1.799   2.678  13.996  0.0157  0.4974  0.2686
  346MPD2    H7 5196   1.898   2.663  13.981 -0.5069 -2.6297 -0.1487
  347TMC3    C1 5197   1.997   3.241  14.359  0.1152 -0.5917  0.3347
  347TMC3    C2 5198   2.108   3.162  14.374  0.0386  0.1555  0.7503
  347TMC3    C3 5199   2.229   3.211  14.405  1.2551 -0.3568  0.1710
  347TMC3    C4 5200   2.016   3.374  14.370  0.3516 -0.1398  0.1914
  347TMC3    C5 5201   2.141   3.426  14.396  0.2587  0.0498  0.2417
  347TMC3    C6 5202   2.247   3.344  14.419 -0.3493 -0.3418  0.9378
  347TMC3     C 5203   1.884   3.193  14.276  0.0700 -0.3110  0.0757
  347TMC3     O 5204   1.783   3.261  14.279 -0.1938 -0.3014  0.1499
  347TMC3     H 5205   2.108   3.054  14.370 -1.1463  0.1776  0.1860
  347TMC3    H1 5206   1.941   3.443  14.335  1.2093  1.5543  1.6838
  347TMC3    H2 5207   2.350   3.377  14.429 -1.1437  2.4914 -0.3366
  347TMC3    C7 5208   2.140   3.558  14.446  0.2470 -0.7484 -0.1373
  347TMC3    C8 5209   2.345   3.135  14.359 -0.3471 -0.2784 -0.7795
  347TMC3    O1 5210   2.032   3.615  14.452 -0.0328  0.5579  0.5145
  347TMC3    O2 5211   2.368   3.019  14.409  0.6783  0.3174  0.1257
  348MPD2     C 5212   0.415   2.438  11.822  0.8325 -0.0533 -1.1285
  348MPD2    C1 5213   0.514   2.527  11.786 -0.7872  0.0107  0.1934
  348MPD2    C2 5214   0.500   2.599  11.671 -0.5811 -0.1323  0.5552
  348MPD2    C3 5215   0.389   2.578  11.594  0.4059 -0.4952 -0.0327
  348MPD2    C4 5216   0.289   2.489  11.629  0.2774 -0.3141 -0.5779
  348MPD2    C5 5217   0.299   2.420  11.743  0.0981 -0.9652 -0.5926
  348MPD2     H 5218   0.579   2.667  11.640 -1.8014  1.2858  0.5100
  348MPD2    H1 5219   0.208   2.464  11.562  1.3612  2.9064 -3.0608
  348MPD2    H2 5220   0.420   2.382  11.914 -0.4774 -0.3924 -1.2531
  348MPD2    H3 5221   0.225   2.349  11.777 -0.6224  0.0289 -0.0583
  348MPD2     N 5222   0.397   2.632  11.466 -0.1197 -0.2984 -0.6226
  348MPD2    H5 5223   0.470   2.701  11.455  0.4223 -0.9987 -1.4133
  348MPD2    N1 5224   0.625   2.569  11.863 -0.2155 -0.0004  0.4836
  348MPD2    H7 5225   0.697   2.623  11.815  1.7727 -1.4828  1.7857
  349TMC3    C1 5226   0.779   2.527  12.034 -0.2876  0.6370  0.3057
  349TMC3    C2 5227   0.813   2.416  12.119 -0.1778 -0.3630 -0.1893
  349TMC3    C3 5228   0.927   2.345  12.084  0.3989  0.3031  0.2196
  349TMC3    C4 5229   0.860   2.567  11.932 -0.1832 -0.3973  0.3950
  349TMC3    C5 5230   0.967   2.480  11.900  0.5700 -0.7657 -0.5548
  349TMC3    C6 5231   0.995   2.373  11.971  0.0817 -0.1716  0.3199
  349TMC3     C 5232   0.641   2.522  11.992 -0.2338  0.5497 -0.6830
  349TMC3     O 5233   0.562   2.464  12.063 -0.1648 -0.6533 -0.1886
  349TMC3     H 5234   0.741   2.364  12.180 -1.6580  3.1511  1.0576
  349TMC3    H1 5235   0.837   2.660  11.881 -0.0376 -0.0248  1.0226
  349TMC3    H2 5236   1.062   2.300  11.928 -1.0315 -1.3176  0.5331
  349TMC3    C7 5237   0.939   2.442  11.767  0.2811 -0.6168  0.9192
  349TMC3    C8 5238   0.933   2.209  12.137 -0.1147 -0.1977 -0.5172
  349TMC3    O1 5239   0.899   2.325  11.748 -0.2623 -0.1311  0.9289
  349TMC3    O2 5240   0.853   2.187  12.226 -0.0716 -0.4446  0.0135
  350MPD2     C 5241   4.274   0.449   9.835  0.4975 -0.4419  0.0081
  350MPD2    C1 5242   4.362   0.344   9.847  0.6038  0.1070 -0.2381
  350MPD2    C2 5243   4.495   0.373   9.873 -0.6671  0.5291  0.9928
  350MPD2    C3 5244   4.545   0.502   9.879  0.9105 -0.6736  0.4372
  350MPD2    C4 5245   4.461   0.609   9.856 -0.0331 -0.5594  0.0576
  350MPD2    C5 5246   4.328   0.578   9.837 -0.1550  0.2357  0.1770
  350MPD2     H 5247   4.558   0.285   9.880  0.0102  1.0673  1.6548
  350MPD2    H1 5248   4.487   0.713   9.876 -2.3215  0.0142  0.0770
  350MPD2    H2 5249   4.166   0.440   9.832  0.4065  0.4310  0.5261
  350MPD2    H3 5250   4.257   0.658   9.823  1.1753  1.3489 -0.2364
  350MPD2     N 5251   4.677   0.506   9.938 -0.9438  0.2600  0.1654
  350MPD2    H5 5252   4.707   0.409   9.945  0.2166  0.3769 -2.9482
  350MPD2    N1 5253   4.328   0.204   9.842 -0.3786 -0.0420 -0.0882
  350MPD2    H7 5254   4.402   0.135   9.854  0.9650  1.0540 -2.1876
  351TMC3    C1 5255   4.208   0.011   9.818  0.3375  0.3901 -0.3926
  351TMC3    C2 5256   4.324   4.662   9.776  0.1942 -0.3254  0.4309
  351TMC3    C3 5257   4.320   4.529   9.792  0.2359  1.0602 -0.6769
  351TMC3    C4 5258   4.088   4.674   9.845 -0.4044  0.3108 -0.5815
  351TMC3    C5 5259   4.088   4.535   9.844  0.3938 -0.8715  0.1918
  351TMC3    C6 5260   4.211   4.464   9.836  0.2409 -0.3936  0.1015
  351TMC3     C 5261   4.207   0.151   9.824  0.0813  0.0780  0.3729
  351TMC3     O 5262   4.098   0.211   9.814  0.5684  0.4506  0.0622
  351TMC3     H 5263   4.411   4.719   9.744 -0.1066 -1.0870 -1.7600
  351TMC3    H1 5264   4.004   0.018   9.864 -0.8860 -0.3721 -0.3363
  351TMC3    H2 5265   4.214   4.355   9.837  0.4992 -0.4003 -1.1012
  351TMC3    C7 5266   3.982   4.472   9.919  0.4851 -0.2625 -0.1694
  351TMC3    C8 5267   4.448   4.450   9.795  0.6054  0.2067  0.0799
  351TMC3    O1 5268   3.947   4.534  10.020  0.0031 -0.1389  0.2692
  351TMC3    O2 5269   4.545   4.511   9.759  0.7114 -0.9085  0.2236
  352MPD2     C 5270   2.913   3.360   1.667  0.1128  0.9285  0.5278
  352MPD2    C1 5271   2.814   3.259   1.646 -0.3525  0.5396 -1.1350
  352MPD2    C2 5272   2.839   3.129   1.680 -0.5684  0.2056 -0.1794
  352MPD2    C3 5273   2.961   3.093   1.736  0.0614  0.6458  0.2026
  352MPD2    C4 5274   3.059   3.183   1.738 -0.3061  0.7237 -0.1195
  352MPD2    C5 5275   3.035   3.319   1.713 -0.0711  0.5393 -0.4048
  352MPD2     H 5276   2.768   3.048   1.674  0.2554 -0.6530  1.7322
  352MPD2    H1 5277   3.155   3.159   1.781  0.9812  3.8118 -1.2172
  352MPD2    H2 5278   2.903   3.467   1.654 -0.3865  0.9644  1.2538
  352MPD2    H3 5279   3.109   3.396   1.732 -1.1285  0.8280  2.6207
  352MPD2     N 5280   2.998   2.957   1.770  0.2992 -0.2823 -0.3033
  352MPD2    H5 5281   3.096   2.944   1.794 -0.3999 -2.3399  1.3617
  352MPD2    N1 5282   2.688   3.296   1.595 -0.6115 -0.4416  0.0785
  352MPD2    H7 5283   2.666   3.394   1.576 -2.3232 -0.8204  0.0633
  353TMC3    C1 5284   2.950   2.718   1.758 -0.5044 -0.7575 -0.3820
  353TMC3    C2 5285   3.078   2.699   1.722  0.2021 -0.4880  0.5544
  353TMC3    C3 5286   3.123   2.570   1.693  0.1052 -0.5609 -0.7964
  353TMC3    C4 5287   2.863   2.610   1.772 -0.9397  0.2336 -0.2717
  353TMC3    C5 5288   2.907   2.485   1.732 -0.7956  0.2183  1.1623
  353TMC3    C6 5289   3.035   2.465   1.695 -0.5260 -0.4070  0.4806
  353TMC3     C 5290   2.901   2.856   1.773  0.4380 -0.3622 -0.1999
  353TMC3     O 5291   2.783   2.858   1.793 -0.0089  0.0428 -0.1393
  353TMC3     H 5292   3.152   2.778   1.712  1.1604 -1.5958 -1.0531
  353TMC3    H1 5293   2.758   2.616   1.798 -0.6563  1.6437  0.5415
  353TMC3    H2 5294   3.063   2.368   1.656  1.2556 -0.0019  0.7401
  353TMC3    C7 5295   2.822   2.370   1.736 -1.5545  0.7246  0.3123
  353TMC3    C8 5296   3.266   2.555   1.661  0.2437 -0.0283 -1.1693
  353TMC3    O1 5297   2.851   2.274   1.663 -0.9667  0.2518 -0.0287
  353TMC3    O2 5298   3.329   2.645   1.618  0.5298 -0.0333 -0.3297
  354TMC3    C1 5299   4.601   3.711  13.534 -0.1851  0.6835  0.1844
  354TMC3    C2 5300   4.655   3.835  13.531  0.1778 -0.5247 -0.0512
  354TMC3    C3 5301   4.703   3.878  13.413  0.1283  0.4870 -0.0247
  354TMC3    C4 5302   4.595   3.632  13.426 -0.1371 -0.4579  0.2542
  354TMC3    C5 5303   4.630   3.679  13.306  0.0036  0.5879  0.2791
  354TMC3    C6 5304   4.691   3.802  13.305  0.6241  0.2108  0.4223
  354TMC3     C 5305   4.546   3.656  13.657  0.4248 -0.1558 -0.4667
  354TMC3     O 5306   4.445   3.586  13.645 -0.5263  0.0857  0.4945
  354TMC3     H 5307   4.663   3.899  13.618 -3.2850 -0.7832  0.4889
  354TMC3    H1 5308   4.540   3.539  13.430  0.0663 -0.6485 -1.2650
  354TMC3    H2 5309   0.003   3.839  13.209  1.4789  0.1246  0.7014
  354TMC3    C7 5310   4.647   3.571  13.211 -0.5318 -0.3156  0.2032
  354TMC3    C8 5311   0.042   4.011  13.385 -0.6253 -0.7369  0.0203
  354TMC3    O1 5312   4.654   3.463  13.265 -0.7256  0.3425 -0.4424
  354TMC3    O2 5313   0.107   4.059  13.474  0.3485 -0.4113  0.0367
  355MPD2     C 5314   0.063   4.457  12.040 -0.0405  0.1792 -0.4029
  355MPD2    C1 5315   0.046   4.516  11.918 -0.2378 -0.2458  0.6208
  355MPD2    C2 5316   0.150   4.584  11.866 -0.1305  0.5861  0.1592
  355MPD2    C3 5317   0.268   4.605  11.937 -0.1980 -0.2917 -0.9370
  355MPD2    C4 5318   0.281   4.552  12.063 -0.2605 -0.2391  0.1248
  355MPD2    C5 5319   0.180   4.473  12.116  0.3197  0.7636  0.7018
  355MPD2     H 5320   0.144   4.630  11.768  0.7995  1.7428  0.6339
  355MPD2    H1 5321   0.372   4.575  12.117 -1.8527  0.9836  2.2911
  355MPD2    H2 5322   4.713   4.386  12.078  0.0441 -0.2387 -1.0176
  355MPD2    H3 5323   0.186   4.422  12.211 -1.9843  0.0883  0.4748
  355MPD2     N 5324   0.385   4.681  11.901  0.1768  0.6653  0.2761
  355MPD2    H5 5325   0.470   4.666  11.954  1.3742 -0.9627 -2.0883
  355MPD2    N1 5326   4.651   4.491  11.854 -0.2215 -0.5448  0.2714
  355MPD2    H7 5327   4.585   4.437  11.909  0.0456  0.4195  1.5394
  356TMC3    C1 5328   0.533   0.092  11.771  0.2552  0.5033  0.8526
  356TMC3    C2 5329   0.551   0.157  11.654  0.5022 -0.0624  0.3985
  356TMC3    C3 5330   0.634   0.263  11.664 -0.4548 -0.2497  0.4418
  356TMC3    C4 5331   0.593   0.119  11.892 -0.8173 -0.6009 -0.7865
  356TMC3    C5 5332   0.668   0.235  11.894 -0.3205  0.1578 -0.4976
  356TMC3    C6 5333   0.692   0.308  11.780  0.0180  0.1903 -0.0317
  356TMC3     C 5334   0.404   0.025  11.785 -0.0073 -0.2691  0.4505
  356TMC3     O 5335   0.335   0.025  11.686 -0.0509 -0.2718 -0.0603
  356TMC3     H 5336   0.517   0.122  11.557  0.1248  0.6939  0.2621
  356TMC3    H1 5337   0.588   0.064  11.985 -0.9832  0.4969 -0.1451
  356TMC3    H2 5338   0.762   0.391  11.774  3.9601 -2.9699  2.2528
  356TMC3    C7 5339   0.707   0.290  12.025 -0.0308 -0.6926  0.2640
  356TMC3    C8 5340   0.683   0.305  11.530 -0.0594 -0.4119 -0.6575
  356TMC3    O1 5341   0.708   0.218  12.125  0.9245 -0.6122  0.0808
  356TMC3    O2 5342   0.625   0.254  11.437 -0.6035 -0.2196 -0.0155
  357MPD2     C 5343   4.647   0.377   1.459  0.6434 -0.4341  0.8373
  357MPD2    C1 5344   4.722   0.319   1.551  0.8113  0.4352 -0.2364
  357MPD2    C2 5345   4.696   0.357   1.682  0.0991 -0.2756 -0.1928
  357MPD2    C3 5346   4.586   0.434   1.711 -0.0112 -0.5518  0.3226
  357MPD2    C4 5347   4.514   0.496   1.610  0.3007  0.1974  0.3111
  357MPD2    C5 5348   4.544   0.463   1.481 -0.1199  0.5798 -1.2069
  357MPD2     H 5349   0.033   0.313   1.761  1.0541 -0.6107 -1.1061
  357MPD2    H1 5350   4.445   0.577   1.628  1.0484  1.0156 -0.5029
  357MPD2    H2 5351   4.652   0.346   1.356  0.2441  1.5994  0.2036
  357MPD2    H3 5352   4.481   0.499   1.401  3.5374  3.0005 -3.0172
  357MPD2     N 5353   4.558   0.465   1.846  0.0949  0.0205  0.5043
  357MPD2    H5 5354   4.497   0.544   1.865 -0.2885 -0.0729 -0.3440
  357MPD2    N1 5355   0.114   0.246   1.504 -0.1831  0.6748 -0.7697
  357MPD2    H7 5356   0.125   0.229   1.404 -0.2400 -0.6419 -0.5469
  358TMC3    C1 5357   0.321   0.129   1.511 -0.1475 -0.2706  0.1867
  358TMC3    C2 5358   0.293   0.055   1.402 -0.7431 -1.0065 -0.5195
  358TMC3    C3 5359   0.399   0.008   1.330 -0.2587 -0.4275 -0.6341
  358TMC3    C4 5360   0.452   0.158   1.553  0.3488 -0.3680 -0.5676
  358TMC3    C5 5361   0.551   0.108   1.465  0.0568  0.4012  0.6484
  358TMC3    C6 5362   0.530   0.031   1.352  0.3380  0.2136 -0.1084
  358TMC3     C 5363   0.215   0.198   1.586  0.1297 -0.9994  0.6814
  358TMC3     O 5364   0.239   0.231   1.702 -0.1557 -0.1067 -0.2068
  358TMC3     H 5365   0.191   0.058   1.365 -0.9561  0.2072  0.1782
  358TMC3    H1 5366   0.475   0.221   1.638  0.2132  1.8459 -2.1862
  358TMC3    H2 5367   0.602   4.688   1.305  1.4945  2.0358 -0.8619
  358TMC3    C7 5368   0.683   0.174   1.468  0.5674  0.0314  0.0670
  358TMC3    C8 5369   0.370   4.655   1.208  0.5083  0.0542 -0.3315
  358TMC3    O1 5370   0.702   0.268   1.547  0.0071  0.4128  0.0131
  358TMC3    O2 5371   0.437   4.669   1.108  0.1482 -0.1288  0.1872
  359MPD2     C 5372   4.602   3.192  12.355  0.2557  0.3586  0.2560
  359MPD2    C1 5373   4.645   3.067  12.388 -1.2513  0.7326 -0.8679
  359MPD2    C2 5374   4.592   2.995  12.498 -0.1650  0.0970  0.2651
  359MPD2    C3 5375   4.481   3.049  12.563 -0.5154  0.4439  0.3829
  359MPD2    C4 5376   4.436   3.177  12.531  0.7955 -0.7632 -0.0414
  359MPD2    C5 5377   4.500   3.250  12.426 -0.2537  0.7158  0.2272
  359MPD2     H 5378   4.635   2.897  12.512  1.2818  0.5942 -0.7409
  359MPD2    H1 5379   4.352   3.238  12.565  0.8214 -1.2138  0.8207
  359MPD2    H2 5380   4.648   3.249  12.275 -0.6970 -0.3035 -0.7663
  359MPD2    H3 5381   4.456   3.344  12.392  0.6316  0.7412 -0.8553
  359MPD2     N 5382   4.399   2.983  12.652  0.0161 -1.2351 -0.1926
  359MPD2    H5 5383   4.308   3.024  12.673 -0.4326 -2.6200  0.6089
  359MPD2    N1 5384   0.013   2.993  12.305  0.2915 -0.2863  0.4088
  359MPD2    H7 5385   0.052   2.908  12.345 -0.6916 -0.7332  0.4160
  360TMC3    C1 5386   0.140   2.928  12.115  0.0794 -0.4413  0.4933
  360TMC3    C2 5387   0.250   2.897  12.184 -0.1854 -0.3855 -0.5440
  360TMC3    C3 5388   0.354   2.844  12.119  0.1060 -0.2238 -0.1999
  360TMC3    C4 5389   0.144   2.917  11.981 -0.8436  0.3973 -0.5176
  360TMC3    C5 5390   0.243   2.841  11.922 -0.1948  0.1530 -0.0441
  360TMC3    C6 5391   0.357   2.802  11.988 -0.2120  0.5191 -0.4919
  360TMC3     C 5392   0.045   3.027  12.173 -0.0288  0.3350 -0.3830
  360TMC3     O 5393   4.722   3.118  12.106  0.1466  0.0767 -0.1651
  360TMC3     H 5394   0.263   2.942  12.281  0.5363 -0.0994 -0.7802
  360TMC3    H1 5395   0.062   2.959  11.923  0.4251  1.7338 -1.3443
  360TMC3    H2 5396   0.429   2.736  11.941  2.7571  1.6287  2.4804
  360TMC3    C7 5397   0.244   2.843  11.778 -0.1373  0.1163  0.0060
  360TMC3    C8 5398   0.477   2.850  12.191 -0.1030 -0.5147  0.4531
  360TMC3    O1 5399   0.348   2.881  11.725 -0.2391 -0.1455 -0.1392
  360TMC3    O2 5400   0.466   2.821  12.310 -0.0099  0.3153  0.5168
  361MPD2     C 5401   1.906   2.672  16.920 -0.3339 -0.1469  0.3377
  361MPD2    C1 5402   1.874   2.684  17.054  0.8855  0.2308  0.2193
  361MPD2    C2 5403   1.910   2.577  17.138  0.0182  0.8463 -0.0959
  361MPD2    C3 5404   1.975   2.462  17.090 -0.0641  0.1675  0.0582
  361MPD2    C4 5405   1.999   2.452  16.954 -0.2827  0.8115 -0.3824
  361MPD2    C5 5406   1.966   2.559  16.871  0.4166 -0.4989  0.7802
  361MPD2     H 5407   1.881   2.597  17.240  0.4059 -1.0274  0.3753
  361MPD2    H1 5408   2.049   2.368  16.907  1.0775  2.3194 -1.6142
  361MPD2    H2 5409   1.900   2.757  16.853  4.0270  0.2839  0.4944
  361MPD2    H3 5410   1.994   2.555  16.766 -0.5995 -0.9505  0.5246
  361MPD2     N 5411   1.998   2.351  17.173 -0.0393  0.1326  0.1652
  361MPD2    H5 5412   2.030   2.270  17.120  1.0972  1.3030 -0.9620
  361MPD2    N1 5413   1.790   2.789  17.101  0.1136  0.3692 -0.0703
  361MPD2    H7 5414   1.745   2.781  17.191  2.3580  1.7228  1.1952
  362TMC3    C1 5415   1.669   2.985  17.111  0.8114  0.3497 -0.9096
  362TMC3    C2 5416   1.547   2.931  17.156 -0.0731  0.5600  0.3435
  362TMC3    C3 5417   1.443   3.019  17.172 -0.4440 -0.3606  0.2372
  362TMC3    C4 5418   1.679   3.108  17.060 -0.6023 -0.0577  0.4985
  362TMC3    C5 5419   1.570   3.185  17.060  0.0135  0.4390  0.0525
  362TMC3    C6 5420   1.460   3.149  17.126  0.0156 -0.2523 -0.9119
  362TMC3     C 5421   1.761   2.903  17.033 -0.6679  0.1691  0.3955
  362TMC3     O 5422   1.810   2.939  16.925 -0.2672 -0.5251  0.2303
  362TMC3     H 5423   1.536   2.829  17.192  0.8021  0.0983 -0.7028
  362TMC3    H1 5424   1.776   3.141  17.023 -1.5335  1.8593 -0.2188
  362TMC3    H2 5425   1.389   3.231  17.126  0.7474  0.3814 -1.9872
  362TMC3    C7 5426   1.539   3.218  16.923  0.1895 -0.6325  0.7914
  362TMC3    C8 5427   1.306   2.962  17.162 -0.7949 -0.0438 -0.2423
  362TMC3    O1 5428   1.435   3.280  16.907 -0.2762 -0.2492  0.4152
  362TMC3    O2 5429   1.299   2.846  17.125  0.1269  0.2004 -0.3725
  363TMC3    C1 5430   0.592   0.252   9.600 -0.0729  0.1260 -0.0010
  363TMC3    C2 5431   0.560   0.155   9.696 -0.5584  0.4703  0.4058
  363TMC3    C3 5432   0.438   0.080   9.684  0.0115 -0.0539 -0.1513
  363TMC3    C4 5433   0.504   0.290   9.502 -0.7563 -0.6225  0.6680
  363TMC3    C5 5434   0.386   0.225   9.501 -0.2303  0.2525 -0.1947
  363TMC3    C6 5435   0.358   0.117   9.582  0.2591 -0.2919 -0.4799
  363TMC3     C 5436   0.709   0.344   9.615 -0.3064 -0.1909  0.7149
  363TMC3     O 5437   0.706   0.440   9.543  0.2560  0.2794 -0.2159
  363TMC3     H 5438   0.607   0.168   9.793  0.3380  0.4497 -0.0225
  363TMC3    H1 5439   0.523   0.367   9.427 -0.9916 -2.4739 -1.2939
  363TMC3    H2 5440   0.263   0.065   9.576 -0.5612  1.1998 -0.4668
  363TMC3    C7 5441   0.278   0.257   9.409  0.1538  0.7928 -0.3580
  363TMC3    C8 5442   0.415   4.685   9.768 -0.0406  0.0953 -0.2710
  363TMC3    O1 5443   0.188   0.176   9.409  0.3169 -0.2425  0.7744
  363TMC3    O2 5444   0.303   4.637   9.765 -0.2227 -0.0214  0.1792
  364MPD2     C 5445   3.663   3.857  10.540  0.4899 -0.3851  0.0805
  364MPD2    C1 5446   3.782   3.864  10.469 -0.1196  0.6860 -0.0029
  364MPD2    C2 5447   3.865   3.757  10.467  1.0587 -0.4105 -0.1419
  364MPD2    C3 5448   3.830   3.637  10.520 -0.4372  0.0733 -0.4294
  364MPD2    C4 5449   3.718   3.623  10.597  0.5536  0.0649  0.3461
  364MPD2    C5 5450   3.640   3.736  10.601 -0.0168  0.2238 -0.2608
  364MPD2     H 5451   3.957   3.768  10.410  1.1648  1.0967  0.3051
  364MPD2    H1 5452   3.685   3.523  10.625  0.3066  0.7300  2.4052
  364MPD2    H2 5453   3.579   3.925  10.542 -0.0152 -0.9629 -1.4687
  364MPD2    H3 5454   3.541   3.724  10.644 -0.3565  0.5982 -0.9378
  364MPD2     N 5455   3.913   3.528  10.515  0.0301  0.2059  0.0570
  364MPD2    H5 5456   3.887   3.438  10.555  0.7748  0.9829  2.2671
  364MPD2    N1 5457   3.828   3.976  10.394 -0.0291  0.3127  0.1991
  364MPD2    H7 5458   3.920   3.972  10.350  0.2041  0.8248  0.6370
  365TMC3    C1 5459   3.865   4.202  10.324 -0.1374 -0.0699  0.2401
  365TMC3    C2 5460   3.966   4.151  10.246 -0.1630 -0.4305 -0.3214
  365TMC3    C3 5461   4.081   4.229  10.222 -0.3769 -0.0285  0.0782
  365TMC3    C4 5462   3.863   4.325  10.373 -0.1866 -0.6816 -0.5298
  365TMC3    C5 5463   3.968   4.407  10.328 -0.9055 -0.1478 -0.4947
  365TMC3    C6 5464   4.073   4.360  10.261 -0.0375 -0.4247  0.0185
  365TMC3     C 5465   3.781   4.104  10.395 -0.1299  0.0120 -0.0393
  365TMC3     O 5466   3.695   4.151  10.469  0.1641 -0.4111 -0.2997
  365TMC3     H 5467   3.954   4.053  10.203  0.0042 -1.4696  2.0239
  365TMC3    H1 5468   3.785   4.359  10.440  0.7234  0.0074  0.1951
  365TMC3    H2 5469   4.151   4.423  10.221  0.2773  0.5998  2.2273
  365TMC3    C7 5470   3.979   4.547  10.376 -0.3547 -0.1157 -0.5897
  365TMC3    C8 5471   4.164   4.190  10.113  0.2856 -0.1310 -0.6621
  365TMC3    O1 5472   4.066   4.616  10.331 -0.0098 -0.2937 -0.6231
  365TMC3    O2 5473   4.231   4.272  10.052  0.0985 -0.3361  0.9793
  366MPD2     C 5474   2.926   0.545  15.453 -0.1477 -0.5320  0.2286
  366MPD2    C1 5475   2.912   0.610  15.574 -0.0064 -0.3151 -0.5339
  366MPD2    C2 5476   3.026   0.676  15.621  0.1758 -0.5445 -0.2249
  366MPD2    C3 5477   3.138   0.699  15.545  0.1312 -0.0744  0.4709
  366MPD2    C4 5478   3.151   0.634  15.421  1.0761 -0.5846 -0.0787
  366MPD2    C5 5479   3.045   0.553  15.382  0.0994 -0.3731 -0.1265
  366MPD2     H 5480   3.017   0.745  15.704 -0.2118 -1.4274  0.4739
  366MPD2    H1 5481   3.240   0.645  15.360  0.0545 -0.9774 -1.6659
  366MPD2    H2 5482   2.845   0.483  15.416 -0.0778 -0.8302  0.5755
  366MPD2    H3 5483   3.055   0.501  15.287  0.8659  2.8547 -1.8278
  366MPD2     N 5484   3.225   0.807  15.584 -0.2102 -0.3825  0.4251
  366MPD2    H5 5485   3.212   0.852  15.674  0.1969 -2.4001  1.4940
  366MPD2    N1 5486   2.787   0.637  15.636 -0.1459 -0.3083 -0.9487
  366MPD2    H7 5487   2.788   0.706  15.711 -2.6737 -1.9547  0.6010
  367TMC3    C1 5488   2.572   0.701  15.634  0.3627  0.2449 -0.2825
  367TMC3    C2 5489   2.627   0.799  15.719 -0.0501 -0.3626 -0.3799
  367TMC3    C3 5490   2.602   0.927  15.700  0.0721 -0.4358 -0.0652
  367TMC3    C4 5491   2.488   0.733  15.535 -0.5631  0.3022 -0.4920
  367TMC3    C5 5492   2.456   0.869  15.516  0.4755 -0.7605 -0.8432
  367TMC3    C6 5493   2.516   0.963  15.596  0.7060 -0.2598  0.1678
  367TMC3     C 5494   2.667   0.604  15.590 -0.4474 -0.1561 -0.1609
  367TMC3     O 5495   2.629   0.527  15.505 -0.0470  0.3136  0.4742
  367TMC3     H 5496   2.679   0.772  15.809  0.1543  0.2162 -0.3272
  367TMC3    H1 5497   2.449   0.669  15.456 -1.0587  0.9857 -0.8074
  367TMC3    H2 5498   2.509   1.069  15.578  3.5597 -0.1586 -0.2834
  367TMC3    C7 5499   2.337   0.915  15.448  0.1462 -0.5295  0.6969
  367TMC3    C8 5500   2.658   1.025  15.799  0.1019 -0.7886  0.2104
  367TMC3    O1 5501   2.330   1.038  15.463  0.0423 -0.5116  0.6152
  367TMC3    O2 5502   2.769   1.002  15.852 -0.7328 -0.0270  0.2095
  368MPD2     C 5503   2.801   2.035  13.111  0.1583  1.0414 -0.2848
  368MPD2    C1 5504   2.833   2.167  13.144  0.7588 -0.3860 -0.6725
  368MPD2    C2 5505   2.972   2.196  13.176  0.3015  0.5337  0.1212
  368MPD2    C3 5506   3.061   2.095  13.182  0.2054  0.6023  0.2198
  368MPD2    C4 5507   3.020   1.968  13.153  0.6311  1.4352 -0.3466
  368MPD2    C5 5508   2.894   1.939  13.115  0.0877 -0.3096  0.8038
  368MPD2     H 5509   2.998   2.300  13.189  1.5640 -0.0449  2.1579
  368MPD2    H1 5510   3.087   1.884  13.146 -1.6472 -0.4662  0.5895
  368MPD2    H2 5511   2.705   2.007  13.068 -0.3290  0.6124  1.0834
  368MPD2    H3 5512   2.875   1.838  13.079  3.1902 -0.0189 -1.6024
  368MPD2     N 5513   3.201   2.131  13.206 -0.6103 -0.5275  0.1448
  368MPD2    H5 5514   3.220   2.229  13.220  0.2899 -0.4826 -1.3479
  368MPD2    N1 5515   2.742   2.272  13.117 -0.9732  0.2135  0.2370
  368MPD2    H7 5516   2.645   2.245  13.105 -0.8929 -0.6403  1.5033
  369TMC3    C1 5517   2.654   2.495  13.097  0.6654  0.2299  0.1979
  369TMC3    C2 5518   2.685   2.627  13.098 -0.4374 -0.0646 -0.0797
  369TMC3    C3 5519   2.585   2.721  13.071 -0.0228  0.2212 -0.3505
  369TMC3    C4 5520   2.524   2.458  13.091 -0.4845  0.0734 -0.6994
  369TMC3    C5 5521   2.430   2.553  13.076 -0.1871  0.5372  0.2352
  369TMC3    C6 5522   2.459   2.683  13.056 -0.2981  0.2022 -0.1470
  369TMC3     C 5523   2.760   2.407  13.136 -0.0507 -0.2698  0.7426
  369TMC3     O 5524   2.860   2.457  13.177 -0.5030 -0.1790 -0.4493
  369TMC3     H 5525   2.789   2.655  13.087 -0.7063  2.0297  2.7583
  369TMC3    H1 5526   2.494   2.362  13.132 -0.8034  1.0523  1.3655
  369TMC3    H2 5527   2.393   2.764  13.028  0.2686  0.4154 -0.8733
  369TMC3    C7 5528   2.294   2.500  13.089  0.3872 -0.3840  0.1287
  369TMC3    C8 5529   2.624   2.839  13.000 -0.2320 -0.1700 -0.0405
  369TMC3    O1 5530   2.268   2.383  13.098 -0.5938  0.1286  0.2440
  369TMC3    O2 5531   2.550   2.883  12.910 -0.1643 -0.0574  0.2511
  370TMC3    C1 5532   2.715   3.079  16.608  0.0543  0.1107  0.0585
  370TMC3    C2 5533   2.659   3.022  16.717  0.1125  0.2576 -0.1966
  370TMC3    C3 5534   2.658   2.882  16.725 -0.4765 -0.2924  0.5107
  370TMC3    C4 5535   2.758   3.007  16.503  0.3426  0.8418  0.6352
  370TMC3    C5 5536   2.752   2.872  16.511 -0.1144 -0.1916  0.5545
  370TMC3    C6 5537   2.708   2.803  16.617 -0.0622 -0.1062 -0.1296
  370TMC3     C 5538   2.665   3.217  16.587  0.0967  0.2887  0.0607
  370TMC3     O 5539   2.544   3.234  16.604 -0.3605  0.6173  0.0377
  370TMC3     H 5540   2.607   3.085  16.789  0.3779 -0.2880  0.4730
  370TMC3    H1 5541   2.795   3.051  16.412 -1.4782  0.1457 -0.4442
  370TMC3    H2 5542   2.730   2.698  16.630 -0.5440  0.3808  4.5574
  370TMC3    C7 5543   2.792   2.796  16.389  0.3801  0.2536  0.2211
  370TMC3    C8 5544   2.646   2.817  16.858  0.4877 -0.1090 -0.3861
  370TMC3    O1 5545   2.797   2.861  16.285  0.4876  0.0603  0.2573
  370TMC3    O2 5546   2.668   2.695  16.857  0.3344  0.2917  0.0927
  371TMC3    C1 5547   3.944   1.475  15.618 -0.0013  0.2499 -0.7116
  371TMC3    C2 5548   3.866   1.451  15.732  0.9024  0.3813 -0.3435
  371TMC3    C3 5549   3.830   1.563  15.807  0.6126  0.0621  0.8803
  371TMC3    C4 5550   3.982   1.594  15.570 -0.3381  0.9977 -0.4109
  371TMC3    C5 5551   3.947   1.698  15.651 -0.0761  0.6504 -0.3677
  371TMC3    C6 5552   3.877   1.689  15.767 -0.2211  0.7606 -0.3908
  371TMC3     C 5553   4.026   1.367  15.557 -0.2560  1.0260  0.2646
  371TMC3     O 5554   4.089   1.398  15.456 -0.4410  0.0384  0.3597
  371TMC3     H 5555   3.836   1.350  15.755 -0.3073  0.7265 -0.3643
  371TMC3    H1 5556   4.016   1.597  15.467 -1.0054 -2.4234 -0.7349
  371TMC3    H2 5557   3.844   1.778  15.820 -0.4638  0.5240 -0.1437
  371TMC3    C7 5558   4.005   1.834  15.620  0.3440  0.0436 -0.3237
  371TMC3    C8 5559   3.810   1.546  15.953 -0.1443 -0.0587 -0.2589
  371TMC3    O1 5560   3.969   1.935  15.683  0.2231  0.2499 -0.3772
  371TMC3    O2 5561   3.842   1.433  15.997 -0.4060  0.0012 -0.1804
  372MPD2     C 5562   3.833   2.671  13.219  0.0045 -0.9210 -0.1701
  372MPD2    C1 5563   3.923   2.641  13.326 -0.6891  0.0762 -0.1579
  372MPD2    C2 5564   3.876   2.558  13.421  0.3446 -0.4668  0.3719
  372MPD2    C3 5565   3.749   2.500  13.412  0.7305 -0.2757  0.3127
  372MPD2    C4 5566   3.661   2.532  13.311  0.1281 -0.4688 -0.1240
  372MPD2    C5 5567   3.711   2.611  13.214  0.0340  0.3412  0.2198
  372MPD2     H 5568   3.938   2.534  13.507 -2.1087  0.8645  2.4940
  372MPD2    H1 5569   3.559   2.498  13.312  0.1836 -0.6169  0.7309
  372MPD2    H2 5570   3.860   2.740  13.140 -0.2496 -0.6867 -0.0499
  372MPD2    H3 5571   3.648   2.633  13.129  0.5450  0.8953 -0.0121
  372MPD2     N 5572   3.715   2.416  13.520 -0.1095 -0.0079  0.0840
  372MPD2    H5 5573   3.789   2.398  13.587  0.4077  1.0887 -0.1984
  372MPD2    N1 5574   4.042   2.715  13.342  0.8382 -0.1881  0.3462
  372MPD2    H7 5575   4.098   2.695  13.424  0.8884  1.0213  0.6021
  373TMC3    C1 5576   3.598   2.249  13.637  0.2903  0.0642 -0.2914
  373TMC3    C2 5577   3.494   2.234  13.724  0.1601  0.0554  0.6761
  373TMC3    C3 5578   3.468   2.110  13.769 -1.1328 -0.4903 -0.0086
  373TMC3    C4 5579   3.691   2.152  13.610  0.2686 -0.0047  0.4523
  373TMC3    C5 5580   3.664   2.031  13.676  0.8414  0.0342 -0.4655
  373TMC3    C6 5581   3.545   1.998  13.741  0.3551  0.7510 -0.3648
  373TMC3     C 5582   3.586   2.360  13.540 -0.4693  0.0902 -0.2335
  373TMC3     O 5583   3.486   2.369  13.472  0.1440  0.2357 -0.4778
  373TMC3     H 5584   3.428   2.317  13.746 -3.2115 -2.1190 -1.3073
  373TMC3    H1 5585   3.770   2.169  13.538 -0.4450  0.5838 -0.1886
  373TMC3    H2 5586   3.535   1.904  13.795 -0.3364 -0.0139 -1.8465
  373TMC3    C7 5587   3.733   1.912  13.629  0.3893  0.2965  0.2919
  373TMC3    C8 5588   3.422   2.108  13.904 -0.2250  0.2435 -0.5152
  373TMC3    O1 5589   3.672   1.805  13.620  0.5609  0.0051 -1.0698
  373TMC3    O2 5590   3.415   1.992  13.956 -1.0210  0.3451 -0.1766
  374TMC3    C1 5591   4.465   2.893   9.526 -0.4765 -0.2238 -0.1617
  374TMC3    C2 5592   4.569   2.970   9.570  0.0754  0.5315  0.5692
  374TMC3    C3 5593   4.586   3.097   9.513  0.3259 -0.3637  0.3041
  374TMC3    C4 5594   4.389   2.946   9.424 -0.2803  0.5152  0.0115
  374TMC3    C5 5595   4.422   3.060   9.358 -0.4797 -0.0126  0.4091
  374TMC3    C6 5596   4.512   3.148   9.411  0.3019 -0.2312  0.1970
  374TMC3     C 5597   4.414   2.769   9.579 -0.2726  0.2855  0.0883
  374TMC3     O 5598   4.320   2.723   9.516 -1.0044  0.1461  0.2751
  374TMC3     H 5599   4.636   2.939   9.650  0.8919  1.8960  0.4118
  374TMC3    H1 5600   4.309   2.887   9.380  0.1989 -0.3138  0.2581
  374TMC3    H2 5601   4.533   3.244   9.366 -2.0312 -0.3629 -1.1693
  374TMC3    C7 5602   4.334   3.118   9.257 -0.7487  0.2593 -0.3316
  374TMC3    C8 5603   4.684   3.193   9.562 -0.1755 -0.5096  0.6099
  374TMC3    O1 5604   4.315   3.238   9.248 -0.2422  0.1105  0.1382
  374TMC3    O2 5605   4.678   3.310   9.531  0.1641 -0.1518 -0.2900
  375MPD2     C 5606   4.307   3.421  17.402 -0.0295 -0.0629  0.3408
  375MPD2    C1 5607   4.215   3.419  17.300 -0.2981  0.1332  0.6279
  375MPD2    C2 5608   4.245   3.365  17.175 -0.0575  0.1015  0.5113
  375MPD2    C3 5609   4.364   3.307  17.148  0.2869 -0.2419 -0.2257
  375MPD2    C4 5610   4.456   3.293  17.252  0.4956  0.0094 -0.1977
  375MPD2    C5 5611   4.425   3.352  17.373  0.9866  1.0023  0.1112
  375MPD2     H 5612   4.173   3.352  17.094  2.2431 -0.0859 -1.5019
  375MPD2    H1 5613   4.550   3.241  17.238 -0.4189 -2.3364  2.2860
  375MPD2    H2 5614   4.288   3.464  17.499 -1.7453  1.7858 -0.8111
  375MPD2    H3 5615   4.502   3.353  17.450  2.4958  0.2472 -1.3864
  375MPD2     N 5616   4.399   3.246  17.029 -0.3544 -0.0375  0.4092
  375MPD2    H5 5617   4.488   3.199  17.018 -0.3365  0.2651 -0.7538
  375MPD2    N1 5618   4.094   3.497  17.310  0.1673  1.1455  0.4339
  375MPD2    H7 5619   4.034   3.495  17.228  1.0052  0.2478 -0.1616
  376TMC3    C1 5620   4.408   3.197  16.797 -0.5076  0.1733  0.0398
  376TMC3    C2 5621   4.540   3.232  16.800 -0.3171  0.0900  0.1719
  376TMC3    C3 5622   4.609   3.216  16.686 -0.1449 -0.3340 -0.2679
  376TMC3    C4 5623   4.345   3.159  16.690 -0.1527 -0.0246 -0.7575
  376TMC3    C5 5624   4.419   3.141  16.572 -0.3648 -0.6828  0.5048
  376TMC3    C6 5625   4.556   3.173  16.566  0.1922  1.3295  0.0252
  376TMC3     C 5626   4.331   3.242  16.915 -1.0630  0.0514  0.3478
  376TMC3     O 5627   4.211   3.245  16.905  0.1733  0.0559  0.2245
  376TMC3     H 5628   4.582   3.300  16.874 -1.9217  0.9708  0.2816
  376TMC3    H1 5629   4.239   3.138  16.696  0.2978 -1.8535  0.7588
  376TMC3    H2 5630   4.617   3.162  16.477 -0.6425  0.1209 -0.4008
  376TMC3    C7 5631   4.350   3.132  16.445  0.2183  0.6861 -0.1806
  376TMC3    C8 5632   0.009   3.288  16.669  0.4900 -0.8961 -1.1314
  376TMC3    O1 5633   4.407   3.183  16.349  0.2129  0.0374 -0.0834
  376TMC3    O2 5634   0.008   3.361  16.575 -0.2850  0.0632  0.7427
  377MPD2     C 5635   2.146   3.099  12.435  0.4671  0.2422  0.1936
  377MPD2    C1 5636   2.179   2.993  12.518 -0.2777 -0.2902  0.1943
  377MPD2    C2 5637   2.084   2.944  12.605 -0.3573  0.0489  0.4211
  377MPD2    C3 5638   1.961   3.002  12.621  0.0026  0.1082 -0.0426
  377MPD2    C4 5639   1.932   3.106  12.538 -0.3440 -0.3940  0.0058
  377MPD2    C5 5640   2.020   3.152  12.446  0.2637  0.0802  0.5141
  377MPD2     H 5641   2.112   2.858  12.665  1.6328  1.8839  2.0977
  377MPD2    H1 5642   1.834   3.153  12.534  0.2918  0.9098 -0.1516
  377MPD2    H2 5643   2.218   3.147  12.370 -0.2433  2.2267  0.8728
  377MPD2    H3 5644   1.989   3.229  12.377  3.5076  0.9580  0.0170
  377MPD2     N 5645   1.857   2.966  12.713 -0.2366 -0.2952  0.3469
  377MPD2    H5 5646   1.773   3.023  12.718 -0.0026  0.0795 -0.0420
  377MPD2    N1 5647   2.309   2.935  12.499 -0.1643  0.1380  0.0914
  377MPD2    H7 5648   2.376   2.967  12.430 -2.5876  0.4133 -2.1152
  378TMC3    C1 5649   2.687   2.816  12.392  0.5657  0.4285  0.4986
  378TMC3    C2 5650   2.560   2.862  12.425 -0.0837 -0.5604 -0.5849
  378TMC3    C3 5651   2.505   2.819  12.544 -0.5753  0.3455  0.0490
  378TMC3    C4 5652   2.765   2.744  12.482 -0.4109 -0.6307 -0.2444
  378TMC3    C5 5653   2.712   2.721  12.601 -0.5839  0.7033  0.4256
  378TMC3    C6 5654   2.583   2.747  12.631  0.5998 -0.4947 -0.0915
  378TMC3     C 5655   2.745   2.863  12.269 -0.0475 -0.3644  0.1486
  378TMC3     O 5656   2.678   2.939  12.201  0.5869 -0.9749  0.0052
  378TMC3     H 5657   2.497   2.905  12.348 -1.1072  3.0463  2.2766
  378TMC3    H1 5658   2.861   2.704  12.455  0.1584  0.0998  0.6905
  378TMC3    H2 5659   2.554   2.725  12.733 -0.8022 -0.8060 -0.5572
  378TMC3    C7 5660   2.779   2.644  12.704 -0.1262 -0.4161  0.2894
  378TMC3    C8 5661   2.366   2.839  12.579 -0.1569  0.6747 -0.5099
  378TMC3    O1 5662   2.724   2.565  12.776 -0.4629  0.1667  0.0194
  378TMC3    O2 5663   2.314   2.779  12.669 -0.1541 -0.1005  0.4245
  379MPD2     C 5664   3.332   1.634  16.627 -0.3578  0.5062 -0.4286
  379MPD2    C1 5665   3.377   1.536  16.540  0.0192 -0.2480  0.0369
  379MPD2    C2 5666   3.451   1.428  16.594  0.3498  0.6902 -0.1088
  379MPD2    C3 5667   3.473   1.417  16.730 -0.2945 -0.7189  0.5614
  379MPD2    C4 5668   3.423   1.513  16.816 -0.1707  0.6881 -0.1176
  379MPD2    C5 5669   3.355   1.624  16.762 -0.2039 -0.1614 -0.1780
  379MPD2     H 5670   3.490   1.354  16.525 -0.8646 -0.8956  0.9132
  379MPD2    H1 5671   3.443   1.506  16.922 -3.3424 -0.5566  0.3709
  379MPD2    H2 5672   3.284   1.725  16.593  1.0788  1.6952  0.7265
  379MPD2    H3 5673   3.326   1.708  16.824  1.5782  1.0322 -0.9876
  379MPD2     N 5674   3.550   1.310  16.789 -0.2949  0.1706  0.7556
  379MPD2    H5 5675   3.548   1.306  16.891  2.1789 -2.8877  0.6819
  379MPD2    N1 5676   3.360   1.550  16.402 -1.2586  0.5569 -0.1313
  379MPD2    H7 5677   3.300   1.626  16.372 -1.2464 -0.4838 -2.7763
  380TMC3    C1 5678   3.340   1.485  16.178  0.5271  0.1585 -0.2219
  380TMC3    C2 5679   3.409   1.441  16.069  0.3813 -0.2255 -0.6331
  380TMC3    C3 5680   3.349   1.440  15.945  0.2734 -0.5378  0.3605
  380TMC3    C4 5681   3.208   1.515  16.172 -0.0709 -0.2883  0.1270
  380TMC3    C5 5682   3.148   1.492  16.051  0.5004 -0.4075  0.1866
  380TMC3    C6 5683   3.213   1.447  15.936  0.1174 -0.2206  0.1038
  380TMC3     C 5684   3.408   1.467  16.307 -0.6677  0.1723 -0.7904
  380TMC3     O 5685   3.499   1.384  16.307 -0.0946  0.1225 -0.1532
  380TMC3     H 5686   3.516   1.439  16.081  0.3703  2.7696 -0.0957
  380TMC3    H1 5687   3.157   1.541  16.264  0.6962 -0.8477  0.7079
  380TMC3    H2 5688   3.159   1.429  15.844 -1.0340  0.4112  0.6586
  380TMC3    C7 5689   3.007   1.516  16.043  0.1209  0.4508 -0.1683
  380TMC3    C8 5690   3.408   1.376  15.828 -0.0562 -0.0859  0.4817
  380TMC3    O1 5691   2.961   1.587  16.133  0.7657 -0.6505  0.1716
  380TMC3    O2 5692   3.360   1.399  15.717  0.2015  0.5848 -0.2493
  381TMC3    C1 5693   2.863   2.043  16.926  0.3361 -0.1878  0.3958
  381TMC3    C2 5694   2.908   2.135  16.842 -0.0251  0.7156  0.0193
  381TMC3    C3 5695   2.905   2.270  16.882 -0.0832  0.4295  0.5033
  381TMC3    C4 5696   2.795   2.069  17.040 -0.4034 -0.5245  0.7599
  381TMC3    C5 5697   2.795   2.201  17.080 -0.3892 -0.2430  0.1516
  381TMC3    C6 5698   2.852   2.299  17.010  0.1933  0.6264 -0.7089
  381TMC3     C 5699   2.905   1.906  16.898  0.6314 -0.6800  0.5272
  381TMC3     O 5700   2.972   1.892  16.797  0.7223  0.2172  0.3855
  381TMC3     H 5701   2.937   2.098  16.745 -2.0960  1.6699 -0.9555
  381TMC3    H1 5702   2.773   1.994  17.115 -1.4102 -1.6388 -0.6611
  381TMC3    H2 5703   2.866   2.389  17.068  1.0610 -0.8267  1.3293
  381TMC3    C7 5704   2.756   2.222  17.220 -0.4294  0.5632  0.0269
  381TMC3    C8 5705   2.959   2.372  16.793  1.0388  1.1623 -1.3329
  381TMC3    O1 5706   2.760   2.125  17.297  0.1795  0.1882  0.1613
  381TMC3    O2 5707   3.006   2.332  16.687 -0.3979 -0.6321 -0.2535
  382MPD2     C 5708   2.459   4.497  16.784 -0.7274 -0.3054 -0.3657
  382MPD2    C1 5709   2.438   4.486  16.921 -0.1408  0.4298 -0.5641
  382MPD2    C2 5710   2.389   4.366  16.979 -0.0352  0.3962  0.4665
  382MPD2    C3 5711   2.349   4.265  16.893  0.3944 -0.3463  0.8219
  382MPD2    C4 5712   2.365   4.283  16.755  0.0021  1.1400  0.8850
  382MPD2    C5 5713   2.430   4.388  16.702  0.0415 -0.0260  0.5557
  382MPD2     H 5714   2.392   4.358  17.087  1.6205 -0.0756  0.3821
  382MPD2    H1 5715   2.332   4.209  16.682  0.8046  4.6064 -2.9584
  382MPD2    H2 5716   2.501   4.588  16.743  1.5077 -2.7269 -3.5609
  382MPD2    H3 5717   2.457   4.384  16.597 -0.3285 -2.6281  0.5656
  382MPD2     N 5718   2.276   4.148  16.946 -0.7669 -0.5528 -0.8825
  382MPD2    H5 5719   2.249   4.081  16.874 -1.0216 -0.0304 -1.2692
  382MPD2    N1 5720   2.471   4.600  16.992  0.5412  0.3266 -0.1022
  382MPD2    H7 5721   2.493   4.680  16.934 -1.0303 -0.1584 -1.3827
  383TMC3    C1 5722   2.169   4.010  17.097  0.3157  0.0701 -0.3054
  383TMC3    C2 5723   2.061   3.994  17.011  0.1077  0.4429  0.4535
  383TMC3    C3 5724   1.980   3.889  17.034  0.3265 -0.4753 -0.2954
  383TMC3    C4 5725   2.197   3.921  17.196 -0.3265  0.3618  0.7602
  383TMC3    C5 5726   2.116   3.812  17.210 -0.0428 -0.6377 -0.5217
  383TMC3    C6 5727   1.996   3.797  17.137  0.3154 -0.1256 -0.3320
  383TMC3     C 5728   2.260   4.122  17.082 -0.0554 -0.2225  0.3579
  383TMC3     O 5729   2.329   4.155  17.178 -0.2494  0.0174 -0.6042
  383TMC3     H 5730   2.032   4.066  16.935  1.2817 -0.2383 -0.6199
  383TMC3    H1 5731   2.275   3.932  17.270 -0.1799 -0.1615  0.6831
  383TMC3    H2 5732   1.949   3.700  17.133  0.4507 -0.1194 -2.2571
  383TMC3    C7 5733   2.127   3.712  17.312 -0.1948  0.3883 -0.3798
  383TMC3    C8 5734   1.865   3.873  16.958  0.7819  1.0820 -0.2013
  383TMC3    O1 5735   2.059   3.613  17.300  0.0849 -0.2950  0.8200
  383TMC3    O2 5736   1.812   3.970  16.908  0.2205 -0.6450  0.5220
  384MPD2     C 5737   3.671   1.079  12.140  0.5005  1.3500 -0.0145
  384MPD2    C1 5738   3.671   0.986  12.240 -0.6246  0.1948 -0.5261
  384MPD2    C2 5739   3.763   0.880  12.228  0.1038  0.0046 -0.0388
  384MPD2    C3 5740   3.853   0.873  12.128 -0.0991  0.2416  0.3778
  384MPD2    C4 5741   3.857   0.970  12.029  0.5172  0.4088 -1.0157
  384MPD2    C5 5742   3.767   1.073  12.039 -0.8293 -0.2034  0.1966
  384MPD2     H 5743   3.771   0.819  12.317  2.1921  0.5630  0.1672
  384MPD2    H1 5744   3.934   0.974  11.953  0.6699 -0.6832 -0.9156
  384MPD2    H2 5745   3.597   1.158  12.147 -3.0144 -1.8500 -1.2902
  384MPD2    H3 5746   3.760   1.149  11.962 -1.4776 -2.3409 -1.8994
  384MPD2     N 5747   3.948   0.767  12.122 -0.6147 -0.0411  0.1243
  384MPD2    H5 5748   3.950   0.703  12.201  0.2102  1.3515  1.2184
  384MPD2    N1 5749   3.573   0.976  12.339  0.1819  0.0852 -0.3692
  384MPD2    H7 5750   3.573   0.896  12.401  0.1181  0.5252  0.2022
  385TMC3    C1 5751   4.087   0.600  12.029 -0.4629  1.1394 -0.3268
  385TMC3    C2 5752   4.056   0.516  11.924  0.1216 -0.0368 -0.3457
  385TMC3    C3 5753   4.029   0.389  11.964  0.6032  0.0247  0.4735
  385TMC3    C4 5754   4.079   0.564  12.161 -0.7904 -0.0399  0.1040
  385TMC3    C5 5755   4.016   0.447  12.184 -0.0886  0.8223 -0.3464
  385TMC3    C6 5756   3.994   0.353  12.088  0.0245  0.1270  0.4158
  385TMC3     C 5757   4.038   0.736  12.016 -0.1226  0.2861  0.0356
  385TMC3     O 5758   4.064   0.780  11.905  0.2905  0.0586  0.1894
  385TMC3     H 5759   4.042   0.544  11.820  2.2178 -1.1666 -0.9335
  385TMC3    H1 5760   4.115   0.633  12.237 -2.1326 -0.0023  0.7035
  385TMC3    H2 5761   3.971   0.251  12.116  1.9711 -0.6943 -1.0046
  385TMC3    C7 5762   3.911   0.464  12.285  0.2890 -0.3827 -0.9638
  385TMC3    C8 5763   4.001   0.297  11.862  0.5112  0.0497  0.5411
  385TMC3    O1 5764   3.888   0.579  12.316  0.6274 -0.2998 -0.1968
  385TMC3    O2 5765   3.997   0.338  11.747 -0.3537  0.4701  0.5180
  386TMC3    C1 5766   3.915   2.973  11.930 -0.0234  0.4538  0.4978
  386TMC3    C2 5767   3.961   2.984  11.801  0.0350 -0.7848  0.7030
  386TMC3    C3 5768   3.877   3.044  11.715  0.1006 -0.5529 -0.5587
  386TMC3    C4 5769   3.797   3.027  11.970  0.1412 -0.0805  0.0131
  386TMC3    C5 5770   3.713   3.085  11.883  0.6161  0.1279  0.2967
  386TMC3    C6 5771   3.753   3.092  11.750 -1.1439  0.2894  0.0743
  386TMC3     C 5772   4.000   2.919  12.034  0.1314  0.9267 -0.5392
  386TMC3     O 5773   3.985   2.975  12.140  1.0039 -0.3831  0.0196
  386TMC3     H 5774   4.047   2.930  11.764 -0.3314 -0.1073 -1.1667
  386TMC3    H1 5775   3.761   3.003  12.070  1.2652 -0.6120  0.2948
  386TMC3    H2 5776   3.694   3.140  11.672 -1.5627  0.9582  0.8103
  386TMC3    C7 5777   3.583   3.127  11.933 -0.6357  0.0504  0.1046
  386TMC3    C8 5778   3.900   3.026  11.571  0.1060  0.5085  0.8194
  386TMC3    O1 5779   3.536   3.069  12.026 -0.2100  0.1431 -0.3159
  386TMC3    O2 5780   3.802   3.016  11.499  0.1491 -0.0585 -0.2464
  387MPD2     C 5781   2.010   3.261   9.809  0.1441  0.5439 -0.5840
  387MPD2    C1 5782   2.060   3.219   9.929 -0.1825 -1.0066 -0.2516
  387MPD2    C2 5783   2.115   3.096   9.944  0.1013 -0.8584 -0.2441
  387MPD2    C3 5784   2.100   3.002   9.852  0.9843 -0.3523  0.2365
  387MPD2    C4 5785   2.056   3.037   9.730  0.3759 -0.7180 -0.2400
  387MPD2    C5 5786   2.017   3.170   9.706 -0.3710  1.0148 -0.4322
  387MPD2     H 5787   2.156   3.073  10.042 -0.5320 -0.3659  0.1354
  387MPD2    H1 5788   2.038   2.972   9.645  3.1579 -1.3214 -0.3875
  387MPD2    H2 5789   1.984   3.365   9.793  0.6733  0.5865 -1.1760
  387MPD2    H3 5790   1.973   3.187   9.608 -1.7441 -0.8307 -0.1358
  387MPD2     N 5791   2.108   2.870   9.897 -0.2517  0.2026 -0.4836
  387MPD2    H5 5792   2.107   2.855   9.998  2.7743  0.2490 -0.4470
  387MPD2    N1 5793   2.059   3.292  10.051 -0.4037 -0.0746  0.1067
  387MPD2    H7 5794   2.121   3.263  10.125  1.1014 -1.4257 -1.6696
  388TMC3    C1 5795   1.968   3.433  10.222 -0.1556  0.5781 -0.6047
  388TMC3    C2 5796   1.911   3.559  10.249  0.0181 -0.3808 -0.0085
  388TMC3    C3 5797   1.883   3.586  10.381  0.4047 -0.2541  0.0452
  388TMC3    C4 5798   1.983   3.337  10.318 -0.2003 -0.1755 -0.2575
  388TMC3    C5 5799   1.951   3.365  10.451  0.5957  0.0234  0.0140
  388TMC3    C6 5800   1.906   3.492  10.484  0.2387 -0.4365 -0.2163
  388TMC3     C 5801   1.989   3.407  10.079 -0.1853 -0.0364 -0.6309
  388TMC3     O 5802   1.930   3.473   9.992  0.5064  0.1466  0.3540
  388TMC3     H 5803   1.886   3.624  10.166  1.0906  1.6551  1.2551
  388TMC3    H1 5804   2.029   3.244  10.285 -0.4971 -0.1816 -0.6588
  388TMC3    H2 5805   1.874   3.514  10.585 -0.3279  0.8811 -0.6834
  388TMC3    C7 5806   1.883   3.260  10.513  1.0593 -0.3513  0.6443
  388TMC3    C8 5807   1.793   3.695  10.410 -0.6432  0.5898  0.2585
  388TMC3    O1 5808   1.774   3.271  10.570 -0.1595 -0.4789 -0.0845
  388TMC3    O2 5809   1.800   3.729  10.527 -0.1725 -0.2020  0.4989
  389MPD2     C 5810   0.867   1.390  11.503  0.0960 -0.4168 -0.3281
  389MPD2    C1 5811   0.900   1.303  11.402  0.4741 -0.1282 -0.3181
  389MPD2    C2 5812   0.845   1.177  11.395  0.6355  0.6864 -0.6074
  389MPD2    C3 5813   0.775   1.126  11.504 -0.2042 -0.4931 -0.4700
  389MPD2    C4 5814   0.737   1.209  11.609 -0.3370 -0.0695 -0.4754
  389MPD2    C5 5815   0.792   1.340  11.610  0.7936 -0.3220  1.1345
  389MPD2     H 5816   0.853   1.113  11.308  0.3072 -0.9215  0.5231
  389MPD2    H1 5817   0.678   1.186  11.697 -0.3913  1.7652 -0.0234
  389MPD2    H2 5818   0.894   1.495  11.512 -0.2958 -0.4841  1.6247
  389MPD2    H3 5819   0.758   1.411  11.684  0.6123  2.5107 -1.6485
  389MPD2     N 5820   0.725   0.995  11.511  0.2603 -1.1884 -0.1686
  389MPD2    H5 5821   0.683   0.969  11.599  1.8980 -1.4123  0.5532
  389MPD2    N1 5822   0.977   1.357  11.296  0.0084 -0.4034 -0.4504
  389MPD2    H7 5823   1.001   1.455  11.293 -0.9868 -0.1125  0.9723
  390TMC3    C1 5824   0.639   0.796  11.433 -0.4762 -0.2511 -0.1727
  390TMC3    C2 5825   0.631   0.757  11.563  0.0732  0.9485 -0.7493
  390TMC3    C3 5826   0.541   0.657  11.590 -0.0292 -0.8905 -0.1415
  390TMC3    C4 5827   0.581   0.732  11.326  0.2186  0.0235 -0.4890
  390TMC3    C5 5828   0.512   0.621  11.360 -0.0281  0.3938 -0.0481
  390TMC3    C6 5829   0.484   0.590  11.489  0.1204 -0.0722 -0.3858
  390TMC3     C 5830   0.705   0.918  11.399  0.1740 -0.1409  0.1224
  390TMC3     O 5831   0.717   0.947  11.280  0.4445  0.4210 -0.1608
  390TMC3     H 5832   0.681   0.808  11.645 -1.4884  0.1653  0.7011
  390TMC3    H1 5833   0.603   0.752  11.222  1.5371 -0.9451 -0.4059
  390TMC3    H2 5834   0.437   0.493  11.500 -2.6510  1.4366  0.9753
  390TMC3    C7 5835   0.427   0.570  11.262 -0.0905 -0.7482 -0.3990
  390TMC3    C8 5836   0.506   0.622  11.729  0.1774 -0.0166 -0.2658
  390TMC3    O1 5837   0.458   0.567  11.145 -0.3766  0.2287 -0.6512
  390TMC3    O2 5838   0.597   0.615  11.807 -0.5198 -0.1910  0.1997
  391MPD2     C 5839   0.166   2.549  10.704  0.4685 -0.2274  0.5380
  391MPD2    C1 5840   0.292   2.582  10.734 -0.0371  0.2805  0.5936
  391MPD2    C2 5841   0.376   2.632  10.628  0.0320  0.8433  0.2121
  391MPD2    C3 5842   0.331   2.663  10.506 -0.2951 -0.8921  0.4995
  391MPD2    C4 5843   0.201   2.623  10.477  0.2359  0.2841  0.6995
  391MPD2    C5 5844   0.124   2.565  10.575 -0.2042 -0.8414 -0.1369
  391MPD2     H 5845   0.481   2.656  10.642  0.0552  0.9193 -0.0901
  391MPD2    H1 5846   0.155   2.629  10.379  1.4887  1.5978  0.1896
  391MPD2    H2 5847   0.098   2.502  10.775 -1.3966  2.2571  0.3791
  391MPD2    H3 5848   0.030   2.520  10.545 -0.2650 -0.3813 -0.6380
  391MPD2     N 5849   0.426   2.714  10.421 -0.3207 -0.5725  0.4137
  391MPD2    H5 5850   0.508   2.754  10.466  0.0282 -0.7789 -0.0304
  391MPD2    N1 5851   0.326   2.581  10.868  0.2129  0.1683  0.6100
  391MPD2    H7 5852   0.257   2.542  10.931  0.2148  1.5068  1.4282
  392TMC3    C1 5853   0.500   2.818  10.224  0.2658  0.4995  0.2530
  392TMC3    C2 5854   0.490   2.831  10.092 -0.2807  0.4086 -0.8589
  392TMC3    C3 5855   0.554   2.919  10.017 -0.0086 -0.5349  0.7061
  392TMC3    C4 5856   0.569   2.913  10.292  0.3866  0.2804  0.2578
  392TMC3    C5 5857   0.634   3.011  10.222  0.1946 -0.2498 -0.3504
  392TMC3    C6 5858   0.634   3.010  10.084  0.0864  0.1154 -0.2298
  392TMC3     C 5859   0.401   2.740  10.286  0.7512  0.5256  0.4009
  392TMC3     O 5860   0.319   2.683  10.220  0.5621 -0.0078  0.2889
  392TMC3     H 5861   0.444   2.753  10.032 -0.3297 -0.7852  0.7383
  392TMC3    H1 5862   0.590   2.915  10.398  0.3708 -1.9615  0.3065
  392TMC3    H2 5863   0.677   3.093  10.029 -0.6631  0.9458  0.4178
  392TMC3    C7 5864   0.677   3.123  10.304  0.3352  0.5994  0.2052
  392TMC3    C8 5865   0.469   2.969   9.906 -0.2751  0.0822 -0.0713
  392TMC3    O1 5866   0.630   3.136  10.417 -0.3602 -0.4531 -0.1706
  392TMC3    O2 5867   0.402   2.885   9.846 -0.2502 -0.3025 -0.1052
  393TMC3    C1 5868   4.280   1.036  10.640 -0.2846  0.5603 -0.2954
  393TMC3    C2 5869   4.191   1.078  10.735  0.6772 -0.1737 -0.2550
  393TMC3    C3 5870   4.135   0.983  10.823  0.0319  0.8533  0.1030
  393TMC3    C4 5871   4.301   0.907  10.614 -0.2835  0.3510  0.3116
  393TMC3    C5 5872   4.235   0.814  10.697  0.0184 -0.3401  0.1538
  393TMC3    C6 5873   4.161   0.849  10.802 -0.5007 -0.0959 -0.5968
  393TMC3     C 5874   4.285   1.123  10.523  0.0402  0.3351  0.0924
  393TMC3     O 5875   4.187   1.191  10.504  0.5856  0.3040 -0.2228
  393TMC3     H 5876   4.164   1.183  10.748  0.0183 -0.3891  0.1463
  393TMC3    H1 5877   4.357   0.883  10.524 -2.3843  0.9793 -1.1531
  393TMC3    H2 5878   4.115   0.776  10.867 -1.4900 -1.3957 -2.7635
  393TMC3    C7 5879   4.239   0.682  10.646 -0.5424  0.5421  0.5763
  393TMC3    C8 5880   4.094   1.018  10.955  0.2539  0.4033  0.5171
  393TMC3    O1 5881   4.149   0.603  10.659 -0.4539 -1.2554  0.1603
  393TMC3    O2 5882   4.030   0.934  11.021 -0.0203  0.2048  0.3264
  394TMC3    C1 5883   1.083   1.370  11.087 -0.0399  0.0569 -0.7732
  394TMC3    C2 5884   1.005   1.468  11.029 -0.1536 -0.4353 -0.4185
  394TMC3    C3 5885   1.031   1.507  10.903  0.0629  0.4594  0.1583
  394TMC3    C4 5886   1.186   1.310  11.012  0.4469  0.1369  0.1532
  394TMC3    C5 5887   1.216   1.360  10.891 -0.6082  0.4701  0.0719
  394TMC3    C6 5888   1.139   1.461  10.835 -0.6672  0.5113  0.5715
  394TMC3     C 5889   1.026   1.286  11.193  0.1016  0.1436  1.1938
  394TMC3     O 5890   1.040   1.164  11.171 -0.6908  0.2486 -0.2119
  394TMC3     H 5891   0.908   1.497  11.068  0.7162  1.6533  0.2367
  394TMC3    H1 5892   1.246   1.237  11.065  0.9072 -0.2256 -0.8568
  394TMC3    H2 5893   1.162   1.489  10.733  2.0197 -1.7678  0.5230
  394TMC3    C7 5894   1.317   1.304  10.812 -0.0395  0.5474  1.0250
  394TMC3    C8 5895   0.915   1.542  10.818  0.7226 -0.0542  0.4731
  394TMC3    O1 5896   1.378   1.383  10.737 -0.3612  0.0081 -0.5922
  394TMC3    O2 5897   0.823   1.602  10.871 -0.3247 -0.2568 -0.4584
  395TMC3    C1 5898   1.221   3.476  14.668  0.1867 -0.5593 -0.0747
  395TMC3    C2 5899   1.124   3.537  14.583  0.1255  0.2093  0.5581
  395TMC3    C3 5900   1.144   3.662  14.532 -0.0914 -0.3985  0.1778
  395TMC3    C4 5901   1.329   3.551  14.688 -0.7474  0.1968  0.3075
  395TMC3    C5 5902   1.344   3.678  14.626 -0.1750  0.4696 -0.3334
  395TMC3    C6 5903   1.253   3.732  14.543 -0.7532  0.7135 -0.0116
  395TMC3     C 5904   1.220   3.348  14.743  0.1914 -0.4364 -0.8703
  395TMC3     O 5905   1.332   3.308  14.776  0.0683  0.1627 -0.3197
  395TMC3     H 5906   1.022   3.503  14.576  0.7201 -1.5646  0.3956
  395TMC3    H1 5907   1.402   3.524  14.764 -0.4252 -1.6787 -0.6723
  395TMC3    H2 5908   1.265   3.831  14.501 -1.1555  1.0084  0.5852
  395TMC3    C7 5909   1.428   3.779  14.691  0.1819 -0.2401 -0.2990
  395TMC3    C8 5910   1.060   3.710  14.425  0.0533  1.0097 -0.4468
  395TMC3    O1 5911   1.388   3.895  14.699  0.1632  0.3366  0.4210
  395TMC3    O2 5912   1.124   3.755  14.331 -0.4479 -0.2906  0.0995
  396MPD2     C 5913   0.118   0.149  17.334 -0.0747 -0.3522 -0.0537
  396MPD2    C1 5914   0.198   0.059  17.274  0.7056  0.7286  0.3727
  396MPD2    C2 5915   0.253   0.097  17.150  0.3799 -0.0297  0.1191
  396MPD2    C3 5916   0.238   0.226  17.097  0.7564 -0.3220 -0.2957
  396MPD2    C4 5917   0.154   0.312  17.160 -1.0183  0.1028 -0.9689
  396MPD2    C5 5918   0.099   0.267  17.276 -0.2595 -0.6901  0.4659
  396MPD2     H 5919   0.314   0.030  17.091 -0.7950 -1.5301  0.6176
  396MPD2    H1 5920   0.127   0.407  17.115 -0.5991  0.6606 -0.0632
  396MPD2    H2 5921   0.083   0.123  17.433  1.5362 -3.2539 -0.2555
  396MPD2    H3 5922   0.025   0.330  17.323  0.8285 -0.2155  1.5448
  396MPD2     N 5923   0.303   0.256  16.970  0.5068  0.7363 -0.5577
  396MPD2    H5 5924   0.353   0.179  16.928 -1.5683 -0.8911 -0.0703
  396MPD2    N1 5925   0.235   4.662  17.337  1.0194  0.5552  0.0287
  396MPD2    H7 5926   0.178   4.624  17.413  1.4132 -0.6912 -0.2935
  397TMC3    C1 5927   0.349   4.441  17.364 -0.1156  0.2118  0.1807
  397TMC3    C2 5928   0.462   4.370  17.326 -0.4527 -0.0631 -0.0743
  397TMC3    C3 5929   0.518   4.275  17.406 -0.2154 -0.2990 -0.6146
  397TMC3    C4 5930   0.316   4.426  17.496 -0.3384 -0.0505 -0.5352
  397TMC3    C5 5931   0.380   4.346  17.589  0.2941  0.9681  0.3354
  397TMC3    C6 5932   0.480   4.257  17.543  0.6006 -0.3853 -0.1129
  397TMC3     C 5933   0.341   4.577  17.303 -0.2495 -0.4310  0.4828
  397TMC3     O 5934   0.436   4.602  17.223 -0.4472 -0.8555 -0.6441
  397TMC3     H 5935   0.462   4.357  17.219 -0.9234 -0.6122 -0.0044
  397TMC3    H1 5936   0.245   4.491  17.545  0.1610  0.7940 -0.9359
  397TMC3    H2 5937   0.517   4.179  17.609  4.7096  1.1634 -0.5807
  397TMC3    C7 5938   0.310   4.318   0.018 -0.3477  0.4769 -0.4225
  397TMC3    C8 5939   0.554   4.160  17.324  0.2127  0.4854 -0.0163
  397TMC3    O1 5940   0.188   4.329   0.019 -0.1453 -0.5542 -0.7426
  397TMC3    O2 5941   0.490   4.055  17.347  0.0859  0.1276 -0.5905
  398MPD2     C 5942   3.470   0.981   0.246  0.7983  0.8421  0.0581
  398MPD2    C1 5943   3.557   0.890   0.304 -0.4052  0.0018 -0.3506
  398MPD2    C2 5944   3.600   0.916   0.433 -0.0299  0.0095  0.1874
  398MPD2    C3 5945   3.566   1.028   0.510 -0.2557 -0.4112  0.6785
  398MPD2    C4 5946   3.470   1.112   0.450  0.1141  0.4793 -0.1737
  398MPD2    C5 5947   3.425   1.084   0.320  0.4519 -0.3572 -0.2870
  398MPD2     H 5948   3.669   0.841   0.471 -1.4420 -1.1152  0.5156
  398MPD2    H1 5949   3.434   1.204   0.494  1.5422  1.5981 -1.3284
  398MPD2    H2 5950   3.443   0.975   0.141  0.4880  2.8390  0.0138
  398MPD2    H3 5951   3.364   1.159   0.272  3.5806  1.4747 -1.3685
  398MPD2     N 5952   3.618   1.055   0.641  0.4263  0.4120  0.2355
  398MPD2    H5 5953   3.576   1.137   0.683 -0.6588 -0.2940  0.5262
  398MPD2    N1 5954   3.597   0.778   0.237  0.5997  0.3242  0.1352
  398MPD2    H7 5955   3.654   0.718   0.296  0.6975  1.3720  1.1051
  399TMC3    C1 5956   3.567   0.585   0.104 -0.3080  0.3661  0.4191
  399TMC3    C2 5957   3.698   0.550   0.125  0.1224  0.7423  0.0575
  399TMC3    C3 5958   3.714   0.415   0.159  0.4611 -0.0509  0.5344
  399TMC3    C4 5959   3.461   0.502   0.088 -0.3725 -0.8538  0.5940
  399TMC3    C5 5960   3.483   0.375   0.119  0.6183  0.7373  0.0931
  399TMC3    C6 5961   3.609   0.327   0.149  0.2897  0.5509 -0.3535
  399TMC3     C 5962   3.527   0.718   0.136  0.3774  0.2097 -0.9123
  399TMC3     O 5963   3.437   0.762   0.061  0.6644  0.2021  0.3284
  399TMC3     H 5964   3.774   0.624   0.150 -1.0771  1.8646  0.3397
  399TMC3    H1 5965   3.359   0.538   0.089  0.0693  0.4430 -1.3932
  399TMC3    H2 5966   3.617   0.226   0.188 -0.3328  0.7076  0.1780
  399TMC3    C7 5967   3.372   0.287   0.153 -0.4585  0.0570 -1.1306
  399TMC3    C8 5968   3.850   0.363   0.188 -0.1907  0.3696 -0.7728
  399TMC3    O1 5969   3.386   0.204   0.244 -0.1508 -0.4842  0.1775
  399TMC3    O2 5970   3.931   0.437   0.236  0.1169 -0.3834 -0.1081
  400TMC3    C1 5971   1.878   3.835  16.536 -0.2459  0.0991  0.1596
  400TMC3    C2 5972   1.753   3.852  16.490 -0.0876  0.2270 -0.0106
  400TMC3    C3 5973   1.695   3.976  16.502  0.7443 -0.4695  0.3412
  400TMC3    C4 5974   1.945   3.937  16.604 -0.0024 -0.0313  0.5176
  400TMC3    C5 5975   1.890   4.060  16.602  0.2126  0.1769  0.0289
  400TMC3    C6 5976   1.760   4.082  16.553 -0.2405 -0.2390  0.0617
  400TMC3     C 5977   1.943   3.706  16.540  1.2280 -0.4756 -0.9045
  400TMC3     O 5978   2.053   3.706  16.593 -0.0482  0.0326 -0.5357
  400TMC3     H 5979   1.693   3.761  16.489 -0.5969  0.5981 -2.3603
  400TMC3    H1 5980   2.046   3.931  16.643  0.0773  2.4688  0.6493
  400TMC3    H2 5981   1.727   4.185  16.548  0.8766  0.2151  2.1366
  400TMC3    C7 5982   1.963   4.170  16.655 -0.1929  0.2436  0.4485
  400TMC3    C8 5983   1.557   3.996  16.454 -0.3258  0.4600 -0.1031
  400TMC3    O1 5984   2.082   4.157  16.673 -0.1363  0.4858  0.6245
  400TMC3    O2 5985   1.498   4.104  16.476 -0.2334 -0.0108  0.7121
  401MPD2     C 5986   0.027   2.632   0.490 -0.1452  0.2077 -0.3619
  401MPD2    C1 5987   0.076   2.655   0.618  0.4740  0.4343  0.5479
  401MPD2    C2 5988   0.180   2.572   0.659 -0.3328 -0.0828 -0.4359
  401MPD2    C3 5989   0.237   2.471   0.576 -0.0529 -0.2470  0.3340
  401MPD2    C4 5990   0.190   2.462   0.446  0.0466  0.0510 -0.4741
  401MPD2    C5 5991   0.083   2.540   0.409  0.3654  0.7806  0.3119
  401MPD2     H 5992   0.213   2.579   0.762 -2.1809  0.1642  0.1420
  401MPD2    H1 5993   0.224   2.385   0.377 -0.7581 -1.5969  0.9695
  401MPD2    H2 5994   4.669   2.692   0.451 -1.0689 -1.0569 -0.3916
  401MPD2    H3 5995   0.045   2.543   0.307 -0.4929  0.1970  0.6070
  401MPD2     N 5996   0.337   2.383   0.633 -0.1435 -0.1711  0.2206
  401MPD2    H5 5997   0.367   2.411   0.726  1.4526 -0.9485 -0.0670
  401MPD2    N1 5998   0.020   2.755   0.697 -0.2079  0.1129 -0.3024
  401MPD2    H7 5999   4.671   2.809   0.649  0.1751 -0.5397 -1.6037
  402TMC3    C1 6000   0.515   2.214   0.633 -0.2460 -0.6578 -0.7166
  402TMC3    C2 6001   0.482   2.161   0.757 -1.0006  0.2870 -0.0560
  402TMC3    C3 6002   0.558   2.052   0.804 -0.2712 -0.6763 -0.4332
  402TMC3    C4 6003   0.620   2.161   0.561  0.2137 -0.0345  0.5125
  402TMC3    C5 6004   0.697   2.057   0.616 -0.2848  0.2513  0.2945
  402TMC3    C6 6005   0.667   1.998   0.739 -0.5155 -0.0887  0.4643
  402TMC3     C 6006   0.406   2.285   0.559 -0.2138  0.6258 -0.5761
  402TMC3     O 6007   0.379   2.244   0.449 -0.2067 -0.2132  0.5395
  402TMC3     H 6008   0.383   2.177   0.799 -1.4764 -0.2091 -0.9782
  402TMC3    H1 6009   0.638   2.205   0.464  2.7391  0.2351  1.0863
  402TMC3    H2 6010   0.724   1.916   0.782 -1.1008 -0.5630  0.3483
  402TMC3    C7 6011   0.817   2.021   0.540  0.9121  0.2337  0.1353
  402TMC3    C8 6012   0.571   2.024   0.942  1.1806 -0.9655 -1.1895
  402TMC3    O1 6013   0.831   2.086   0.439  0.0615  0.3035  0.0021
  402TMC3    O2 6014   0.624   1.926   0.986 -0.0593 -0.5071  0.1349
  403MPD2     C 6015   3.414   0.223  13.825 -0.6184 -0.3169 -0.1086
  403MPD2    C1 6016   3.450   0.221  13.694 -0.0777  0.3819  0.0621
  403MPD2    C2 6017   3.556   0.307  13.662  0.1672 -0.1545  0.0113
  403MPD2    C3 6018   3.611   0.394  13.754 -0.5424  0.1121  0.0760
  403MPD2    C4 6019   3.573   0.391  13.886 -0.2503 -0.5679 -0.3914
  403MPD2    C5 6020   3.471   0.307  13.913 -0.0291 -0.1799  0.3277
  403MPD2     H 6021   3.584   0.307  13.557 -1.3262 -0.8994 -0.3865
  403MPD2    H1 6022   3.601   0.458  13.966 -0.0923 -0.7680 -0.2789
  403MPD2    H2 6023   3.339   0.152  13.857  0.2927 -0.6911  1.1898
  403MPD2    H3 6024   3.421   0.314  14.009  2.6773 -1.6329  1.8476
  403MPD2     N 6025   3.717   0.474  13.710 -0.0297 -1.1131 -0.0495
  403MPD2    H5 6026   3.749   0.456  13.616 -0.8496 -1.1300 -0.3305
  403MPD2    N1 6027   3.388   0.131  13.606 -0.2608  0.5651 -0.2978
  403MPD2    H7 6028   3.320   0.061  13.634  0.1125  2.0764  4.4486
  404TMC3    C1 6029   3.282   0.069  13.407  0.3743  0.6246 -0.4226
  404TMC3    C2 6030   3.163   0.106  13.460  0.6768 -0.3992  0.0296
  404TMC3    C3 6031   3.053   0.098  13.381  0.0975  0.4347  0.8738
  404TMC3    C4 6032   3.304   0.007  13.287 -0.6347  0.2552 -0.0577
  404TMC3    C5 6033   3.192   0.002  13.214  0.9681 -0.3261  1.0471
  404TMC3    C6 6034   3.063   0.045  13.255  0.0189 -0.5067 -0.2371
  404TMC3     C 6035   3.400   0.132  13.471  0.1577  0.3549 -0.5479
  404TMC3     O 6036   3.476   0.193  13.395  0.1224  0.2219  0.0642
  404TMC3     H 6037   3.148   0.143  13.561 -1.0038  1.2964 -0.8384
  404TMC3    H1 6038   3.404   4.717  13.245 -1.3191 -3.6021 -0.4544
  404TMC3    H2 6039   2.979   0.025  13.190 -2.0924 -1.3040  2.7576
  404TMC3    C7 6040   3.230   0.019  13.073 -0.5160  0.1930 -0.3028
  404TMC3    C8 6041   2.944   0.182  13.410 -0.1536  0.2887 -0.1879
  404TMC3    O1 6042   3.327   4.677  13.038 -0.1105  0.2274  0.0010
  404TMC3    O2 6043   2.874   0.217  13.319  0.1252 -0.4472  0.0639
  405MPD2     C 6044   3.928   1.241  14.689  0.3808 -0.4187  0.6506
  405MPD2    C1 6045   3.836   1.173  14.611 -0.2650 -0.3862 -0.5380
  405MPD2    C2 6046   3.715   1.235  14.591  0.0072  0.1939  0.0497
  405MPD2    C3 6047   3.696   1.365  14.639 -0.2714 -0.2601  0.5046
  405MPD2    C4 6048   3.795   1.427  14.708 -0.0241 -0.5236  0.4773
  405MPD2    C5 6049   3.916   1.366  14.728  0.8000  0.0259  0.3971
  405MPD2     H 6050   3.640   1.189  14.528  0.7148 -2.5839  1.2195
  405MPD2    H1 6051   3.784   1.519  14.764 -1.9012 -0.7539  0.4887
  405MPD2    H2 6052   4.015   1.185  14.721  1.2755  0.2020 -0.7024
  405MPD2    H3 6053   3.988   1.412  14.795  1.9347 -1.2854  0.0769
  405MPD2     N 6054   3.567   1.420  14.625 -0.0748  0.4154 -0.5903
  405MPD2    H5 6055   3.498   1.379  14.564 -1.0350  1.6989 -0.3625
  405MPD2    N1 6056   3.863   1.040  14.578  0.5112 -0.0890 -0.6565
  405MPD2    H7 6057   3.941   0.995  14.623  0.4214 -0.6531 -1.0539
  406TMC3    C1 6058   3.174   1.614  14.572 -0.4319 -0.0803 -0.6400
  406TMC3    C2 6059   3.114   1.492  14.597  0.6801  0.1039  0.1490
  406TMC3    C3 6060   3.184   1.392  14.654  0.5894  0.3532 -0.0922
  406TMC3    C4 6061   3.303   1.642  14.611 -0.2185 -0.2849  0.4841
  406TMC3    C5 6062   3.372   1.533  14.660  0.0964 -0.1154 -0.6198
  406TMC3    C6 6063   3.315   1.409  14.685 -0.1156  0.5296 -0.5398
  406TMC3     C 6064   3.091   1.732  14.556  0.5775 -0.2818  0.0849
  406TMC3     O 6065   3.146   1.835  14.527  0.3487 -0.2054 -0.0568
  406TMC3     H 6066   3.020   1.464  14.550  1.3166  0.3706 -1.2839
  406TMC3    H1 6067   3.344   1.742  14.613 -1.9964  0.4544 -0.0130
  406TMC3    H2 6068   3.363   1.329  14.740 -1.6794  0.7778  1.1943
  406TMC3    C7 6069   3.518   1.546  14.670  0.8179  0.0871 -0.1921
  406TMC3    C8 6070   3.133   1.257  14.639  0.1294 -0.3667  0.7997
  406TMC3    O1 6071   3.567   1.641  14.735 -0.2906  0.1410  0.0250
  406TMC3    O2 6072   3.009   1.238  14.652 -0.4836 -0.2909  0.1961
  407MPD2     C 6073   1.664   3.167   9.408  0.1541 -0.0505 -0.3796
  407MPD2    C1 6074   1.704   3.053   9.479 -1.2516  0.2948  0.2445
  407MPD2    C2 6075   1.721   3.064   9.615  0.3187  0.8909  0.0623
  407MPD2    C3 6076   1.677   3.169   9.685  0.0132  0.0715  0.7085
  407MPD2    C4 6077   1.638   3.283   9.609 -0.6122  0.1349  0.2247
  407MPD2    C5 6078   1.645   3.286   9.476  0.8914  0.2546  0.8649
  407MPD2     H 6079   1.756   2.977   9.671 -0.6213 -0.4491 -1.4501
  407MPD2    H1 6080   1.611   3.374   9.662 -0.5267 -0.6792  1.6420
  407MPD2    H2 6081   1.641   3.176   9.303 -2.7181  2.0847  0.4262
  407MPD2    H3 6082   1.612   3.379   9.430 -0.3575 -0.2403  0.7595
  407MPD2     N 6083   1.680   3.173   9.827  0.1040 -0.0523  0.0008
  407MPD2    H5 6084   1.644   3.262   9.859 -1.4764 -1.2086  1.4658
  407MPD2    N1 6085   1.717   2.926   9.427  0.1807  0.0177 -0.1306
  407MPD2    H7 6086   1.727   2.848   9.492  1.7439  1.7875  1.7267
  408TMC3    C1 6087   1.729   2.758   9.268 -0.4585  0.6301 -0.5514
  408TMC3    C2 6088   1.795   2.733   9.160 -0.2052 -0.7683  0.2798
  408TMC3    C3 6089   1.859   2.606   9.152 -0.1665  0.4432 -0.3746
  408TMC3    C4 6090   1.712   2.666   9.379  0.2949 -0.2599  0.4171
  408TMC3    C5 6091   1.766   2.542   9.364 -0.2995 -0.0630  0.1934
  408TMC3    C6 6092   1.842   2.512   9.249  0.5463  0.4658  0.2250
  408TMC3     C 6093   1.711   2.895   9.295 -0.5642 -0.0760  0.1577
  408TMC3     O 6094   1.726   2.967   9.197 -0.0063  0.3734  0.1407
  408TMC3     H 6095   1.814   2.807   9.083 -0.7859  0.0591  0.9372
  408TMC3    H1 6096   1.657   2.697   9.467  0.0154 -1.4667  0.6656
  408TMC3    H2 6097   1.892   2.417   9.235  2.2355  1.4354 -0.4092
  408TMC3    C7 6098   1.749   2.433   9.464  0.2268 -0.7813  0.3105
  408TMC3    C8 6099   1.990   2.627   9.089 -0.1243 -0.5292  0.1296
  408TMC3    O1 6100   1.775   2.317   9.415 -0.0967 -0.0882 -0.0245
  408TMC3    O2 6101   1.999   2.678   8.980  0.2594 -0.5843  0.0745
  409MPD2     C 6102   0.415   3.638  16.789  0.0448 -0.8145  0.8033
  409MPD2    C1 6103   0.518   3.632  16.885  0.1808  0.1583 -0.2789
  409MPD2    C2 6104   0.645   3.686  16.858  0.1622  0.2315  0.0599
  409MPD2    C3 6105   0.679   3.731  16.730 -0.6098  1.0153  0.3397
  409MPD2    C4 6106   0.577   3.731  16.635  0.5293 -0.6306 -0.1487
  409MPD2    C5 6107   0.452   3.679  16.659  0.4565  0.0141  0.3316
  409MPD2     H 6108   0.727   3.674  16.928  1.0151 -0.7326 -1.1100
  409MPD2    H1 6109   0.602   3.760  16.534 -1.0428  2.9437  0.5114
  409MPD2    H2 6110   0.318   3.592  16.802 -1.7392  2.3894 -1.2105
  409MPD2    H3 6111   0.380   3.668  16.578  1.1054 -2.1201  0.0252
  409MPD2     N 6112   0.805   3.786  16.691  0.4357  0.0349  0.3879
  409MPD2    H5 6113   0.817   3.812  16.593  1.1632  0.6482  0.6280
  409MPD2    N1 6114   0.499   3.576  17.011  0.2144  0.5100 -0.1746
  409MPD2    H7 6115   0.568   3.600  17.081 -1.7986 -0.8878  2.2852
  410TMC3    C1 6116   1.028   3.846  16.693 -0.0811 -0.1089 -0.5181
  410TMC3    C2 6117   1.155   3.812  16.724  0.0750  0.1027 -0.4405
  410TMC3    C3 6118   1.253   3.904  16.702 -0.3007 -1.0200  0.2437
  410TMC3    C4 6119   0.994   3.961  16.621 -0.1638  0.2384 -0.2546
  410TMC3    C5 6120   1.101   4.042  16.605 -0.5583 -0.1551  0.2741
  410TMC3    C6 6121   1.227   4.027  16.650 -0.9053 -0.0416  0.6071
  410TMC3     C 6122   0.923   3.782  16.762 -0.7379 -0.2087  0.3166
  410TMC3     O 6123   0.949   3.724  16.864 -0.2850  0.2557 -0.3711
  410TMC3     H 6124   1.184   3.721  16.774 -0.1479  0.7198  0.8073
  410TMC3    H1 6125   0.894   3.990  16.589 -0.1729 -0.5481 -0.9080
  410TMC3    H2 6126   1.303   4.104  16.641 -0.6665 -0.3767 -0.3186
  410TMC3    C7 6127   1.066   4.168  16.543 -0.0227  0.4123  0.1243
  410TMC3    C8 6128   1.380   3.870  16.745 -0.1859 -0.0746 -1.0058
  410TMC3    O1 6129   0.954   4.206  16.553  0.0357 -0.0772  0.1212
  410TMC3    O2 6130   1.449   3.960  16.779 -0.5366  0.0401 -0.0353
  411MPD2     C 6131   1.448   0.151  14.547 -0.2894  0.2071  0.6575
  411MPD2    C1 6132   1.368   0.100  14.644 -0.4767 -0.5805  0.2770
  411MPD2    C2 6133   1.326   4.687  14.640  1.0353 -0.2196 -0.0416
  411MPD2    C3 6134   1.362   4.613  14.527  0.2590 -0.7578 -0.2837
  411MPD2    C4 6135   1.442   4.674  14.437  0.2515  0.7264  0.2558
  411MPD2    C5 6136   1.492   0.073  14.450  0.9977  0.1662 -0.3024
  411MPD2     H 6137   1.253   4.658  14.714  0.9428 -0.8099 -0.3619
  411MPD2    H1 6138   1.464   4.615  14.349 -0.1402  0.4889  0.3157
  411MPD2    H2 6139   1.488   0.252  14.555 -0.3276  0.1736  1.2613
  411MPD2    H3 6140   1.552   0.109  14.368  1.7966  2.9300  1.5032
  411MPD2     N 6141   1.312   4.484  14.503 -0.7769 -0.3375  0.5302
  411MPD2    H5 6142   1.346   4.444  14.416  1.5251  2.5218  0.1076
  411MPD2    N1 6143   1.331   0.194  14.744 -0.0290  0.3455  0.4213
  411MPD2    H7 6144   1.349   0.291  14.718  0.7672 -0.1062 -0.7149
  412TMC3    C1 6145   1.163   4.301  14.532 -0.1447  0.8460 -0.6582
  412TMC3    C2 6146   1.044   4.245  14.594  0.4777  0.0152 -0.4518
  412TMC3    C3 6147   0.984   4.137  14.542  0.2246 -0.1239 -0.0975
  412TMC3    C4 6148   1.223   4.239  14.429  0.1940  0.1780 -0.2865
  412TMC3    C5 6149   1.168   4.120  14.390 -0.3054 -0.7587  0.4179
  412TMC3    C6 6150   1.050   4.073  14.437  0.9608  0.0037 -0.0456
  412TMC3     C 6151   1.215   4.425  14.585  0.1686  0.5281 -0.2939
  412TMC3     O 6152   1.166   4.460  14.693 -0.4393  0.0084  0.3136
  412TMC3     H 6153   0.986   4.310  14.659  0.4685 -1.3386  0.8959
  412TMC3    H1 6154   1.325   4.258  14.397  0.7806  0.2179  1.5923
  412TMC3    H2 6155   1.005   3.989  14.386  0.2267 -1.0885  2.4333
  412TMC3    C7 6156   1.180   4.099  14.248 -0.4137 -0.0013 -0.3712
  412TMC3    C8 6157   0.850   4.154  14.493  0.1582 -0.0605  0.2736
  412TMC3    O1 6158   1.288   4.124  14.193 -0.7552 -0.6249  0.5752
  412TMC3    O2 6159   0.840   4.175  14.373  0.0781  0.2769  0.5964
  413MPD2     C 6160   2.536   2.608  15.511 -0.3039 -1.2082  0.5671
  413MPD2    C1 6161   2.478   2.527  15.426 -0.3518 -0.6837  0.5493
  413MPD2    C2 6162   2.555   2.419  15.375  0.2696  0.0468  0.3824
  413MPD2    C3 6163   2.689   2.411  15.401  0.0331 -0.1607  0.0679
  413MPD2    C4 6164   2.747   2.498  15.490  0.1334  1.0333 -0.0063
  413MPD2    C5 6165   2.666   2.595  15.544 -0.5657  0.2238  1.0476
  413MPD2     H 6166   2.520   2.349  15.300  0.6738  0.9025 -0.6159
  413MPD2    H1 6167   2.850   2.502  15.523  0.1605  0.9713 -0.0862
  413MPD2    H2 6168   2.479   2.675  15.575  0.4469 -0.6234  0.6251
  413MPD2    H3 6169   2.702   2.661  15.621  0.3733  0.4661  0.3970
  413MPD2     N 6170   2.770   2.305  15.343 -0.1020 -0.2894  0.3692
  413MPD2    H5 6171   2.725   2.233  15.287  1.3683  0.8580 -2.3335
  413MPD2    N1 6172   2.338   2.541  15.404 -0.3047  0.2529  0.0878
  413MPD2    H7 6173   2.286   2.603  15.465 -0.7631 -0.2232  0.1853
  414TMC3    C1 6174   2.934   2.148  15.347 -0.1685  0.0190 -0.6494
  414TMC3    C2 6175   3.039   2.082  15.414 -0.4752  0.7040  0.6841
  414TMC3    C3 6176   3.065   1.949  15.390  0.5134  0.3010  0.7958
  414TMC3    C4 6177   2.864   2.081  15.249 -0.3771 -0.1550 -0.4803
  414TMC3    C5 6178   2.907   1.953  15.214 -0.8161 -0.0672 -0.2901
  414TMC3    C6 6179   2.992   1.878  15.294  0.4041 -0.7491  0.2079
  414TMC3     C 6180   2.906   2.286  15.369 -0.0387  0.2377  0.3240
  414TMC3     O 6181   2.996   2.352  15.421 -0.0684  0.1691 -0.2526
  414TMC3     H 6182   3.104   2.138  15.480 -2.6639  0.2012  3.2822
  414TMC3    H1 6183   2.793   2.126  15.181 -0.2855  2.0137  0.8915
  414TMC3    H2 6184   3.019   1.776  15.268 -1.1855 -1.2387  0.4843
  414TMC3    C7 6185   2.815   1.888  15.124 -0.8208  0.0533  0.1408
  414TMC3    C8 6186   3.190   1.884  15.421 -0.7619  0.0456  0.1303
  414TMC3    O1 6187   2.698   1.900  15.156 -0.1188 -0.2316  0.5144
  414TMC3    O2 6188   3.187   1.766  15.388  0.0503  0.1872 -0.3607
  415TMC3    C1 6189   3.633   4.609   9.701 -0.5632 -0.1473  1.0469
  415TMC3    C2 6190   3.747   4.644   9.633 -0.2975 -0.1669 -0.2694
  415TMC3    C3 6191   3.761   4.604   9.506  0.4338 -0.0606  0.1087
  415TMC3    C4 6192   3.531   4.535   9.643  0.2453 -0.6572  0.3323
  415TMC3    C5 6193   3.554   4.487   9.512 -0.1958  0.1561 -0.1312
  415TMC3    C6 6194   3.662   4.538   9.438  0.8962  0.4100 -0.0564
  415TMC3     C 6195   3.627   4.626   9.846 -0.5506  0.1436  0.3852
  415TMC3     O 6196   3.567   4.552   9.922  0.1823  0.0383 -0.2387
  415TMC3     H 6197   3.832   4.686   9.686 -1.0479 -0.8415  1.4491
  415TMC3    H1 6198   3.450   4.518   9.713 -0.5631  2.5192  0.1661
  415TMC3    H2 6199   3.684   4.506   9.336 -2.1064 -2.7697  0.2905
  415TMC3    C7 6200   3.446   4.434   9.444  0.3674 -0.8573 -0.0446
  415TMC3    C8 6201   3.892   4.616   9.445 -0.1595 -1.0671 -0.4390
  415TMC3    O1 6202   3.445   4.433   9.322 -0.5223  0.0921  0.0778
  415TMC3    O2 6203   3.927   4.538   9.360  0.3200  0.3415 -0.7203
  416MPD2     C 6204   0.360   4.104  11.336 -0.5535  0.3674  0.8254
  416MPD2    C1 6205   0.287   4.006  11.399  0.1600 -0.1912  0.1523
  416MPD2    C2 6206   0.303   3.877  11.365  0.3515 -0.3730 -0.4267
  416MPD2    C3 6207   0.383   3.837  11.261  0.3663 -0.6366  0.6208
  416MPD2    C4 6208   0.449   3.934  11.192  0.6936 -0.8301  0.2085
  416MPD2    C5 6209   0.441   4.068  11.228  0.6580  0.0476 -0.2209
  416MPD2     H 6210   0.227   3.812  11.408  1.3934 -0.3988  1.3824
  416MPD2    H1 6211   0.517   3.902  11.113  2.1126 -1.5198  1.6976
  416MPD2    H2 6212   0.341   4.210  11.344  0.9774  0.6058  1.1271
  416MPD2    H3 6213   0.495   4.144  11.172 -1.5048 -0.0024 -2.3536
  416MPD2     N 6214   0.389   3.705  11.210  0.0682  0.6600 -0.3028
  416MPD2    H5 6215   0.435   3.693  11.120  0.1803 -3.2904  0.2852
  416MPD2    N1 6216   0.179   4.057  11.475  0.6560 -1.0162 -0.0464
  416MPD2    H7 6217   0.157   4.155  11.465  1.9371 -0.6984  0.1943
  417TMC3    C1 6218   4.723   4.076  11.614 -0.4168 -0.3242 -0.2017
  417TMC3    C2 6219   4.662   4.042  11.735  0.1569 -0.0878  0.3677
  417TMC3    C3 6220   4.541   4.096  11.762  0.4615  0.2136 -0.0174
  417TMC3    C4 6221   4.660   4.159  11.522 -0.8129 -0.2602  0.1171
  417TMC3    C5 6222   4.535   4.209  11.554 -0.0433  0.2121  0.0751
  417TMC3    C6 6223   4.476   4.186  11.675  0.1215  0.1296  0.2322
  417TMC3     C 6224   0.110   3.996  11.574  0.4329  0.2945 -0.3454
  417TMC3     O 6225   0.132   3.886  11.628 -0.0410  0.6969  0.4242
  417TMC3     H 6226   4.719   3.981  11.804  1.0588 -0.0663 -0.3628
  417TMC3    H1 6227   4.713   4.199  11.436  3.4920 -1.8843  2.0210
  417TMC3    H2 6228   4.382   4.231  11.704 -1.4499 -0.2695 -4.2021
  417TMC3    C7 6229   4.461   4.303  11.460 -0.4887  0.5271 -0.1975
  417TMC3    C8 6230   4.519   4.130  11.903 -0.1275  0.3556 -0.0249
  417TMC3    O1 6231   4.523   4.349  11.366 -0.6327  0.3175  0.1401
  417TMC3    O2 6232   4.492   4.243  11.938  0.5003 -0.4780 -0.0256
  418TMC3    C1 6233   3.872   1.046   1.022 -0.4834 -0.0672 -0.3941
  418TMC3    C2 6234   3.858   1.030   0.889  1.4137 -0.3576 -0.7822
  418TMC3    C3 6235   3.730   1.036   0.835 -0.0762  0.1317 -0.0316
  418TMC3    C4 6236   3.760   1.065   1.110 -0.1119 -0.0120  0.1924
  418TMC3    C5 6237   3.638   1.079   1.052  0.9301 -1.1136  0.1917
  418TMC3    C6 6238   3.620   1.060   0.912  0.4594 -0.0771 -0.0238
  418TMC3     C 6239   4.002   1.016   1.075  0.1062 -0.0749  0.1625
  418TMC3     O 6240   4.100   1.003   0.999 -0.1246  0.0928 -0.1131
  418TMC3     H 6241   3.938   0.976   0.840  1.0239 -0.5350 -1.2145
  418TMC3    H1 6242   3.771   1.083   1.216  4.8646 -0.4242 -0.2811
  418TMC3    H2 6243   3.520   1.059   0.870  0.3025 -1.0191  0.3662
  418TMC3    C7 6244   3.530   1.041   1.141 -0.6308 -0.0013 -0.0043
  418TMC3    C8 6245   3.715   0.983   0.704 -0.0724  0.2379  0.5342
  418TMC3    O1 6246   3.558   1.001   1.253 -0.1843  0.7618 -0.0866
  418TMC3    O2 6247   3.803   0.914   0.652  0.5809 -0.2491 -0.2494
  419MPD2     C 6248   2.701   3.905  12.444 -0.0772 -0.2693 -0.8218
  419MPD2    C1 6249   2.625   4.024  12.449  0.0535  0.2148  0.0149
  419MPD2    C2 6250   2.569   4.065  12.565  1.0300 -0.4806 -0.7767
  419MPD2    C3 6251   2.554   3.980  12.670  0.3464  0.3713  0.2536
  419MPD2    C4 6252   2.625   3.860  12.671 -0.3316  0.3892  0.2415
  419MPD2    C5 6253   2.696   3.823  12.560  0.5897  0.3547  0.7362
  419MPD2     H 6254   2.499   4.148  12.568 -0.4750 -1.8032  0.5240
  419MPD2    H1 6255   2.640   3.806  12.763 -0.8997 -0.8540 -0.3796
  419MPD2    H2 6256   2.749   3.866  12.355 -1.4698 -1.4179 -1.0680
  419MPD2    H3 6257   2.752   3.730  12.565  1.4048  0.6793 -2.4518
  419MPD2     N 6258   2.474   4.025  12.777 -0.3629  0.1077  0.1786
  419MPD2    H5 6259   2.420   4.109  12.755 -0.2031  0.6975  2.0268
  419MPD2    N1 6260   2.598   4.108  12.335 -0.3217 -0.1882  0.8702
  419MPD2    H7 6261   2.556   4.198  12.357 -0.5245 -0.3189  1.0158
  420TMC3    C1 6262   2.352   4.038  12.969  0.1385  0.1346  0.2808
  420TMC3    C2 6263   2.258   4.118  12.897 -0.0853 -1.3158 -0.2154
  420TMC3    C3 6264   2.160   4.178  12.970  0.3136 -0.3948  0.4250
  420TMC3    C4 6265   2.355   4.036  13.101  0.1781 -0.4653  0.0152
  420TMC3    C5 6266   2.255   4.101  13.172  0.1936  0.0310  0.0757
  420TMC3    C6 6267   2.156   4.171  13.106 -0.4763 -0.3219 -0.4098
  420TMC3     C 6268   2.447   3.969  12.896  0.2799 -0.1919 -0.8921
  420TMC3     O 6269   2.496   3.871  12.948 -0.0439 -0.7172  0.3513
  420TMC3     H 6270   2.255   4.116  12.789 -0.8458  1.2938 -0.2667
  420TMC3    H1 6271   2.424   3.972  13.155  0.0570  0.1185  0.8568
  420TMC3    H2 6272   2.079   4.219  13.165  0.2877 -0.1242  0.4389
  420TMC3    C7 6273   2.237   4.071  13.315 -0.5764  0.0695 -0.1041
  420TMC3    C8 6274   2.062   4.247  12.895  0.6688  0.5097 -0.6083
  420TMC3    O1 6275   2.324   4.009  13.373  0.1668 -0.2465  0.9333
  420TMC3    O2 6276   2.097   4.297  12.788 -0.3218  0.0869 -0.4121
  421TMC3    C1 6277   3.874   0.647  13.714  0.0430  0.4329  0.3281
  421TMC3    C2 6278   3.874   0.780  13.741  0.2022 -0.0900  0.2741
  421TMC3    C3 6279   4.000   0.843  13.746  0.2523  0.1733  0.3466
  421TMC3    C4 6280   3.982   0.579  13.669 -0.0025 -0.5197  0.7661
  421TMC3    C5 6281   4.095   0.648  13.646  0.5859 -0.6707 -0.1032
  421TMC3    C6 6282   4.106   0.778  13.690  0.3600 -0.0119  0.0820
  421TMC3     C 6283   3.776   0.572  13.788 -0.4102 -0.2426 -0.4390
  421TMC3     O 6284   3.749   0.612  13.904  0.3410 -0.6120 -0.4149
  421TMC3     H 6285   3.782   0.817  13.784 -1.0690 -2.8230 -0.0945
  421TMC3    H1 6286   3.976   0.472  13.652 -0.2830 -0.3272 -0.3723
  421TMC3    H2 6287   4.207   0.816  13.704 -0.5635  2.0942  0.9660
  421TMC3    C7 6288   4.214   0.569  13.651 -0.5732 -0.2321 -1.1193
  421TMC3    C8 6289   4.021   0.957  13.836  0.1649  0.0624 -0.3776
  421TMC3    O1 6290   4.320   0.631  13.672  0.1501  0.8136  0.3891
  421TMC3    O2 6291   4.119   1.033  13.832 -0.0068  0.0783  0.7658
  422TMC3    C1 6292   1.051   2.189  12.504 -0.3041  1.1619 -0.2104
  422TMC3    C2 6293   1.017   2.317  12.531 -0.0559 -0.2189  0.2545
  422TMC3    C3 6294   0.898   2.348  12.576  1.1450 -0.3042  0.0535
  422TMC3    C4 6295   0.966   2.087  12.522 -0.6362  0.0978  0.0363
  422TMC3    C5 6296   0.844   2.114  12.584  0.4159  0.6351 -0.4785
  422TMC3    C6 6297   0.806   2.250  12.607  0.4019  0.1521  0.1635
  422TMC3     C 6298   1.165   2.162  12.421 -0.2838 -0.3661  0.1519
  422TMC3     O 6299   1.220   2.257  12.370 -0.0445 -0.1540  0.3743
  422TMC3     H 6300   1.074   2.398  12.486  2.7321 -2.2248  0.1876
  422TMC3    H1 6301   0.986   1.982  12.505 -1.2723  0.4939 -3.0881
  422TMC3    H2 6302   0.702   2.261  12.636  0.5630 -0.1689  0.8594
  422TMC3    C7 6303   0.743   2.023  12.546 -0.2878  0.7247  0.4222
  422TMC3    C8 6304   0.871   2.481  12.629 -0.8483  0.4523  1.4738
  422TMC3    O1 6305   0.750   1.956  12.447 -1.0066  0.4982 -0.0511
  422TMC3    O2 6306   0.973   2.544  12.663  0.0224 -0.4225  0.6815
  423MPD2     C 6307   2.380   3.410   0.974  0.2455 -0.2691  0.2788
  423MPD2    C1 6308   2.390   3.275   1.003  0.5820 -0.7285  0.2679
  423MPD2    C2 6309   2.434   3.182   0.904 -0.5683  0.0941 -0.2964
  423MPD2    C3 6310   2.456   3.228   0.772 -0.8025 -0.2639  0.0764
  423MPD2    C4 6311   2.436   3.362   0.744  0.6138  0.3375 -0.2691
  423MPD2    C5 6312   2.399   3.454   0.843  0.2338 -0.5062 -0.0938
  423MPD2     H 6313   2.443   3.078   0.933 -0.1434  0.4608  0.8954
  423MPD2    H1 6314   2.443   3.394   0.641 -0.5977  2.2268  0.2601
  423MPD2    H2 6315   2.364   3.488   1.047  1.9925  2.0424 -1.8175
  423MPD2    H3 6316   2.370   3.554   0.813 -1.9329 -1.3872 -0.9353
  423MPD2     N 6317   2.482   3.131   0.663  0.3181 -0.0181  0.4833
  423MPD2    H5 6318   2.488   3.171   0.570 -2.1621  3.6585  1.8719
  423MPD2    N1 6319   2.364   3.238   1.135 -0.3752  0.3783  0.1033
  423MPD2    H7 6320   2.400   3.153   1.176 -0.6472  0.1647 -0.1001
  424TMC3    C1 6321   2.290   3.261   1.352  0.7231 -0.4981 -0.0234
  424TMC3    C2 6322   2.416   3.215   1.396  1.0199  0.1476 -0.1134
  424TMC3    C3 6323   2.473   3.281   1.497 -0.0268 -0.6419 -0.2598
  424TMC3    C4 6324   2.215   3.339   1.434 -0.0434 -0.3261  0.2976
  424TMC3    C5 6325   2.277   3.396   1.544  0.4767  0.2440 -0.5581
  424TMC3    C6 6326   2.407   3.375   1.580 -0.4487  0.0676  0.3334
  424TMC3     C 6327   2.287   3.312   1.220 -0.3795 -0.0049 -0.0497
  424TMC3     O 6328   2.209   3.406   1.196 -0.0283  0.6141  0.0403
  424TMC3     H 6329   2.477   3.152   1.332 -0.1749 -3.1804  2.0444
  424TMC3    H1 6330   2.108   3.349   1.419  0.0288  0.1958  0.1135
  424TMC3    H2 6331   2.456   3.422   1.664 -0.8422 -0.2242  0.7312
  424TMC3    C7 6332   2.194   3.454   1.649  0.6850 -0.1108  0.1431
  424TMC3    C8 6333   2.589   3.207   1.554 -0.3029 -0.3298  0.2934
  424TMC3    O1 6334   2.100   3.524   1.615  0.1779 -0.0359  0.7883
  424TMC3    O2 6335   2.592   3.089   1.529  0.0501 -0.1326 -0.5347
  425MPD2     C 6336   1.456   2.879  17.492  0.2734  0.3787  0.0151
  425MPD2    C1 6337   1.402   2.754  17.489  0.4550 -0.4081 -0.5782
  425MPD2    C2 6338   1.264   2.741  17.494  0.3519 -0.4604  0.1579
  425MPD2    C3 6339   1.180   2.853  17.510  0.2160 -0.1915  0.7833
  425MPD2    C4 6340   1.242   2.978  17.504  0.3993 -0.2967 -0.2406
  425MPD2    C5 6341   1.381   2.990  17.505  0.1819  0.4469 -0.0423
  425MPD2     H 6342   1.221   2.644  17.475 -1.5875  0.3457  0.4431
  425MPD2    H1 6343   1.188   3.071  17.495  1.6992  0.2467 -2.3191
  425MPD2    H2 6344   1.563   2.894  17.487  0.0010  1.6907 -1.8065
  425MPD2    H3 6345   1.432   3.085  17.494 -0.7402  1.0564  0.9343
  425MPD2     N 6346   1.044   2.833  17.488  0.2880 -0.0489 -0.9720
  425MPD2    H5 6347   1.020   2.740  17.454  0.0698  0.7821 -3.0858
  425MPD2    N1 6348   1.485   2.638  17.469  0.1333 -0.2216  0.4197
  425MPD2    H7 6349   1.436   2.550  17.476 -1.3046  0.5855  0.5714
  426TMC3    C1 6350   1.668   2.500  17.428  0.0201 -0.4176  0.3266
  426TMC3    C2 6351   1.666   2.456  17.295 -0.0175 -0.3635  0.4895
  426TMC3    C3 6352   1.653   2.319  17.278  0.0350  0.3422  0.6150
  426TMC3    C4 6353   1.642   2.419  17.538  0.2280 -0.0358 -0.1110
  426TMC3    C5 6354   1.670   2.289  17.512 -0.7430 -0.2042 -0.0632
  426TMC3    C6 6355   1.668   2.233  17.385  0.0285  0.7281  0.0328
  426TMC3     C 6356   1.620   2.634  17.439  0.3525 -0.3404 -0.8649
  426TMC3     O 6357   1.688   2.722  17.386 -0.1662 -0.2256 -0.0139
  426TMC3     H 6358   1.682   2.533  17.221 -1.8459  0.0148  0.5013
  426TMC3    H1 6359   1.640   2.457  17.640 -0.1547  0.8872 -0.4589
  426TMC3    H2 6360   1.668   2.125  17.371 -3.2629  1.0650 -2.5158
  426TMC3    C7 6361   1.680   2.198  17.616  0.4114  0.6623 -0.8112
  426TMC3    C8 6362   1.667   2.269  17.140  0.2903  0.4975  0.0771
  426TMC3    O1 6363   1.762   2.109  17.602  0.9960  0.0779  0.0487
  426TMC3    O2 6364   1.707   2.154  17.128 -0.2594 -0.0937  0.0302
  427MPD2     C 6365   0.365   4.262  14.812 -1.0220 -1.1608  0.3801
  427MPD2    C1 6366   0.317   4.230  14.939 -0.6074  0.4445 -0.0363
  427MPD2    C2 6367   0.178   4.231  14.958  0.2019  0.9592  0.1198
  427MPD2    C3 6368   0.085   4.265  14.860 -0.5117 -0.0556 -0.1531
  427MPD2    C4 6369   0.133   4.286  14.735  0.8343  0.2495 -0.0060
  427MPD2    C5 6370   0.271   4.283  14.716  0.1790  0.4090  0.0580
  427MPD2     H 6371   0.147   4.221  15.062  0.1798 -2.0675 -0.1834
  427MPD2    H1 6372   0.067   4.296  14.650  2.9935 -0.8135 -1.8257
  427MPD2    H2 6373   0.469   4.280  14.789 -1.5401  0.7829 -0.4237
  427MPD2    H3 6374   0.311   4.306  14.618  0.4588  1.0526  0.3216
  427MPD2     N 6375   4.667   4.257  14.872  0.3105 -0.0006 -0.0149
  427MPD2    H5 6376   4.619   4.275  14.785  2.4464 -0.6819 -1.3239
  427MPD2    N1 6377   0.402   4.198  15.050 -0.2762 -0.7747  0.0762
  427MPD2    H7 6378   0.355   4.159  15.131 -0.1493 -1.8848 -0.3891
  428TMC3    C1 6379   0.585   4.185  15.195  0.1750  0.5185  0.9770
  428TMC3    C2 6380   0.562   4.055  15.237 -0.6206 -0.4103 -0.2123
  428TMC3    C3 6381   0.608   4.022  15.362  0.0076 -0.4820 -0.3420
  428TMC3    C4 6382   0.659   4.273  15.267 -0.6660  0.5512  0.1728
  428TMC3    C5 6383   0.708   4.230  15.383 -0.6749  0.0925 -0.5083
  428TMC3    C6 6384   0.679   4.109  15.437 -0.7141  0.1881 -0.4070
  428TMC3     C 6385   0.538   4.213  15.061  0.1129 -0.0396 -0.6501
  428TMC3     O 6386   0.615   4.277  14.990 -0.0224 -0.1690 -0.9078
  428TMC3     H 6387   0.481   3.994  15.198  0.5329 -0.3238 -2.7487
  428TMC3    H1 6388   0.675   4.371  15.223 -0.6161  1.1106  1.4310
  428TMC3    H2 6389   0.720   4.084  15.534  0.1749  0.6965 -0.6538
  428TMC3    C7 6390   0.793   4.321  15.457 -0.1348  0.3815  0.5030
  428TMC3    C8 6391   0.607   3.883  15.402  0.7470  0.3948 -0.2708
  428TMC3    O1 6392   0.805   4.298  15.576  0.0923  0.9187 -0.6266
  428TMC3    O2 6393   0.619   3.793  15.324 -0.0614 -0.1481 -0.1014
  429MPD2     C 6394   1.250   4.713   0.028  0.6947  0.4372  0.5106
  429MPD2    C1 6395   1.300   4.614  17.641  0.7310 -0.7684 -0.0193
  429MPD2    C2 6396   1.352   4.651  17.524  0.4750  0.3003 -0.0989
  429MPD2    C3 6397   1.351   0.062  17.476 -1.3005 -0.5159  0.5727
  429MPD2    C4 6398   1.288   0.156  17.554 -0.0559 -0.6548 -0.4306
  429MPD2    C5 6399   1.247   0.122  17.682 -0.1706  0.1218 -0.5040
  429MPD2     H 6400   1.393   4.578  17.455  1.2006  0.1210  0.5217
  429MPD2    H1 6401   1.273   0.259  17.523 -0.8598 -0.8836 -0.7858
  429MPD2    H2 6402   1.205   4.686   0.123 -1.9818 -0.2574 -0.9530
  429MPD2    H3 6403   1.204   0.204   0.047  3.3211  0.7835  1.2181
  429MPD2     N 6404   1.396   0.077  17.340 -0.0957 -0.2022  0.3586
  429MPD2    H5 6405   1.427   4.720  17.287  0.5232  0.3184 -0.0582
  429MPD2    N1 6406   1.299   4.478  17.675  0.2971 -0.2519 -0.4557
  429MPD2    H7 6407   1.357   4.413  17.623  0.0948  0.1197 -1.1454
  430TMC3    C1 6408   1.413   0.176  17.121 -0.2212 -0.3336 -0.1229
  430TMC3    C2 6409   1.326   0.236  17.038 -0.5288 -0.5756 -0.0853
  430TMC3    C3 6410   1.335   0.196  16.908  0.7899 -0.3176 -0.4167
  430TMC3    C4 6411   1.498   0.070  17.084  0.4664 -0.3979  0.0360
  430TMC3    C5 6412   1.484   0.025  16.956  0.4386 -0.6405 -0.4289
  430TMC3    C6 6413   1.407   0.092  16.868 -0.0249  0.1008 -0.2595
  430TMC3     C 6414   1.387   0.193  17.263 -0.8182 -0.6403  0.1968
  430TMC3     O 6415   1.345   0.299  17.301  0.4621 -0.4921  0.6214
  430TMC3     H 6416   1.253   0.306  17.078 -1.5228 -0.9814 -1.1906
  430TMC3    H1 6417   1.563   0.022  17.157  1.3494 -1.6827 -1.6050
  430TMC3    H2 6418   1.400   0.048  16.770  0.8518 -0.2709 -0.1544
  430TMC3    C7 6419   1.574   4.655  16.899  0.7721 -0.3895  0.9090
  430TMC3    C8 6420   1.223   0.218  16.822 -0.2470  0.3908 -0.0726
  430TMC3    O1 6421   1.534   4.603  16.795  0.7374 -0.0334  0.8392
  430TMC3    O2 6422   1.183   0.116  16.761 -0.1054 -0.0881 -0.3478
  431MPD2     C 6423   2.205   4.618  12.589  0.4001 -0.2575  0.0535
  431MPD2    C1 6424   2.293   4.671  12.487  0.2050 -0.3731  0.2548
  431MPD2    C2 6425   2.318   4.603  12.365 -0.2153 -0.1416  0.5802
  431MPD2    C3 6426   2.255   4.478  12.344  0.1305  0.8402 -1.1279
  431MPD2    C4 6427   2.168   4.432  12.442 -0.3416  0.3911  0.1072
  431MPD2    C5 6428   2.146   4.497  12.556 -0.2200 -0.1477  0.1364
  431MPD2     H 6429   2.379   4.644  12.285 -0.8374 -0.6642 -0.1725
  431MPD2    H1 6430   2.118   4.338  12.420 -0.5144  0.0991  1.7065
  431MPD2    H2 6431   2.187   4.662  12.686  1.2464 -0.7981  0.4600
  431MPD2    H3 6432   2.077   4.450  12.625 -1.6456  0.6603 -0.7231
  431MPD2     N 6433   2.271   4.399  12.228 -0.5747 -0.4104  0.4769
  431MPD2    H5 6434   2.240   4.303  12.218 -2.4280 -0.0630  2.9578
  431MPD2    N1 6435   2.359   0.072  12.498 -0.4007  0.3074 -0.4388
  431MPD2    H7 6436   2.413   0.098  12.417  0.6542  1.8001  0.7587
  432TMC3    C1 6437   2.425   4.346  12.049 -0.3257 -0.2282  0.4262
  432TMC3    C2 6438   2.501   4.394  11.950 -0.0849 -0.3053  0.1149
  432TMC3    C3 6439   2.627   4.346  11.937 -0.4508 -0.4155 -0.1298
  432TMC3    C4 6440   2.479   4.258  12.145  0.4481  0.3713 -1.1277
  432TMC3    C5 6441   2.598   4.197  12.116 -0.1574  0.2410  0.5589
  432TMC3    C6 6442   2.676   4.244  12.018  0.5823 -0.5671 -0.5418
  432TMC3     C 6443   2.341   4.442  12.116  0.4718  0.1248  0.4932
  432TMC3     O 6444   2.344   4.555  12.072 -0.5392  0.3819  0.4156
  432TMC3     H 6445   2.468   4.476  11.888  0.6465  0.7587  1.1190
  432TMC3    H1 6446   2.414   4.191  12.200  2.2486 -1.8906 -1.7574
  432TMC3    H2 6447   2.774   4.199  12.004  1.0795  0.4703 -0.3347
  432TMC3    C7 6448   2.641   4.088  12.205 -0.2239 -0.0126 -0.1364
  432TMC3    C8 6449   2.706   4.418  11.839  0.0255 -0.1411 -0.1847
  432TMC3    O1 6450   2.717   4.008  12.159 -0.3030  0.6015  0.4683
  432TMC3    O2 6451   2.652   4.508  11.774 -0.1896  0.2144 -1.1854
  433MPD2     C 6452   1.164   3.324  11.090  0.2740  0.4070 -0.1674
  433MPD2    C1 6453   1.093   3.216  11.133  0.0045  0.1735  0.3636
  433MPD2    C2 6454   1.105   3.173  11.264  0.7657 -0.3936  0.1474
  433MPD2    C3 6455   1.192   3.237  11.354  0.1954 -0.3258  0.5188
  433MPD2    C4 6456   1.263   3.340  11.306 -0.1555 -0.2912 -0.5323
  433MPD2    C5 6457   1.246   3.384  11.179 -0.3026 -0.0554  0.0284
  433MPD2     H 6458   1.047   3.090  11.304 -2.2383 -0.2231 -3.8794
  433MPD2    H1 6459   1.339   3.384  11.369 -1.0836 -1.1362  1.1770
  433MPD2    H2 6460   1.165   3.333  10.982 -1.4314  2.1632 -0.0145
  433MPD2    H3 6461   1.315   3.458  11.138 -1.1256  0.2535 -0.7986
  433MPD2     N 6462   1.193   3.192  11.495  0.3605 -0.6814 -0.0797
  433MPD2    H5 6463   1.141   3.113  11.533 -0.3998  0.9872  2.3604
  433MPD2    N1 6464   1.021   3.141  11.039  0.6428  0.2642  0.2085
  433MPD2    H7 6465   1.037   3.170  10.942  1.6694  0.8665  0.5581
  434TMC3    C1 6466   0.909   2.962  10.948 -0.1325  0.0230  0.0257
  434TMC3    C2 6467   0.905   2.823  10.971  0.5810  0.3215  0.3683
  434TMC3    C3 6468   0.932   2.745  10.863 -0.0983 -0.5142 -0.1416
  434TMC3    C4 6469   0.934   3.017  10.825 -0.1957 -0.2291 -0.1585
  434TMC3    C5 6470   0.937   2.930  10.723 -0.3664  0.1255  0.6401
  434TMC3    C6 6471   0.949   2.798  10.740 -0.7667  0.0016  0.2276
  434TMC3     C 6472   0.947   3.032  11.068 -0.1275 -0.2191  0.8509
  434TMC3     O 6473   0.906   2.984  11.172  0.3184  0.0450 -0.7551
  434TMC3     H 6474   0.896   2.786  11.073  1.1189 -1.8268 -0.3696
  434TMC3    H1 6475   0.933   3.123  10.802  0.1366 -0.6985 -2.3527
  434TMC3    H2 6476   0.982   2.725  10.667 -0.0154  1.2786 -0.7042
  434TMC3    C7 6477   0.952   2.978  10.589 -0.2131 -0.3309  0.0617
  434TMC3    C8 6478   1.023   2.639  10.906 -0.6244  0.0472  0.2095
  434TMC3    O1 6479   1.031   3.070  10.566 -0.0937  0.0881  0.0889
  434TMC3    O2 6480   1.082   2.665  11.012 -0.4267  0.4203  0.3555
  435MPD2     C 6481   3.201   3.128  15.602 -0.0086 -0.1908 -0.1612
  435MPD2    C1 6482   3.102   3.093  15.681  0.1783  1.2072  0.6612
  435MPD2    C2 6483   3.133   3.009  15.788  0.0840 -0.0987  0.3519
  435MPD2    C3 6484   3.265   2.977  15.822 -1.0212  0.1014 -0.6080
  435MPD2    C4 6485   3.363   3.020  15.733  0.0461  0.2729  0.0813
  435MPD2    C5 6486   3.332   3.100  15.630  0.3217  0.1414  0.2905
  435MPD2     H 6487   3.059   2.975  15.859 -1.1924  1.5991 -0.1736
  435MPD2    H1 6488   3.465   3.002  15.767  0.2465 -1.1239 -1.2363
  435MPD2    H2 6489   3.191   3.190  15.513 -1.8351 -1.8463 -1.0950
  435MPD2    H3 6490   3.411   3.142  15.570  0.4370 -1.0721 -0.3988
  435MPD2     N 6491   3.313   2.897  15.930 -0.2210  0.1712  0.6348
  435MPD2    H5 6492   3.409   2.865  15.919 -0.1904 -0.5350  3.0297
  435MPD2    N1 6493   2.966   3.125  15.653 -0.2986 -0.7972  0.3459
  435MPD2    H7 6494   2.896   3.089  15.716  0.0465 -0.1031  1.1245
  436TMC3    C1 6495   2.622   3.231  15.713 -0.1299 -0.2355  0.0074
  436TMC3    C2 6496   2.750   3.256  15.677 -0.2546 -0.0470 -0.3745
  436TMC3    C3 6497   2.785   3.222  15.550  0.6088  0.4259 -0.0672
  436TMC3    C4 6498   2.536   3.174  15.632 -0.4863  1.3530 -0.4953
  436TMC3    C5 6499   2.571   3.164  15.497  0.1188  0.0194  0.4317
  436TMC3    C6 6500   2.699   3.188  15.456 -0.2829 -0.4361 -0.5683
  436TMC3     C 6501   2.607   3.218  15.857 -0.2334 -0.2094  0.2555
  436TMC3     O 6502   2.704   3.174  15.916  0.0025 -0.0834 -0.2938
  436TMC3     H 6503   2.817   3.305  15.747  0.2412  0.5391 -1.2608
  436TMC3    H1 6504   2.446   3.135  15.677  0.0976 -0.3838 -0.8472
  436TMC3    H2 6505   2.736   3.158  15.359  0.3180  0.0728 -0.4993
  436TMC3    C7 6506   2.480   3.104  15.402 -0.4265  0.3698  0.1311
  436TMC3    C8 6507   2.917   3.186  15.539  0.6355  0.3041  0.5323
  436TMC3    O1 6508   2.528   3.070  15.296 -0.4017  0.0715 -0.2349
  436TMC3    O2 6509   2.968   3.202  15.427 -0.3109 -0.5201  0.5815
  437TMC3    C1 6510   1.365   0.816  12.970  0.5894  0.4643 -0.4558
  437TMC3    C2 6511   1.235   0.858  12.936  0.6313 -0.3586  0.7592
  437TMC3    C3 6512   1.215   0.925  12.818 -0.3580  0.1358  0.9126
  437TMC3    C4 6513   1.472   0.831  12.882  0.0589 -0.5934 -0.0453
  437TMC3    C5 6514   1.451   0.909  12.768  0.0293  0.3164  0.1448
  437TMC3    C6 6515   1.321   0.957  12.734  0.2006 -0.3072  0.2121
  437TMC3     C 6516   1.382   0.748  13.096 -0.1644 -0.9204 -0.8142
  437TMC3     O 6517   1.302   0.777  13.184  0.7227 -0.5166  0.0385
  437TMC3     H 6518   1.154   0.841  13.006  0.5520  2.3507  1.3055
  437TMC3    H1 6519   1.567   0.804  12.925 -1.2786  0.0653  3.3580
  437TMC3    H2 6520   1.300   0.996  12.636  0.3628 -1.5657 -0.3177
  437TMC3    C7 6521   1.543   0.905  12.654 -0.1080  0.2500 -0.1077
  437TMC3    C8 6522   1.084   0.906  12.750  0.0198 -0.1866 -0.0434
  437TMC3    O1 6523   1.522   0.974  12.555  0.8653 -1.0181 -0.3984
  437TMC3    O2 6524   1.056   0.971  12.650 -0.2031 -0.2374  0.0818
  438MPD2     C 6525   3.990   1.326  16.686  0.1896 -0.0893 -0.7478
  438MPD2    C1 6526   4.101   1.265  16.737 -0.1546  0.5365 -0.2107
  438MPD2    C2 6527   4.105   1.245  16.870  0.0816  0.3633 -0.3959
  438MPD2    C3 6528   4.004   1.281  16.962  0.3680 -0.2650 -0.1685
  438MPD2    C4 6529   3.891   1.349  16.908  0.5901  1.2304  0.6548
  438MPD2    C5 6530   3.890   1.376  16.774  0.2395  0.4712 -0.2543
  438MPD2     H 6531   4.190   1.190  16.909  0.7528  1.4969 -0.2717
  438MPD2    H1 6532   3.811   1.388  16.971 -0.9701  0.5672 -0.9191
  438MPD2    H2 6533   3.974   1.337  16.580  1.5447 -0.4529 -0.9911
  438MPD2    H3 6534   3.806   1.428  16.730  1.0159  3.6922  2.1357
  438MPD2     N 6535   4.009   1.253  17.108 -0.6940  0.0512  0.5263
  438MPD2    H5 6536   3.947   1.304  17.171 -2.0906 -0.2136 -0.6129
  438MPD2    N1 6537   4.212   1.224  16.659 -0.7139  0.1795  0.7186
  438MPD2    H7 6538   4.295   1.190  16.704  0.6366  0.5171 -1.4965
  439TMC3    C1 6539   4.332   1.131  16.484 -0.0937 -0.5894  0.1044
  439TMC3    C2 6540   4.373   1.145  16.353 -0.4812 -0.0208  0.0834
  439TMC3    C3 6541   4.501   1.104  16.325 -0.0142 -0.2973  0.0406
  439TMC3    C4 6542   4.415   1.071  16.572  0.1427  0.5711  0.1539
  439TMC3    C5 6543   4.544   1.034  16.535 -0.2592  0.5636  0.4942
  439TMC3    C6 6544   4.590   1.049  16.411  0.0868 -0.2027  0.1187
  439TMC3     C 6545   4.212   1.212  16.525 -0.3003  0.1974 -0.4665
  439TMC3     O 6546   4.136   1.257  16.436 -0.1463 -0.1755  0.2058
  439TMC3     H 6547   4.293   1.168  16.283 -0.4835  1.0561  0.4383
  439TMC3    H1 6548   4.380   1.052  16.673  1.2626 -0.1113  0.4070
  439TMC3    H2 6549   4.691   1.018  16.387 -0.8960 -1.8638 -1.8823
  439TMC3    C7 6550   4.627   0.975  16.643  0.0940 -0.3732  0.6257
  439TMC3    C8 6551   4.530   1.067  16.189  0.2206 -0.2883 -0.7207
  439TMC3    O1 6552   0.026   0.973  16.611  0.0288 -0.2100 -0.2438
  439TMC3    O2 6553   4.625   0.988  16.178 -0.0871 -0.0325 -0.5144
  440MPD2     C 6554   2.953   1.333  15.125  0.3564  0.1277  0.0626
  440MPD2    C1 6555   3.028   1.417  15.206 -0.2032  0.0189  0.2478
  440MPD2    C2 6556   3.165   1.419  15.185 -0.4190 -0.0775 -0.0426
  440MPD2    C3 6557   3.227   1.332  15.098 -0.6398 -0.8128 -0.0200
  440MPD2    C4 6558   3.152   1.244  15.027 -0.2832  0.7393  0.4629
  440MPD2    C5 6559   3.017   1.243  15.038  0.0184 -0.0421 -0.3358
  440MPD2     H 6560   3.223   1.489  15.244 -1.2804  0.2048  0.4694
  440MPD2    H1 6561   3.200   1.172  14.962  0.9699 -0.6310  2.9119
  440MPD2    H2 6562   2.845   1.330  15.124  0.3348 -0.8671  3.2395
  440MPD2    H3 6563   2.968   1.183  14.962  1.2772  0.6185 -1.6702
  440MPD2     N 6564   3.363   1.333  15.070 -0.1942  0.1950  0.8109
  440MPD2    H5 6565   3.401   1.264  15.007  3.5447  3.0663 -0.1432
  440MPD2    N1 6566   2.963   1.511  15.294  0.2307 -0.5092  0.1563
  440MPD2    H7 6567   3.023   1.569  15.352 -0.5584  0.7797 -0.3090
  441TMC3    C1 6568   3.593   1.401  15.095  0.1098  0.2457  0.5133
  441TMC3    C2 6569   3.654   1.525  15.087 -0.1331  0.4129 -0.5758
  441TMC3    C3 6570   3.761   1.540  15.167  0.8319 -0.3860 -0.6775
  441TMC3    C4 6571   3.643   1.300  15.173  0.3267 -0.6475  0.3360
  441TMC3    C5 6572   3.741   1.329  15.264 -0.2224 -0.7279  0.3046
  441TMC3    C6 6573   3.812   1.444  15.248  0.2018  0.0839 -0.7302
  441TMC3     C 6574   3.450   1.432  15.115 -0.1441 -0.4508 -0.0275
  441TMC3     O 6575   3.435   1.535  15.179  0.9589 -0.0754  0.0231
  441TMC3     H 6576   3.610   1.614  15.044 -0.3626  0.1798 -0.8244
  441TMC3    H1 6577   3.589   1.208  15.191  0.8663 -1.3001 -1.3706
  441TMC3    H2 6578   3.891   1.453  15.321 -0.1481  1.7883 -0.5798
  441TMC3    C7 6579   3.703   1.316  15.407 -0.0899  0.1244  0.1690
  441TMC3    C8 6580   3.773   1.668  15.230  0.5515  0.0752  0.5148
  441TMC3    O1 6581   3.680   1.424  15.458  0.0572  0.2914 -0.0891
  441TMC3    O2 6582   3.882   1.707  15.270 -0.0582  0.0963  0.3256
  442MPD2     C 6583   0.936   2.677  16.287 -0.7150 -0.2263  0.7092
  442MPD2    C1 6584   0.833   2.593  16.325  0.8957 -0.4494  0.2185
  442MPD2    C2 6585   0.869   2.460  16.346 -0.0025 -0.2280 -0.3606
  442MPD2    C3 6586   0.993   2.410  16.334  0.3969  0.2261  0.5193
  442MPD2    C4 6587   1.095   2.498  16.303  0.0566 -0.3082 -0.3562
  442MPD2    C5 6588   1.067   2.631  16.279 -0.0021 -0.1131  0.1785
  442MPD2     H 6589   0.787   2.399  16.384 -0.5706  0.8132  0.0728
  442MPD2    H1 6590   1.200   2.470  16.297  0.1715  0.7996 -3.4205
  442MPD2    H2 6591   0.933   2.780  16.251 -0.2800 -0.1084  1.0060
  442MPD2    H3 6592   1.145   2.699  16.246  0.6573 -0.9009  0.1020
  442MPD2     N 6593   1.030   2.272  16.346  0.1643 -0.0576  0.6109
  442MPD2    H5 6594   1.126   2.251  16.319 -0.2720 -1.8113  0.4707
  442MPD2    N1 6595   0.708   2.653  16.340 -0.1611  0.1562 -0.2612
  442MPD2    H7 6596   0.701   2.752  16.318  0.7541  0.3479  0.2851
  443TMC3    C1 6597   0.470   2.665  16.396 -0.6619 -0.7872 -0.3621
  443TMC3    C2 6598   0.440   2.732  16.280  0.2689 -0.6807 -0.1123
  443TMC3    C3 6599   0.306   2.757  16.254  0.5393  0.3410  0.0884
  443TMC3    C4 6600   0.368   2.614  16.481 -0.2758  0.7692 -0.1004
  443TMC3    C5 6601   0.237   2.645  16.452  0.1179  0.2002 -0.0968
  443TMC3    C6 6602   0.207   2.724  16.344 -0.5500  0.1121 -0.4812
  443TMC3     C 6603   0.605   2.603  16.421 -0.0077 -0.1459 -0.6206
  443TMC3     O 6604   0.608   2.498  16.488  0.9313  0.2115  0.0207
  443TMC3     H 6605   0.523   2.752  16.214  1.3515 -0.4476  1.3373
  443TMC3    H1 6606   0.394   2.559  16.571  2.4403  0.6070 -0.9973
  443TMC3    H2 6607   0.106   2.760  16.327 -0.9171 -1.3417 -1.3665
  443TMC3    C7 6608   0.131   2.562  16.500  0.3891 -0.2102  0.7077
  443TMC3    C8 6609   0.258   2.822  16.132  0.2204 -0.2114 -0.7064
  443TMC3    O1 6610   0.146   2.498  16.603  0.3342 -0.6715  0.1448
  443TMC3    O2 6611   0.182   2.916  16.145  0.3774 -0.3146  0.2413
  444MPD2     C 6612   1.349   2.001  16.872 -0.0305  0.5809 -0.5784
  444MPD2    C1 6613   1.291   1.886  16.819  0.4290  0.2629 -0.1022
  444MPD2    C2 6614   1.363   1.784  16.762 -0.2050 -0.3223 -0.3117
  444MPD2    C3 6615   1.501   1.799  16.749 -0.1278  0.7248 -0.1856
  444MPD2    C4 6616   1.560   1.915  16.792  0.8131 -0.5400  0.4256
  444MPD2    C5 6617   1.488   2.010  16.855  0.4236  0.5170 -0.0788
  444MPD2     H 6618   1.314   1.694  16.727 -0.3093 -0.5993  0.5377
  444MPD2    H1 6619   1.667   1.932  16.782  1.0808 -2.1303  0.5890
  444MPD2    H2 6620   1.310   2.090  16.920  1.5642  1.4134 -0.8144
  444MPD2    H3 6621   1.538   2.100  16.888  0.7141  0.9386 -1.6774
  444MPD2     N 6622   1.570   1.693  16.689  0.5478 -0.0154 -0.6271
  444MPD2    H5 6623   1.517   1.617  16.646  0.8813 -0.4693 -0.2253
  444MPD2    N1 6624   1.154   1.868  16.839  0.7823  0.2854 -0.1398
  444MPD2    H7 6625   1.116   1.779  16.808 -0.1508  0.8277 -0.5420
  445TMC3    C1 6626   1.746   1.533  16.637 -0.0889 -0.1520  0.2347
  445TMC3    C2 6627   1.660   1.450  16.562 -0.4233 -0.4367 -0.6008
  445TMC3    C3 6628   1.711   1.323  16.519  0.0401  0.7487 -0.0602
  445TMC3    C4 6629   1.877   1.490  16.663  0.4654 -0.4495  0.5372
  445TMC3    C5 6630   1.916   1.367  16.620  0.5074 -0.6476 -0.7412
  445TMC3    C6 6631   1.839   1.288  16.542  0.4691 -0.3212  0.1629
  445TMC3     C 6632   1.705   1.661  16.707  0.0277 -0.4455  0.1172
  445TMC3     O 6633   1.793   1.728  16.761  0.5393  0.3959  0.1914
  445TMC3     H 6634   1.554   1.470  16.561  0.1764  2.7238 -1.4110
  445TMC3    H1 6635   1.951   1.551  16.713  1.1043 -0.9801  0.2449
  445TMC3    H2 6636   1.887   1.199  16.503 -0.8180 -0.7977 -0.3525
  445TMC3    C7 6637   2.062   1.329  16.631 -0.0476  0.3741  0.6116
  445TMC3    C8 6638   1.646   1.234  16.429 -0.4934 -0.0404  0.2648
  445TMC3    O1 6639   2.146   1.416  16.645 -0.4154  0.2788 -0.9652
  445TMC3    O2 6640   1.670   1.112  16.432 -0.3393  0.0093 -0.2406
  446MPD2     C 6641   1.080   2.279  11.375  0.6035 -0.1513  0.4830
  446MPD2    C1 6642   1.023   2.341  11.269 -0.1030  0.6293  0.7734
  446MPD2    C2 6643   1.057   2.467  11.241 -0.1381 -0.0821 -0.5369
  446MPD2    C3 6644   1.148   2.537  11.318 -0.0084 -0.4417 -0.2492
  446MPD2    C4 6645   1.198   2.479  11.435  0.5954  0.3144 -0.1064
  446MPD2    C5 6646   1.166   2.347  11.460  0.3420 -0.5639 -0.0652
  446MPD2     H 6647   1.001   2.525  11.169 -0.4276 -0.1419 -0.3570
  446MPD2    H1 6648   1.275   2.525  11.496  2.8091  0.8049 -3.2457
  446MPD2    H2 6649   1.058   2.177  11.404 -0.4638  0.0046  0.2343
  446MPD2    H3 6650   1.197   2.315  11.559 -1.0183  0.5189  0.7184
  446MPD2     N 6651   1.187   2.668  11.283 -0.3363 -0.5371 -0.0581
  446MPD2    H5 6652   1.172   2.702  11.188  0.4633  2.3056  0.8169
  446MPD2    N1 6653   0.916   2.279  11.191 -0.1226  0.1456 -0.7622
  446MPD2    H7 6654   0.891   2.332  11.108  0.3454  0.2873 -0.8148
  447TMC3    C1 6655   1.311   2.862  11.283  0.0986 -0.8102  0.1005
  447TMC3    C2 6656   1.265   2.882  11.154 -0.1017 -0.0653  0.1949
  447TMC3    C3 6657   1.332   2.974  11.083 -0.3330  0.3700  0.6637
  447TMC3    C4 6658   1.414   2.936  11.335 -0.4018 -0.2250 -0.3909
  447TMC3    C5 6659   1.481   3.016  11.247  0.3543  0.6280  0.4166
  447TMC3    C6 6660   1.444   3.041  11.120 -0.1770 -0.1778  0.2185
  447TMC3     C 6661   1.257   2.758  11.361 -0.3877  0.5360 -0.5186
  447TMC3     O 6662   1.294   2.753  11.479  0.3463  0.2804 -0.0480
  447TMC3     H 6663   1.165   2.852  11.122 -0.1365 -0.1548  0.3865
  447TMC3    H1 6664   1.444   2.921  11.438  2.8271 -2.3364 -1.6260
  447TMC3    H2 6665   1.484   3.118  11.055 -1.3432 -0.5538 -0.9606
  447TMC3    C7 6666   1.607   3.071  11.290  0.2119  0.1123 -0.4643
  447TMC3    C8 6667   1.309   2.989  10.945 -0.7340  0.2744  0.0041
  447TMC3    O1 6668   1.624   3.093  11.406  0.0991  0.2870  0.1357
  447TMC3    O2 6669   1.331   3.095  10.891  0.1585 -0.4576  0.1858
  448TMC3    C1 6670   3.649   2.563   0.190  0.0177 -0.6553  0.4327
  448TMC3    C2 6671   3.653   2.495   0.069  0.4791 -0.0572 -0.3899
  448TMC3    C3 6672   3.728   2.539  17.659 -0.1868  0.0977  0.1246
  448TMC3    C4 6673   3.711   2.686   0.198  0.5639  0.1266  0.5337
  448TMC3    C5 6674   3.781   2.729   0.090  0.2363 -0.4142  0.5596
  448TMC3    C6 6675   3.797   2.660  17.669 -0.4882  0.0505 -0.7588
  448TMC3     C 6676   3.596   2.481   0.305 -0.0930 -0.3310 -0.6021
  448TMC3     O 6677   3.609   2.359   0.294 -0.4994  0.1213 -0.7839
  448TMC3     H 6678   3.608   2.396   0.072 -0.3274  0.3054 -0.4710
  448TMC3    H1 6679   3.701   2.748   0.286 -0.2474 -0.1993  0.6648
  448TMC3    H2 6680   3.859   2.693  17.586 -1.2326  0.4475 -1.1613
  448TMC3    C7 6681   3.879   2.831   0.114 -0.2191 -0.0851 -0.5313
  448TMC3    C8 6682   3.775   2.440  17.565  0.1086 -0.2838 -0.3360
  448TMC3    O1 6683   3.929   2.884   0.020 -0.0015  0.2872  0.1318
  448TMC3    O2 6684   3.784   2.325  17.602  0.2817 -0.2238 -0.6315
  449MPD2     C 6685   1.139   0.852  13.988  0.0186  0.5225  0.3459
  449MPD2    C1 6686   1.022   0.905  13.944  0.3014  0.4457  0.2946
  449MPD2    C2 6687   0.911   0.828  13.920 -0.2059  0.0032  0.4383
  449MPD2    C3 6688   0.922   0.693  13.941 -0.3928  0.1920  0.0328
  449MPD2    C4 6689   1.041   0.636  13.991  0.0993  0.7523 -0.1006
  449MPD2    C5 6690   1.142   0.720  14.021 -0.1124  0.2909  0.0505
  449MPD2     H 6691   0.825   0.872  13.871 -0.4380 -2.5572 -1.4511
  449MPD2    H1 6692   1.056   0.532  14.015 -0.6511  0.7440  0.3461
  449MPD2    H2 6693   1.229   0.910  14.004 -0.6919  0.7340  3.5562
  449MPD2    H3 6694   1.229   0.681  14.073  0.2820 -1.3118 -1.8048
  449MPD2     N 6695   0.800   0.615  13.926  0.0530  0.0416  0.1727
  449MPD2    H5 6696   0.721   0.666  13.887 -0.4362  0.1556  1.3100
  449MPD2    N1 6697   1.007   1.043  13.920 -0.6742 -0.2575  0.1744
  449MPD2    H7 6698   0.919   1.071  13.879 -0.2752  1.7527  0.7131
  450TMC3    C1 6699   1.034   1.267  13.918 -0.3039 -0.0192 -0.1949
  450TMC3    C2 6700   1.083   1.299  13.793 -0.4009 -0.5043  0.0286
  450TMC3    C3 6701   0.990   1.339  13.701 -0.5436  0.1036 -0.2275
  450TMC3    C4 6702   0.897   1.267  13.938 -0.0282 -1.0622  0.3529
  450TMC3    C5 6703   0.814   1.310  13.841  0.0169  0.2055 -0.2601
  450TMC3    C6 6704   0.850   1.346  13.718  0.2619  0.2713 -0.7617
  450TMC3     C 6705   1.098   1.143  13.949 -0.5037 -0.4005 -0.1175
  450TMC3     O 6706   1.203   1.140  14.013 -0.5632  0.4510  0.2060
  450TMC3     H 6707   1.190   1.305  13.776 -0.5464 -0.0041 -0.7097
  450TMC3    H1 6708   0.861   1.245  14.038 -2.9047 -0.0410 -0.4427
  450TMC3    H2 6709   0.794   1.334  13.626 -1.6914  3.0008  0.0723
  450TMC3    C7 6710   0.707   1.215  13.848 -0.2522  0.2607 -0.3263
  450TMC3    C8 6711   1.025   1.335  13.558 -0.6195 -0.1528 -0.4901
  450TMC3    O1 6712   0.715   1.126  13.926  0.0714 -0.3915  0.5900
  450TMC3    O2 6713   0.955   1.396  13.480 -0.5316 -0.2552 -0.4190
  451MPD2     C 6714   2.475   0.387   2.066 -0.3427  0.5100 -0.1272
  451MPD2    C1 6715   2.454   0.359   1.930 -0.1324  0.1806  0.0948
  451MPD2    C2 6716   2.492   0.240   1.879  0.0837  0.5102 -0.3061
  451MPD2    C3 6717   2.564   0.147   1.955  0.1593  0.4035 -0.2038
  451MPD2    C4 6718   2.582   0.180   2.089 -0.3830 -0.0219 -0.1881
  451MPD2    C5 6719   2.541   0.301   2.144 -0.6115  0.2121  0.2470
  451MPD2     H 6720   2.479   0.215   1.774  0.9821 -1.1795 -0.0178
  451MPD2    H1 6721   2.647   0.124   2.155  0.3501  0.1827 -0.7323
  451MPD2    H2 6722   2.445   0.482   2.109  0.2254  1.1368 -1.0964
  451MPD2    H3 6723   2.563   0.321   2.249  0.4412 -0.3195  0.1312
  451MPD2     N 6724   2.618   0.023   1.906 -0.1262  0.0992  0.3684
  451MPD2    H5 6725   2.638   4.670   1.972 -0.2270 -0.6374 -0.4443
  451MPD2    N1 6726   2.394   0.454   1.846 -1.2690 -0.4244  0.2378
  451MPD2    H7 6727   2.374   0.538   1.900  2.7187  0.0285  1.0222
  452TMC3    C1 6728   2.729   4.606   1.753  0.4238 -0.5061  0.0732
  452TMC3    C2 6729   2.675   4.488   1.797 -0.4195  0.3855 -0.4424
  452TMC3    C3 6730   2.697   4.378   1.715  0.0927 -0.3936  0.0918
  452TMC3    C4 6731   2.819   4.608   1.646  0.6749  0.7301  0.2050
  452TMC3    C5 6732   2.845   4.498   1.575 -0.2357  0.3366  0.0056
  452TMC3    C6 6733   2.772   4.384   1.597 -0.4370  0.0418 -0.0852
  452TMC3     C 6734   2.669   0.010   1.777 -0.5281  0.4197 -0.8375
  452TMC3     O 6735   2.710   0.104   1.711 -0.4788  0.1790 -0.3716
  452TMC3     H 6736   2.597   4.493   1.872  0.4927  1.7009  0.4030
  452TMC3    H1 6737   2.880   4.696   1.631  0.6481  0.8512  0.7732
  452TMC3    H2 6738   2.790   4.294   1.538  1.2195  0.6151 -0.4473
  452TMC3    C7 6739   2.921   4.516   1.451  0.6056  0.1546  0.0486
  452TMC3    C8 6740   2.751   4.268   1.795  0.4957  0.4860  0.0103
  452TMC3    O1 6741   2.894   4.437   1.361  0.1345 -0.4144 -0.1514
  452TMC3    O2 6742   2.868   4.246   1.761 -0.0644 -0.4547 -0.5274
  453TMC3    C1 6743   3.323   1.629  11.849 -0.5650 -0.4030 -0.5008
  453TMC3    C2 6744   3.245   1.524  11.884 -0.2885 -0.0234  0.1222
  453TMC3    C3 6745   3.143   1.484  11.796  0.1842 -0.1978  0.4805
  453TMC3    C4 6746   3.310   1.700  11.732  0.2738 -0.6066  0.2155
  453TMC3    C5 6747   3.204   1.661  11.652 -0.4784 -0.3127 -0.6688
  453TMC3    C6 6748   3.117   1.560  11.681  0.0749 -0.7673 -0.3457
  453TMC3     C 6749   3.423   1.677  11.946  0.1773 -0.4940  0.3929
  453TMC3     O 6750   3.479   1.785  11.923 -0.7266 -0.0257  0.1812
  453TMC3     H 6751   3.237   1.492  11.987  0.0010 -0.2628  0.0701
  453TMC3    H1 6752   3.384   1.773  11.703  0.1743 -0.4629  0.3231
  453TMC3    H2 6753   3.034   1.537  11.615 -1.0374 -2.0027  1.4877
  453TMC3    C7 6754   3.209   1.699  11.509 -0.2522  0.1606 -0.0156
  453TMC3    C8 6755   3.051   1.377  11.837 -0.0157 -1.3280 -0.0880
  453TMC3    O1 6756   3.189   1.607  11.430 -0.4602 -0.0834  0.3875
  453TMC3    O2 6757   2.936   1.378  11.789 -0.4184 -0.2904  0.4640
  454MPD2     C 6758   2.397   1.566  16.304  0.1456 -0.4426  0.1283
  454MPD2    C1 6759   2.321   1.684  16.288 -0.0775  0.2081  0.1483
  454MPD2    C2 6760   2.302   1.758  16.406  0.5048  0.1663  0.0462
  454MPD2    C3 6761   2.340   1.710  16.527  0.3503 -0.7223  0.1864
  454MPD2    C4 6762   2.417   1.597  16.535 -0.4438  0.2351  0.5837
  454MPD2    C5 6763   2.437   1.524  16.425  0.6224 -0.8286  0.0602
  454MPD2     H 6764   2.252   1.855  16.405 -1.0832 -0.6520  1.3604
  454MPD2    H1 6765   2.439   1.568  16.637 -0.8615  1.1480  0.9282
  454MPD2    H2 6766   2.419   1.501  16.220 -0.1102 -0.5311  0.1280
  454MPD2    H3 6767   2.484   1.426  16.430 -2.1248 -2.1214  0.8177
  454MPD2     N 6768   2.301   1.766  16.653 -0.5436 -0.1262 -0.0760
  454MPD2    H5 6769   2.356   1.738  16.734 -1.4557  1.5134  1.1126
  454MPD2    N1 6770   2.265   1.725  16.172  0.3708  0.3903 -0.5137
  454MPD2    H7 6771   2.228   1.820  16.171  2.2661  1.1769  2.4001
  455TMC3    C1 6772   2.074   1.865  16.602  1.2493  0.3824  0.1340
  455TMC3    C2 6773   2.003   1.983  16.598  0.8751 -0.1272 -0.2822
  455TMC3    C3 6774   1.890   1.987  16.520  0.3099  0.2540 -0.3119
  455TMC3    C4 6775   2.029   1.753  16.536 -0.5880 -0.0756  0.7607
  455TMC3    C5 6776   1.928   1.771  16.445 -0.1194 -0.0239  0.9901
  455TMC3    C6 6777   1.860   1.883  16.431 -0.0753 -1.1022  0.4642
  455TMC3     C 6778   2.199   1.859  16.677  0.1328  0.2117 -0.1496
  455TMC3     O 6779   2.189   1.918  16.783 -0.7875 -0.0683  0.0485
  455TMC3     H 6780   2.035   2.066  16.660  0.8379 -1.4109  1.4600
  455TMC3    H1 6781   2.072   1.658  16.566 -1.1058 -0.2636  0.9096
  455TMC3    H2 6782   1.773   1.884  16.367  0.8192  0.0619 -0.7539
  455TMC3    C7 6783   1.911   1.667  16.343  0.0217 -0.7632  0.6345
  455TMC3    C8 6784   1.799   2.097  16.537 -0.4757  0.3294 -0.4387
  455TMC3    O1 6785   1.813   1.666  16.271  0.0368  0.3265  0.0146
  455TMC3    O2 6786   1.739   2.141  16.438 -0.3462 -0.1750 -1.1187
  456MPD2     C 6787   4.265   1.545  16.513  0.1822 -0.3862 -0.2105
  456MPD2    C1 6788   4.349   1.522  16.609 -0.3950  0.0382  0.1859
  456MPD2    C2 6789   4.305   1.552  16.739  0.1112 -0.3237  0.2955
  456MPD2    C3 6790   4.180   1.606  16.760 -0.2520  0.4655  0.6173
  456MPD2    C4 6791   4.097   1.640  16.654  0.0518 -0.1150  0.2685
  456MPD2    C5 6792   4.137   1.592  16.533  0.2617  0.1817 -0.2357
  456MPD2     H 6793   4.370   1.531  16.823  0.0456 -0.0887  0.4030
  456MPD2    H1 6794   4.003   1.692  16.663 -0.3534 -0.6579 -0.8122
  456MPD2    H2 6795   4.297   1.521  16.412  1.3805  1.9207 -0.3574
  456MPD2    H3 6796   4.073   1.616  16.450  0.8270 -0.1006 -0.7564
  456MPD2     N 6797   4.145   1.638  16.890  0.4535  0.2252 -0.2493
  456MPD2    H5 6798   4.213   1.619  16.963 -1.2792  0.5769  1.4572
  456MPD2    N1 6799   4.489   1.473  16.593  0.2354  0.6995  0.0360
  456MPD2    H7 6800   4.512   1.454  16.496  0.3179 -1.0480  0.3990
  457TMC3    C1 6801   4.018   1.727  17.066 -0.3300  0.2870  0.1681
  457TMC3    C2 6802   3.956   1.839  17.107 -0.4136  0.0802  0.4957
  457TMC3    C3 6803   3.950   1.859  17.239 -0.9371 -0.0666 -0.2400
  457TMC3    C4 6804   4.058   1.629  17.153 -0.4045 -0.5311  0.7856
  457TMC3    C5 6805   4.038   1.651  17.291 -0.0182  0.2097  0.0728
  457TMC3    C6 6806   3.993   1.771  17.336  0.2686  0.0838  0.0443
  457TMC3     C 6807   4.028   1.704  16.928  0.1231 -0.3632 -0.1530
  457TMC3     O 6808   3.957   1.767  16.856 -0.5568 -0.6525  0.2118
  457TMC3     H 6809   3.914   1.910  17.036 -0.3733 -1.7532 -1.3394
  457TMC3    H1 6810   4.127   1.552  17.122  0.5492  0.8553 -0.5339
  457TMC3    H2 6811   3.982   1.789  17.442 -0.8981  0.5582 -0.1633
  457TMC3    C7 6812   4.127   1.575  17.382 -0.3895 -0.2027  1.1986
  457TMC3    C8 6813   3.913   1.998  17.288  0.0625 -0.1086 -0.3622
  457TMC3    O1 6814   4.198   1.488  17.333 -0.0583 -0.2355 -0.2948
  457TMC3    O2 6815   3.925   2.004  17.406 -0.0038  0.2613  0.3590
  458MPD2     C 6816   1.926   0.684  12.395 -0.4443 -0.2109 -0.3408
  458MPD2    C1 6817   1.954   0.664  12.533  0.3560  0.7905 -0.0275
  458MPD2    C2 6818   1.858   0.703  12.624  0.1317  0.1273 -0.7373
  458MPD2    C3 6819   1.748   0.772  12.583  0.0784 -0.7982 -0.8750
  458MPD2    C4 6820   1.713   0.776  12.448 -0.8288 -0.3490  0.7753
  458MPD2    C5 6821   1.807   0.735  12.352 -0.1037 -0.5633 -0.1383
  458MPD2     H 6822   1.873   0.691  12.731  0.4361 -0.7121 -0.8718
  458MPD2    H1 6823   1.625   0.826  12.407 -0.6362 -1.5708 -1.1097
  458MPD2    H2 6824   2.002   0.654  12.324  1.1098 -2.3769  2.2058
  458MPD2    H3 6825   1.776   0.740  12.248  0.5719 -0.7538 -0.3483
  458MPD2     N 6826   1.660   0.830  12.680 -0.0191 -0.2894  0.0217
  458MPD2    H5 6827   1.684   0.808  12.776  0.3122  0.9900  0.2305
  458MPD2    N1 6828   2.073   0.603  12.562 -0.0013  0.0254  1.3069
  458MPD2    H7 6829   2.132   0.598  12.480 -0.9288  1.9530  0.5444
  459TMC3    C1 6830   2.244   0.523  12.701 -0.4106  0.0581 -0.3347
  459TMC3    C2 6831   2.335   0.593  12.625  0.2213  0.0378 -0.5244
  459TMC3    C3 6832   2.463   0.605  12.678 -0.5788 -0.0743 -0.7473
  459TMC3    C4 6833   2.274   0.470  12.823  0.0113 -0.5527  0.2729
  459TMC3    C5 6834   2.402   0.488  12.875 -0.4182 -0.3351 -0.2344
  459TMC3    C6 6835   2.497   0.552  12.804 -0.2996 -0.2518 -0.6325
  459TMC3     C 6836   2.102   0.545  12.686  0.5196 -0.1002 -0.1988
  459TMC3     O 6837   2.031   0.525  12.780  0.3956  0.0673  0.1301
  459TMC3     H 6838   2.305   0.631  12.528 -1.0701 -1.8795 -0.8656
  459TMC3    H1 6839   2.192   0.424  12.877  0.8587 -2.9915 -0.5134
  459TMC3    H2 6840   2.594   0.569  12.849 -1.2726 -0.3506  1.5107
  459TMC3    C7 6841   2.446   0.393  12.973 -0.5198  0.2822  0.3990
  459TMC3    C8 6842   2.571   0.667  12.597 -1.0383 -0.3981 -0.1093
  459TMC3    O1 6843   2.565   0.373  12.985  0.1407 -0.0187  0.5901
  459TMC3    O2 6844   2.681   0.652  12.651  0.0510 -0.6760  0.1528
  460MPD2     C 6845   1.275   2.699  10.729  0.1621 -0.0429  0.3319
  460MPD2    C1 6846   1.297   2.831  10.756 -0.5543  0.4221 -0.4088
  460MPD2    C2 6847   1.331   2.915  10.655 -0.2629 -0.0103 -0.3321
  460MPD2    C3 6848   1.347   2.866  10.524 -0.0755 -0.0567  0.9630
  460MPD2    C4 6849   1.320   2.737  10.495 -0.3305 -0.1586  0.1552
  460MPD2    C5 6850   1.284   2.648  10.597 -0.1954  0.0154  0.3935
  460MPD2     H 6851   1.343   3.020  10.677 -0.7629  0.3145 -1.5685
  460MPD2    H1 6852   1.337   2.698  10.395 -2.0202  1.3927 -0.7306
  460MPD2    H2 6853   1.248   2.628  10.806  0.9480 -1.6087 -0.8321
  460MPD2    H3 6854   1.269   2.541  10.585  0.2730  0.1893 -1.8242
  460MPD2     N 6855   1.398   2.962  10.424 -0.7979 -0.2360 -0.4831
  460MPD2    H5 6856   1.399   3.061  10.445  1.8604 -0.8371  2.1990
  460MPD2    N1 6857   1.286   2.864  10.890  0.3049 -0.0991  0.2269
  460MPD2    H7 6858   1.280   2.785  10.953  0.9760 -0.4824 -0.1788
  461TMC3    C1 6859   1.510   3.034  10.220  0.6591  0.0150  0.1797
  461TMC3    C2 6860   1.598   3.010  10.119  0.1726  0.9440  0.2689
  461TMC3    C3 6861   1.670   3.108  10.059 -0.6884 -0.3892  0.3372
  461TMC3    C4 6862   1.489   3.159  10.257 -0.2957  0.1153 -0.5783
  461TMC3    C5 6863   1.551   3.262  10.186 -0.3509  0.0310  0.0494
  461TMC3    C6 6864   1.652   3.233  10.090 -0.3016  0.5951 -0.2195
  461TMC3     C 6865   1.446   2.923  10.298 -0.0418  0.3672  0.3846
  461TMC3     O 6866   1.469   2.811  10.250  0.2394  0.4891  0.1268
  461TMC3     H 6867   1.607   2.910  10.076  1.2159 -0.3681  3.4715
  461TMC3    H1 6868   1.399   3.182  10.313  0.5072  1.5012  0.1212
  461TMC3    H2 6869   1.703   3.316  10.043 -0.8636  1.2070  0.2470
  461TMC3    C7 6870   1.522   3.399  10.228  0.3821 -0.1883  0.0106
  461TMC3    C8 6871   1.714   3.078   9.916  0.2926  0.2038 -0.2833
  461TMC3    O1 6872   1.535   3.488  10.146  0.1642 -0.4459  0.9188
  461TMC3    O2 6873   1.756   2.968   9.894 -0.3656 -0.8254 -0.2036
  462TMC3    C1 6874   1.682   3.709   0.040  0.3211  0.0764 -0.1592
  462TMC3    C2 6875   1.698   3.597  17.658  0.0235  0.2392 -0.1126
  462TMC3    C3 6876   1.606   3.498  17.683 -0.2297  0.4933  0.4934
  462TMC3    C4 6877   1.578   3.738   0.124  0.5737  0.5830 -0.0499
  462TMC3    C5 6878   1.486   3.638   0.128 -0.3277 -0.4731  0.5644
  462TMC3    C6 6879   1.504   3.513   0.077 -0.1805 -0.0767  0.6303
  462TMC3     C 6880   1.768   3.822   0.014 -0.3235  0.0468  0.5469
  462TMC3     O 6881   1.802   3.902   0.100  0.3673  0.0479  0.2516
  462TMC3     H 6882   1.791   3.588  17.604 -0.0501 -0.6925 -0.0816
  462TMC3    H1 6883   1.573   3.834   0.174  1.1906  0.6828 -0.1788
  462TMC3    H2 6884   1.427   3.437   0.075 -1.6398  1.4853 -1.1332
  462TMC3    C7 6885   1.364   3.663   0.192  0.6516  0.7727  0.1399
  462TMC3    C8 6886   1.635   3.357  17.651  0.3211 -0.7641  1.1101
  462TMC3    O1 6887   1.279   3.575   0.201 -0.5021 -0.3304  0.3371
  462TMC3    O2 6888   1.576   3.270   0.028 -0.0060 -0.1483 -0.1588
  463MPD2     C 6889   3.207   2.394   2.027 -0.0972 -0.5562  0.1355
  463MPD2    C1 6890   3.079   2.440   2.061  0.1951 -1.1961  0.2392
  463MPD2    C2 6891   3.060   2.579   2.060  0.3047  0.3034  0.1565
  463MPD2    C3 6892   3.162   2.668   2.043 -0.1951  0.1895  0.8400
  463MPD2    C4 6893   3.292   2.617   2.007  0.5215  0.3031 -0.2363
  463MPD2    C5 6894   3.310   2.483   1.998 -0.3592  0.7952 -0.8656
  463MPD2     H 6895   2.962   2.626   2.065  1.3632  2.4581  0.8082
  463MPD2    H1 6896   3.373   2.687   1.992  0.9189 -0.3097 -0.9489
  463MPD2    H2 6897   3.231   2.290   2.007 -1.0272 -0.7682  0.1133
  463MPD2    H3 6898   3.399   2.440   1.953 -0.5762 -2.2533  1.6341
  463MPD2     N 6899   3.151   2.806   2.059  0.0011  0.3779  0.2628
  463MPD2    H5 6900   3.230   2.865   2.037 -0.8762  1.1414 -0.8365
  463MPD2    N1 6901   2.966   2.365   2.079  0.2328  0.3367 -0.2051
  463MPD2    H7 6902   2.878   2.416   2.088  0.0379  0.5594 -3.6152
  464TMC3    C1 6903   2.822   2.185   2.088  0.5527  0.3942 -0.5903
  464TMC3    C2 6904   2.732   2.263   2.162 -0.4212 -0.2386 -0.8457
  464TMC3    C3 6905   2.609   2.209   2.182  0.4122 -0.0747  0.2824
  464TMC3    C4 6906   2.797   2.057   2.043 -0.3487 -0.4594 -0.7184
  464TMC3    C5 6907   2.672   2.011   2.063  0.3892  0.2722  0.4818
  464TMC3    C6 6908   2.574   2.088   2.129 -0.2084 -0.2278 -0.1660
  464TMC3     C 6909   2.953   2.230   2.069  0.3328 -0.6395  0.5540
  464TMC3     O 6910   3.042   2.147   2.057 -0.2681 -0.1657  0.2287
  464TMC3     H 6911   2.746   2.368   2.185  2.1656 -0.4640 -1.3177
  464TMC3    H1 6912   2.875   1.996   1.999  1.5883  1.8116 -0.4198
  464TMC3    H2 6913   2.472   2.056   2.150  0.5605 -0.8432  2.5969
  464TMC3    C7 6914   2.631   1.919   1.963 -0.1543  0.1592 -0.2597
  464TMC3    C8 6915   2.496   2.286   2.231  0.1593  0.1935  0.0167
  464TMC3    O1 6916   2.723   1.858   1.920  0.1224  0.0778  0.3539
  464TMC3    O2 6917   2.382   2.255   2.192 -0.1944  0.4571 -0.1075
  465MPD2     C 6918   3.789   0.911  17.668 -0.5096 -0.0803  0.4991
  465MPD2    C1 6919   3.771   1.026   0.052  0.0542 -0.1132 -0.3807
  465MPD2    C2 6920   3.681   1.122   0.008  0.3641 -0.2249 -0.8466
  465MPD2    C3 6921   3.630   1.107  17.568  0.4244  0.1310  0.6501
  465MPD2    C4 6922   3.664   1.004  17.490  0.1250 -0.2670 -0.4814
  465MPD2    C5 6923   3.746   0.907  17.538  0.2538 -0.0564 -0.0048
  465MPD2     H 6924   3.645   1.205   0.067  1.0154  0.2775 -1.1627
  465MPD2    H1 6925   3.619   0.979  17.395  0.8671  0.3389 -0.9944
  465MPD2    H2 6926   3.849   0.825   0.005  0.7959 -0.1102 -2.3031
  465MPD2    H3 6927   3.765   0.825  17.470 -1.1645  0.6499 -1.2604
  465MPD2     N 6928   3.533   1.196  17.517  0.4902 -0.5831 -0.8746
  465MPD2    H5 6929   3.507   1.270  17.581  1.1969 -2.1777  1.2761
  465MPD2    N1 6930   3.845   1.051   0.173 -0.3177 -0.0504  0.3075
  465MPD2    H7 6931   3.829   1.142   0.216 -0.2918  0.2895 -0.4014
  466TMC3    C1 6932   3.169   1.346  17.482 -0.0313 -0.0615  0.7803
  466TMC3    C2 6933   3.151   1.445  17.389 -0.2661 -0.5800 -0.5137
  466TMC3    C3 6934   3.248   1.461  17.292 -0.2109 -0.2293  0.1161
  466TMC3    C4 6935   3.277   1.267  17.480  0.4986 -0.6922  0.0661
  466TMC3    C5 6936   3.361   1.275  17.374 -0.4245 -0.6492  0.3242
  466TMC3    C6 6937   3.352   1.374  17.284 -0.1427  0.0372  0.7659
  466TMC3     C 6938   3.091   1.351  17.603  0.2251  0.6015  0.6826
  466TMC3     O 6939   3.010   1.443  17.621  0.0786  0.2541  0.3603
  466TMC3     H 6940   3.075   1.520  17.406  1.8446  1.6965 -1.1513
  466TMC3    H1 6941   3.292   1.186  17.551 -0.8309 -0.5185  0.5334
  466TMC3    H2 6942   3.406   1.361  17.191 -0.4658  0.5307  0.5103
  466TMC3    C7 6943   3.487   1.199  17.389 -0.4447  0.3758  0.1890
  466TMC3    C8 6944   3.250   1.580  17.203  0.2853  0.3482  0.1014
  466TMC3    O1 6945   3.540   1.182  17.278  0.0573 -0.6822 -0.4389
  466TMC3    O2 6946   3.324   1.565  17.108 -0.3008 -0.0773 -0.2052
  467TMC3    C1 6947   4.640   4.391  13.595  0.2018 -0.5780 -0.5518
  467TMC3    C2 6948   4.646   4.385  13.463  0.3523 -0.3646 -0.2696
  467TMC3    C3 6949   4.533   4.413  13.387 -0.7776 -0.5236 -0.3679
  467TMC3    C4 6950   4.520   4.403  13.666  0.0659 -0.1369  0.1510
  467TMC3    C5 6951   4.409   4.416  13.596 -0.7318 -0.1406  0.5101
  467TMC3    C6 6952   4.419   4.429  13.460 -0.2440  0.0144 -0.0024
  467TMC3     C 6953   0.042   4.391  13.665 -0.0661 -0.0557 -0.0133
  467TMC3     O 6954   0.048   4.443  13.777 -0.0545 -0.1673  0.0849
  467TMC3     H 6955   0.012   4.394  13.401 -0.6447  1.5371 -1.4174
  467TMC3    H1 6956   4.530   4.407  13.774  1.3122 -0.5772  0.0611
  467TMC3    H2 6957   4.331   4.467  13.407 -0.4924  1.0865  1.1747
  467TMC3    C7 6958   4.292   4.466  13.656  0.6449  0.6330  0.0502
  467TMC3    C8 6959   4.564   4.526  13.301 -0.3417  0.5653  0.2540
  467TMC3    O1 6960   4.187   4.439  13.608  0.5294  0.0042  0.1950
  467TMC3    O2 6961   4.654   4.601  13.339  0.3039 -0.1047 -0.0793
  468MPD2     C 6962   3.289   2.771  11.043  0.1682  0.6489  0.3533
  468MPD2    C1 6963   3.416   2.719  11.009 -0.1817 -0.0221  0.4283
  468MPD2    C2 6964   3.436   2.581  11.010 -0.1841 -0.0805 -0.5466
  468MPD2    C3 6965   3.338   2.501  11.055 -0.3093 -0.4334  0.3762
  468MPD2    C4 6966   3.218   2.557  11.103  0.4959  0.3502  0.3142
  468MPD2    C5 6967   3.195   2.692  11.095 -0.0775 -0.5060  0.4372
  468MPD2     H 6968   3.537   2.544  10.997  0.5599  1.6405  0.3628
  468MPD2    H1 6969   3.136   2.493  11.131  0.8979 -0.3469 -0.1010
  468MPD2    H2 6970   3.269   2.877  11.036  0.4037  0.6749  0.0571
  468MPD2    H3 6971   3.098   2.728  11.128 -0.0836  0.4745 -0.6616
  468MPD2     N 6972   3.350   2.359  11.030  0.2552 -0.0977 -0.3476
  468MPD2    H5 6973   3.271   2.297  11.046  0.8957 -1.1021 -1.1087
  468MPD2    N1 6974   3.513   2.797  10.949  1.0448 -0.5439  0.1631
  468MPD2    H7 6975   3.604   2.751  10.954 -0.2156 -3.2582 -1.5623
  469TMC3    C1 6976   3.599   2.981  10.828  0.1950  0.5023  0.6606
  469TMC3    C2 6977   3.721   2.954  10.879 -1.1643  0.2342 -0.1261
  469TMC3    C3 6978   3.825   3.034  10.827  0.4632  0.0558  0.7201
  469TMC3    C4 6979   3.577   3.055  10.716 -0.5613 -0.4688  0.1370
  469TMC3    C5 6980   3.685   3.118  10.659 -0.6012 -0.3668  0.3044
  469TMC3    C6 6981   3.807   3.106  10.717 -0.0719  0.1450  0.1270
  469TMC3     C 6982   3.483   2.901  10.865  0.3140  0.0912 -0.0576
  469TMC3     O 6983   3.373   2.945  10.826 -0.5532  0.2975  0.1520
  469TMC3     H 6984   3.721   2.918  10.982 -1.8075 -0.9775 -0.5562
  469TMC3    H1 6985   3.484   3.045  10.661 -1.3316  1.6463  1.0362
  469TMC3    H2 6986   3.888   3.167  10.679 -2.6584  1.0006 -4.0933
  469TMC3    C7 6987   3.663   3.215  10.547  0.5849  0.0673 -0.6359
  469TMC3    C8 6988   3.946   3.041  10.908 -0.2760  0.1565 -0.0715
  469TMC3    O1 6989   3.761   3.284  10.513  0.5231  0.4314 -0.0657
  469TMC3    O2 6990   4.049   3.063  10.841 -0.5070 -0.7359  0.2165
  470TMC3    C1 6991   1.879   0.105   0.587 -0.4159  0.5372 -0.4021
  470TMC3    C2 6992   1.752   0.144   0.625  1.3639  0.7265  0.3345
  470TMC3    C3 6993   1.741   0.210   0.748 -0.2575  0.0143  0.2353
  470TMC3    C4 6994   1.986   0.120   0.668 -0.8071 -0.6842  0.0580
  470TMC3    C5 6995   1.971   0.166   0.797  0.3029  0.3157 -0.4535
  470TMC3    C6 6996   1.852   0.219   0.834  0.0157 -0.4779 -0.1748
  470TMC3     C 6997   1.893   0.032   0.460  0.3133 -0.2510 -0.8587
  470TMC3     O 6998   1.992   4.681   0.454 -0.4613  0.3737 -0.2696
  470TMC3     H 6999   1.664   0.111   0.571 -0.0427  1.7185  2.0240
  470TMC3    H1 7000   2.077   0.072   0.632 -0.5851  0.4035 -0.8551
  470TMC3    H2 7001   1.834   0.246   0.938 -0.4031  0.9745 -0.6087
  470TMC3    C7 7002   2.083   0.148   0.885  0.1448  0.1242  0.2819
  470TMC3    C8 7003   1.617   0.233   0.820 -0.1924  0.7417 -0.1306
  470TMC3    O1 7004   2.185   0.098   0.841 -0.2643  0.7748 -0.9327
  470TMC3    O2 7005   1.624   0.295   0.926  0.3804  0.1929  0.4899
  471MPD2     C 7006   0.900   0.520  16.563  0.1475  0.0473  0.4160
  471MPD2    C1 7007   0.912   0.382  16.568  0.1065 -0.1795  0.2572
  471MPD2    C2 7008   0.990   0.325  16.668  0.6603  0.0347  0.3844
  471MPD2    C3 7009   1.071   0.401  16.755  0.5528  0.1718 -0.8082
  471MPD2    C4 7010   1.083   0.535  16.724 -0.2629 -0.8765 -0.0859
  471MPD2    C5 7011   0.983   0.590  16.644  0.5680 -0.6341 -0.2150
  471MPD2     H 7012   0.991   0.216  16.673 -0.0732  0.0246  0.4290
  471MPD2    H1 7013   1.147   0.605  16.778 -1.7996 -0.2525  0.9205
  471MPD2    H2 7014   0.821   0.564  16.502  1.2362 -0.1555 -1.1349
  471MPD2    H3 7015   0.980   0.698  16.634 -1.1555 -0.6607 -0.0720
  471MPD2     N 7016   1.176   0.347  16.828  0.4274  0.0071  0.0284
  471MPD2    H5 7017   1.227   0.409  16.891 -0.1084  1.6188 -1.1073
  471MPD2    N1 7018   0.838   0.296  16.483 -0.0131 -0.8927 -0.3100
  471MPD2    H7 7019   0.855   0.197  16.495 -2.1172 -0.8502  2.9054
  472TMC3    C1 7020   0.703   0.199  16.318  0.2893  0.2491 -0.6045
  472TMC3    C2 7021   0.573   0.182  16.275 -0.1597 -0.6088  0.2890
  472TMC3    C3 7022   0.538   0.062  16.228 -0.1238 -0.9457 -0.2319
  472TMC3    C4 7023   0.789   0.089  16.320 -0.0616  0.8478 -0.3557
  472TMC3    C5 7024   0.744   4.688  16.270  0.8269  0.2004  0.1059
  472TMC3    C6 7025   0.614   4.675  16.220  0.5488 -0.3260  0.7019
  472TMC3     C 7026   0.734   0.318  16.395 -0.5983  0.4433  0.1832
  472TMC3     O 7027   0.664   0.418  16.381  0.0690 -0.0457  0.2022
  472TMC3     H 7028   0.507   0.268  16.284  2.2582  1.2425  0.4963
  472TMC3    H1 7029   0.891   0.094  16.356  0.3174  1.7974 -1.5813
  472TMC3    H2 7030   0.582   4.582  16.175  2.4981 -0.4677 -0.3639
  472TMC3    C7 7031   0.824   4.570  16.273 -0.7751  0.0431 -0.9244
  472TMC3    C8 7032   0.391   0.050  16.212 -0.5485  0.1052 -0.1191
  472TMC3    O1 7033   0.761   4.466  16.270  0.0946 -0.0487 -0.5272
  472TMC3    O2 7034   0.310   0.147  16.200 -0.9945  0.0658  0.4369
  473MPD2     C 7035   1.055   2.434  14.092  0.1548  0.1795  0.5712
  473MPD2    C1 7036   1.071   2.553  14.021  0.2402  0.1237 -0.3458
  473MPD2    C2 7037   1.147   2.653  14.078  0.0841  0.1354 -0.0349
  473MPD2    C3 7038   1.213   2.635  14.201 -1.1134 -0.0332  0.5622
  473MPD2    C4 7039   1.195   2.519  14.272  0.4073  0.2886 -0.0865
  473MPD2    C5 7040   1.126   2.418  14.212 -0.2982  0.5472 -0.2978
  473MPD2     H 7041   1.158   2.747  14.025  0.0031  0.5777  0.7388
  473MPD2    H1 7042   1.234   2.506  14.372 -0.1967  2.5632  0.4654
  473MPD2    H2 7043   0.998   2.346  14.061 -0.7825  0.7061  0.7958
  473MPD2    H3 7044   1.115   2.325  14.266  2.0432  0.2667 -0.3108
  473MPD2     N 7045   1.281   2.735  14.266  0.0704  1.2863 -0.2191
  473MPD2    H5 7046   1.322   2.708  14.356 -1.4860 -0.6754 -0.1005
  473MPD2    N1 7047   1.010   2.575  13.896  0.2301 -0.0991  0.0275
  473MPD2    H7 7048   1.005   2.670  13.858 -2.3393  1.0122  3.1387
  474TMC3    C1 7049   1.400   2.944  14.297  0.3380 -0.3317  0.2100
  474TMC3    C2 7050   1.378   3.081  14.295  0.7382 -0.5460 -0.1985
  474TMC3    C3 7051   1.468   3.164  14.360  0.1671 -0.0847 -0.7711
  474TMC3    C4 7052   1.502   2.888  14.374  0.0062 -0.2971  0.0455
  474TMC3    C5 7053   1.570   2.976  14.454  0.1962  0.0354  0.1397
  474TMC3    C6 7054   1.568   3.108  14.438  1.4701  0.6283  0.1210
  474TMC3     C 7055   1.315   2.857  14.210 -0.4395  0.3196  0.8285
  474TMC3     O 7056   1.276   2.910  14.107  0.1943 -0.0865  0.0586
  474TMC3     H 7057   1.304   3.119  14.225  1.6538  0.6851 -0.4836
  474TMC3    H1 7058   1.527   2.784  14.360 -1.3822 -0.2836 -2.6593
  474TMC3    H2 7059   1.627   3.168  14.506 -1.3724  3.7010 -0.1695
  474TMC3    C7 7060   1.709   2.931  14.487  0.4575  0.1274  0.5901
  474TMC3    C8 7061   1.444   3.310  14.364  0.5403  0.2487  0.1646
  474TMC3    O1 7062   1.765   2.841  14.422 -0.3447 -0.0853 -0.4816
  474TMC3    O2 7063   1.324   3.335  14.361 -0.0406  0.0445  0.1168
  475MPD2     C 7064   4.488   0.307  10.398 -0.3776 -0.1118  0.2980
  475MPD2    C1 7065   4.575   0.410  10.415 -0.6549  0.2880 -0.1643
  475MPD2    C2 7066   4.526   0.520  10.486 -0.8456 -0.1316 -0.4177
  475MPD2    C3 7067   4.395   0.533  10.528  0.1196  0.8817  0.1956
  475MPD2    C4 7068   4.313   0.422  10.502 -0.1782  0.3580  0.1923
  475MPD2    C5 7069   4.358   0.314  10.440  0.0674 -0.3267 -0.3654
  475MPD2     H 7070   4.604   0.592  10.507 -0.2957 -0.3510 -1.7014
  475MPD2    H1 7071   4.210   0.414  10.536 -0.4778  2.9933 -0.0795
  475MPD2    H2 7072   4.504   0.212  10.349 -1.7600 -1.7597  3.0355
  475MPD2    H3 7073   4.295   0.228  10.421 -0.2532 -1.0074  3.7048
  475MPD2     N 7074   4.360   0.656  10.586 -0.1942  0.1656 -0.6118
  475MPD2    H5 7075   4.431   0.729  10.588  1.1242 -1.1236 -0.1492
  475MPD2    N1 7076   4.713   0.396  10.370 -0.1294  0.7123  0.4323
  475MPD2    H7 7077   0.004   0.313  10.314 -0.1701  1.3762 -0.5549
  476TMC3    C1 7078   0.176   0.469  10.265  0.3649 -0.4544  0.5737
  476TMC3    C2 7079   0.107   0.472  10.145 -0.3753  0.2856 -1.1028
  476TMC3    C3 7080   0.145   0.564  10.049  0.1993  0.6324 -0.1033
  476TMC3    C4 7081   0.285   0.550  10.277 -0.2846 -0.6247  0.2141
  476TMC3    C5 7082   0.324   0.640  10.181  0.1169 -0.6956  0.1528
  476TMC3    C6 7083   0.246   0.653  10.067 -0.7245 -0.2857  0.1555
  476TMC3     C 7084   0.082   0.493  10.373  0.2853 -0.0492  0.4913
  476TMC3     O 7085   0.085   0.609  10.418 -0.4771  0.0568  0.0591
  476TMC3     H 7086   0.036   0.394  10.122 -1.7321  0.2905  2.9520
  476TMC3    H1 7087   0.326   0.544  10.377  0.8892  2.4747 -0.0966
  476TMC3    H2 7088   0.254   0.735   9.997  1.1921  1.1254  2.0410
  476TMC3    C7 7089   0.364   0.772  10.230  0.3180 -0.1056  0.5275
  476TMC3    C8 7090   0.036   0.609   9.968  0.0852 -0.3558  0.0935
  476TMC3    O1 7091   0.420   0.846  10.148  0.0818 -0.3106  0.8272
  476TMC3    O2 7092   0.031   0.729   9.947 -0.2936 -0.0308  1.0205
  477MPD2     C 7093   1.510   1.634  11.591 -0.4099  0.1459  0.0331
  477MPD2    C1 7094   1.541   1.753  11.641  0.2968 -0.2647 -0.9181
  477MPD2    C2 7095   1.600   1.757  11.770  0.3598 -0.0056 -0.0605
  477MPD2    C3 7096   1.648   1.644  11.829  0.7337  0.5829 -0.0307
  477MPD2    C4 7097   1.597   1.523  11.774  0.1482 -0.4452 -0.4940
  477MPD2    C5 7098   1.539   1.516  11.655 -0.5108 -0.3168 -0.2515
  477MPD2     H 7099   1.612   1.853  11.817  0.5154 -1.0991  2.1514
  477MPD2    H1 7100   1.617   1.424  11.815 -0.0906  0.7856  2.6112
  477MPD2    H2 7101   1.459   1.618  11.497 -0.7856 -1.3791  0.4975
  477MPD2    H3 7102   1.508   1.416  11.625  1.2029 -1.3076  1.2892
  477MPD2     N 7103   1.737   1.647  11.942 -0.7157  0.2601 -0.4129
  477MPD2    H5 7104   1.761   1.739  11.976  1.5537 -0.4832 -0.0098
  477MPD2    N1 7105   1.515   1.863  11.555  0.4456  0.6328 -0.3207
  477MPD2    H7 7106   1.489   1.839  11.460  0.0283  0.0011 -0.0492
  478TMC3    C1 7107   1.480   2.087  11.480  0.6403 -0.4123  0.1151
  478TMC3    C2 7108   1.545   2.206  11.498  0.3388 -0.1590  1.1446
  478TMC3    C3 7109   1.557   2.296  11.396  0.6545 -0.0880 -0.2567
  478TMC3    C4 7110   1.433   2.047  11.360 -0.0105  0.0290  1.1646
  478TMC3    C5 7111   1.436   2.138  11.250  0.0850  0.1903  0.1449
  478TMC3    C6 7112   1.509   2.260  11.269  0.2048  0.1913  0.3468
  478TMC3     C 7113   1.501   1.996  11.592  0.1424  0.0650  0.0353
  478TMC3     O 7114   1.512   2.046  11.705  0.2984  0.1771 -0.3403
  478TMC3     H 7115   1.600   2.227  11.589  1.7535  0.4627  0.1543
  478TMC3    H1 7116   1.400   1.946  11.339  3.4702 -0.7680 -0.4984
  478TMC3    H2 7117   1.524   2.332  11.189  1.2902 -0.8425 -0.3908
  478TMC3    C7 7118   1.343   2.135  11.145  0.1883 -0.1296  0.2328
  478TMC3    C8 7119   1.619   2.424  11.409  0.0047  0.6223  0.3143
  478TMC3    O1 7120   1.291   2.024  11.129 -0.5577 -0.1640 -0.0757
  478TMC3    O2 7121   1.676   2.470  11.311  0.2847 -0.4213  0.5403
  479MPD2     C 7122   0.995   4.601  15.323  0.2979  0.2141  0.3338
  479MPD2    C1 7123   0.946   4.513  15.422  0.9016 -0.6389 -0.2964
  479MPD2    C2 7124   0.931   4.561  15.548 -0.3831  0.0053 -0.1819
  479MPD2    C3 7125   0.980   4.681  15.585 -0.6797 -0.8921  0.4655
  479MPD2    C4 7126   1.038   0.037  15.499 -0.1986  0.0119 -1.1961
  479MPD2    C5 7127   1.060   4.715  15.366  0.0187  0.1143 -0.2059
  479MPD2     H 7128   0.877   4.507  15.625 -2.3841 -0.4812 -1.9193
  479MPD2    H1 7129   1.074   0.134  15.532 -2.3179  0.0708  0.8493
  479MPD2    H2 7130   1.004   4.574  15.219 -0.7475  1.5173 -0.0993
  479MPD2    H3 7131   1.119   0.061  15.307  3.2635 -0.7803  1.9972
  479MPD2     N 7132   0.966   0.012  15.719  0.2466  0.1409  0.6732
  479MPD2    H5 7133   1.030   0.088  15.736  0.7837 -0.3466  0.8363
  479MPD2    N1 7134   0.873   4.399  15.378 -0.1276  0.7422 -0.4413
  479MPD2    H7 7135   0.873   4.386  15.278  1.1062  0.7158 -0.4365
  480TMC3    C1 7136   0.627   4.426  15.851 -0.7229 -0.1537 -0.6318
  480TMC3    C2 7137   0.552   4.449  15.745  0.1751 -0.2134  0.2502
  480TMC3    C3 7138   0.574   4.560  15.668  0.3076  1.7302 -0.1021
  480TMC3    C4 7139   0.735   4.506  15.879 -0.5148 -0.4203  0.5144
  480TMC3    C5 7140   0.761   4.609  15.797 -0.3653 -0.9106  0.0784
  480TMC3    C6 7141   0.681   4.646  15.691 -0.1478 -0.0783  0.3714
  480TMC3     C 7142   0.597   4.315  15.925  0.6072 -0.6802  0.3904
  480TMC3     O 7143   0.695   4.246  15.962  0.0454 -0.0057  0.0812
  480TMC3     H 7144   0.466   4.386  15.726 -0.8169  0.5281  2.2575
  480TMC3    H1 7145   0.810   4.477  15.952  0.1808  0.0590 -0.0136
  480TMC3    H2 7146   0.724   0.010  15.641  0.0625 -1.0963 -1.2081
  480TMC3    C7 7147   0.884   4.680  15.819 -0.1331  0.3726 -0.1990
  480TMC3    C8 7148   0.524   4.558  15.533  0.7134 -0.6427  0.1878
  480TMC3    O1 7149   0.902   4.709  15.938 -0.5204  0.1539 -0.5006
  480TMC3    O2 7150   0.460   4.462  15.498  0.3263 -0.0939 -0.4865
  481MPD2     C 7151   2.648   3.626  13.972 -0.4296  0.2460 -0.5521
  481MPD2    C1 7152   2.549   3.588  14.061 -0.3056  0.1834 -0.0713
  481MPD2    C2 7153   2.580   3.552  14.191  0.1268  0.1251 -0.4099
  481MPD2    C3 7154   2.715   3.541  14.225  0.4084  0.7273  0.5398
  481MPD2    C4 7155   2.811   3.578  14.137 -0.1525 -0.2137  0.1214
  481MPD2    C5 7156   2.776   3.611  14.008  0.8542  0.3739  0.7319
  481MPD2     H 7157   2.499   3.533  14.260  0.0202  1.5253 -0.1634
  481MPD2    H1 7158   2.916   3.566  14.163  0.2194  0.6513 -0.9477
  481MPD2    H2 7159   2.628   3.678  13.879 -2.1853 -0.6715 -0.6847
  481MPD2    H3 7160   2.855   3.631  13.937  1.3773 -0.2885  1.1233
  481MPD2     N 7161   2.752   3.505  14.359  0.1155 -0.3726  0.0672
  481MPD2    H5 7162   2.851   3.482  14.360 -0.0435 -0.9746  2.7114
  481MPD2    N1 7163   2.418   3.609  14.014 -0.0866 -0.4145 -0.3451
  481MPD2    H7 7164   2.408   3.657  13.925 -2.1027 -0.3062 -0.0557
  482TMC3    C1 7165   2.182   3.566  14.004 -0.0260  0.0796  0.8071
  482TMC3    C2 7166   2.091   3.458  13.993  0.4623 -0.3423  0.0498
  482TMC3    C3 7167   1.961   3.492  13.967  0.0569 -1.1260  0.7416
  482TMC3    C4 7168   2.149   3.688  13.958 -0.2796  0.1413  0.3724
  482TMC3    C5 7169   2.017   3.716  13.943  0.4615 -0.5663  0.6258
  482TMC3    C6 7170   1.918   3.619  13.947  0.1035  0.7076 -0.2595
  482TMC3     C 7171   2.313   3.533  14.068  0.2042 -0.1442  0.6079
  482TMC3     O 7172   2.326   3.440  14.148  0.1102  0.2654  0.4824
  482TMC3     H 7173   2.126   3.357  14.013  2.2052 -0.2100 -2.3113
  482TMC3    H1 7174   2.217   3.770  13.973  2.0476 -1.5976 -0.6660
  482TMC3    H2 7175   1.815   3.650  13.937 -0.3685 -1.0636 -0.9444
  482TMC3    C7 7176   1.984   3.842  13.886  0.2250 -0.4976 -0.5351
  482TMC3    C8 7177   1.878   3.379  13.923  0.9537  0.3122 -0.5249
  482TMC3    O1 7178   1.868   3.879  13.911  0.0419  0.0261 -0.2130
  482TMC3    O2 7179   1.940   3.277  13.897 -0.1857 -0.3194  0.3480
  483TMC3    C1 7180   4.721   2.905   0.879 -0.3853  0.0982 -0.1821
  483TMC3    C2 7181   4.704   3.016   0.793  0.5143  0.0401 -0.0565
  483TMC3    C3 7182   4.686   3.139   0.847  0.5421 -0.0659  0.2620
  483TMC3    C4 7183   4.720   2.925   1.015  0.1786  0.5880  0.6936
  483TMC3    C5 7184   4.707   3.051   1.061  0.2570  0.0987 -0.1461
  483TMC3    C6 7185   4.682   3.159   0.981 -0.1745 -0.8634 -1.2938
  483TMC3     C 7186   0.054   2.776   0.828 -0.5460  0.0022  0.4153
  483TMC3     O 7187   0.125   2.719   0.916 -0.3228  0.1508 -0.2088
  483TMC3     H 7188   4.707   2.998   0.686  1.7222  1.9051 -0.3429
  483TMC3    H1 7189   4.717   2.839   1.081 -2.1435  0.5075  0.4890
  483TMC3    H2 7190   4.675   3.260   1.019 -0.5047 -0.3924 -2.6222
  483TMC3    C7 7191   4.712   3.074   1.207  0.5767  0.3407  0.0672
  483TMC3    C8 7192   4.719   3.244   0.763  0.1477 -0.1215  0.2896
  483TMC3    O1 7193   4.645   3.171   1.251  0.0009  0.1621  0.4279
  483TMC3    O2 7194   0.081   3.222   0.678  0.0427 -0.7151  0.2180
  484MPD2     C 7195   2.559   0.900  12.309  0.4276  0.1332 -0.7054
  484MPD2    C1 7196   2.617   0.821  12.402 -0.1235 -0.0816  0.0214
  484MPD2    C2 7197   2.755   0.810  12.406  0.4166 -0.5269  0.8613
  484MPD2    C3 7198   2.840   0.891  12.338  0.6484 -0.5320  0.0315
  484MPD2    C4 7199   2.788   0.977  12.248 -0.0073  0.0874  0.8231
  484MPD2    C5 7200   2.645   0.979  12.235  0.5082 -0.4368 -0.2131
  484MPD2     H 7201   2.797   0.751  12.487  2.3739  1.4661  1.3039
  484MPD2    H1 7202   2.849   1.047  12.193  0.5905 -1.6471 -0.7271
  484MPD2    H2 7203   2.451   0.904  12.301  0.3700 -0.3052 -0.1440
  484MPD2    H3 7204   2.605   1.049  12.162  0.7509  0.1087  0.1758
  484MPD2     N 7205   2.981   0.884  12.343  0.0574 -0.5617 -0.5940
  484MPD2    H5 7206   3.036   0.959  12.301  0.5529 -1.2565 -1.1890
  484MPD2    N1 7207   2.533   0.745  12.492  0.6559  0.2905 -0.3727
  484MPD2    H7 7208   2.433   0.747  12.475  1.0141 -1.1103 -2.6516
  485TMC3    C1 7209   3.199   0.816  12.405  0.1597  0.2175  0.0768
  485TMC3    C2 7210   3.268   0.735  12.489 -0.2847  0.3443 -0.4484
  485TMC3    C3 7211   3.381   0.777  12.547 -0.7386  0.2762  0.2668
  485TMC3    C4 7212   3.248   0.939  12.364  0.7940  0.3085 -0.5987
  485TMC3    C5 7213   3.371   0.977  12.425 -0.4226 -0.7187 -0.0442
  485TMC3    C6 7214   3.431   0.902  12.525  0.6406 -0.2575  0.2462
  485TMC3     C 7215   3.058   0.791  12.406 -0.0508 -0.2635 -1.1041
  485TMC3     O 7216   3.015   0.683  12.442  0.8023 -0.1450  0.2499
  485TMC3     H 7217   3.238   0.633  12.510  2.6433 -0.4231 -0.0329
  485TMC3    H1 7218   3.201   1.003  12.291  0.2995  0.7594  0.1140
  485TMC3    H2 7219   3.523   0.930  12.574  0.8875  1.6153 -1.2981
  485TMC3    C7 7220   3.460   1.056  12.353  0.3438 -0.1385 -0.0466
  485TMC3    C8 7221   3.490   0.683  12.527 -0.5443  0.5416  0.5300
  485TMC3    O1 7222   3.414   1.137  12.270  0.4750  0.0878  0.4160
  485TMC3    O2 7223   3.583   0.736  12.465 -0.6063  0.4809 -0.1563
  486MPD2     C 7224   0.687   4.470  12.714  0.1480  0.1281  0.1150
  486MPD2    C1 7225   0.549   4.446  12.698  0.2179  0.2318  0.0721
  486MPD2    C2 7226   0.468   4.533  12.633  0.5636  0.1685 -0.0060
  486MPD2    C3 7227   0.518   4.651  12.591  0.6337  0.2351  0.6096
  486MPD2    C4 7228   0.651   4.685  12.614 -0.7228  0.4483 -0.1323
  486MPD2    C5 7229   0.734   4.590  12.668  0.0021  0.1499  0.2020
  486MPD2     H 7230   0.362   4.516  12.616  0.7230 -1.6374  0.8241
  486MPD2    H1 7231   0.702   0.054  12.584  0.0268 -0.1175 -0.5908
  486MPD2    H2 7232   0.757   4.399  12.757  2.7523  1.6739 -1.5734
  486MPD2    H3 7233   0.836   4.622  12.687 -0.6717  0.8897  2.5237
  486MPD2     N 7234   0.425   0.014  12.532  0.2602  0.2151 -0.3907
  486MPD2    H5 7235   0.332   4.704  12.504  1.3333 -3.0757 -0.1670
  486MPD2    N1 7236   0.508   4.322  12.740 -0.0733  0.4277 -0.4994
  486MPD2    H7 7237   0.569   4.251  12.779 -1.6241 -0.0452  1.0812
  487TMC3    C1 7238   0.384   4.130  12.773  0.1144  0.1526  0.1741
  487TMC3    C2 7239   0.309   4.046  12.691  0.5180  0.0181  0.4087
  487TMC3    C3 7240   0.288   3.916  12.737 -0.1060 -0.2659  0.6988
  487TMC3    C4 7241   0.421   4.092  12.899 -0.3172 -0.1207  0.4059
  487TMC3    C5 7242   0.400   3.963  12.945  0.0962 -0.1553  0.3269
  487TMC3    C6 7243   0.326   3.877  12.862 -0.1605 -0.6742 -0.2783
  487TMC3     C 7244   0.381   4.270  12.732  0.0766 -0.5214  0.0559
  487TMC3     O 7245   0.270   4.312  12.710  0.3873 -0.0254 -0.5838
  487TMC3     H 7246   0.275   4.074  12.592 -0.7419  4.5018  2.0907
  487TMC3    H1 7247   0.457   4.166  12.970 -0.6144  2.0205 -1.6453
  487TMC3    H2 7248   0.290   3.781  12.894 -1.8125  0.7893  2.2413
  487TMC3    C7 7249   0.387   3.946  13.095 -0.5187  0.1918  1.0224
  487TMC3    C8 7250   0.170   3.846  12.699 -0.1059  0.2835 -0.3170
  487TMC3    O1 7251   0.431   4.035  13.169  0.5331  0.1772  0.3633
  487TMC3    O2 7252   0.187   3.723  12.684 -0.2115  0.4410  0.0825
  488MPD2     C 7253   0.452   1.865  16.752  0.0291 -0.4691 -0.2115
  488MPD2    C1 7254   0.409   1.985  16.705 -0.2952  0.0943  0.2000
  488MPD2    C2 7255   0.303   2.039  16.769  0.2690  0.8387  0.2803
  488MPD2    C3 7256   0.240   1.975  16.871 -0.4655 -0.4699  0.9470
  488MPD2    C4 7257   0.280   1.854  16.914  0.1991  0.6552 -0.5924
  488MPD2    C5 7258   0.390   1.799  16.852  0.5203  0.0852  0.4382
  488MPD2     H 7259   0.265   2.133  16.731 -0.4362  0.7663  0.7963
  488MPD2    H1 7260   0.232   1.795  16.991  2.2609 -0.8182 -0.4257
  488MPD2    H2 7261   0.533   1.805  16.712  1.1649  1.9606 -1.6100
  488MPD2    H3 7262   0.419   1.695  16.861  2.5433  0.9951  4.2871
  488MPD2     N 7263   0.124   2.042  16.917 -0.3924 -0.3155 -0.1322
  488MPD2    H5 7264   0.114   2.122  16.855  0.4578 -0.7079 -0.7673
  488MPD2    N1 7265   0.467   2.043  16.586  0.1520  0.2901 -0.3324
  488MPD2    H7 7266   0.432   2.132  16.553 -0.4865  0.9211  2.0177
  489TMC3    C1 7267   4.666   2.116  17.039  0.2036 -0.5396 -0.0033
  489TMC3    C2 7268   4.593   2.170  16.941 -0.2125 -0.3884 -0.5445
  489TMC3    C3 7269   4.518   2.283  16.963  0.1281 -0.1141  0.5074
  489TMC3    C4 7270   4.640   2.159  17.166  0.4071  0.3841 -0.1166
  489TMC3    C5 7271   4.561   2.269  17.197 -0.5803 -0.0800 -0.1823
  489TMC3    C6 7272   4.498   2.332  17.091  0.1918 -0.3214 -0.2282
  489TMC3     C 7273   0.051   2.024  17.031  0.6723  0.1431  0.2709
  489TMC3     O 7274   0.065   1.935  17.115  0.2725  0.8821 -0.6325
  489TMC3     H 7275   4.605   2.141  16.837  2.8990 -2.0584  0.2518
  489TMC3    H1 7276   4.687   2.111  17.251  0.9052 -1.4684 -1.4276
  489TMC3    H2 7277   4.458   2.432  17.104 -0.7221 -0.7131 -0.0267
  489TMC3    C7 7278   4.530   2.305  17.342  0.3571 -0.0513  0.0115
  489TMC3    C8 7279   4.523   2.380  16.852 -0.0742 -0.1855  0.3278
  489TMC3    O1 7280   4.590   2.242  17.428 -0.1269 -0.1159 -0.3077
  489TMC3    O2 7281   4.560   2.493  16.874  0.1927  0.4484  0.0345
  490MPD2     C 7282   1.448   1.562  16.982 -0.4075 -0.0147 -0.0996
  490MPD2    C1 7283   1.497   1.456  16.915 -0.1906  0.2882  0.5666
  490MPD2    C2 7284   1.625   1.418  16.930 -0.6538 -0.1230 -0.2045
  490MPD2    C3 7285   1.719   1.492  17.002 -0.0292 -0.0560  0.3513
  490MPD2    C4 7286   1.674   1.601  17.075  0.5691 -0.4581 -0.0818
  490MPD2    C5 7287   1.541   1.635  17.053  0.3267  0.0769  0.8415
  490MPD2     H 7288   1.653   1.329  16.875 -1.6899 -0.7448  0.2575
  490MPD2    H1 7289   1.736   1.659  17.143  1.1362 -1.5829  0.3463
  490MPD2    H2 7290   1.346   1.598  16.976 -1.7885 -3.8456  0.1773
  490MPD2    H3 7291   1.507   1.731  17.089 -1.4516 -0.2810  0.0943
  490MPD2     N 7292   1.839   1.435  17.057  1.1401 -0.0943 -0.0731
  490MPD2    H5 7293   1.872   1.491  17.135  0.2894 -1.1561  1.0579
  490MPD2    N1 7294   1.415   1.362  16.851 -0.2795  0.5195  0.1580
  490MPD2    H7 7295   1.448   1.270  16.823 -1.9985  0.3423 -1.2987
  491TMC3    C1 7296   1.222   1.235  16.820 -0.4157 -0.2858 -0.2086
  491TMC3    C2 7297   1.269   1.131  16.899  0.0318 -0.3565  0.7323
  491TMC3    C3 7298   1.214   1.008  16.882  1.5691  0.3157  0.4857
  491TMC3    C4 7299   1.107   1.214  16.749 -0.1538  0.8991  0.6669
  491TMC3    C5 7300   1.054   1.090  16.740  1.0659 -0.4914 -0.0170
  491TMC3    C6 7301   1.109   0.984  16.805  0.0532 -0.3980  0.6818
  491TMC3     C 7302   1.277   1.366  16.837 -0.4186  0.1272 -0.3670
  491TMC3     O 7303   1.214   1.467  16.810  0.1167  0.0278 -0.6203
  491TMC3     H 7304   1.338   1.159  16.977 -2.8232 -1.8200  3.7524
  491TMC3    H1 7305   1.073   1.286  16.675 -2.0232 -0.4279  0.2443
  491TMC3    H2 7306   1.040   0.900  16.815  1.9204 -1.7454  2.1088
  491TMC3    C7 7307   0.920   1.056  16.688  0.5594 -0.6534  0.0288
  491TMC3    C8 7308   1.244   0.906  16.983 -0.2479 -0.1071 -0.1188
  491TMC3    O1 7309   0.830   1.020  16.766 -0.6754  0.7152 -0.3058
  491TMC3    O2 7310   1.192   0.799  16.966 -0.3805  0.5887 -0.4769
  492MPD2     C 7311   1.893   0.670  10.850  0.0174 -0.0990  0.3757
  492MPD2    C1 7312   1.793   0.589  10.796 -0.3315 -0.3750  0.6767
  492MPD2    C2 7313   1.691   0.535  10.879 -0.1966  0.7684  0.2618
  492MPD2    C3 7314   1.708   0.548  11.012  0.3772 -0.2022  0.1596
  492MPD2    C4 7315   1.800   0.631  11.064 -0.7492 -0.9274  0.2243
  492MPD2    C5 7316   1.890   0.687  10.980 -0.6145 -0.7350 -0.8603
  492MPD2     H 7317   1.616   0.467  10.842 -0.6125  0.5109  1.6102
  492MPD2    H1 7318   1.810   0.668  11.165  1.9132 -1.5883  0.2123
  492MPD2    H2 7319   1.963   0.723  10.787  0.6453 -1.4949 -0.1103
  492MPD2    H3 7320   1.968   0.753  11.015 -0.1377 -1.7011 -0.0934
  492MPD2     N 7321   1.609   0.530  11.109  0.6709  0.1937 -0.8443
  492MPD2    H5 7322   1.625   0.580  11.195  0.1577 -0.7540 -0.1910
  492MPD2    N1 7323   1.803   0.578  10.657 -0.1273  0.4030  0.1285
  492MPD2    H7 7324   1.872   0.643  10.621  0.7419 -1.4597 -1.5391
  493TMC3    C1 7325   1.758   0.544  10.437 -0.4176 -0.0564 -0.2773
  493TMC3    C2 7326   1.892   0.563  10.422 -0.0929  0.3297 -0.4137
  493TMC3    C3 7327   1.933   0.627  10.310  0.0255  0.4458 -0.7297
  493TMC3    C4 7328   1.676   0.585  10.340 -0.4569  0.4925  0.0649
  493TMC3    C5 7329   1.714   0.665  10.240  0.1491  0.3853 -0.2492
  493TMC3    C6 7330   1.845   0.688  10.220  0.2458  0.4538 -0.0186
  493TMC3     C 7331   1.706   0.530  10.567  0.1980 -0.1452  0.3651
  493TMC3     O 7332   1.598   0.474  10.592 -0.0344  0.1701 -0.0206
  493TMC3     H 7333   1.964   0.518  10.489 -0.7553  0.3159  0.2905
  493TMC3    H1 7334   1.571   0.559  10.351  0.0784 -1.8265 -0.3279
  493TMC3    H2 7335   1.870   0.734  10.125 -1.5383 -1.2706 -1.3037
  493TMC3    C7 7336   1.622   0.755  10.181 -0.8374  0.2172 -0.0870
  493TMC3    C8 7337   2.071   0.644  10.296 -0.2766  1.0056  0.4156
  493TMC3    O1 7338   1.508   0.721  10.197 -0.2959 -0.0452  0.7325
  493TMC3    O2 7339   2.144   0.550  10.329 -0.1261  0.2127 -0.3837
  494TMC3    C1 7340   2.062   2.953   1.097  0.6552 -0.6772 -0.0916
  494TMC3    C2 7341   2.048   2.819   1.122 -0.1570  0.4171  0.0794
  494TMC3    C3 7342   2.055   2.739   1.017 -1.0095  0.1158  0.2116
  494TMC3    C4 7343   2.078   3.004   0.973  0.5379  0.1336  0.4291
  494TMC3    C5 7344   2.074   2.922   0.869  0.3179 -0.1777 -1.2980
  494TMC3    C6 7345   2.062   2.792   0.887  0.6306  0.5869 -0.0232
  494TMC3     C 7346   2.040   3.051   1.197  0.0905  0.0066  0.0492
  494TMC3     O 7347   2.008   3.163   1.157 -0.0535 -0.0770 -0.0951
  494TMC3     H 7348   2.033   2.779   1.222  2.2687  1.2119  0.7607
  494TMC3    H1 7349   2.093   3.110   0.961 -1.4279  0.5550  1.5683
  494TMC3    H2 7350   2.083   2.723   0.806  2.5527  0.6344  0.4351
  494TMC3    C7 7351   2.085   2.973   0.730 -0.3079 -0.2072 -0.1716
  494TMC3    C8 7352   2.042   2.597   1.039  0.2967 -0.2982  0.4387
  494TMC3    O1 7353   2.094   2.890   0.641  0.3834 -0.1918 -0.1924
  494TMC3    O2 7354   2.062   2.554   1.153  0.3309  0.2453  0.0117
  495TMC3    C1 7355   1.163   0.279  14.894  0.2384 -0.0265  0.6191
  495TMC3    C2 7356   1.091   0.271  14.776 -0.3655 -0.0796 -0.7802
  495TMC3    C3 7357   0.954   0.284  14.774  0.4646 -0.7702 -0.5869
  495TMC3    C4 7358   1.090   0.265  15.013 -0.1077 -0.2497  0.0530
  495TMC3    C5 7359   0.956   0.295  15.015 -0.5845 -0.1312  0.3090
  495TMC3    C6 7360   0.890   0.301  14.895  0.1071  0.2094 -0.6368
  495TMC3     C 7361   1.264   0.175  14.865  1.0344 -0.4796  0.1960
  495TMC3     O 7362   1.248   0.071  14.929 -0.5285  0.0778 -0.1238
  495TMC3     H 7363   1.137   0.266  14.678  2.2281  0.8669  0.4029
  495TMC3    H1 7364   1.140   0.227  15.102 -1.8746  0.2555  1.2659
  495TMC3    H2 7365   0.782   0.316  14.897  0.1689  0.8294 -1.9943
  495TMC3    C7 7366   0.879   0.219  15.118 -0.0511  0.5321  0.7557
  495TMC3    C8 7367   0.878   0.212  14.676  0.1654 -0.6154 -0.1712
  495TMC3    O1 7368   0.894   0.244  15.237  0.4813 -0.0783  0.6887
  495TMC3    O2 7369   0.756   0.211  14.697  0.5573  0.2129 -0.3105
  496MPD2     C 7370   3.273   4.541  15.355  0.1004  0.2754 -0.4251
  496MPD2    C1 7371   3.153   4.470  15.370  0.4274 -0.2606  0.0364
  496MPD2    C2 7372   3.063   4.502  15.475  0.6761 -0.4032 -0.1163
  496MPD2    C3 7373   3.100   4.597  15.572 -0.8035  0.2260  0.7554
  496MPD2    C4 7374   3.221   4.662  15.552  0.0676  0.3104  0.5213
  496MPD2    C5 7375   3.304   4.633  15.448 -0.0137 -0.0279 -0.1898
  496MPD2     H 7376   2.975   4.439  15.480  1.2065 -1.0584  1.1666
  496MPD2    H1 7377   3.261   0.014  15.620 -1.5866  2.0020 -0.3524
  496MPD2    H2 7378   3.333   4.513  15.269  0.1533 -0.4437 -0.1511
  496MPD2    H3 7379   3.403   4.678  15.446 -0.3441  0.8632  3.0161
  496MPD2     N 7380   3.037   4.622  15.697 -0.5028  0.6081 -0.0999
  496MPD2    H5 7381   3.075   4.692  15.759 -2.8290  1.6708  0.1198
  496MPD2    N1 7382   3.147   4.373  15.266  0.0717  0.0779 -0.3696
  496MPD2    H7 7383   3.225   4.370  15.201  0.7176  0.3689  0.3770
  497TMC3    C1 7384   2.868   4.594  15.874 -0.0274 -0.0889  0.0073
  497TMC3    C2 7385   2.733   4.611  15.869  0.1786  0.5459 -0.2877
  497TMC3    C3 7386   2.675   4.702  15.949  0.3263 -0.3345  0.7943
  497TMC3    C4 7387   2.947   4.675  15.948  0.9131 -0.3930  0.0036
  497TMC3    C5 7388   2.885   0.041  16.035 -0.1069 -0.0702  0.4362
  497TMC3    C6 7389   2.746   0.058  16.037 -0.2237  0.2156  0.8296
  497TMC3     C 7390   2.920   4.558  15.739  1.1337  0.2902  0.4819
  497TMC3     O 7391   2.856   4.467  15.681  0.0656 -0.5000 -0.6580
  497TMC3     H 7392   2.681   4.561  15.788  0.4613 -3.1434  1.8016
  497TMC3    H1 7393   3.056   4.670  15.947  0.8911 -0.9567  1.8612
  497TMC3    H2 7394   2.703   0.122  16.113  2.8660  2.4021  0.7591
  497TMC3    C7 7395   2.965   0.118  16.126 -0.0396  0.1643  0.1883
  497TMC3    C8 7396   2.531   0.002  15.941 -0.1718  0.5324 -0.1771
  497TMC3    O1 7397   2.927   0.233  16.147 -0.3369  0.0081 -0.0137
  497TMC3    O2 7398   2.483   0.084  16.015  0.0066 -0.0486  0.1528
  498MPD2     C 7399   4.372   0.036   9.419 -0.0922 -0.0916 -0.5739
  498MPD2    C1 7400   4.309   0.144   9.472 -0.0123  0.4524 -0.2067
  498MPD2    C2 7401   4.176   0.132   9.495 -0.8641 -0.2447  0.1544
  498MPD2    C3 7402   4.109   0.011   9.471 -0.2920  0.4907  0.4838
  498MPD2    C4 7403   4.183   4.620   9.428  0.0835  0.0345  0.5930
  498MPD2    C5 7404   4.311   4.642   9.398  0.3048 -0.7740  0.2442
  498MPD2     H 7405   4.122   0.215   9.540  1.3565  0.0455  2.2787
  498MPD2    H1 7406   4.141   4.521   9.416 -2.4882  1.1435  0.4540
  498MPD2    H2 7407   4.478   0.035   9.396  0.1253  1.8970  0.3285
  498MPD2    H3 7408   4.374   4.560   9.365  0.8815  0.1460 -0.9255
  498MPD2     N 7409   3.969   4.717   9.495  0.4048 -0.6470 -0.1239
  498MPD2    H5 7410   3.918   0.062   9.551  0.2371  0.2911 -1.4303
  498MPD2    N1 7411   4.367   0.274   9.497  0.6421 -0.0051 -0.1421
  498MPD2    H7 7412   4.303   0.349   9.519 -0.5378 -0.9537 -0.3990
  499TMC3    C1 7413   4.555   0.431   9.511 -0.3026 -0.3214  0.5667
  499TMC3    C2 7414   4.682   0.445   9.555  0.2233  0.1973  0.7835
  499TMC3    C3 7415   0.005   0.575   9.571  0.0639 -0.5633  0.5914
  499TMC3    C4 7416   4.472   0.534   9.495  0.4057  0.0632 -0.4489
  499TMC3    C5 7417   4.526   0.659   9.492  0.0817 -0.9292  0.1183
  499TMC3    C6 7418   4.657   0.685   9.526 -0.0630 -0.0438  0.3311
  499TMC3     C 7419   4.502   0.297   9.495 -0.8142  0.0220  0.3328
  499TMC3     O 7420   4.585   0.209   9.496  0.5884  0.3728 -0.3226
  499TMC3     H 7421   0.019   0.356   9.570 -2.2895 -1.7377 -0.6938
  499TMC3    H1 7422   4.371   0.512   9.464 -0.3139 -2.3502  3.6579
  499TMC3    H2 7423   4.683   0.788   9.547  1.6811 -0.4345  0.0667
  499TMC3    C7 7424   4.434   0.771   9.464 -0.2007  0.1522  0.0445
  499TMC3    C8 7425   0.140   0.602   9.606 -0.7017 -0.0956  0.3345
  499TMC3    O1 7426   4.488   0.877   9.429  0.5154 -0.5597 -0.1682
  499TMC3    O2 7427   0.179   0.713   9.590 -0.6350  0.0580 -0.4923
  500MPD2     C 7428   0.528   1.849  10.629  0.1342  1.1016  0.2864
  500MPD2    C1 7429   0.533   1.916  10.501  1.0291  0.6994  0.3457
  500MPD2    C2 7430   0.413   1.922  10.429 -0.9874 -0.2936  0.6496
  500MPD2    C3 7431   0.291   1.864  10.464 -0.0688 -0.0898 -0.2306
  500MPD2    C4 7432   0.297   1.804  10.596 -0.0020  0.7490  0.3430
  500MPD2    C5 7433   0.411   1.800  10.674  0.4985 -1.6864  0.3079
  500MPD2     H 7434   0.421   1.987  10.343 -3.2890  0.1120  0.7438
  500MPD2    H1 7435   0.202   1.765  10.632 -0.1119 -0.3505 -1.1642
  500MPD2    H2 7436   0.605   1.844  10.705 -0.0836  1.4440  0.5305
  500MPD2    H3 7437   0.409   1.755  10.772 -3.9827 -2.0242  0.0675
  500MPD2     N 7438   0.171   1.870  10.391 -0.3167 -0.3854  0.2521
  500MPD2    H5 7439   0.093   1.826  10.440 -1.1264  1.6254  0.7865
  500MPD2    N1 7440   0.650   1.973  10.452 -0.8533  0.0435 -0.0749
  500MPD2    H7 7441   0.645   2.011  10.358  1.6462 -0.6199 -0.4543
  501TMC3    C1 7442   0.872   2.067  10.433 -0.5150 -0.0614 -0.2712
  501TMC3    C2 7443   0.829   2.177  10.361  0.2818 -0.1078  0.2476
  501TMC3    C3 7444   0.930   2.266  10.317 -0.1890 -0.1138  0.4417
  501TMC3    C4 7445   1.002   2.038  10.454 -0.2222 -0.1731 -0.5079
  501TMC3    C5 7446   1.099   2.125  10.403  0.5750 -0.1705 -0.5034
  501TMC3    C6 7447   1.061   2.237  10.339  0.1352 -0.0297 -0.2082
  501TMC3     C 7448   0.774   1.977  10.515  0.2022 -0.1857  0.3500
  501TMC3     O 7449   0.824   1.925  10.615  0.1236 -0.2880  0.7669
  501TMC3     H 7450   0.723   2.203  10.360  0.1629 -0.5126  1.8395
  501TMC3    H1 7451   1.023   1.946  10.507  0.0313  2.0202  3.2078
  501TMC3    H2 7452   1.135   2.302  10.293 -2.8242  0.4360 -4.2818
  501TMC3    C7 7453   1.243   2.083  10.422 -0.3294 -0.1563 -0.0022
  501TMC3    C8 7454   0.884   2.403  10.306 -0.7239  0.4988  0.5957
  501TMC3    O1 7455   1.257   2.001  10.509 -0.3086 -0.3487  0.3868
  501TMC3    O2 7456   0.788   2.438  10.372 -0.0870  0.4259 -0.0489
  502TMC3    C1 7457   0.126   0.289  14.812 -0.5629 -0.1443  0.0476
  502TMC3    C2 7458   0.046   0.360  14.724  0.2473  0.4691  0.3956
  502TMC3    C3 7459   4.636   0.385  14.762 -0.1765 -1.0845 -0.6476
  502TMC3    C4 7460   0.068   0.203  14.907 -0.8964  0.4144  0.5862
  502TMC3    C5 7461   4.659   0.215  14.930 -0.1287  0.0070  0.4514
  502TMC3    C6 7462   4.585   0.304  14.859 -0.4808  0.2784 -0.5124
  502TMC3     C 7463   0.211   0.383  14.873 -0.6983  0.3754 -0.0567
  502TMC3     O 7464   0.255   0.469  14.796  0.0704 -0.2913 -0.1009
  502TMC3     H 7465   0.092   0.415  14.642  0.0070  1.4197  0.9051
  502TMC3    H1 7466   0.140   0.135  14.952 -0.6078  0.1304 -0.3033
  502TMC3    H2 7467   4.478   0.315  14.874 -0.4743 -0.0428 -0.2187
  502TMC3    C7 7468   4.623   0.194  15.070 -0.8907  0.5377  0.7294
  502TMC3    C8 7469   4.590   0.525  14.774  0.6396  0.1931  0.2489
  502TMC3    O1 7470   4.719   0.173  15.145  0.2906  0.2837 -0.1383
  502TMC3    O2 7471   4.469   0.546  14.783 -0.1498 -0.3529 -0.0236
  503MPD2     C 7472   2.132   1.644  17.047  0.3558  0.0555 -0.7846
  503MPD2    C1 7473   2.179   1.660  17.172  0.0597  0.3935  0.1392
  503MPD2    C2 7474   2.263   1.559  17.229  0.1107  0.1398 -0.5226
  503MPD2    C3 7475   2.318   1.457  17.144 -0.3770  0.5450 -0.0924
  503MPD2    C4 7476   2.275   1.457  17.009 -0.4303  0.0818 -0.3169
  503MPD2    C5 7477   2.177   1.550  16.966 -0.5383  0.0914 -0.1950
  503MPD2     H 7478   2.315   1.580  17.322  0.4783  1.1277 -0.9589
  503MPD2    H1 7479   2.319   1.386  16.940 -1.2210  0.5836 -1.3300
  503MPD2    H2 7480   2.069   1.715  16.996 -0.2311  0.5654  0.6639
  503MPD2    H3 7481   2.153   1.545  16.861 -1.4224  1.7085 -0.0629
  503MPD2     N 7482   2.425   1.379  17.186 -0.7409 -0.0350  0.5134
  503MPD2    H5 7483   2.472   1.395  17.274 -1.5994 -0.3021  1.0255
  503MPD2    N1 7484   2.163   1.784  17.245  0.4983  0.2944  0.1406
  503MPD2    H7 7485   2.218   1.799  17.329  3.1651  2.1389 -1.9081
  504TMC3    C1 7486   2.572   1.205  17.206  0.6225  0.1860 -0.4573
  504TMC3    C2 7487   2.513   1.125  17.299  0.2872  0.1570 -0.3869
  504TMC3    C3 7488   2.573   1.018  17.360 -0.3304 -0.1765 -0.0201
  504TMC3    C4 7489   2.699   1.167  17.170 -0.5399 -0.0474 -0.6245
  504TMC3    C5 7490   2.753   1.057  17.221  1.0646  0.1606  0.5154
  504TMC3    C6 7491   2.697   0.979  17.321  0.0966  0.0226  0.7456
  504TMC3     C 7492   2.478   1.279  17.115  0.5084 -0.4190 -0.3905
  504TMC3     O 7493   2.471   1.236  16.998 -0.7689 -0.1840 -0.3127
  504TMC3     H 7494   2.418   1.161  17.337  0.0070 -0.2997 -0.6643
  504TMC3    H1 7495   2.741   1.209  17.080  0.6756 -1.5321 -0.7543
  504TMC3    H2 7496   2.753   0.896  17.360 -0.2800  0.3494  1.9746
  504TMC3    C7 7497   2.890   1.031  17.190 -0.0574 -0.2032 -0.2728
  504TMC3    C8 7498   2.497   0.946  17.453  0.5365 -0.1056  0.0138
  504TMC3    O1 7499   2.930   1.049  17.075  0.0183  0.0432 -0.2998
  504TMC3    O2 7500   2.381   0.980  17.473 -0.0555  0.5464  0.5231
  505MPD2     C 7501   2.781   4.675  10.171  0.4474 -0.1334 -0.4705
  505MPD2    C1 7502   2.829   4.552  10.205 -0.4261 -0.1251 -0.3963
  505MPD2    C2 7503   2.936   4.552  10.297 -0.2532 -0.8652  0.3733
  505MPD2    C3 7504   2.985   4.667  10.353 -0.5536  0.6424  0.6904
  505MPD2    C4 7505   2.926   0.068  10.321 -0.3242 -0.5175 -1.0604
  505MPD2    C5 7506   2.825   0.067  10.234 -1.3962  0.6078  0.2689
  505MPD2     H 7507   2.977   4.459  10.335  0.3395 -1.5619 -1.9689
  505MPD2    H1 7508   2.959   0.148  10.386  0.5895 -2.5107  0.8991
  505MPD2    H2 7509   2.701   4.692  10.101 -0.0792 -0.0438  0.1459
  505MPD2    H3 7510   2.776   0.160  10.207 -2.0843  0.2350  0.2128
  505MPD2     N 7511   3.088   4.647  10.445 -0.0416 -0.1033 -0.2275
  505MPD2    H5 7512   3.107   4.550  10.470  1.2364  0.6153  1.5459
  505MPD2    N1 7513   2.770   4.438  10.142  0.3514 -0.5242 -0.4148
  505MPD2    H7 7514   2.710   4.462  10.064  1.2449 -1.5419 -1.4110
  506TMC3    C1 7515   2.741   4.214  10.083 -0.3123 -0.3487 -0.2755
  506TMC3    C2 7516   2.744   4.249   9.948 -0.5712  0.0403  0.9950
  506TMC3    C3 7517   2.803   4.157   9.863  0.3181  0.0400  0.4927
  506TMC3    C4 7518   2.774   4.083  10.127  0.0442 -0.1095  0.3137
  506TMC3    C5 7519   2.841   4.005  10.032  0.0705 -0.1418 -0.3354
  506TMC3    C6 7520   2.856   4.034   9.904  0.1497 -0.2767  1.2125
  506TMC3     C 7521   2.789   4.311  10.177  0.6558 -0.0113  0.5791
  506TMC3     O 7522   2.828   4.270  10.285  0.0529 -0.4600 -0.2855
  506TMC3     H 7523   2.721   4.348   9.912 -0.9015 -0.6218 -0.6061
  506TMC3    H1 7524   2.755   4.044  10.226 -0.9898 -1.3214 -0.3703
  506TMC3    H2 7525   2.923   3.978   9.840 -2.5601 -2.3756  0.2696
  506TMC3    C7 7526   2.957   3.936  10.082  0.1076  0.2192  0.3034
  506TMC3    C8 7527   2.821   4.200   9.733 -0.1541 -0.3610 -0.1289
  506TMC3    O1 7528   3.022   3.861  10.006  0.0468  0.1357 -0.4208
  506TMC3    O2 7529   2.722   4.250   9.681 -0.1573 -0.5812 -0.2791
  507TMC3    C1 7530   3.729   0.695  14.724  0.0242 -0.5426 -0.7929
  507TMC3    C2 7531   3.661   0.603  14.642  0.7318  0.0904 -0.3788
  507TMC3    C3 7532   3.647   0.639  14.514 -0.3375  0.5357  0.2005
  507TMC3    C4 7533   3.801   0.800  14.670  0.1574  0.2802 -0.1572
  507TMC3    C5 7534   3.805   0.817  14.535  0.2360  0.6805 -0.1855
  507TMC3    C6 7535   3.724   0.738  14.456 -0.0050  0.9113 -0.4961
  507TMC3     C 7536   3.645   0.738  14.839  0.0093  0.6673 -0.1064
  507TMC3     O 7537   3.702   0.801  14.933 -0.0643 -0.4166  0.2625
  507TMC3     H 7538   3.596   0.527  14.683  1.9278  0.1686  1.6743
  507TMC3    H1 7539   3.801   0.887  14.734  0.0691  0.7035 -0.7315
  507TMC3    H2 7540   3.702   0.763  14.353  3.3834 -1.2675 -1.7753
  507TMC3    C7 7541   3.787   0.954  14.499  0.6427  0.1426  0.1864
  507TMC3    C8 7542   3.503   0.661  14.494 -0.4400  0.5700  0.1061
  507TMC3    O1 7543   3.682   0.978  14.440  0.1072  0.4252  0.1752
  507TMC3    O2 7544   3.423   0.585  14.552  0.2519  0.5352  0.7692
  508MPD2     C 7545   4.070   2.929  16.319 -0.7463  0.1080 -0.1280
  508MPD2    C1 7546   4.153   3.036  16.325  0.3552  0.3600 -0.7440
  508MPD2    C2 7547   4.160   3.116  16.218 -0.4063 -0.1652  0.4224
  508MPD2    C3 7548   4.088   3.100  16.104  0.3484 -0.0852 -0.4181
  508MPD2    C4 7549   4.016   2.983  16.092 -0.7792 -0.4530 -0.6031
  508MPD2    C5 7550   4.007   2.893  16.196  0.0838  0.0274  0.3691
  508MPD2     H 7551   4.215   3.209  16.220 -0.5204 -0.0873 -0.1078
  508MPD2    H1 7552   3.972   2.961  15.995 -0.1136  1.9368 -1.4525
  508MPD2    H2 7553   4.076   2.858  16.400 -0.4820  0.7934  0.4532
  508MPD2    H3 7554   3.964   2.794  16.183 -1.2251  0.1559  3.7115
  508MPD2     N 7555   4.107   3.193  15.999 -0.7262  0.0669 -0.0563
  508MPD2    H5 7556   4.184   3.258  16.013 -0.9479  0.5092 -0.9169
  508MPD2    N1 7557   4.234   3.055  16.440  0.3819 -0.3045 -0.0319
  508MPD2    H7 7558   4.206   2.995  16.517  1.2174  1.4235  1.6160
  509TMC3    C1 7559   4.068   3.453  15.615  0.1745  0.2246 -0.4402
  509TMC3    C2 7560   4.197   3.487  15.619 -0.4266 -0.3228 -0.5359
  509TMC3    C3 7561   4.270   3.431  15.720  0.6818  0.1217 -0.4749
  509TMC3    C4 7562   4.009   3.356  15.688 -0.7063 -0.2218  0.1141
  509TMC3    C5 7563   4.091   3.298  15.786 -0.3748 -1.0913  0.4202
  509TMC3    C6 7564   4.220   3.334  15.800 -0.3368  0.1554  0.3824
  509TMC3     C 7565   3.968   3.544  15.555 -0.1977  0.7196 -0.0608
  509TMC3     O 7566   3.850   3.533  15.582 -0.9464 -0.4948  0.2709
  509TMC3     H 7567   4.251   3.559  15.559 -0.0380  1.1547  1.5943
  509TMC3    H1 7568   3.902   3.340  15.690 -0.6979 -0.0503  1.3794
  509TMC3    H2 7569   4.284   3.277  15.867 -0.2616  0.1513  0.3081
  509TMC3    C7 7570   4.022   3.208  15.889  0.5107 -0.4579  0.0325
  509TMC3    C8 7571   4.407   3.459  15.740 -0.5795 -0.4362  0.2329
  509TMC3    O1 7572   3.914   3.154  15.861  0.1465  0.5746 -0.2795
  509TMC3    O2 7573   4.482   3.369  15.779 -0.4948  0.2576  0.0992
  510MPD2     C 7574   2.504   0.555  14.904  0.3987 -0.0648 -0.1570
  510MPD2    C1 7575   2.426   0.439  14.909  1.0056 -0.3945  0.1758
  510MPD2    C2 7576   2.406   0.374  14.790  0.0863  0.4130  0.4497
  510MPD2    C3 7577   2.444   0.436  14.672 -0.2363  0.8582 -0.2800
  510MPD2    C4 7578   2.518   0.554  14.672  0.1360 -1.1148  0.0799
  510MPD2    C5 7579   2.558   0.609  14.790 -0.0599  0.0191 -0.0156
  510MPD2     H 7580   2.378   0.270  14.780 -1.3094  0.8397 -0.2017
  510MPD2    H1 7581   2.554   0.588  14.576 -0.1614  0.4027  0.5164
  510MPD2    H2 7582   2.532   0.606  14.995 -0.9732 -0.2807  0.3786
  510MPD2    H3 7583   2.607   0.705  14.799 -0.9095  0.5166 -0.7687
  510MPD2     N 7584   2.425   0.366  14.555  0.3639 -0.4431 -0.1184
  510MPD2    H5 7585   2.377   0.277  14.565 -0.3675  0.1618  1.8183
  510MPD2    N1 7586   2.401   0.392  15.036  0.1831 -0.6329  0.0564
  510MPD2    H7 7587   2.430   0.446  15.118  1.3415 -0.4846 -0.4557
  511TMC3    C1 7588   2.335   0.241  15.208 -0.3020  0.4382 -0.2416
  511TMC3    C2 7589   2.324   0.356  15.290 -0.4585 -0.6529  0.4862
  511TMC3    C3 7590   2.336   0.334  15.424 -0.1285 -0.3620 -0.3493
  511TMC3    C4 7591   2.354   0.115  15.261  0.1953  0.6183  0.3100
  511TMC3    C5 7592   2.376   0.110  15.394  0.1955 -0.2260  1.0796
  511TMC3    C6 7593   2.365   0.217  15.475 -0.1679 -0.7364 -0.4264
  511TMC3     C 7594   2.351   0.262  15.068  0.3722  0.2914 -0.4337
  511TMC3     O 7595   2.336   0.161  14.996 -0.3630  0.3336  0.3036
  511TMC3     H 7596   2.292   0.451  15.250 -1.8659 -1.2547  0.1844
  511TMC3    H1 7597   2.389   0.033  15.199  2.3014  0.5493  1.5786
  511TMC3    H2 7598   2.388   0.208  15.580  1.7975  1.2782 -0.6902
  511TMC3    C7 7599   2.463   0.007  15.436  0.1171 -0.1004 -0.1946
  511TMC3    C8 7600   2.274   0.440  15.505 -0.1831 -0.8460  0.1460
  511TMC3    O1 7601   2.569   0.034  15.490  0.4006 -0.3456 -0.0565
  511TMC3    O2 7602   2.230   0.540  15.442  0.5663  0.2884  0.3319
  512TMC3    C1 7603   1.136   4.358  13.076  0.4831  0.0442 -1.3001
  512TMC3    C2 7604   1.189   4.322  13.203  0.1705 -0.1107  0.2767
  512TMC3    C3 7605   1.138   4.203  13.260  0.8596 -0.3376 -0.1995
  512TMC3    C4 7606   1.032   4.289  13.012  0.4040  0.3579  0.4737
  512TMC3    C5 7607   0.992   4.173  13.075 -0.4670  0.2034  0.7242
  512TMC3    C6 7608   1.037   4.131  13.197 -0.4819 -0.0452 -0.3446
  512TMC3     C 7609   1.170   4.483  13.015  0.0104 -0.3620 -1.0556
  512TMC3     O 7610   1.156   4.481  12.895 -0.3990 -0.0489 -0.1856
  512TMC3     H 7611   1.277   4.375  13.237  1.2467 -2.6605  1.4599
  512TMC3    H1 7612   1.006   4.299  12.907  2.2784  0.8499  0.0696
  512TMC3    H2 7613   1.006   4.031  13.226 -0.8475  0.4132  0.8782
  512TMC3    C7 7614   0.904   4.089  12.990 -0.3995 -0.4597 -0.1936
  512TMC3    C8 7615   1.206   4.146  13.371  0.3765  0.4324 -0.1240
  512TMC3    O1 7616   0.840   4.149  12.909  0.6472 -0.5340  0.7535
  512TMC3    O2 7617   1.198   4.024  13.383  0.3079 -0.2120  0.2702
  513MPD2     C 7618   3.522   4.385  12.982  0.2783  0.2097  0.8226
  513MPD2    C1 7619   3.451   4.272  13.006  0.3820  0.2034 -0.3628
  513MPD2    C2 7620   3.502   4.182  13.100  0.5658  0.3649 -0.0528
  513MPD2    C3 7621   3.618   4.212  13.177  0.0995  0.1107 -0.6038
  513MPD2    C4 7622   3.679   4.339  13.165 -0.3671  0.1978 -0.2557
  513MPD2    C5 7623   3.629   4.421  13.067 -0.0894 -0.3207 -0.1828
  513MPD2     H 7624   3.454   4.086  13.112  0.9976  0.5092  2.6490
  513MPD2    H1 7625   3.761   4.367  13.230 -1.6088  0.3127  1.2532
  513MPD2    H2 7626   3.502   4.460  12.905  1.4312 -1.4358 -1.0769
  513MPD2    H3 7627   3.680   4.517  13.064  0.8873 -0.7245  2.9229
  513MPD2     N 7628   3.660   4.111  13.271 -0.2356  0.3085  0.0980
  513MPD2    H5 7629   3.592   4.035  13.276 -0.1580  0.2489  0.2342
  513MPD2    N1 7630   3.344   4.247  12.928 -0.1376 -0.2495  0.1570
  513MPD2    H7 7631   3.321   4.318  12.860 -1.4688 -1.6816 -0.8830
  514TMC3    C1 7632   3.156   4.127  12.830  0.1465 -0.5426 -0.7293
  514TMC3    C2 7633   3.216   4.122  12.707  0.0307 -0.5022 -0.0740
  514TMC3    C3 7634   3.199   4.010  12.640 -0.6133  0.6123 -0.4318
  514TMC3    C4 7635   3.064   4.039  12.865 -0.5222 -0.3175 -0.2376
  514TMC3    C5 7636   3.043   3.927  12.792  0.5604  0.1459 -0.5051
  514TMC3    C6 7637   3.110   3.907  12.680  0.2866 -0.7658 -0.6456
  514TMC3     C 7638   3.258   4.137  12.935 -0.3237 -0.1888  0.3277
  514TMC3     O 7639   3.248   4.042  13.007  0.1814  0.6338 -0.6671
  514TMC3     H 7640   3.301   4.186  12.685 -0.5494 -0.6012 -2.6423
  514TMC3    H1 7641   3.003   4.051  12.954 -2.4803  2.5146 -1.9539
  514TMC3    H2 7642   3.091   3.825  12.611 -1.7770 -1.7226  1.0619
  514TMC3    C7 7643   3.039   3.808  12.870 -0.0322  0.2281  0.9193
  514TMC3    C8 7644   3.265   3.998  12.517  1.0237  0.9909 -0.6432
  514TMC3    O1 7645   2.998   3.704  12.817 -0.3965 -0.6315  0.0487
  514TMC3    O2 7646   3.270   4.096  12.446  0.1087 -0.0461 -0.2003
  515MPD2     C 7647   1.139   1.633  14.886 -0.1289 -0.6084  0.1000
  515MPD2    C1 7648   1.208   1.522  14.841 -0.5708  0.6746  0.4955
  515MPD2    C2 7649   1.332   1.505  14.894  0.9123  0.3281 -0.0498
  515MPD2    C3 7650   1.387   1.592  14.985 -0.3174 -0.6343  0.1886
  515MPD2    C4 7651   1.310   1.698  15.030 -0.1089  0.0335 -0.2164
  515MPD2    C5 7652   1.181   1.721  14.987  0.6113  0.2480  0.1976
  515MPD2     H 7653   1.387   1.418  14.860  0.6848  0.1666 -0.0082
  515MPD2    H1 7654   1.336   1.758  15.116  0.2413  1.1117 -1.0799
  515MPD2    H2 7655   1.039   1.643  14.847  0.6494 -1.4026 -2.0946
  515MPD2    H3 7656   1.113   1.798  15.021 -1.1127 -1.6904  1.1524
  515MPD2     N 7657   1.512   1.583  15.046 -0.0021 -0.1759 -0.1185
  515MPD2    H5 7658   1.546   1.659  15.104  1.4394  1.2419 -2.7689
  515MPD2    N1 7659   1.154   1.426  14.746  0.4285 -0.3843 -0.4943
  515MPD2    H7 7660   1.208   1.340  14.744 -0.5672 -1.0176  0.2786
  516TMC3    C1 7661   1.014   1.315  14.584  0.0728 -0.5623  0.4360
  516TMC3    C2 7662   0.937   1.343  14.472 -0.2758  0.5191  0.4123
  516TMC3    C3 7663   0.869   1.236  14.415 -0.3886 -0.3700  0.0778
  516TMC3    C4 7664   1.025   1.187  14.643 -0.2053 -0.0917 -0.0534
  516TMC3    C5 7665   0.948   1.091  14.582 -0.9086 -0.2897 -0.8044
  516TMC3    C6 7666   0.873   1.113  14.466 -0.6339 -0.1986 -0.4930
  516TMC3     C 7667   1.044   1.432  14.666 -0.4381  0.1138  0.3834
  516TMC3     O 7668   0.987   1.532  14.621 -0.4747 -0.6001 -0.3480
  516TMC3     H 7669   0.930   1.441  14.426 -1.4300  0.5781  0.7213
  516TMC3    H1 7670   1.081   1.160  14.733 -1.1043 -0.4868  0.3914
  516TMC3    H2 7671   0.818   1.030  14.421  0.8155 -1.9889  1.0429
  516TMC3    C7 7672   0.915   0.980  14.668 -0.6464  0.2998  0.6049
  516TMC3    C8 7673   0.760   1.264  14.320  0.2765  0.0424  0.0564
  516TMC3    O1 7674   0.953   0.986  14.783  0.0352 -0.2418  0.0640
  516TMC3    O2 7675   0.669   1.182  14.314 -0.2329 -0.4467 -0.4702
  517MPD2     C 7676   0.265   3.241  17.514 -0.1367  0.6485  0.3911
  517MPD2    C1 7677   0.391   3.232  17.565 -0.2067 -0.1805  0.1770
  517MPD2    C2 7678   0.432   3.322  17.661  0.6390 -0.2975  0.0062
  517MPD2    C3 7679   0.347   3.423   0.003  0.5340 -1.0659 -0.0378
  517MPD2    C4 7680   0.220   3.430  17.642  0.6986 -0.4848  0.4800
  517MPD2    C5 7681   0.181   3.342  17.545 -0.0061  0.2082  0.5259
  517MPD2     H 7682   0.529   3.309   0.015  0.3568 -0.9946  0.4030
  517MPD2    H1 7683   0.157   3.519  17.642  1.1392 -0.1721 -0.8451
  517MPD2    H2 7684   0.232   3.176  17.434 -1.7228  2.3027 -0.2908
  517MPD2    H3 7685   0.087   3.353  17.492  0.0722  2.0082  0.7516
  517MPD2     N 7686   0.380   3.508   0.105 -0.5995  0.0738 -0.0492
  517MPD2    H5 7687   0.307   3.569   0.141 -0.4239 -0.2959  0.9261
  517MPD2    N1 7688   0.488   3.133  17.543 -0.5118  0.3709 -0.5212
  517MPD2    H7 7689   0.569   3.141  17.604 -0.9670  3.5678 -0.3313
  518TMC3    C1 7690   0.590   2.944  17.421 -1.0135  0.0909 -0.4175
  518TMC3    C2 7691   0.573   2.850  17.331 -0.1063  0.4749  0.2998
  518TMC3    C3 7692   0.678   2.766  17.304  0.5330 -0.8743  0.2807
  518TMC3    C4 7693   0.715   2.974  17.468 -0.4026  1.0639 -0.5813
  518TMC3    C5 7694   0.820   2.892  17.446  0.2652 -0.1346 -0.0194
  518TMC3    C6 7695   0.795   2.783  17.368 -0.1608 -0.7363 -0.4159
  518TMC3     C 7696   0.468   3.028  17.457 -0.1110  0.8989  0.0192
  518TMC3     O 7697   0.371   2.996  17.391  0.5604 -0.4570 -0.5019
  518TMC3     H 7698   0.479   2.825  17.283  1.7131 -2.3776 -1.7755
  518TMC3    H1 7699   0.729   3.064  17.527  1.0254  1.5855 -1.6854
  518TMC3    H2 7700   0.874   2.709  17.358 -0.9925 -1.6801 -0.0303
  518TMC3    C7 7701   0.946   2.928  17.503  0.5423 -0.7562 -0.1773
  518TMC3    C8 7702   0.658   2.634  17.248 -0.3380  0.5328 -0.3144
  518TMC3    O1 7703   0.949   3.038  17.556 -0.7976  0.3031  0.2825
  518TMC3    O2 7704   0.762   2.581  17.215 -0.2510 -0.4676 -0.0746
  519MPD2     C 7705   2.896   1.456  13.906 -0.2961 -0.2674 -0.5066
  519MPD2    C1 7706   2.835   1.349  13.969 -0.5154  0.5134 -0.2428
  519MPD2    C2 7707   2.890   1.225  13.958  0.4320  0.4141 -0.4450
  519MPD2    C3 7708   3.000   1.216  13.874  0.9256  0.2477 -0.3262
  519MPD2    C4 7709   3.054   1.324  13.808 -0.2607  0.3365  0.1261
  519MPD2    C5 7710   3.009   1.451  13.832  0.2587  0.5542 -0.6340
  519MPD2     H 7711   2.863   1.133  14.009  2.3893 -0.6173 -1.2793
  519MPD2    H1 7712   3.148   1.323  13.754 -0.4873  0.5483 -0.2783
  519MPD2    H2 7713   2.866   1.556  13.933  0.1982 -0.1842 -0.2629
  519MPD2    H3 7714   3.070   1.533  13.797  1.7530  0.6976  2.2527
  519MPD2     N 7715   3.048   1.081  13.859  0.2881  0.0817  0.0978
  519MPD2    H5 7716   2.996   1.015  13.916  2.8079 -3.1499 -1.3707
  519MPD2    N1 7717   2.716   1.364  14.042 -0.2634  0.0390  0.6357
  519MPD2    H7 7718   2.690   1.459  14.068  2.2147  1.6963 -3.0348
  520TMC3    C1 7719   3.107   0.892  13.737  0.2477  0.0928  0.0202
  520TMC3    C2 7720   3.069   0.844  13.615 -0.9136  0.6086  0.3615
  520TMC3    C3 7721   3.047   0.715  13.600  0.7441 -0.2254  0.9924
  520TMC3    C4 7722   3.131   0.803  13.844  0.0466 -0.5411  0.8993
  520TMC3    C5 7723   3.117   0.670  13.814  0.4259 -1.0380  0.5985
  520TMC3    C6 7724   3.075   0.622  13.693  0.0863 -0.1201  0.5094
  520TMC3     C 7725   3.120   1.032  13.755 -0.5090  0.5379 -0.7080
  520TMC3     O 7726   3.170   1.101  13.667 -0.0953  0.2028 -0.2051
  520TMC3     H 7727   3.029   0.909  13.537  0.0585  0.6143 -0.1251
  520TMC3    H1 7728   3.155   0.838  13.943  1.4201  1.5589 -0.1975
  520TMC3    H2 7729   3.074   0.517  13.662  0.5328 -0.1522  0.5950
  520TMC3    C7 7730   3.132   0.579  13.926  0.4246  0.7249  0.2675
  520TMC3    C8 7731   2.943   0.664  13.512  0.1902  0.2156  0.1460
  520TMC3    O1 7732   3.224   0.587  14.008  0.6797 -0.2766 -0.6387
  520TMC3    O2 7733   2.964   0.570  13.434  0.7756  0.7516 -0.3282
  521MPD2     C 7734   3.281   3.968   0.174 -1.0051  0.0702  0.4681
  521MPD2    C1 7735   3.239   3.930   0.050  0.2780 -0.5519  0.1052
  521MPD2    C2 7736   3.331   3.885  17.648  0.5302 -0.1011  0.0206
  521MPD2    C3 7737   3.465   3.881  17.683  0.7395  0.0176  0.3340
  521MPD2    C4 7738   3.507   3.918   0.120 -0.0331 -0.3552  0.6512
  521MPD2    C5 7739   3.414   3.965   0.208  0.7924  0.3276 -0.8782
  521MPD2     H 7740   3.298   3.845  17.552 -2.1515 -0.2195  0.9987
  521MPD2    H1 7741   3.612   3.926   0.143 -0.2402 -1.7076  2.0524
  521MPD2    H2 7742   3.211   4.014   0.243 -1.7828 -2.0165  1.1040
  521MPD2    H3 7743   3.446   3.980   0.310  0.8548 -1.4562 -0.6349
  521MPD2     N 7744   3.562   3.833  17.584  0.0142  0.0520 -0.0850
  521MPD2    H5 7745   3.517   3.803  17.497 -0.0725  0.2544 -0.1099
  521MPD2    N1 7746   3.095   3.938   0.024 -0.3834  0.7451  0.3581
  521MPD2    H7 7747   3.042   3.972   0.103 -1.2660  1.2879 -0.4729
  522TMC3    C1 7748   3.761   3.786  17.473 -0.1306  0.6799 -0.0501
  522TMC3    C2 7749   3.870   3.710  17.491 -0.3132  0.1747  0.0664
  522TMC3    C3 7750   3.934   3.661  17.381 -0.2400 -0.1746  0.1459
  522TMC3    C4 7751   3.715   3.820  17.350 -0.1070  0.5321 -0.6095
  522TMC3    C5 7752   3.793   3.782  17.245  0.0241  0.2078  0.3208
  522TMC3    C6 7753   3.897   3.695  17.255  0.3306  0.0627 -0.2745
  522TMC3     C 7754   3.698   3.832  17.597  0.0827  0.1186  0.3576
  522TMC3     O 7755   3.770   3.856   0.004 -0.6044 -0.4910  0.4381
  522TMC3     H 7756   3.900   3.671  17.587 -1.6987  0.7366  0.7277
  522TMC3    H1 7757   3.625   3.879  17.342 -0.9696 -0.7848 -0.6850
  522TMC3    H2 7758   3.953   3.669  17.166  2.2945  1.5157  0.5215
  522TMC3    C7 7759   3.757   3.815  17.106 -0.5225  0.5892 -0.1955
  522TMC3    C8 7760   4.041   3.572  17.416 -0.1234 -0.1885 -0.3265
  522TMC3    O1 7761   3.812   3.766  17.012  0.3800 -0.0275  0.5922
  522TMC3    O2 7762   4.078   3.577  17.533 -0.2420 -0.8115  0.1731
  523MPD2     C 7763   1.419   3.538  10.544  0.1055 -0.5754 -0.9388
  523MPD2    C1 7764   1.435   3.532  10.410 -0.3386  0.2581  0.0726
  523MPD2    C2 7765   1.376   3.626  10.325  0.0814 -0.8311 -0.1885
  523MPD2    C3 7766   1.314   3.734  10.381 -0.0873  0.1611 -0.2316
  523MPD2    C4 7767   1.316   3.745  10.516  0.2252 -0.0459 -0.0146
  523MPD2    C5 7768   1.364   3.646  10.598 -0.2941  0.9783  0.0262
  523MPD2     H 7769   1.359   3.607  10.219 -1.5756  0.0170 -0.0822
  523MPD2    H1 7770   1.278   3.835  10.563 -1.7066 -1.0208  0.2926
  523MPD2    H2 7771   1.458   3.462  10.610 -0.7959 -0.2161 -0.0046
  523MPD2    H3 7772   1.350   3.650  10.705  2.5604  2.4766  0.3294
  523MPD2     N 7773   1.262   3.826  10.282 -0.3442  0.2983 -0.4136
  523MPD2    H5 7774   1.258   3.796  10.186 -0.0836 -0.3089 -0.2303
  523MPD2    N1 7775   1.490   3.413  10.358 -0.9028  0.4872  0.3864
  523MPD2    H7 7776   1.506   3.335  10.421 -3.0324 -0.0154  0.2976
  524TMC3    C1 7777   1.135   3.996  10.189 -0.4009 -0.1675 -0.2446
  524TMC3    C2 7778   1.224   4.019  10.088  0.1478 -0.6720 -0.0111
  524TMC3    C3 7779   1.184   4.099   9.984  0.1790 -0.3241 -0.3495
  524TMC3    C4 7780   1.022   4.077  10.204  0.0866  0.4147 -0.4827
  524TMC3    C5 7781   0.988   4.158  10.101  1.4713  1.1034  0.3214
  524TMC3    C6 7782   1.065   4.163   9.987  0.0235  1.2771 -0.1138
  524TMC3     C 7783   1.180   3.932  10.309  0.0248  0.0815  0.0995
  524TMC3     O 7784   1.132   3.979  10.411  0.3408 -0.3574 -0.1733
  524TMC3     H 7785   1.317   3.963  10.082  0.5852 -0.0468  0.8149
  524TMC3    H1 7786   0.967   4.085  10.298 -0.8065 -3.0023 -0.7092
  524TMC3    H2 7787   1.025   4.231   9.913 -0.7332  0.2915 -0.6116
  524TMC3    C7 7788   0.849   4.215  10.108 -0.2608  0.4833  0.3369
  524TMC3    C8 7789   1.302   4.162   9.923  0.3144  0.2378 -0.2445
  524TMC3    O1 7790   0.778   4.170  10.197 -0.7015  0.0950  0.2044
  524TMC3    O2 7791   1.416   4.133   9.957  0.3350  0.3948 -0.2182
  525MPD2     C 7792   3.883   0.307  14.528  0.7344  0.2637 -0.3273
  525MPD2    C1 7793   4.011   0.290  14.580  0.0723 -0.4115  0.0389
  525MPD2    C2 7794   4.106   0.379  14.539  0.3841 -0.5187 -0.0732
  525MPD2    C3 7795   4.080   0.480  14.443 -0.0686 -0.3006 -0.7962
  525MPD2    C4 7796   3.957   0.483  14.386 -0.8832  0.7647  0.1840
  525MPD2    C5 7797   3.861   0.403  14.429  0.1066  0.4757 -0.2252
  525MPD2     H 7798   4.206   0.372  14.581 -0.8036 -0.9995  2.6731
  525MPD2    H1 7799   3.932   0.561  14.315  1.8905  0.6307 -0.9009
  525MPD2    H2 7800   3.801   0.242  14.553  0.0763  1.0808 -0.3515
  525MPD2    H3 7801   3.766   0.417  14.378  1.1698  0.9756 -2.0881
  525MPD2     N 7802   4.166   0.576  14.401  0.1477 -0.0521 -0.3517
  525MPD2    H5 7803   4.129   0.664  14.368  0.2694  0.3922  0.6912
  525MPD2    N1 7804   4.030   0.200  14.684  0.4373  0.0603  0.0179
  525MPD2    H7 7805   4.127   0.184  14.711  0.1750 -1.8723 -0.1455
  526TMC3    C1 7806   3.978   0.081  14.886 -0.5249  0.5598  0.2074
  526TMC3    C2 7807   3.895   0.087  14.989  0.9013  0.4512  0.7469
  526TMC3    C3 7808   3.910   4.718  15.088 -0.1474  0.2353  0.1504
  526TMC3    C4 7809   4.087   4.719  14.875  0.4565  0.1951 -0.1684
  526TMC3    C5 7810   4.105   4.635  14.980 -0.1030 -0.1706 -0.5107
  526TMC3    C6 7811   4.018   4.634  15.083 -0.4317 -0.2155 -0.2891
  526TMC3     C 7812   3.928   0.156  14.768  0.5536 -0.0194 -0.3713
  526TMC3     O 7813   3.806   0.178  14.776 -0.5722 -0.2038  0.0439
  526TMC3     H 7814   3.830   0.173  14.994  2.1488  1.2966  2.5898
  526TMC3    H1 7815   4.128   4.702  14.776  3.3879  2.9076  0.6068
  526TMC3    H2 7816   4.041   4.573  15.169  2.6434 -0.8979 -1.6057
  526TMC3    C7 7817   4.242   4.587  15.008  0.2860 -0.3963 -0.1640
  526TMC3    C8 7818   3.879   0.048  15.219 -0.0741 -0.3278  0.1917
  526TMC3    O1 7819   4.255   4.523  15.113 -0.3330 -0.5016 -0.3573
  526TMC3    O2 7820   3.978   0.058  15.291 -0.2167 -0.6091 -0.0136
  527MPD2     C 7821   2.068   3.487   2.149  1.0484  0.1429  0.7319
  527MPD2    C1 7822   2.196   3.433   2.144  1.4216 -0.5298  0.4258
  527MPD2    C2 7823   2.248   3.417   2.022  0.9436 -0.6707  0.2049
  527MPD2    C3 7824   2.177   3.452   1.904  0.6208  0.2273 -0.5462
  527MPD2    C4 7825   2.047   3.494   1.916 -0.5414 -0.5221 -0.0333
  527MPD2    C5 7826   1.996   3.514   2.037  0.0112 -0.5297  0.0129
  527MPD2     H 7827   2.347   3.375   2.012  0.3045 -2.5568  1.6758
  527MPD2    H1 7828   1.982   3.524   1.836  0.1590 -0.6965 -0.6684
  527MPD2    H2 7829   2.011   3.497   2.241  4.1846 -1.7376  2.8913
  527MPD2    H3 7830   1.897   3.558   2.046  0.4875  0.7584 -1.0883
  527MPD2     N 7831   2.235   3.418   1.776  0.2445  0.3632  0.0246
  527MPD2    H5 7832   2.318   3.360   1.773  0.6477  0.7118  4.3509
  527MPD2    N1 7833   2.265   3.397   2.260  0.0202  0.3767  0.1863
  527MPD2    H7 7834   2.361   3.369   2.240 -0.7437 -0.9668 -1.6350
  528TMC3    C1 7835   2.323   3.374   2.490 -0.0453 -0.7712 -0.7344
  528TMC3    C2 7836   2.451   3.415   2.474 -0.2423 -0.3366  0.6234
  528TMC3    C3 7837   2.554   3.343   2.542 -0.3344  0.0369 -1.0059
  528TMC3    C4 7838   2.294   3.286   2.591 -0.5110  0.0097 -0.2043
  528TMC3    C5 7839   2.393   3.218   2.655 -0.7847  0.6165  0.2812
  528TMC3    C6 7840   2.522   3.249   2.634 -0.0232 -0.0013 -0.0221
  528TMC3     C 7841   2.225   3.418   2.395 -0.1808  0.2306  0.7989
  528TMC3     O 7842   2.124   3.478   2.435  0.2143  0.3572  0.3747
  528TMC3     H 7843   2.493   3.479   2.397  1.1742 -0.2487  1.4651
  528TMC3    H1 7844   2.192   3.254   2.601 -0.1054 -0.7558  1.3645
  528TMC3    H2 7845   2.592   3.203   2.702 -0.5200  0.4066  0.7812
  528TMC3    C7 7846   2.352   3.085   2.702  0.1582  0.1523  0.4133
  528TMC3    C8 7847   2.682   3.398   2.518 -0.6830 -0.0900  0.1601
  528TMC3    O1 7848   2.250   3.025   2.665  0.0790 -0.5411 -0.1766
  528TMC3    O2 7849   2.698   3.510   2.479 -0.2596  0.2681 -0.0685
  529MPD2     C 7850   4.696   2.603   1.502 -0.6321 -0.6423  0.2894
  529MPD2    C1 7851   4.687   2.558   1.372 -0.6382 -0.0547  0.6324
  529MPD2    C2 7852   4.605   2.624   1.282 -0.5613 -0.1279 -0.0538
  529MPD2    C3 7853   4.547   2.742   1.320 -0.0868 -0.0181  0.9818
  529MPD2    C4 7854   4.559   2.783   1.446  0.1303 -0.5148 -0.0813
  529MPD2    C5 7855   4.628   2.713   1.539 -0.2605  1.0398  0.7398
  529MPD2     H 7856   4.596   2.574   1.186 -0.7497  2.5526 -1.4537
  529MPD2    H1 7857   4.512   2.873   1.482 -1.0169 -0.5621 -1.4752
  529MPD2    H2 7858   0.027   2.542   1.575  1.3847 -0.3458 -0.9367
  529MPD2    H3 7859   4.631   2.746   1.642  0.0749  1.4531  0.5960
  529MPD2     N 7860   4.464   2.817   1.233 -0.5741 -0.6207  0.5058
  529MPD2    H5 7861   4.425   2.902   1.272 -0.0139 -0.3831  0.5441
  529MPD2    N1 7862   0.016   2.435   1.333 -0.5431  0.4224  0.4777
  529MPD2    H7 7863   0.004   2.416   1.234  1.2521  0.9254  0.1514
  530TMC3    C1 7864   0.120   2.228   1.341 -0.3569  0.4074  0.0453
  530TMC3    C2 7865   0.143   2.116   1.413  0.2021  0.0956 -0.1341
  530TMC3    C3 7866   0.163   2.002   1.348  0.4971  0.1999 -0.9982
  530TMC3    C4 7867   0.116   2.227   1.202 -0.2891  0.2560 -0.4296
  530TMC3    C5 7868   0.134   2.107   1.144 -0.0688 -0.3806  0.0275
  530TMC3    C6 7869   0.156   1.995   1.214 -0.3672 -0.3853 -0.1179
  530TMC3     C 7870   0.080   2.346   1.413  0.4134 -0.4447 -0.1711
  530TMC3     O 7871   0.094   2.342   1.536  0.2659  0.0901 -0.1776
  530TMC3     H 7872   0.140   2.116   1.522  0.4262 -1.0938 -0.1222
  530TMC3    H1 7873   0.085   2.313   1.144  1.7238 -0.5180 -2.6502
  530TMC3    H2 7874   0.179   1.902   1.163  1.5688  0.1484 -0.2348
  530TMC3    C7 7875   0.138   2.096   1.000  0.0396  0.2249  0.1430
  530TMC3    C8 7876   0.147   1.881   1.434 -0.3771 -0.5922  0.1526
  530TMC3    O1 7877   0.179   2.194   0.938 -0.0457 -0.3634  0.0122
  530TMC3    O2 7878   0.086   1.905   1.539  0.3172  0.2378 -0.2634
  531MPD2     C 7879   3.307   3.535  13.197 -0.0630 -0.2736  0.9217
  531MPD2    C1 7880   3.343   3.668  13.212 -0.4773  0.4410 -0.7115
  531MPD2    C2 7881   3.265   3.765  13.150 -0.6570  0.6159  0.0737
  531MPD2    C3 7882   3.170   3.729  13.057 -0.0260 -0.0841 -0.0564
  531MPD2    C4 7883   3.131   3.591  13.049  0.3355  0.2199 -0.1352
  531MPD2    C5 7884   3.206   3.499  13.121  0.0904  0.2981 -0.1934
  531MPD2     H 7885   3.298   3.869  13.154  1.8734 -0.1376 -1.5029
  531MPD2    H1 7886   3.055   3.548  12.985  1.9113 -2.6501 -0.0572
  531MPD2    H2 7887   3.368   3.456  13.239  0.4446  0.5611  1.7711
  531MPD2    H3 7888   3.190   3.394  13.097 -1.9348  0.6663 -0.4998
  531MPD2     N 7889   3.116   3.825  12.977 -0.0384  0.1718 -0.7177
  531MPD2    H5 7890   3.154   3.918  12.992 -1.7427  0.8069 -0.3196
  531MPD2    N1 7891   3.455   3.694  13.297 -0.0339  0.1482 -0.1573
  531MPD2    H7 7892   3.505   3.613  13.334  0.6437  0.7595  0.2540
  532TMC3    C1 7893   3.626   3.826  13.399 -0.3520  1.5446 -0.8318
  532TMC3    C2 7894   3.654   3.953  13.437  0.1414 -0.6071  0.6939
  532TMC3    C3 7895   3.785   3.988  13.421  0.8249  0.0705  0.1857
  532TMC3    C4 7896   3.726   3.733  13.373  0.1825 -0.3303 -0.4923
  532TMC3    C5 7897   3.856   3.770  13.378 -0.8355 -0.3931  0.0289
  532TMC3    C6 7898   3.889   3.902  13.393  0.9514 -0.2617  0.6216
  532TMC3     C 7899   3.503   3.818  13.327  0.5421 -0.2493  0.4405
  532TMC3     O 7900   3.457   3.931  13.303 -0.3005  0.1839  0.8188
  532TMC3     H 7901   3.584   4.026  13.476 -0.9438 -1.8307  1.0206
  532TMC3    H1 7902   3.694   3.632  13.348  0.1610 -1.2442  3.2327
  532TMC3    H2 7903   3.990   3.940  13.380  0.5842  0.5483  0.1364
  532TMC3    C7 7904   3.950   3.673  13.440  0.0919  0.2359  0.3326
  532TMC3    C8 7905   3.780   4.107  13.337  0.3111 -0.1591 -0.1413
  532TMC3    O1 7906   4.043   3.722  13.502  0.7752  0.1092 -0.3507
  532TMC3    O2 7907   3.879   4.173  13.313 -0.1832 -0.1826 -0.3294
  533TMC3    C1 7908   4.332   0.722  14.475 -0.3799 -0.2713  0.0376
  533TMC3    C2 7909   4.463   0.755  14.476  0.2351  0.1220 -0.0290
  533TMC3    C3 7910   4.499   0.881  14.517  0.4072  0.4718 -0.0701
  533TMC3    C4 7911   4.241   0.806  14.537  0.2162 -0.0611 -0.2257
  533TMC3    C5 7912   4.279   0.924  14.595  0.8358 -0.7427 -0.3732
  533TMC3    C6 7913   4.407   0.970  14.585 -0.3331  0.0551  0.8634
  533TMC3     C 7914   4.294   0.585  14.444 -0.3357  0.4545  0.0493
  533TMC3     O 7915   4.378   0.493  14.441  0.0407  0.3078 -0.0314
  533TMC3     H 7916   4.535   0.691  14.426 -0.6990  1.6614 -3.3558
  533TMC3    H1 7917   4.134   0.784  14.536  0.0101  0.8902  2.0473
  533TMC3    H2 7918   4.448   1.061  14.627  1.1496 -1.6444  3.1487
  533TMC3    C7 7919   4.192   0.967  14.699  0.8407  0.2714  0.3489
  533TMC3    C8 7920   4.632   0.943  14.486  0.0862  0.0618 -0.4536
  533TMC3    O1 7921   4.093   0.895  14.703 -0.5267 -0.6414 -0.1855
  533TMC3    O2 7922   4.719   0.864  14.454  0.3565 -0.0018 -0.2552
  534MPD2     C 7923   2.521   1.722   1.764  0.0410  0.1579 -0.5081
  534MPD2    C1 7924   2.444   1.820   1.826 -0.5583  0.6818 -0.0427
  534MPD2    C2 7925   2.311   1.838   1.782 -0.2642  0.6836  0.5481
  534MPD2    C3 7926   2.267   1.768   1.663  0.0524  0.1664 -0.7469
  534MPD2    C4 7927   2.351   1.673   1.602  0.1926  0.4023 -0.2193
  534MPD2    C5 7928   2.471   1.646   1.661 -0.0544  1.1117  0.5019
  534MPD2     H 7929   2.255   1.915   1.834  0.4578 -0.4654  3.0325
  534MPD2    H1 7930   2.328   1.624   1.508  4.0096  1.4593 -1.6822
  534MPD2    H2 7931   2.622   1.693   1.791 -0.1296 -0.9234 -1.0349
  534MPD2    H3 7932   2.532   1.565   1.622 -1.3810 -0.8436  2.4642
  534MPD2     N 7933   2.144   1.797   1.608 -0.0497  0.5055  0.3301
  534MPD2    H5 7934   2.130   1.767   1.512 -1.6534  0.8647  0.4544
  534MPD2    N1 7935   2.493   1.908   1.930 -0.2766 -0.1654 -0.0327
  534MPD2    H7 7936   2.426   1.974   1.967  0.0722 -0.7989  1.7164
  535TMC3    C1 7937   1.934   1.881   1.571 -0.9189  0.5558  0.0368
  535TMC3    C2 7938   1.806   1.853   1.619  0.1624  0.0790 -0.4986
  535TMC3    C3 7939   1.703   1.845   1.529 -0.2667 -0.4207  0.0924
  535TMC3    C4 7940   1.959   1.896   1.442 -0.1482  0.1472  0.2912
  535TMC3    C5 7941   1.855   1.883   1.356 -0.6259 -0.4530  0.2062
  535TMC3    C6 7942   1.724   1.858   1.394  0.1001 -0.1492 -0.5218
  535TMC3     C 7943   2.042   1.869   1.664  0.1956  0.9454  0.5972
  535TMC3     O 7944   2.024   1.876   1.785  0.0627 -0.0141 -0.1420
  535TMC3     H 7945   1.786   1.844   1.726 -0.3134 -0.3876 -0.6254
  535TMC3    H1 7946   2.057   1.938   1.419 -1.2854  2.1763 -0.8379
  535TMC3    H2 7947   1.645   1.857   1.319 -2.1561 -0.7225  1.8399
  535TMC3    C7 7948   1.900   1.897   1.219  0.5114  0.2773  0.0975
  535TMC3    C8 7949   1.568   1.823   1.565  0.2753  0.0691 -0.1364
  535TMC3    O1 7950   2.002   1.836   1.186  0.3957 -0.0200 -0.0037
  535TMC3    O2 7951   1.479   1.833   1.478  0.2225  0.4988  0.2225
  536MPD2     C 7952   4.633   0.166  16.461 -0.0030 -0.2403  0.6543
  536MPD2    C1 7953   0.010   0.243  16.401  0.4123  0.0352 -0.3171
  536MPD2    C2 7954   4.711   0.298  16.269 -0.1257  0.0667  0.3378
  536MPD2    C3 7955   4.602   0.257  16.198  0.6354 -0.1986 -0.9484
  536MPD2    C4 7956   4.507   0.185  16.261  0.2076  0.5414 -0.2729
  536MPD2    C5 7957   4.516   0.150  16.393 -0.2126 -0.1000  0.3364
  536MPD2     H 7958   0.061   0.364  16.221 -0.3292  1.1824  1.5648
  536MPD2    H1 7959   4.408   0.164  16.220 -0.1685  0.3377  0.7314
  536MPD2    H2 7960   4.639   0.140  16.566  2.3367 -1.5923  0.1991
  536MPD2    H3 7961   4.430   0.122  16.452  0.1535 -0.1690  0.8373
  536MPD2     N 7962   4.581   0.280  16.056  0.6038  0.0836  0.5103
  536MPD2    H5 7963   4.486   0.274  16.020  0.3645 -0.7775  1.2565
  536MPD2    N1 7964   0.118   0.274  16.484  0.0769  0.8311 -0.1229
  536MPD2    H7 7965   0.114   0.241  16.580  0.5440  1.2316  0.0359
  537TMC3    C1 7966   0.313   0.386  16.566 -0.6054  0.8396 -0.7176
  537TMC3    C2 7967   0.405   0.488  16.536 -0.8232  0.5064 -0.4382
  537TMC3    C3 7968   0.467   0.549  16.643  0.7656 -0.0118 -0.1878
  537TMC3    C4 7969   0.302   0.316  16.689  0.2506 -0.1623  0.3871
  537TMC3    C5 7970   0.371   0.382  16.786  0.1936 -0.4116 -0.6108
  537TMC3    C6 7971   0.449   0.493  16.768  0.0332  0.2326 -0.5661
  537TMC3     C 7972   0.235   0.344  16.452  0.5691 -0.4739 -0.1350
  537TMC3     O 7973   0.275   0.387  16.346 -0.3918  0.2093 -0.3480
  537TMC3     H 7974   0.406   0.544  16.443  1.0919  0.0906 -0.6841
  537TMC3    H1 7975   0.245   0.225  16.699  1.5996 -1.0658 -0.0986
  537TMC3    H2 7976   0.474   0.544  16.860  0.1010  1.3792 -1.2206
  537TMC3    C7 7977   0.311   0.382  16.923  0.0060 -0.1157 -0.3870
  537TMC3    C8 7978   0.551   0.665  16.631  0.3948 -0.0656  0.3425
  537TMC3    O1 7979   0.289   0.489  16.981  0.1047 -0.3148 -0.0248
  537TMC3    O2 7980   0.562   0.737  16.729  0.3457 -0.2232  0.5822
  538TMC3    C1 7981   2.039   3.568  11.237 -1.0809  0.3576  0.0589
  538TMC3    C2 7982   2.133   3.532  11.139  0.3606 -0.6672 -0.7928
  538TMC3    C3 7983   2.083   3.501  11.017  0.3425  0.4198  0.2077
  538TMC3    C4 7984   1.905   3.566  11.214 -0.4125 -0.0658 -0.6075
  538TMC3    C5 7985   1.861   3.554  11.089 -0.1767  0.4608 -0.1057
  538TMC3    C6 7986   1.950   3.523  10.986 -0.9658  0.2443 -1.0019
  538TMC3     C 7987   2.070   3.573  11.382 -0.0146  0.3039 -0.9825
  538TMC3     O 7988   1.976   3.581  11.460 -0.4020  0.1869 -0.1266
  538TMC3     H 7989   2.239   3.525  11.162  0.0748  0.3017  0.8403
  538TMC3    H1 7990   1.839   3.582  11.298 -2.5293  2.5242 -2.8060
  538TMC3    H2 7991   1.907   3.495  10.890 -1.8968  0.0001 -0.5172
  538TMC3    C7 7992   1.727   3.601  11.058  0.2878  0.7294 -0.6099
  538TMC3    C8 7993   2.172   3.450  10.911 -0.1515  1.0701  0.6367
  538TMC3    O1 7994   1.663   3.558  10.962 -0.0056  0.1909  0.2261
  538TMC3    O2 7995   2.253   3.368  10.950 -0.4854 -0.3698  0.2494
  539MPD2     C 7996   1.783   2.652  11.503 -0.6277  0.6869  0.0898
  539MPD2    C1 7997   1.667   2.612  11.571 -0.3374 -0.2526 -0.0952
  539MPD2    C2 7998   1.605   2.700  11.654  0.2502  0.8165 -0.2922
  539MPD2    C3 7999   1.659   2.823  11.687 -0.4099 -0.7721  0.0972
  539MPD2    C4 8000   1.775   2.858  11.624  0.2321  0.9149 -0.4364
  539MPD2    C5 8001   1.842   2.769  11.545  0.1455  0.0165  0.3596
  539MPD2     H 8002   1.502   2.677  11.679  1.0714 -2.7509 -0.1685
  539MPD2    H1 8003   1.828   2.952  11.636 -0.2477  0.8836  1.9944
  539MPD2    H2 8004   1.825   2.596  11.420  1.0711  1.3173  0.5340
  539MPD2    H3 8005   1.935   2.811  11.506 -0.7336 -0.0090 -1.7794
  539MPD2     N 8006   1.599   2.917  11.766 -0.4637  0.2632  0.3780
  539MPD2    H5 8007   1.632   3.013  11.759  0.9254 -0.1136  1.9031
  539MPD2    N1 8008   1.604   2.492  11.529 -0.2354  0.0758  0.2818
  539MPD2    H7 8009   1.551   2.451  11.605  0.0018  1.9596  1.4648
  540TMC3    C1 8010   1.414   3.021  11.863  0.0536  0.5412 -0.7608
  540TMC3    C2 8011   1.416   3.112  11.759 -0.5092 -0.7472  0.4359
  540TMC3    C3 8012   1.295   3.159  11.712  0.1003  0.8453 -0.1132
  540TMC3    C4 8013   1.296   2.995  11.938  0.3997  0.5270  0.4283
  540TMC3    C5 8014   1.183   3.035  11.875  0.9108 -0.0546  0.0081
  540TMC3    C6 8015   1.181   3.128  11.772  0.2552 -0.2610  0.1672
  540TMC3     C 8016   1.487   2.896  11.846  0.1115  0.0924  0.3485
  540TMC3     O 8017   1.452   2.791  11.893  0.2302  0.2246 -0.7260
  540TMC3     H 8018   1.510   3.127  11.706 -0.2022 -0.3225  1.0922
  540TMC3    H1 8019   1.309   2.920  12.015  0.2585  0.7085  0.6263
  540TMC3    H2 8020   1.091   3.177  11.738  0.3112 -0.0358  0.3417
  540TMC3    C7 8021   1.054   2.989  11.918  0.5398 -0.5957 -0.2698
  540TMC3    C8 8022   1.288   3.231  11.589  0.6639 -0.5513  0.1691
  540TMC3    O1 8023   0.963   2.983  11.841 -0.1198 -0.1842  0.6520
  540TMC3    O2 8024   1.372   3.317  11.579  0.2639  0.4067 -0.0908
  541MPD2     C 8025   0.162   4.239  13.246  0.0544 -0.2923  0.5856
  541MPD2    C1 8026   0.040   4.186  13.217  0.0269 -1.3832 -0.6483
  541MPD2    C2 8027   4.692   4.240  13.114 -0.1575 -0.4337 -0.5783
  541MPD2    C3 8028   0.011   4.346  13.045 -0.4464  0.8113 -0.9289
  541MPD2    C4 8029   0.123   4.413  13.088 -0.1010 -0.5463 -0.4475
  541MPD2    C5 8030   0.202   4.352  13.185  0.0876 -0.9792  0.6027
  541MPD2     H 8031   4.596   4.194  13.095  0.4624 -1.4696 -1.2090
  541MPD2    H1 8032   0.163   4.499  13.035  4.2112 -1.1658  1.8575
  541MPD2    H2 8033   0.226   4.183  13.314 -0.5744 -1.0482  0.5558
  541MPD2    H3 8034   0.297   4.399  13.210  1.4740 -2.6069 -1.5780
  541MPD2     N 8035   4.663   4.401  12.940  0.1796 -0.4008  0.2020
  541MPD2    H5 8036   4.710   4.469  12.882  0.6263 -0.8661  0.0115
  541MPD2    N1 8037   4.715   4.068  13.273  0.2680  0.1064  0.3795
  541MPD2    H7 8038   4.628   4.027  13.239  1.4193 -1.6302 -0.4726
  542TMC3    C1 8039   4.494   4.437  12.783  0.2606 -0.8526  0.5857
  542TMC3    C2 8040   4.474   4.371  12.666  0.7665 -0.1297  0.5661
  542TMC3    C3 8041   4.491   4.435  12.544 -0.1043  0.4145  0.2146
  542TMC3    C4 8042   4.514   4.568  12.779  0.4825 -0.3496  0.2963
  542TMC3    C5 8043   4.516   4.633  12.661  0.1334 -0.2710  0.7997
  542TMC3    C6 8044   4.508   4.570  12.542  0.2978 -0.1718  0.0346
  542TMC3     C 8045   4.532   4.365  12.905 -0.5527 -0.1935 -1.0284
  542TMC3     O 8046   4.467   4.260  12.918  0.3803  0.4759  0.5509
  542TMC3     H 8047   4.461   4.264  12.677  4.0268 -0.8094 -2.5423
  542TMC3    H1 8048   4.549   4.614  12.871 -3.0195  0.1308  1.4118
  542TMC3    H2 8049   4.512   4.618  12.445 -1.2457 -0.2157 -0.0600
  542TMC3    C7 8050   4.544   0.053  12.659 -0.0156 -0.0410 -0.1225
  542TMC3    C8 8051   4.522   4.369  12.422  0.6741 -0.1300  0.4821
  542TMC3    O1 8052   4.594   0.102  12.761 -0.4288 -0.5006  0.2032
  542TMC3    O2 8053   4.516   4.427  12.314 -0.4926  0.3143 -0.9264
  543TMC3    C1 8054   4.086   1.127  17.314  0.0731  0.2384 -0.5913
  543TMC3    C2 8055   4.132   1.001  17.355 -1.0205 -0.1060  0.6033
  543TMC3    C3 8056   4.124   0.973  17.486 -0.3335 -0.4189  0.5334
  543TMC3    C4 8057   4.033   1.216  17.399 -0.2805  0.3546  0.6487
  543TMC3    C5 8058   4.036   1.182  17.538 -0.1357  0.0654 -0.4572
  543TMC3    C6 8059   4.086   1.063  17.581  0.1028 -1.0694 -0.3125
  543TMC3     C 8060   4.097   1.162  17.170  0.6672  0.1214 -0.1032
  543TMC3     O 8061   4.183   1.100  17.115 -0.1309  0.0781  0.1102
  543TMC3     H 8062   4.151   0.920  17.285 -0.4052  1.6156 -1.2364
  543TMC3    H1 8063   4.010   1.318  17.371 -0.9545  0.7592  2.6871
  543TMC3    H2 8064   4.091   1.049  17.688 -1.4858  2.3294  0.2197
  543TMC3    C7 8065   3.988   1.268  17.642  0.6714  0.4303 -0.1881
  543TMC3    C8 8066   4.144   0.837  17.514 -0.2352  0.1273 -0.2123
  543TMC3    O1 8067   4.023   1.248   0.067 -0.0759  0.1080  0.4167
  543TMC3    O2 8068   4.127   0.755  17.421 -0.1286 -0.1748  0.0835
  544MPD2     C 8069   4.342   0.438   0.073  0.0070  0.2125 -0.0970
  544MPD2    C1 8070   4.252   0.436  17.662  0.1904  0.0973  0.4135
  544MPD2    C2 8071   4.203   0.561  17.624  0.1757  0.4979 -0.1228
  544MPD2    C3 8072   4.242   0.679  17.684  0.1151 -0.4722 -0.1292
  544MPD2    C4 8073   4.321   0.676   0.102  0.3698  1.1173 -0.0520
  544MPD2    C5 8074   4.371   0.552   0.138 -0.2001 -0.2123 -0.1459
  544MPD2     H 8075   4.141   0.566  17.535  0.0436  1.0408 -0.0003
  544MPD2    H1 8076   4.371   0.757   0.152 -0.1399  1.1866  0.3423
  544MPD2    H2 8077   4.387   0.344   0.103 -1.1277 -0.3569 -0.2089
  544MPD2    H3 8078   4.443   0.545   0.219  0.7131 -1.7332 -1.1070
  544MPD2     N 8079   4.208   0.812  17.636 -0.0171  0.4691  0.5264
  544MPD2    H5 8080   4.248   0.890  17.687  1.5052 -0.5063  0.8184
  544MPD2    N1 8081   4.213   0.313  17.611  0.4792 -0.0320  0.4654
  544MPD2    H7 8082   4.251   0.229  17.653 -0.2159 -1.1819 -1.2265
  545TMC3    C1 8083   4.060   0.166  17.508  0.2059 -0.5444  0.1080
  545TMC3    C2 8084   3.951   0.147  17.422  0.3482 -0.4106 -1.1472
  545TMC3    C3 8085   3.893   0.023  17.408 -0.8087  0.1334  0.6663
  545TMC3    C4 8086   4.119   0.060  17.568  0.4027 -0.3346  0.0665
  545TMC3    C5 8087   4.065   4.662  17.549  0.5061 -0.5574  0.1921
  545TMC3    C6 8088   3.953   4.638  17.472 -0.0085  0.2828 -0.0944
  545TMC3     C 8089   4.118   0.300  17.519 -0.4406 -0.0984  0.1987
  545TMC3     O 8090   4.050   0.384  17.459 -0.1061  0.3938  0.2090
  545TMC3     H 8091   3.899   0.230  17.376 -0.6089 -0.8248 -0.8106
  545TMC3    H1 8092   4.201   0.083  17.635  0.1682  0.1115  0.2022
  545TMC3    H2 8093   3.908   4.540  17.469 -1.9210  1.0566  3.1704
  545TMC3    C7 8094   4.144   4.547  17.560 -0.2051  0.0317 -0.0538
  545TMC3    C8 8095   3.783   0.002  17.310  0.5016  0.1538  0.1962
  545TMC3    O1 8096   4.101   4.440  17.518 -0.5509  0.6296 -0.0972
  545TMC3    O2 8097   3.728   0.099  17.259  0.4803 -0.1904  0.1278
  546MPD2     C 8098   1.052   1.142  17.222 -0.2840  0.5742  0.4194
  546MPD2    C1 8099   0.934   1.173  17.166 -0.0401 -0.3573  0.2158
  546MPD2    C2 8100   0.905   1.299  17.127 -0.4504  0.0363  0.3099
  546MPD2    C3 8101   0.983   1.401  17.175 -0.5390  0.6409 -0.5605
  546MPD2    C4 8102   1.109   1.370  17.230  0.4218  0.5472 -0.1541
  546MPD2    C5 8103   1.140   1.242  17.252 -0.3296  0.0480  0.0919
  546MPD2     H 8104   0.807   1.321  17.084 -0.7336 -0.4849  0.6894
  546MPD2    H1 8105   1.179   1.443  17.271  0.6475 -0.7622  1.7739
  546MPD2    H2 8106   1.066   1.036  17.245 -0.1352  0.6206  0.5432
  546MPD2    H3 8107   1.236   1.224  17.300 -0.1922 -1.2569 -0.6677
  546MPD2     N 8108   0.953   1.536  17.142  0.2337 -0.4697  0.3647
  546MPD2    H5 8109   1.032   1.598  17.151  0.5716 -0.5521 -2.1599
  546MPD2    N1 8110   0.841   1.069  17.142  0.4993  0.6764  0.0412
  546MPD2    H7 8111   0.860   0.974  17.171  0.2850  1.1378  1.6994
  547TMC3    C1 8112   0.631   0.956  17.084 -0.9073 -0.2307  0.2287
  547TMC3    C2 8113   0.526   0.947  16.997  0.1208  0.1858  0.5097
  547TMC3    C3 8114   0.454   0.844  16.991  0.1376 -0.6447  0.4975
  547TMC3    C4 8115   0.654   0.853  17.176  0.5617  0.1165  0.9897
  547TMC3    C5 8116   0.588   0.738  17.153 -0.5275  1.4297  0.1357
  547TMC3    C6 8117   0.481   0.738  17.071 -0.0694  0.3292 -0.7490
  547TMC3     C 8118   0.718   1.076  17.082  0.4030  0.0877  0.1589
  547TMC3     O 8119   0.655   1.178  17.059  0.2527  0.8545  0.3963
  547TMC3     H 8120   0.504   1.024  16.924 -0.6419 -0.2773  0.2577
  547TMC3    H1 8121   0.735   0.856  17.247  0.8827  0.5719  0.6042
  547TMC3    H2 8122   0.439   0.639  17.054 -0.5761 -0.0489  2.7223
  547TMC3    C7 8123   0.618   0.636  17.249  0.3746  0.7552  0.0238
  547TMC3    C8 8124   0.315   0.870  16.939  0.3289  0.5129 -0.5365
  547TMC3    O1 8125   0.632   0.663  17.367 -0.7046 -0.3474  0.1447
  547TMC3    O2 8126   0.300   0.963  16.859  0.9213  0.2250 -0.0461
  548MPD2     C 8127   0.456   1.722  12.156  0.5833 -0.2262 -0.7688
  548MPD2    C1 8128   0.446   1.589  12.193 -0.1397 -0.4416  0.3868
  548MPD2    C2 8129   0.541   1.492  12.158  0.5845  0.3025 -0.7081
  548MPD2    C3 8130   0.658   1.532  12.093  0.5319 -0.5930  0.2806
  548MPD2    C4 8131   0.675   1.667  12.070 -0.2294 -0.1387  0.2976
  548MPD2    C5 8132   0.576   1.757  12.099 -0.0570  0.4372  0.2845
  548MPD2     H 8133   0.541   1.390  12.194  1.8003  0.3896 -0.4425
  548MPD2    H1 8134   0.756   1.691  12.002 -1.1141 -0.3461 -0.8349
  548MPD2    H2 8135   0.379   1.797  12.171  0.0610 -1.0662  0.7082
  548MPD2    H3 8136   0.586   1.860  12.069  0.8402 -0.4376 -2.4018
  548MPD2     N 8137   0.774   1.449  12.073  0.1362 -0.3905  0.9347
  548MPD2    H5 8138   0.853   1.488  12.023 -0.7920 -1.3781 -1.3165
  548MPD2    N1 8139   0.336   1.548  12.267  0.0246  0.3450 -0.0965
  548MPD2    H7 8140   0.263   1.618  12.279 -1.6645 -1.6977  1.5134
  549TMC3    C1 8141   0.184   1.409  12.383  0.5633  0.3018  0.2755
  549TMC3    C2 8142   0.119   1.518  12.440  0.5883 -0.4006  0.6153
  549TMC3    C3 8143   0.017   1.499  12.528 -0.9818  0.1664  0.2942
  549TMC3    C4 8144   0.143   1.281  12.415 -0.0870 -0.0123 -0.0710
  549TMC3    C5 8145   0.034   1.264  12.500  0.0653 -0.2213 -0.1453
  549TMC3    C6 8146   4.693   1.376  12.557 -0.8675 -0.4128  0.1660
  549TMC3     C 8147   0.298   1.421  12.299 -0.2191 -0.1249  0.4478
  549TMC3     O 8148   0.355   1.314  12.286 -0.6554  0.3015  0.1499
  549TMC3     H 8149   0.136   1.619  12.403  0.7530 -0.4804  0.4746
  549TMC3    H1 8150   0.191   1.192  12.376  0.4988 -0.7781  2.3907
  549TMC3    H2 8151   4.605   1.355  12.617 -1.6671  1.1631 -0.4448
  549TMC3    C7 8152   0.057   1.156  12.591 -0.4958 -0.8134 -0.0313
  549TMC3    C8 8153   4.661   1.609  12.565  1.0682  0.0623  0.1866
  549TMC3    O1 8154   0.094   1.199  12.701  0.7625 -0.2394 -0.1153
  549TMC3    O2 8155   4.547   1.578  12.586  0.1415  0.2602  0.1096
  550TMC3    C1 8156   4.284   3.530  12.185 -0.1266 -0.6196 -0.4005
  550TMC3    C2 8157   4.272   3.601  12.295 -0.2736 -0.7078 -0.0840
  550TMC3    C3 8158   4.289   3.734  12.294 -1.0806  0.3759  1.1888
  550TMC3    C4 8159   4.298   3.598  12.065 -0.2367 -0.5630  0.2394
  550TMC3    C5 8160   4.324   3.734  12.061  0.2168 -0.1865 -0.2194
  550TMC3    C6 8161   4.320   3.802  12.180 -0.2544  0.7562 -1.1671
  550TMC3     C 8162   4.174   3.437  12.187 -0.7888  0.3644  0.0066
  550TMC3     O 8163   4.179   3.361  12.280 -0.5437 -0.4077 -0.5437
  550TMC3     H 8164   4.266   3.540  12.385  0.5062  0.4366  0.7439
  550TMC3    H1 8165   4.290   3.544  11.972 -2.1242 -0.2458  0.2050
  550TMC3    H2 8166   4.322   3.910  12.178  2.0225  0.7470  0.8426
  550TMC3    C7 8167   4.236   3.790  11.968 -1.0326 -0.4175 -0.0474
  550TMC3    C8 8168   4.188   3.802  12.369  0.3621  0.2668  0.6171
  550TMC3    O1 8169   4.122   3.783  12.002  0.2975 -0.4983 -0.2388
  550TMC3    O2 8170   4.181   3.924  12.356  0.2724  0.6767  0.1601
  551TMC3    C1 8171   1.177   1.891  13.310  0.2094  0.1406  0.2788
  551TMC3    C2 8172   1.297   1.876  13.244 -0.4588  0.6363  0.0218
  551TMC3    C3 8173   1.415   1.866  13.313 -0.5866 -0.7961 -0.0912
  551TMC3    C4 8174   1.177   1.897  13.444  0.0951 -0.2160  0.0454
  551TMC3    C5 8175   1.293   1.884  13.516 -0.5109 -0.6069  1.3275
  551TMC3    C6 8176   1.413   1.861  13.454 -0.6240  0.3556  0.3873
  551TMC3     C 8177   1.058   1.880  13.223 -0.1541  0.3874 -0.1252
  551TMC3     O 8178   1.072   1.892  13.105  0.3830 -0.2993 -0.2152
  551TMC3     H 8179   1.305   1.871  13.136  0.5722  1.0804  0.0743
  551TMC3    H1 8180   1.088   1.935  13.493  1.2586  2.1583  0.3267
  551TMC3    H2 8181   1.508   1.880  13.503  1.1006 -0.2656 -2.6827
  551TMC3    C7 8182   1.324   1.969  13.632 -0.3030 -0.2038  0.0425
  551TMC3    C8 8183   1.529   1.916  13.242 -0.3080  0.2881  0.2090
  551TMC3    O1 8184   1.399   1.922  13.715  0.1174  0.0027 -0.3877
  551TMC3    O2 8185   1.633   1.854  13.258 -0.4729 -0.3138 -0.5278
  552MPD2     C 8186   3.660   4.042  13.784 -0.0118 -0.2500 -0.1512
  552MPD2    C1 8187   3.650   3.916  13.833 -0.1647  0.0015  0.0821
  552MPD2    C2 8188   3.752   3.869  13.911 -0.2817  0.2146  0.3815
  552MPD2    C3 8189   3.870   3.939  13.933 -0.2844  0.4037 -0.1651
  552MPD2    C4 8190   3.883   4.067  13.879  0.1531  0.7819 -0.1169
  552MPD2    C5 8191   3.774   4.115  13.807 -0.4023  0.9170  0.2727
  552MPD2     H 8192   3.750   3.766  13.946  0.3399 -0.2070 -0.8217
  552MPD2    H1 8193   3.971   4.126  13.900  1.9421 -0.9679 -2.6594
  552MPD2    H2 8194   3.575   4.097  13.745 -0.5370 -0.8973  0.0700
  552MPD2    H3 8195   3.768   4.217  13.772  2.0512  0.8291 -0.4257
  552MPD2     N 8196   3.978   3.894  14.010  0.2994  0.4674  0.0380
  552MPD2    H5 8197   4.055   3.960  14.023  1.3187 -0.8091  0.4833
  552MPD2    N1 8198   3.546   3.834  13.811 -0.1679  0.1630  0.1936
  552MPD2    H7 8199   3.544   3.749  13.866 -3.5452 -0.0627 -0.2439
  553TMC3    C1 8200   3.333   3.750  13.748  1.0581  0.0892  0.8675
  553TMC3    C2 8201   3.253   3.723  13.642 -0.2205  0.0591  0.2469
  553TMC3    C3 8202   3.175   3.613  13.646 -0.1398 -0.0115 -0.1811
  553TMC3    C4 8203   3.335   3.675  13.865 -0.7170  0.2874 -0.0427
  553TMC3    C5 8204   3.255   3.567  13.872  0.1536 -0.7892 -0.7193
  553TMC3    C6 8205   3.174   3.537  13.761  0.0761  0.4692  0.1438
  553TMC3     C 8206   3.442   3.851  13.730 -0.4559 -0.2004 -0.6093
  553TMC3     O 8207   3.430   3.933  13.643  0.3727  0.0390 -0.7819
  553TMC3     H 8208   3.265   3.771  13.546  1.2991 -1.1601 -0.1682
  553TMC3    H1 8209   3.399   3.697  13.949 -0.1241 -0.0097 -0.4174
  553TMC3    H2 8210   3.139   3.435  13.754  0.1499  0.3253  1.8241
  553TMC3    C7 8211   3.343   3.458  13.917 -0.4769  0.2457 -0.0661
  553TMC3    C8 8212   3.197   3.521  13.539  0.8039 -0.3889  0.5730
  553TMC3    O1 8213   3.395   3.461  14.026  0.5121  0.4877  0.5027
  553TMC3    O2 8214   3.311   3.477  13.535  0.6208  0.4629 -0.5711
  554TMC3    C1 8215   0.336   2.688  11.257 -0.3450  0.4944  0.3156
  554TMC3    C2 8216   0.342   2.623  11.136 -0.3596 -0.2069  0.4133
  554TMC3    C3 8217   0.445   2.674  11.057  0.5294  0.3022 -0.7853
  554TMC3    C4 8218   0.407   2.808  11.285 -0.0734  0.2573  0.1582
  554TMC3    C5 8219   0.516   2.841  11.202 -0.0425  0.0943  0.4799
  554TMC3    C6 8220   0.542   2.768  11.090  0.8021 -0.6705  0.1229
  554TMC3     C 8221   0.305   2.602  11.364 -0.8498  0.3187 -0.4702
  554TMC3     O 8222   0.232   2.507  11.346 -0.3111 -0.1594  0.0706
  554TMC3     H 8223   0.302   2.523  11.118 -1.2973 -0.0600  1.6925
  554TMC3    H1 8224   0.392   2.871  11.372 -0.0930 -1.3341  1.3012
  554TMC3    H2 8225   0.603   2.825  11.021  1.0635  0.5016  1.3244
  554TMC3    C7 8226   0.562   2.985  11.202 -0.8147  0.2797 -0.0325
  554TMC3    C8 8227   0.442   2.644  10.913 -0.5524  0.0874  0.4863
  554TMC3    O1 8228   0.562   3.037  11.094 -0.2430 -0.2232 -0.0764
  554TMC3    O2 8229   0.530   2.689  10.840  0.3315 -0.0902 -0.3151
  555TMC3    C1 8230   3.900   2.694  15.379 -0.0750 -0.4042  0.2529
  555TMC3    C2 8231   3.947   2.725  15.505 -0.3918  0.4080 -1.0708
  555TMC3    C3 8232   3.993   2.640  15.589 -0.0991  0.5864 -0.0061
  555TMC3    C4 8233   3.914   2.565  15.339 -0.0423 -0.4527 -0.5919
  555TMC3    C5 8234   3.973   2.476  15.421 -0.0695  0.2639  0.2970
  555TMC3    C6 8235   4.019   2.510  15.546 -0.1800  0.1152 -0.5285
  555TMC3     C 8236   3.929   2.789  15.289  0.7867  0.1418  0.1018
  555TMC3     O 8237   4.014   2.866  15.331  0.3967 -0.4149 -0.1281
  555TMC3     H 8238   3.921   2.824  15.539  1.6504  0.3661  0.5907
  555TMC3    H1 8239   3.889   2.550  15.234  0.2627  0.7798 -0.8432
  555TMC3    H2 8240   4.074   2.446  15.614 -0.9230  0.4544  0.3852
  555TMC3    C7 8241   4.013   2.341  15.377  1.0383 -0.0623 -0.7015
  555TMC3    C8 8242   4.070   2.701  15.702 -0.3731  0.0282 -0.1623
  555TMC3    O1 8243   3.923   2.264  15.340  0.1926 -0.1199  0.1180
  555TMC3    O2 8244   4.013   2.759  15.798  0.4948  0.5820  0.3002
  556MPD2     C 8245   2.617   4.585  10.516  0.8488  0.3058  0.6873
  556MPD2    C1 8246   2.624   4.466  10.576  0.2265  1.2272  1.0023
  556MPD2    C2 8247   2.557   4.353  10.526  0.1903  0.2607  0.1613
  556MPD2    C3 8248   2.487   4.360  10.403  0.5507  0.1276 -0.4108
  556MPD2    C4 8249   2.476   4.485  10.348  0.4688 -0.0135  0.1613
  556MPD2    C5 8250   2.540   4.593  10.404  0.7186 -1.1478 -0.0426
  556MPD2     H 8251   2.586   4.254  10.559  0.7096  0.6300  0.8061
  556MPD2    H1 8252   2.413   4.508  10.263 -0.1980  0.6433  0.8222
  556MPD2    H2 8253   2.667   4.675  10.549  2.9960 -1.2648  1.6786
  556MPD2    H3 8254   2.530   4.693  10.365  2.1307 -1.1559 -0.4016
  556MPD2     N 8255   2.440   4.236  10.346 -0.6776 -0.5680  0.2427
  556MPD2    H5 8256   2.452   4.152  10.402  0.6966 -0.2040  0.5055
  556MPD2    N1 8257   2.686   4.452  10.700  0.2099  0.5779  0.5058
  556MPD2    H7 8258   2.688   4.359  10.740 -0.0334  0.4597  0.2467
  557TMC3    C1 8259   2.388   4.078  10.184  0.1926  0.4542 -0.5051
  557TMC3    C2 8260   2.426   4.040  10.061  0.4034 -0.0464 -0.7021
  557TMC3    C3 8261   2.417   3.905  10.041 -0.0341 -0.6524 -0.1912
  557TMC3    C4 8262   2.338   3.997  10.278 -0.3736 -0.1834  0.0922
  557TMC3    C5 8263   2.334   3.859  10.252  0.1524 -0.4476  0.3914
  557TMC3    C6 8264   2.377   3.810  10.133  0.2398 -0.1143 -0.2841
  557TMC3     C 8265   2.412   4.217  10.213  0.1380 -0.7332 -0.2797
  557TMC3     O 8266   2.421   4.299  10.119  0.5077  0.4518  0.5573
  557TMC3     H 8267   2.491   4.103  10.001 -1.4617  1.0925 -1.5195
  557TMC3    H1 8268   2.290   4.034  10.368  1.2063  0.6042  0.6023
  557TMC3    H2 8269   2.368   3.704  10.117 -0.0914 -0.0781 -0.3371
  557TMC3    C7 8270   2.289   3.779  10.368 -0.3080 -0.5932 -0.0859
  557TMC3    C8 8271   2.508   3.857   9.933 -0.0977 -0.7022  0.2443
  557TMC3    O1 8272   2.216   3.832  10.453 -0.4668 -0.1196 -0.2450
  557TMC3    O2 8273   2.568   3.939   9.862  0.4543 -0.0469 -0.0120
  558TMC3    C1 8274   0.061   1.831  10.183 -0.3497  0.1054 -0.5101
  558TMC3    C2 8275   4.672   1.781  10.247 -0.6813  0.0971 -0.1576
  558TMC3    C3 8276   4.574   1.719  10.173 -0.3979 -0.6379 -0.2910
  558TMC3    C4 8277   0.068   1.826  10.049 -0.2644  0.0265 -0.5021
  558TMC3    C5 8278   4.694   1.766   9.973 -0.2750  0.2956  0.4869
  558TMC3    C6 8279   4.580   1.717  10.033  0.6308 -0.3652 -0.0386
  558TMC3     C 8280   0.162   1.906  10.257 -0.0702  0.8515 -0.1081
  558TMC3     O 8281   0.246   1.970  10.195  0.7641  0.9289 -0.8323
  558TMC3     H 8282   4.672   1.772  10.355 -2.2664 -3.7295 -0.4502
  558TMC3    H1 8283   0.167   1.838  10.007 -0.3491  1.0983 -0.3955
  558TMC3    H2 8284   4.500   1.666   9.980 -1.8196  3.9979 -0.5464
  558TMC3    C7 8285   4.708   1.773   9.832 -0.8290  0.0500 -0.1466
  558TMC3    C8 8286   4.479   1.644  10.245  0.2205 -0.1435  0.5905
  558TMC3    O1 8287   0.087   1.824   9.794 -0.7428 -0.4750  1.0381
  558TMC3    O2 8288   4.363   1.649  10.211 -0.2367  0.2460 -0.0520
  559MPD2     C 8289   0.295   2.308  10.405  0.4771 -0.1582  0.3796
  559MPD2    C1 8290   0.219   2.241  10.506 -0.4173 -0.0184 -0.1899
  559MPD2    C2 8291   0.286   2.205  10.623  0.2182 -0.0595 -0.0801
  559MPD2    C3 8292   0.419   2.227  10.643  0.8284 -0.2591 -0.0144
  559MPD2    C4 8293   0.490   2.276  10.535 -0.3409 -0.3073  0.2242
  559MPD2    C5 8294   0.434   2.326  10.419 -0.0115 -0.0199  0.4880
  559MPD2     H 8295   0.229   2.180  10.711 -0.0216  1.6625  0.2364
  559MPD2    H1 8296   0.595   2.297  10.551 -0.7942  1.7542  0.4155
  559MPD2    H2 8297   0.248   2.356  10.320  1.4484 -1.4911 -0.8877
  559MPD2    H3 8298   0.496   2.384  10.352 -0.7024 -1.2814 -1.2368
  559MPD2     N 8299   0.472   2.186  10.769 -0.3731 -0.3081  0.6660
  559MPD2    H5 8300   0.404   2.149  10.834 -3.2217  1.6643 -1.2062
  559MPD2    N1 8301   0.079   2.234  10.493  0.5029 -0.3133 -0.0277
  559MPD2    H7 8302   0.030   2.291  10.425 -0.7836 -0.3339  0.8950
  560TMC3    C1 8303   0.649   2.127  10.915 -0.0043  0.1772  0.4341
  560TMC3    C2 8304   0.578   2.018  10.943 -0.4599  0.0177 -0.5627
  560TMC3    C3 8305   0.606   1.955  11.058 -0.4160 -0.1601  0.8250
  560TMC3    C4 8306   0.752   2.170  10.998  0.3430 -0.0437 -0.0946
  560TMC3    C5 8307   0.771   2.101  11.116 -0.1397 -0.0778 -0.8229
  560TMC3    C6 8308   0.701   1.988  11.146  0.2457  0.4099 -0.1111
  560TMC3     C 8309   0.603   2.203  10.803  0.5532 -0.4504 -0.0186
  560TMC3     O 8310   0.690   2.279  10.753 -0.1260 -0.7738  0.3385
  560TMC3     H 8311   0.510   1.979  10.867 -0.5288  0.1820 -0.5864
  560TMC3    H1 8312   0.812   2.257  10.973  0.0916 -0.1696 -1.1207
  560TMC3    H2 8313   0.720   1.928  11.234 -2.6887  1.5481  1.2828
  560TMC3    C7 8314   0.868   2.153  11.216  0.0364 -0.2437 -1.1950
  560TMC3    C8 8315   0.514   1.846  11.088 -0.2016 -0.0737  0.2393
  560TMC3    O1 8316   0.882   2.081  11.317 -0.6977 -0.3509  0.2110
  560TMC3    O2 8317   0.453   1.796  10.998 -0.1478 -0.4464 -0.6527
  561TMC3    C1 8318   3.020   1.275  11.454 -0.0065  0.1738 -0.4041
  561TMC3    C2 8319   2.929   1.189  11.517 -0.0617 -0.1325 -0.1692
  561TMC3    C3 8320   2.808   1.245  11.548  0.4913  0.5290  0.2587
  561TMC3    C4 8321   2.982   1.400  11.405  0.2415 -0.2789  0.3745
  561TMC3    C5 8322   2.853   1.444  11.437  0.1191  0.2662 -0.4396
  561TMC3    C6 8323   2.772   1.368  11.508 -0.1062 -0.3736  0.1968
  561TMC3     C 8324   3.153   1.225  11.411  0.1526  0.8301 -0.0733
  561TMC3     O 8325   3.173   1.107  11.414 -0.1263 -0.1280  0.4666
  561TMC3     H 8326   2.947   1.086  11.545 -0.0113 -0.3931 -1.1489
  561TMC3    H1 8327   3.049   1.453  11.338 -2.0348  2.5731  0.3582
  561TMC3    H2 8328   2.670   1.405  11.511 -0.1907 -0.6622  0.8151
  561TMC3    C7 8329   2.807   1.580  11.405 -0.3255 -0.6566 -0.0497
  561TMC3    C8 8330   2.721   1.171  11.632 -0.0052 -0.5049 -0.1917
  561TMC3    O1 8331   2.705   1.616  11.462  0.0528  0.3668  0.1563
  561TMC3    O2 8332   2.750   1.054  11.651 -0.0579 -0.5333 -0.5017
  562TMC3    C1 8333   3.624   3.103  16.160  0.3404 -0.0081 -0.7650
  562TMC3    C2 8334   3.668   3.067  16.032 -0.6144 -0.2400 -0.0092
  562TMC3    C3 8335   3.713   2.937  16.013 -0.6780  0.2089  0.5023
  562TMC3    C4 8336   3.631   3.011  16.260 -0.3628 -0.4534  0.0564
  562TMC3    C5 8337   3.677   2.886  16.236 -0.7303 -0.7365  0.1784
  562TMC3    C6 8338   3.709   2.843  16.110 -0.1734 -0.6279  0.7578
  562TMC3     C 8339   3.493   3.163  16.168 -0.0831  0.7454  0.3038
  562TMC3     O 8340   3.418   3.098  16.235  0.3029 -0.7340 -0.2408
  562TMC3     H 8341   3.657   3.130  15.944 -0.2455  1.6091  1.2674
  562TMC3    H1 8342   3.605   3.041  16.360 -1.8543  3.2075 -1.4333
  562TMC3    H2 8343   3.748   2.745  16.086  2.2245  0.8178 -1.1699
  562TMC3    C7 8344   3.694   2.786  16.346 -0.6457  0.5928 -0.0194
  562TMC3    C8 8345   3.678   2.879  15.884 -0.3141  0.2412 -0.3198
  562TMC3    O1 8346   3.640   2.815  16.450 -0.0190  0.0835  0.5736
  562TMC3    O2 8347   3.598   2.787  15.881  0.0316 -0.8456  0.6471
  563MPD2     C 8348   1.891   4.179  15.589  0.7310 -0.5511  0.5061
  563MPD2    C1 8349   1.807   4.233  15.681 -0.0623 -0.1923  0.4032
  563MPD2    C2 8350   1.865   4.305  15.793 -0.0846 -0.3833 -0.0600
  563MPD2    C3 8351   2.002   4.311  15.809 -0.1237  0.0004 -0.0833
  563MPD2    C4 8352   2.083   4.254  15.713  0.3974 -0.0074  0.2718
  563MPD2    C5 8353   2.026   4.194  15.602  0.9149  0.2471 -0.1007
  563MPD2     H 8354   1.802   4.359  15.862 -1.4545 -4.0128  1.5219
  563MPD2    H1 8355   2.191   4.261  15.721  0.5356  0.7612 -2.1903
  563MPD2    H2 8356   1.851   4.125  15.504 -0.3492  0.0259  0.6497
  563MPD2    H3 8357   2.104   4.152  15.539  2.1134  1.1960  0.7556
  563MPD2     N 8358   2.052   4.379  15.918 -0.5771 -0.3604 -0.0315
  563MPD2    H5 8359   1.987   4.429  15.978  0.4430  0.5259  0.3205
  563MPD2    N1 8360   1.662   4.238  15.680  0.1962  0.0362  0.3737
  563MPD2    H7 8361   1.609   4.290  15.749 -1.3278 -1.2155  0.1412
  564TMC3    C1 8362   1.457   4.158  15.664 -0.1636 -0.3094 -0.1790
  564TMC3    C2 8363   1.403   4.033  15.653 -0.1941  0.3875  0.5284
  564TMC3    C3 8364   1.337   3.980  15.762  0.7544  0.6198 -0.3383
  564TMC3    C4 8365   1.434   4.240  15.770 -0.1459 -0.1658  0.0212
  564TMC3    C5 8366   1.375   4.178  15.878 -0.0021  0.2697 -0.4967
  564TMC3    C6 8367   1.330   4.051  15.872 -0.3280  0.3933 -0.0278
  564TMC3     C 8368   1.590   4.157  15.601  0.0203  0.2591  0.0062
  564TMC3     O 8369   1.626   4.073  15.521  0.2669 -0.4058 -0.6794
  564TMC3     H 8370   1.407   3.982  15.557 -2.7715 -0.1535  0.6994
  564TMC3    H1 8371   1.470   4.342  15.770  1.4299 -0.7346 -1.3487
  564TMC3    H2 8372   1.283   3.997  15.953 -1.6512  0.4475 -0.7524
  564TMC3    C7 8373   1.463   4.196  15.991  0.2915  0.1322  0.3153
  564TMC3    C8 8374   1.275   3.845  15.758 -0.1993  0.4637 -0.0991
  564TMC3    O1 8375   1.502   4.087  16.036  0.0500 -0.0917 -0.5615
  564TMC3    O2 8376   1.206   3.811  15.852 -0.3174 -0.0393 -0.1371
  565TMC3    C1 8377   2.483   0.815  10.017  0.6450 -0.2184 -0.1069
  565TMC3    C2 8378   2.545   0.717  10.088  0.4178 -0.2105 -0.0564
  565TMC3    C3 8379   2.474   0.603  10.122 -0.3289 -0.2265  0.3587
  565TMC3    C4 8380   2.371   0.795   9.946 -0.3891  0.3964  0.4366
  565TMC3    C5 8381   2.306   0.679   9.976 -0.4766  0.3163  0.0504
  565TMC3    C6 8382   2.353   0.580  10.065 -0.1705 -0.0427  0.5442
  565TMC3     C 8383   2.569   0.924   9.977 -0.7650  0.0496  0.4817
  565TMC3     O 8384   2.535   0.967   9.868 -0.5814  0.5043 -0.0753
  565TMC3     H 8385   2.648   0.717  10.123  0.5674  1.5803 -0.4961
  565TMC3    H1 8386   2.323   0.871   9.886 -2.2376 -0.6337  0.5844
  565TMC3    H2 8387   2.299   0.487  10.069  1.8152 -1.3759 -3.3796
  565TMC3    C7 8388   2.182   0.660   9.905  0.1457 -0.1052 -0.1395
  565TMC3    C8 8389   2.520   0.515  10.228 -0.1233  0.6232 -0.0458
  565TMC3    O1 8390   2.163   0.543   9.877 -0.0075  0.1825 -0.0036
  565TMC3    O2 8391   2.640   0.521  10.254 -0.2256 -0.0409 -0.4480
  566MPD2     C 8392   3.538   2.289  14.364 -0.1391 -0.5225  0.3974
  566MPD2    C1 8393   3.576   2.386  14.273 -0.3556  0.7295  1.0726
  566MPD2    C2 8394   3.538   2.369  14.146  0.9412 -0.2530 -0.5501
  566MPD2    C3 8395   3.482   2.247  14.104 -0.5088 -0.1832 -0.4818
  566MPD2    C4 8396   3.458   2.145  14.194 -0.3981 -0.0740 -0.0710
  566MPD2    C5 8397   3.483   2.170  14.326 -0.7477 -0.6114  0.5694
  566MPD2     H 8398   3.583   2.430  14.068 -0.5033  0.5178 -0.7908
  566MPD2    H1 8399   3.404   2.055  14.168 -1.7957  0.3854  1.2619
  566MPD2    H2 8400   3.557   2.309  14.469  2.0898  1.1029 -0.3103
  566MPD2    H3 8401   3.457   2.105  14.408 -3.8801 -0.8485 -0.6027
  566MPD2     N 8402   3.458   2.231  13.969  0.2192 -0.2662  0.0277
  566MPD2    H5 8403   3.481   2.311  13.911  1.0406  0.3429  1.1964
  566MPD2    N1 8404   3.662   2.484  14.317 -0.0333 -0.2781 -0.6834
  566MPD2    H7 8405   3.697   2.456  14.408 -1.7878  0.4904  0.2240
  567TMC3    C1 8406   3.805   2.674  14.296 -0.2825 -0.7245  0.4518
  567TMC3    C2 8407   3.884   2.729  14.197  0.0324 -0.4676 -0.3578
  567TMC3    C3 8408   3.999   2.789  14.222 -0.4573 -0.0422 -0.2998
  567TMC3    C4 8409   3.841   2.670  14.424  0.2700  0.3017  0.0604
  567TMC3    C5 8410   3.962   2.729  14.460 -0.3611  0.1723  0.1785
  567TMC3    C6 8411   4.037   2.793  14.358  0.1250  0.3254 -0.5052
  567TMC3     C 8412   3.701   2.592  14.239 -0.4997 -0.0941  0.5153
  567TMC3     O 8413   3.664   2.619  14.128 -0.0226 -0.5457 -0.4314
  567TMC3     H 8414   3.867   2.716  14.091 -0.5505 -0.2127 -0.2942
  567TMC3    H1 8415   3.780   2.611  14.491  0.6399 -0.1084  0.0348
  567TMC3    H2 8416   4.134   2.834  14.383  0.1274 -0.2527  0.4566
  567TMC3    C7 8417   4.041   2.708  14.578  0.4737  0.6603  0.3702
  567TMC3    C8 8418   4.090   2.823  14.108  0.0765  0.4917 -0.1659
  567TMC3    O1 8419   4.150   2.760  14.591 -0.1016 -0.4010 -0.0499
  567TMC3    O2 8420   4.073   2.747  14.011  0.0926 -1.0192 -0.6227
  568MPD2     C 8421   1.710   3.082  16.629 -0.5765 -0.5103  0.0509
  568MPD2    C1 8422   1.603   3.141  16.694 -0.4915  0.3747  0.0627
  568MPD2    C2 8423   1.494   3.192  16.628 -0.0070 -0.0465  0.6129
  568MPD2    C3 8424   1.477   3.177  16.490 -0.2938 -0.3372  0.3752
  568MPD2    C4 8425   1.585   3.108  16.424  0.4537  0.0504  0.0948
  568MPD2    C5 8426   1.695   3.066  16.491  0.3583 -0.2174  0.1404
  568MPD2     H 8427   1.406   3.227  16.680 -0.6043  0.8123 -0.9766
  568MPD2    H1 8428   1.582   3.086  16.318  0.1760 -1.0593  0.3296
  568MPD2    H2 8429   1.796   3.042  16.681  0.3764  0.2677 -0.9581
  568MPD2    H3 8430   1.775   3.022  16.433  0.0840  2.1066 -1.9775
  568MPD2     N 8431   1.355   3.194  16.428  0.4966  0.0663 -0.6136
  568MPD2    H5 8432   1.282   3.238  16.483 -1.4187 -2.0240 -1.4860
  568MPD2    N1 8433   1.627   3.154  16.837  0.6799 -0.2406 -0.3528
  568MPD2    H7 8434   1.711   3.109  16.871  1.4790  0.8124 -0.9234
  569TMC3    C1 8435   1.186   3.197  16.252  0.6078 -0.8322 -0.2754
  569TMC3    C2 8436   1.143   3.323  16.289 -0.3010 -0.1849  0.0913
  569TMC3    C3 8437   1.059   3.389  16.212 -0.1266  0.1233  0.1236
  569TMC3    C4 8438   1.154   3.150  16.129  0.6153  0.0857  0.7938
  569TMC3    C5 8439   1.076   3.221  16.048 -0.1583  0.3128  0.3644
  569TMC3    C6 8440   1.029   3.340  16.088  0.1505  0.1341  0.4558
  569TMC3     C 8441   1.317   3.146  16.305  0.3696 -0.3246  0.3900
  569TMC3     O 8442   1.364   3.056  16.232  0.0861 -0.5693  0.8232
  569TMC3     H 8443   1.165   3.356  16.390 -0.2649 -0.3946  0.1510
  569TMC3    H1 8444   1.198   3.062  16.083 -1.3914 -0.9639  0.8670
  569TMC3    H2 8445   0.961   3.386  16.017 -0.5978 -2.5252 -0.5599
  569TMC3    C7 8446   1.126   3.243  15.910 -0.0327  0.3103 -0.0653
  569TMC3    C8 8447   1.044   3.534  16.215 -0.2875  0.1784  0.1407
  569TMC3    O1 8448   1.159   3.146  15.840 -0.5778 -0.5342  0.1612
  569TMC3    O2 8449   0.964   3.590  16.142  0.3194 -0.3732  0.0297
  570TMC3    C1 8450   0.566   2.029  16.373  0.2535 -0.1129  0.3911
  570TMC3    C2 8451   0.647   1.956  16.283  0.3241  0.3505 -0.6608
  570TMC3    C3 8452   0.654   2.008  16.157  0.3165  0.4583  0.2514
  570TMC3    C4 8453   0.498   2.136  16.332 -0.5138 -0.6141 -0.0588
  570TMC3    C5 8454   0.505   2.180  16.207 -0.1285 -0.3796 -0.6889
  570TMC3    C6 8455   0.585   2.115  16.115 -0.7074 -0.1264  0.2079
  570TMC3     C 8456   0.574   1.996  16.517  0.4827  0.0798 -0.6773
  570TMC3     O 8457   0.640   1.897  16.543  0.1313  0.0389  0.3552
  570TMC3     H 8458   0.699   1.866  16.314  2.3334  1.7712  0.1431
  570TMC3    H1 8459   0.450   2.199  16.406 -0.4925 -0.7588  0.0792
  570TMC3    H2 8460   0.593   2.138  16.009  0.4372  1.3199  0.6072
  570TMC3    C7 8461   0.442   2.299  16.169 -1.0444  0.6172 -0.3087
  570TMC3    C8 8462   0.783   1.999  16.087 -0.7168  0.1385 -0.5567
  570TMC3    O1 8463   0.342   2.339  16.233 -0.7601 -0.3344  0.1793
  570TMC3    O2 8464   0.826   2.100  16.031  0.0440 -0.2234 -0.4014
  571MPD2     C 8465   2.884   3.042   0.424 -0.2528 -0.1874 -0.6964
  571MPD2    C1 8466   2.951   3.117   0.326  0.4625  0.0739  0.2139
  571MPD2    C2 8467   2.940   3.252   0.328 -0.1754  0.7055  0.6686
  571MPD2    C3 8468   2.858   3.318   0.418  0.4671  0.0466 -0.1698
  571MPD2    C4 8469   2.808   3.242   0.522  0.2764 -0.2609  0.4515
  571MPD2    C5 8470   2.807   3.109   0.517 -0.2167  0.3763  0.5186
  571MPD2     H 8471   2.991   3.310   0.251 -2.0300 -0.0692 -1.1199
  571MPD2    H1 8472   2.764   3.296   0.605 -2.6697 -3.5094  1.0288
  571MPD2    H2 8473   2.901   2.935   0.433  0.2023 -0.1883 -1.5485
  571MPD2    H3 8474   2.779   3.053   0.606  0.9392  0.7482  1.1121
  571MPD2     N 8475   2.836   3.461   0.425  0.6435  0.4497  0.8314
  571MPD2    H5 8476   2.766   3.495   0.491  0.0035  1.0365 -0.1467
  571MPD2    N1 8477   3.036   3.043   0.248  0.5017  0.0661  0.2634
  571MPD2    H7 8478   3.043   2.944   0.265  1.0596 -0.2020 -1.5168
  572TMC3    C1 8479   2.832   3.685   0.353  0.9763 -0.5334 -0.6027
  572TMC3    C2 8480   2.740   3.682   0.450  0.1273  0.2247  0.0830
  572TMC3    C3 8481   2.737   3.782   0.542 -0.5326 -0.5581  0.3136
  572TMC3    C4 8482   2.923   3.779   0.343 -0.1679 -0.2118 -0.5885
  572TMC3    C5 8483   2.914   3.880   0.436  1.1252  0.1374 -0.1304
  572TMC3    C6 8484   2.827   3.887   0.538  0.0669 -0.2543 -0.4806
  572TMC3     C 8485   2.893   3.555   0.337 -0.2377  0.3573  0.0434
  572TMC3     O 8486   2.977   3.548   0.246 -0.3491  0.0575 -0.3345
  572TMC3     H 8487   2.654   3.617   0.433  0.4149  0.2659 -1.5041
  572TMC3    H1 8488   2.989   3.782   0.257  3.3279 -0.3249  2.1203
  572TMC3    H2 8489   2.813   3.972   0.604  3.5371  0.7387 -1.0514
  572TMC3    C7 8490   2.979   4.002   0.393  0.5849  0.5006  0.2219
  572TMC3    C8 8491   2.644   3.767   0.652  0.7462  0.3453  0.3310
  572TMC3    O1 8492   2.994   4.012   0.271  0.5585  0.3693  0.1857
  572TMC3    O2 8493   2.569   3.669   0.643 -0.3256  0.2336 -0.3561
  573MPD2     C 8494   0.154   4.359   1.199  0.3541  1.0700 -0.7985
  573MPD2    C1 8495   0.231   4.463   1.147 -0.3804  0.4205 -0.7229
  573MPD2    C2 8496   0.244   4.475   1.009 -0.6224  0.6218 -0.3314
  573MPD2    C3 8497   0.172   4.392   0.923 -0.1680 -0.2392 -0.0855
  573MPD2    C4 8498   0.109   4.279   0.980 -0.3274  0.1722 -0.4784
  573MPD2    C5 8499   0.105   4.261   1.119 -0.9504  0.0455 -0.1813
  573MPD2     H 8500   0.299   4.558   0.966  2.4482 -0.9055  0.6438
  573MPD2    H1 8501   0.063   4.201   0.920 -0.3014  0.4085 -0.8106
  573MPD2    H2 8502   0.153   4.336   1.305 -3.1475  0.1388 -1.0337
  573MPD2    H3 8503   0.065   4.170   1.161 -0.2490 -0.5838 -0.8860
  573MPD2     N 8504   0.153   4.416   0.786  0.2876  0.5147 -0.5120
  573MPD2    H5 8505   0.117   4.339   0.730 -0.2199  0.8214 -0.6070
  573MPD2    N1 8506   0.276   4.558   1.237 -0.1735  0.1052 -0.6587
  573MPD2    H7 8507   0.238   4.565   1.331  0.2783 -0.8099 -0.4084
  574TMC3    C1 8508   0.189   4.523   0.579  0.3285  0.0756 -0.9590
  574TMC3    C2 8509   0.092   4.438   0.523 -0.5122  0.0367 -0.2268
  574TMC3    C3 8510   0.075   4.449   0.390  0.2327  0.0287  0.3764
  574TMC3    C4 8511   0.265   4.611   0.511 -0.3069  0.1991  0.1148
  574TMC3    C5 8512   0.253   4.607   0.374 -0.1316  0.2762 -0.4422
  574TMC3    C6 8513   0.156   4.527   0.311  0.9908 -0.0143 -0.3058
  574TMC3     C 8514   0.189   4.535   0.720 -0.0146 -0.6142  0.7990
  574TMC3     O 8515   0.225   4.644   0.762  0.0737 -0.0218 -0.0733
  574TMC3     H 8516   0.021   4.370   0.568  0.7629  1.5394  4.0524
  574TMC3    H1 8517   0.334   4.679   0.560 -0.6770  0.5385  0.1763
  574TMC3    H2 8518   0.149   4.525   0.202  0.3974  2.0238 -0.2970
  574TMC3    C7 8519   0.369   4.646   0.286 -0.3051  0.0544  0.3566
  574TMC3    C8 8520   4.687   4.380   0.331 -0.7137  0.3283  0.2463
  574TMC3    O1 8521   0.368   4.611   0.167 -0.3112 -0.4797 -0.4912
  574TMC3    O2 8522   4.641   4.280   0.387  0.3374 -0.6659 -0.1114
  575TMC3    C1 8523   3.116   0.346  10.780 -0.2347 -0.3013 -0.0308
  575TMC3    C2 8524   3.091   0.354  10.916 -0.3753  1.0624  0.4069
  575TMC3    C3 8525   2.969   0.308  10.956 -0.2167  0.6175  0.4649
  575TMC3    C4 8526   3.022   0.295  10.689  0.0519  0.3731  0.3198
  575TMC3    C5 8527   2.908   0.254  10.732  0.3552 -0.1482 -0.2423
  575TMC3    C6 8528   2.876   0.264  10.873  0.3420  0.5130  0.5549
  575TMC3     C 8529   3.228   0.419  10.730 -0.4415 -0.1472  0.1369
  575TMC3     O 8530   3.275   0.498  10.810 -0.8445  0.0613 -0.2612
  575TMC3     H 8531   3.164   0.402  10.980  0.0461  1.4820 -0.3729
  575TMC3    H1 8532   3.043   0.297  10.583 -2.6270 -0.3556 -0.2075
  575TMC3    H2 8533   2.774   0.244  10.904  0.2394  0.1552 -0.0089
  575TMC3    C7 8534   2.801   0.299  10.646 -0.6854 -0.0790 -0.7440
  575TMC3    C8 8535   2.947   0.320  11.103 -0.3619 -0.0530 -0.3702
  575TMC3    O1 8536   2.828   0.386  10.564  0.5383 -0.4385  0.4561
  575TMC3    O2 8537   3.035   0.377  11.169 -0.1713  0.2103  0.5098
  576MPD2     C 8538   1.786   1.619  12.703 -0.2025 -0.1902 -0.8655
  576MPD2    C1 8539   1.775   1.699  12.597  0.2127  0.1714  0.6294
  576MPD2    C2 8540   1.690   1.809  12.616  0.1009  0.3684  0.3308
  576MPD2    C3 8541   1.609   1.832  12.727 -1.0386  0.0515 -0.3681
  576MPD2    C4 8542   1.630   1.745  12.833  0.0830  0.4789 -0.3598
  576MPD2    C5 8543   1.712   1.636  12.819 -0.6341  0.1829 -0.0071
  576MPD2     H 8544   1.677   1.881  12.537  0.0037  1.8861  1.7340
  576MPD2    H1 8545   1.588   1.753  12.932 -0.7400  2.4145 -0.8703
  576MPD2    H2 8546   1.841   1.526  12.706  0.1164  0.0226  0.0210
  576MPD2    H3 8547   1.724   1.569  12.904 -0.2749  2.4863  1.7476
  576MPD2     N 8548   1.519   1.941  12.732 -0.0714 -0.3363  0.3989
  576MPD2    H5 8549   1.522   2.008  12.656  0.5669 -1.3217 -0.4449
  576MPD2    N1 8550   1.830   1.671  12.468 -0.3438  0.1704  0.0709
  576MPD2    H7 8551   1.819   1.747  12.401 -2.1467  1.4515  1.8265
  577TMC3    C1 8552   1.962   1.548  12.300  0.1204 -0.4137 -0.5229
  577TMC3    C2 8553   2.062   1.467  12.287 -0.1371 -0.3601  0.2809
  577TMC3    C3 8554   2.111   1.452  12.160  0.5635  0.1834  0.6297
  577TMC3    C4 8555   1.896   1.613  12.199  0.2002 -0.0825  0.1880
  577TMC3    C5 8556   1.926   1.583  12.072 -0.5649  0.1111 -0.7429
  577TMC3    C6 8557   2.039   1.507  12.055  0.1009 -0.3798 -0.0044
  577TMC3     C 8558   1.921   1.572  12.443 -0.4863 -0.2507  0.2271
  577TMC3     O 8559   1.981   1.501  12.523 -0.5399  0.7216 -0.0489
  577TMC3     H 8560   2.112   1.414  12.367 -0.5562  0.7297  1.2565
  577TMC3    H1 8561   1.811   1.678  12.217 -1.5610 -1.9712 -1.4325
  577TMC3    H2 8562   2.067   1.485  11.953 -0.9831 -2.4056  0.1396
  577TMC3    C7 8563   1.817   1.541  11.984  0.0883  0.8243  0.2353
  577TMC3    C8 8564   2.224   1.357  12.139 -0.1198  0.3358  0.2980
  577TMC3    O1 8565   1.828   1.437  11.916 -1.0008  0.6445 -0.1452
  577TMC3    O2 8566   2.239   1.274  12.228 -0.5814  0.5243 -0.4805
  578MPD2     C 8567   0.460   2.236   1.224 -0.9372  0.2315 -0.0412
  578MPD2    C1 8568   0.501   2.122   1.155  0.6735 -0.1922 -0.7460
  578MPD2    C2 8569   0.522   2.013   1.238 -0.2626 -0.2081  1.5089
  578MPD2    C3 8570   0.509   2.011   1.373 -0.2954 -0.4306  0.6202
  578MPD2    C4 8571   0.457   2.124   1.431 -0.0741  0.1550  0.5857
  578MPD2    C5 8572   0.434   2.233   1.356  0.3108  0.6623 -0.6145
  578MPD2     H 8573   0.572   1.928   1.194 -0.9734  0.2327 -0.1795
  578MPD2    H1 8574   0.430   2.130   1.535  0.4101 -0.0172  0.7210
  578MPD2    H2 8575   0.440   2.332   1.177 -4.6465 -0.2152  0.6350
  578MPD2    H3 8576   0.398   2.323   1.404 -1.2337  1.9984 -4.2646
  578MPD2     N 8577   0.548   1.913   1.465  0.1144 -0.1973  0.2748
  578MPD2    H5 8578   0.536   1.936   1.563  0.2117  1.7542 -0.1782
  578MPD2    N1 8579   0.512   2.127   1.013  0.4001  0.2676 -0.2212
  578MPD2    H7 8580   0.489   2.217   0.974  0.3547  0.2193 -0.3035
  579TMC3    C1 8581   0.630   1.702   1.534 -0.1786  0.0403  0.5105
  579TMC3    C2 8582   0.717   1.761   1.622  0.1964 -0.5920  0.1323
  579TMC3    C3 8583   0.844   1.699   1.650  1.1326  0.6592 -0.3493
  579TMC3    C4 8584   0.673   1.586   1.476 -0.0007  0.0656  0.2060
  579TMC3    C5 8585   0.802   1.535   1.489 -0.0091 -0.9536  0.0049
  579TMC3    C6 8586   0.886   1.586   1.582 -0.3609 -0.7936 -0.1590
  579TMC3     C 8587   0.587   1.791   1.428 -0.8883 -0.3273 -0.7624
  579TMC3     O 8588   0.602   1.743   1.313  0.2858 -0.4043 -0.5510
  579TMC3     H 8589   0.701   1.854   1.675 -0.5898 -1.3735  1.2614
  579TMC3    H1 8590   0.597   1.550   1.407  1.8492 -0.6542 -1.4717
  579TMC3    H2 8591   0.989   1.551   1.589 -0.4189 -0.9181  0.0805
  579TMC3    C7 8592   0.857   1.468   1.372  0.9649 -0.2728 -0.0595
  579TMC3    C8 8593   0.939   1.762   1.740 -0.6092 -0.2968 -0.9687
  579TMC3    O1 8594   0.957   1.398   1.389 -0.1698 -0.1242  0.3482
  579TMC3    O2 8595   0.889   1.830   1.825 -0.2809 -0.0670 -0.0340
  580TMC3    C1 8596   4.313   0.675  11.629 -0.2522 -0.2693  0.3735
  580TMC3    C2 8597   4.341   0.637  11.506 -0.0134  0.0889  0.0805
  580TMC3    C3 8598   4.362   0.499  11.482  0.0541  0.3115  0.0362
  580TMC3    C4 8599   4.302   0.587  11.736  0.0398  0.5437  0.1021
  580TMC3    C5 8600   4.314   0.456  11.706  0.1213  0.5973 -0.2080
  580TMC3    C6 8601   4.356   0.406  11.583  1.2670  0.3066 -0.2652
  580TMC3     C 8602   4.356   0.816  11.659  0.0414  0.0459  0.2500
  580TMC3     O 8603   4.424   0.871  11.574  0.2273 -0.7029 -0.3921
  580TMC3     H 8604   4.361   0.714  11.433  2.9668 -1.5652 -0.8558
  580TMC3    H1 8605   4.283   0.629  11.834 -1.4121 -2.2985  1.0175
  580TMC3    H2 8606   4.374   0.303  11.554  2.1368  0.4855 -0.3761
  580TMC3    C7 8607   4.355   0.384  11.818  0.2721  0.0956  0.3502
  580TMC3    C8 8608   4.446   0.453  11.372 -0.7915 -0.0501 -0.3605
  580TMC3    O1 8609   4.398   0.452  11.911  0.0696  0.0136 -0.2975
  580TMC3    O2 8610   4.404   0.364  11.304 -0.3602  0.3963  0.2410
  581MPD2     C 8611   2.889   0.874  15.249 -0.1047  0.1397  0.2650
  581MPD2    C1 8612   2.861   0.994  15.321  0.5606  0.3021  0.0676
  581MPD2    C2 8613   2.736   1.058  15.306  0.2143  0.3781  0.1624
  581MPD2    C3 8614   2.626   1.005  15.239  0.1841 -0.2194  0.0506
  581MPD2    C4 8615   2.655   0.881  15.179 -0.3104  0.0684  0.7717
  581MPD2    C5 8616   2.778   0.823  15.189  0.3395 -0.7588  1.2416
  581MPD2     H 8617   2.715   1.157  15.344 -2.4513 -0.2092  0.2676
  581MPD2    H1 8618   2.578   0.824  15.128  2.2367 -0.7191 -2.1586
  581MPD2    H2 8619   2.982   0.819  15.238  0.3214  0.9252  0.0167
  581MPD2    H3 8620   2.793   0.732  15.131  0.6360 -0.1666  0.3718
  581MPD2     N 8621   2.507   1.080  15.216 -0.1415  0.5334  0.2852
  581MPD2    H5 8622   2.508   1.181  15.230  0.5430  0.7033 -1.0086
  581MPD2    N1 8623   2.971   1.055  15.378  0.1317 -0.0025  0.0580
  581MPD2    H7 8624   3.057   1.001  15.375 -0.9950 -1.7514 -0.6916
  582TMC3    C1 8625   3.092   1.157  15.540  0.0277  0.1698 -0.5624
  582TMC3    C2 8626   3.077   1.162  15.677 -0.3196  0.1880 -0.7435
  582TMC3    C3 8627   3.171   1.095  15.748 -1.0114 -0.2066  0.5032
  582TMC3    C4 8628   3.194   1.086  15.478  0.0737  0.2412 -0.4756
  582TMC3    C5 8629   3.283   1.015  15.553 -0.1173 -0.4365 -0.9832
  582TMC3    C6 8630   3.272   1.016  15.692 -0.4046 -0.6342 -0.7599
  582TMC3     C 8631   2.971   1.166  15.465  0.0431  0.2423  0.1921
  582TMC3     O 8632   2.874   1.212  15.529  0.3429 -0.3116  0.2502
  582TMC3     H 8633   2.991   1.210  15.722  0.0301  1.0137 -0.9493
  582TMC3    H1 8634   3.212   1.090  15.371 -1.8362 -3.4856 -0.9603
  582TMC3    H2 8635   3.354   0.962  15.739 -0.8024 -1.3502 -0.8747
  582TMC3    C7 8636   3.299   0.882  15.507 -0.1846 -1.2263  0.2377
  582TMC3    C8 8637   3.149   1.103  15.895  0.2423  0.1014 -0.3961
  582TMC3    O1 8638   3.323   0.865  15.388  0.0228  0.7431  0.0026
  582TMC3    O2 8639   3.067   1.191  15.923 -0.3216 -0.1904  0.4004
  583MPD2     C 8640   2.689   2.338  17.489 -0.3967 -0.6618  0.3781
  583MPD2    C1 8641   2.641   2.389  17.369 -0.5309  0.5066  0.3196
  583MPD2    C2 8642   2.561   2.499  17.375  0.1854 -0.0689  0.4919
  583MPD2    C3 8643   2.522   2.555  17.497  0.1075  0.5221 -1.0870
  583MPD2    C4 8644   2.573   2.499  17.617  0.3318  0.1882 -0.4832
  583MPD2    C5 8645   2.649   2.390  17.605  0.4485 -0.2138  0.0178
  583MPD2     H 8646   2.517   2.533  17.282  1.3110 -0.8390 -0.3234
  583MPD2    H1 8647   2.582   2.544   0.022 -2.6679  0.7753 -0.4534
  583MPD2    H2 8648   2.754   2.251  17.494  0.0989 -0.3549 -0.5822
  583MPD2    H3 8649   2.689   2.351   0.005  2.3580  0.9024 -0.3257
  583MPD2     N 8650   2.426   2.662  17.503 -0.7303 -0.2865 -0.1844
  583MPD2    H5 8651   2.387   2.690  17.414  0.7012  0.1337 -0.6642
  583MPD2    N1 8652   2.687   2.336  17.242 -0.1683  0.7305 -0.0156
  583MPD2    H7 8653   2.660   2.381  17.155 -0.4681  0.3810 -0.1033
  584TMC3    C1 8654   2.287   2.822  17.617  0.5258  0.1547  0.2672
  584TMC3    C2 8655   2.270   2.899  17.502  0.3584 -0.1887 -0.7728
  584TMC3    C3 8656   2.234   3.032  17.521  0.2689 -0.1302 -0.0859
  584TMC3    C4 8657   2.256   2.871   0.053 -0.0603  0.6560  0.0395
  584TMC3    C5 8658   2.215   3.000   0.064 -0.1539  0.2334 -0.0397
  584TMC3    C6 8659   2.192   3.077  17.647  0.2540  0.0141 -0.0239
  584TMC3     C 8660   2.378   2.711  17.623  0.0626 -0.1649  0.1317
  584TMC3     O 8661   2.410   2.681   0.044 -0.6190  0.7481 -0.5189
  584TMC3     H 8662   2.304   2.866  17.405  0.2302 -1.2984 -0.4333
  584TMC3    H1 8663   2.259   2.807   0.139 -0.9065 -1.1112 -1.2485
  584TMC3    H2 8664   2.160   3.180  17.660 -0.0078  0.1003 -1.2573
  584TMC3    C7 8665   2.149   3.036   0.188 -0.6636 -0.0133 -0.9950
  584TMC3    C8 8666   2.268   3.132  17.419 -0.0117  0.1343  0.1989
  584TMC3    O1 8667   2.081   2.944   0.232  0.3833  0.3727 -0.3047
  584TMC3    O2 8668   2.294   3.080  17.309  0.1444  0.1825  0.4895
  585MPD2     C 8669   2.093   1.134   0.260  0.2758 -0.4793  0.4287
  585MPD2    C1 8670   2.069   1.254   0.197 -0.6746 -0.6512  0.6693
  585MPD2    C2 8671   2.079   1.256   0.057  0.5509  0.1509 -0.0791
  585MPD2    C3 8672   2.089   1.139  17.679  0.1055 -0.2224  0.6383
  585MPD2    C4 8673   2.106   1.016   0.052 -0.2405 -0.4720 -0.4527
  585MPD2    C5 8674   2.117   1.017   0.190 -0.5635  0.3883  1.0967
  585MPD2     H 8675   2.063   1.346  17.691 -1.7842 -0.7049 -0.7630
  585MPD2    H1 8676   2.116   0.916   0.012  1.2019 -0.0044 -1.2731
  585MPD2    H2 8677   2.087   1.123   0.367  0.7033 -1.8273  0.3207
  585MPD2    H3 8678   2.137   0.922   0.238  0.4454 -0.5149 -1.0990
  585MPD2     N 8679   2.076   1.126  17.533 -0.1182  0.1501  0.2215
  585MPD2    H5 8680   2.078   1.035  17.488 -0.0504  0.8936 -1.2935
  585MPD2    N1 8681   2.049   1.375   0.276 -0.1699 -0.0704 -0.8390
  585MPD2    H7 8682   2.061   1.364   0.376  2.5743  0.8665 -1.0644
  586TMC3    C1 8683   2.068   1.217  17.318 -0.2009  0.3438 -0.0084
  586TMC3    C2 8684   2.157   1.129  17.272  0.0102  0.8069  0.0603
  586TMC3    C3 8685   2.165   1.100  17.137 -0.2543 -0.2629 -0.1912
  586TMC3    C4 8686   1.997   1.292  17.230 -0.8962 -0.1222 -0.4671
  586TMC3    C5 8687   2.004   1.270  17.095 -0.0226  0.1617  0.3481
  586TMC3    C6 8688   2.084   1.171  17.042  0.3960 -0.1854  0.1790
  586TMC3     C 8689   2.045   1.240  17.457 -0.8951  0.7160 -0.2282
  586TMC3     O 8690   1.979   1.340  17.488 -0.2567 -0.2598  0.0314
  586TMC3     H 8691   2.221   1.070  17.337 -1.3836 -1.5680 -0.7212
  586TMC3    H1 8692   1.919   1.357  17.269  0.2536  1.4827 -0.8339
  586TMC3    H2 8693   2.085   1.150  16.936  0.4750  2.1985 -0.2754
  586TMC3    C7 8694   1.895   1.319  17.007  0.3458 -0.6225 -0.9447
  586TMC3    C8 8695   2.191   0.964  17.109 -0.0676  0.0639 -0.8180
  586TMC3    O1 8696   1.861   1.265  16.905  0.5516 -0.3690 -0.1865
  586TMC3    O2 8697   2.282   0.912  17.171 -0.0510 -0.5176 -0.1906
  587TMC3    C1 8698   4.450   0.252  17.057  0.7724 -0.6413 -0.7616
  587TMC3    C2 8699   4.407   0.344  16.972  0.2497 -0.3380  0.2012
  587TMC3    C3 8700   4.488   0.369  16.863  0.0848 -0.4516  0.2969
  587TMC3    C4 8701   4.574   0.185  17.040  0.3743 -0.4145  0.1453
  587TMC3    C5 8702   4.644   0.200  16.923  0.0010  0.2105  0.5023
  587TMC3    C6 8703   4.611   0.307  16.836 -0.7381 -0.1147 -0.6441
  587TMC3     C 8704   4.355   0.182  17.140  0.2883  0.3648 -0.0230
  587TMC3     O 8705   4.394   0.137  17.245  0.1683  0.4979  0.8339
  587TMC3     H 8706   4.331   0.416  16.997  1.9605  0.5508  2.7831
  587TMC3    H1 8707   4.600   0.111  17.114  3.6064  0.7357  0.1697
  587TMC3    H2 8708   4.663   0.339  16.746  1.8771 -1.7689  0.2799
  587TMC3    C7 8709   0.011   0.106  16.867  0.6318 -0.4658  0.3450
  587TMC3    C8 8710   4.440   0.463  16.762  0.3235  0.6712 -0.3749
  587TMC3    O1 8711   0.056   0.139  16.761 -0.4506  0.2066 -0.2461
  587TMC3    O2 8712   4.490   0.455  16.651  0.1231 -0.0576  0.4547
  588TMC3    C1 8713   2.036   2.647   9.906 -0.6748 -0.0467  0.0406
  588TMC3    C2 8714   2.053   2.518   9.865 -0.4451 -0.4073  0.1643
  588TMC3    C3 8715   2.017   2.412   9.951  0.0157  0.4463  0.6175
  588TMC3    C4 8716   1.978   2.672  10.031 -0.4845 -0.0580 -0.3795
  588TMC3    C5 8717   1.944   2.564  10.107 -0.0833 -0.6369 -0.0849
  588TMC3    C6 8718   1.966   2.438  10.079 -0.4056  0.1010  0.4652
  588TMC3     C 8719   2.081   2.759   9.826 -0.2546  0.0761 -0.0170
  588TMC3     O 8720   2.066   2.740   9.707 -0.2729 -0.4315 -0.0226
  588TMC3     H 8721   2.084   2.503   9.762  0.1729 -2.7596  0.6931
  588TMC3    H1 8722   1.940   2.771  10.053  1.4241  0.0437  2.5002
  588TMC3    H2 8723   1.931   2.357  10.142  0.4065 -0.8357 -0.2792
  588TMC3    C7 8724   1.901   2.590  10.244 -0.1626  0.0661  0.2323
  588TMC3    C8 8725   2.044   2.274   9.902 -0.0804 -0.6202  0.0917
  588TMC3    O1 8726   1.808   2.521  10.281  0.0335  0.1750  0.7905
  588TMC3    O2 8727   2.066   2.257   9.783 -0.0156 -0.5261  0.2582
  589TMC3    C1 8728   0.986   0.588   1.360 -0.4261 -0.0395  0.2496
  589TMC3    C2 8729   1.060   0.649   1.460 -0.1827 -0.7490  0.0687
  589TMC3    C3 8730   1.192   0.634   1.453  0.4247 -0.0462 -0.2067
  589TMC3    C4 8731   1.043   0.532   1.250 -0.6115 -0.1772 -0.0024
  589TMC3    C5 8732   1.176   0.512   1.258  0.2667 -0.1539  0.2253
  589TMC3    C6 8733   1.256   0.564   1.361  0.7298  0.2318  0.0195
  589TMC3     C 8734   0.853   0.631   1.333 -0.5437 -0.3615  0.1703
  589TMC3     O 8735   0.786   0.579   1.246  0.1237  0.2208  0.1853
  589TMC3     H 8736   1.007   0.664   1.554 -0.8603  1.8941 -0.7172
  589TMC3    H1 8737   0.987   0.511   1.159  2.9065 -1.5870 -1.8544
  589TMC3    H2 8738   1.364   0.549   1.360  0.9197  1.4807  1.3116
  589TMC3    C7 8739   1.247   0.481   1.138 -0.3488  0.3590  0.1061
  589TMC3    C8 8740   1.264   0.704   1.558 -0.5407 -0.4793  0.0733
  589TMC3    O1 8741   1.368   0.464   1.160  0.5540  0.3477 -0.1558
  589TMC3    O2 8742   1.195   0.757   1.649  0.4288  0.2188 -0.2554
  590MPD2     C 8743   0.332   3.242  16.857 -0.4068  0.0995  0.1090
  590MPD2    C1 8744   0.244   3.274  16.755 -0.0407 -0.9186  0.5711
  590MPD2    C2 8745   0.294   3.310  16.634  0.3193 -0.2580  0.0770
  590MPD2    C3 8746   0.431   3.319  16.612  0.1886 -0.0341 -0.6334
  590MPD2    C4 8747   0.514   3.292  16.717 -0.2888 -0.2053  0.0067
  590MPD2    C5 8748   0.465   3.245  16.835 -0.1725  0.9795 -0.0968
  590MPD2     H 8749   0.227   3.328  16.550 -0.3777  1.4332  0.9972
  590MPD2    H1 8750   0.620   3.309  16.708 -0.5333  2.0722  1.2897
  590MPD2    H2 8751   0.288   3.216  16.953  0.7960 -0.6818  0.4525
  590MPD2    H3 8752   0.537   3.219  16.912 -0.3541  0.1730 -0.1971
  590MPD2     N 8753   0.471   3.370  16.487  0.5052  0.3341  0.6485
  590MPD2    H5 8754   0.392   3.396  16.430 -0.4169  0.2186  1.8743
  590MPD2    N1 8755   0.109   3.250  16.762 -0.6676  0.2259  0.1328
  590MPD2    H7 8756   0.074   3.204  16.846  0.5583  0.1067  0.5803
  591TMC3    C1 8757   0.592   3.450  16.299 -0.8412 -0.4579  0.1220
  591TMC3    C2 8758   0.677   3.415  16.198  0.3543  0.3337  0.1667
  591TMC3    C3 8759   0.668   3.494  16.090 -0.5544  0.1881 -0.8889
  591TMC3    C4 8760   0.512   3.561  16.298 -0.1021 -0.3572 -0.0361
  591TMC3    C5 8761   0.511   3.628  16.188 -0.8169 -0.4678  0.0274
  591TMC3    C6 8762   0.596   3.609  16.082  0.5577  0.2662  0.4896
  591TMC3     C 8763   0.594   3.366  16.427 -0.5086 -0.3855  0.3330
  591TMC3     O 8764   0.700   3.314  16.459  0.4313 -0.1334  0.0524
  591TMC3     H 8765   0.733   3.322  16.203  1.4381  0.9294 -0.9295
  591TMC3    H1 8766   0.450   3.593  16.381  0.6526  0.3779  0.2438
  591TMC3    H2 8767   0.590   3.660  15.987  0.5059 -0.7793 -0.0747
  591TMC3    C7 8768   0.421   3.744  16.185  0.2092  0.1847  0.0024
  591TMC3    C8 8769   0.732   3.439  15.971  0.5623 -0.5087  0.6109
  591TMC3    O1 8770   0.322   3.734  16.259 -0.0223  0.3438  0.2410
  591TMC3    O2 8771   0.733   3.318  15.959  0.4707 -0.5652  0.5648
  592MPD2     C 8772   0.956   0.611  11.227  0.1476  0.4355 -0.5426
  592MPD2    C1 8773   0.953   0.660  11.353 -0.5150  0.3049  0.2274
  592MPD2    C2 8774   0.889   0.592  11.460  0.0489 -0.3189 -0.1535
  592MPD2    C3 8775   0.823   0.475  11.432  0.2239  0.0818  0.2978
  592MPD2    C4 8776   0.837   0.419  11.309 -0.0374  0.1192  0.0662
  592MPD2    C5 8777   0.896   0.495  11.212 -0.1416  0.8895 -0.5495
  592MPD2     H 8778   0.884   0.636  11.559 -0.8513 -0.1305 -0.2810
  592MPD2    H1 8779   0.791   0.327  11.273  2.0364  0.2444 -2.9690
  592MPD2    H2 8780   1.004   0.674  11.154 -0.6470  1.4429 -0.1905
  592MPD2    H3 8781   0.897   0.451  11.113 -0.5233 -1.4748  0.4809
  592MPD2     N 8782   0.770   0.406  11.541 -0.6968 -0.0250 -0.1125
  592MPD2    H5 8783   0.797   0.451  11.629 -1.2428  1.1294 -0.5387
  592MPD2    N1 8784   1.015   0.788  11.374  0.2991  0.2506  0.2522
  592MPD2    H7 8785   1.044   0.837  11.290 -0.9527 -0.7917 -0.7952
  593TMC3    C1 8786   1.112   0.960  11.500 -0.5897  0.7655  0.7367
  593TMC3    C2 8787   1.115   1.030  11.625 -0.0813 -0.3932  0.3544
  593TMC3    C3 8788   1.209   1.137  11.632 -0.2906 -0.0422  0.1432
  593TMC3    C4 8789   1.185   1.006  11.392  0.2881 -0.5507 -0.6170
  593TMC3    C5 8790   1.272   1.115  11.408  0.3867 -0.0572 -0.3551
  593TMC3    C6 8791   1.280   1.186  11.524  1.2228  0.6305  0.1719
  593TMC3     C 8792   1.043   0.835  11.501 -0.2517  0.1286 -0.4571
  593TMC3     O 8793   1.015   0.799  11.614 -0.1380  0.0335  0.0973
  593TMC3     H 8794   1.046   0.999  11.703 -2.4048  0.1096 -1.4885
  593TMC3    H1 8795   1.192   0.950  11.300 -0.9300 -0.8869 -0.4954
  593TMC3    H2 8796   1.333   1.280  11.537  0.7890  0.6872  1.6263
  593TMC3    C7 8797   1.354   1.154  11.294 -0.2818  0.1976  0.4231
  593TMC3    C8 8798   1.217   1.221  11.751 -0.4245  0.1906  0.2234
  593TMC3    O1 8799   1.372   1.276  11.293  0.5927 -0.4462  0.3015
  593TMC3    O2 8800   1.116   1.252  11.818 -0.5888 -1.2742  0.1898
  594MPD2     C 8801   4.602   4.053  13.953 -0.2993  0.1696 -0.0642
  594MPD2    C1 8802   4.562   4.037  14.081 -0.1229  0.0546  0.3068
  594MPD2    C2 8803   4.634   4.111  14.176 -0.1906 -0.0225  0.0949
  594MPD2    C3 8804   0.007   4.202  14.138 -0.4395 -0.0344 -0.3245
  594MPD2    C4 8805   0.033   4.220  14.003  0.3189 -0.4891  0.2156
  594MPD2    C5 8806   4.691   4.149  13.908  0.2960  0.7178  0.7649
  594MPD2     H 8807   4.613   4.111  14.282 -0.7526  0.1887 -0.0190
  594MPD2    H1 8808   0.106   4.290  13.964 -0.3686  0.1743  0.1175
  594MPD2    H2 8809   4.541   3.993  13.886 -0.0769 -1.3467  1.0922
  594MPD2    H3 8810   4.721   4.164  13.805  0.5651 -0.8089  0.6180
  594MPD2     N 8811   0.077   4.275  14.239 -0.1375 -0.2650 -0.1700
  594MPD2    H5 8812   0.054   4.248  14.334  2.9390 -3.2421 -0.2850
  594MPD2    N1 8813   4.463   3.943  14.112  0.0188 -0.3280  0.2761
  594MPD2    H7 8814   4.412   3.895  14.038  3.4369 -0.1291 -2.2011
  595TMC3    C1 8815   0.370   4.546  14.471  0.7478 -0.6098  0.2082
  595TMC3    C2 8816   0.341   4.466  14.363  0.6384 -0.3607 -0.4505
  595TMC3    C3 8817   0.204   4.442  14.335  0.2230 -0.3999  0.1159
  595TMC3    C4 8818   0.273   4.594  14.560  0.4828  0.3283 -0.5962
  595TMC3    C5 8819   0.141   4.578  14.523 -1.0912 -0.3556 -0.4276
  595TMC3    C6 8820   0.105   4.493  14.421 -0.1269  0.2928  0.1405
  595TMC3     C 8821   0.498   4.616  14.484  0.0791 -0.0282 -0.3409
  595TMC3     O 8822   0.511   4.703  14.570  0.2335 -0.0198  0.5597
  595TMC3     H 8823   0.415   4.440  14.289  0.3753  0.6561 -1.0762
  595TMC3    H1 8824   0.294   4.678  14.625 -0.7634 -0.2459  0.5506
  595TMC3    H2 8825   0.001   4.491  14.390 -0.4136 -0.2686  1.1631
  595TMC3    C7 8826   0.033   4.631  14.601 -0.2096 -0.2287  0.3199
  595TMC3    C8 8827   0.170   4.372  14.212 -0.1275 -0.6258  0.8198
  595TMC3    O1 8828   4.649   4.651  14.550  0.0781  0.1614  0.5127
  595TMC3    O2 8829   0.227   4.400  14.109 -0.4183 -0.1817 -0.1778
  596MPD2     C 8830   3.503   2.301  17.341  0.4501  0.2505  0.8096
  596MPD2    C1 8831   3.482   2.395  17.240  0.1356 -0.1737  0.8726
  596MPD2    C2 8832   3.491   2.356  17.113  0.0460 -0.0553 -0.8701
  596MPD2    C3 8833   3.507   2.219  17.080 -0.8524  0.0851  0.2559
  596MPD2    C4 8834   3.538   2.124  17.180  0.0308  0.3384  0.6612
  596MPD2    C5 8835   3.541   2.176  17.311  0.4232  0.3896  0.0944
  596MPD2     H 8836   3.461   2.433  17.044 -1.3140  1.1687  1.0772
  596MPD2    H1 8837   3.556   2.021  17.152 -2.3342  0.6866 -2.2044
  596MPD2    H2 8838   3.501   2.327  17.446 -0.1605  1.7383  0.4284
  596MPD2    H3 8839   3.564   2.108  17.392 -1.8625 -0.4882 -0.0010
  596MPD2     N 8840   3.490   2.171  16.946  0.0225 -0.1541  0.3735
  596MPD2    H5 8841   3.507   2.072  16.933  2.2320  0.3963 -0.8035
  596MPD2    N1 8842   3.442   2.533  17.264 -0.1568 -0.4280 -0.1687
  596MPD2    H7 8843   3.430   2.585  17.179  1.3346 -2.1496 -1.4396
  597TMC3    C1 8844   3.357   2.720  17.367  0.2854 -0.2539  0.1463
  597TMC3    C2 8845   3.418   2.811  17.289 -0.0267 -0.6306  0.9254
  597TMC3    C3 8846   3.372   2.944  17.300  0.4175 -0.1028  0.3610
  597TMC3    C4 8847   3.243   2.749  17.434 -0.2682  0.4138 -0.2979
  597TMC3    C5 8848   3.197   2.876  17.447 -0.2665 -0.7459  0.6528
  597TMC3    C6 8849   3.266   2.978  17.384  0.0349  0.2286 -0.2689
  597TMC3     C 8850   3.411   2.588  17.385  0.2895 -0.1157 -0.7419
  597TMC3     O 8851   3.395   2.540  17.496 -0.2750 -0.2661 -0.0273
  597TMC3     H 8852   3.510   2.785  17.239 -0.6605 -1.2162  0.0526
  597TMC3    H1 8853   3.186   2.665  17.472 -1.0970  1.1094 -0.0085
  597TMC3    H2 8854   3.237   3.082  17.391 -2.8559 -0.6514  1.0291
  597TMC3    C7 8855   3.073   2.898  17.516  0.0774 -0.1533 -0.2061
  597TMC3    C8 8856   3.450   3.060  17.256  0.4411 -0.2601 -0.1530
  597TMC3    O1 8857   3.042   2.811  17.597 -0.0262 -0.6143  0.2199
  597TMC3    O2 8858   3.427   3.172  17.297  0.4006 -0.9176 -0.0329
  598TMC3    C1 8859   2.237   3.831  15.464 -0.1310 -0.1609  0.4189
  598TMC3    C2 8860   2.175   3.754  15.370  0.3761 -0.3425  0.6961
  598TMC3    C3 8861   2.237   3.754  15.249  0.7004 -0.1207  0.2150
  598TMC3    C4 8862   2.343   3.913  15.438 -0.0637  0.3835 -0.3202
  598TMC3    C5 8863   2.397   3.903  15.314  0.3010 -0.8174  0.7556
  598TMC3    C6 8864   2.342   3.823  15.217 -0.4996 -0.0669  0.3151
  598TMC3     C 8865   2.172   3.839  15.597 -0.2032  0.2038 -0.1378
  598TMC3     O 8866   2.198   3.931  15.678  0.2197  0.0730  0.0240
  598TMC3     H 8867   2.098   3.682  15.393  1.7391 -1.7852  0.6933
  598TMC3    H1 8868   2.392   3.975  15.512 -1.0386  1.1782 -0.3427
  598TMC3    H2 8869   2.392   3.823  15.121 -1.8029 -0.9468 -0.3647
  598TMC3    C7 8870   2.460   4.020  15.264 -0.2790 -0.5698  0.3655
  598TMC3    C8 8871   2.171   3.663  15.155  0.3019 -0.2165 -0.2689
  598TMC3    O1 8872   2.541   4.014  15.174  0.1176  0.1999 -0.0074
  598TMC3    O2 8873   2.053   3.642  15.187 -0.4807  0.6585 -0.3066
  599MPD2     C 8874   1.751   2.120  16.035  0.0782 -0.3816  0.5461
  599MPD2    C1 8875   1.721   1.985  16.058 -0.0207 -0.7250  0.2682
  599MPD2    C2 8876   1.598   1.950  16.118 -0.1951  0.1790  0.7224
  599MPD2    C3 8877   1.508   2.042  16.161  0.3931 -0.1679 -0.3949
  599MPD2    C4 8878   1.541   2.178  16.143  0.9924  0.4634  0.0760
  599MPD2    C5 8879   1.656   2.211  16.074  0.0866 -0.6331 -0.3298
  599MPD2     H 8880   1.588   1.844  16.138  0.3766 -0.1496 -0.6999
  599MPD2    H1 8881   1.469   2.253  16.173  1.7106  0.8048  0.9481
  599MPD2    H2 8882   1.847   2.158  15.999 -1.3552  3.1242  0.4482
  599MPD2    H3 8883   1.693   2.312  16.064  2.1216 -1.2705  0.7660
  599MPD2     N 8884   1.387   2.020  16.219  0.1196  0.1243 -0.4064
  599MPD2    H5 8885   1.339   2.104  16.250  0.9918  0.7454 -0.7401
  599MPD2    N1 8886   1.817   1.889  16.015  0.4952 -0.3463 -0.7895
  599MPD2    H7 8887   1.911   1.920  15.992  1.2182 -1.6001  0.4846
  600TMC3    C1 8888   1.205   1.918  16.319 -0.1086  0.6734  0.0634
  600TMC3    C2 8889   1.151   1.811  16.397 -1.0213  0.1577  0.1348
  600TMC3    C3 8890   1.040   1.828  16.469 -0.6785 -0.3077 -0.3369
  600TMC3    C4 8891   1.136   2.039  16.315  0.0190  0.3614  0.5379
  600TMC3    C5 8892   1.018   2.049  16.388  1.2101 -0.3555  0.2315
  600TMC3    C6 8893   0.969   1.952  16.476  0.1219  0.2678  0.7259
  600TMC3     C 8894   1.339   1.898  16.259  0.4308  0.3642 -0.7741
  600TMC3     O 8895   1.392   1.785  16.253  0.4674 -0.3906  0.0858
  600TMC3     H 8896   1.212   1.722  16.409 -0.9371  0.2117  0.1069
  600TMC3    H1 8897   1.167   2.113  16.243 -1.1230  0.6985  0.3855
  600TMC3    H2 8898   0.880   1.968  16.536  0.4543  0.3976  1.1763
  600TMC3    C7 8899   0.954   2.176  16.400 -0.6126 -0.0520 -0.3764
  600TMC3    C8 8900   0.998   1.717  16.553  0.4958  0.1143 -0.2505
  600TMC3    O1 8901   0.848   2.178  16.458 -0.4067  0.4821 -0.0171
  600TMC3    O2 8902   1.086   1.634  16.577 -0.5040 -0.4375 -0.4400
  601MPD2     C 8903   3.230   4.439   0.505 -0.3303 -0.3666 -0.1182
  601MPD2    C1 8904   3.211   4.381   0.381  0.4550  0.0993  0.0259
  601MPD2    C2 8905   3.148   4.260   0.378  0.3544 -0.0930 -0.1450
  601MPD2    C3 8906   3.100   4.199   0.492 -0.7123  0.5240 -0.5088
  601MPD2    C4 8907   3.120   4.265   0.613  0.6055 -0.2526  0.0782
  601MPD2    C5 8908   3.180   4.390   0.621  0.0010 -0.0196 -0.4624
  601MPD2     H 8909   3.134   4.216   0.280 -0.3252 -0.2382  0.0149
  601MPD2    H1 8910   3.091   4.231   0.712  2.7814 -3.1079 -0.2590
  601MPD2    H2 8911   3.272   4.539   0.514 -0.5890 -0.1973 -0.7633
  601MPD2    H3 8912   3.185   4.443   0.715  2.7407 -1.3172  0.0992
  601MPD2     N 8913   3.026   4.076   0.492 -0.0901 -0.0989 -0.2336
  601MPD2    H5 8914   2.992   4.046   0.583  0.1176  1.1008  0.2546
  601MPD2    N1 8915   3.242   4.452   0.265 -0.1299 -0.4130 -0.3056
  601MPD2    H7 8916   3.212   4.417   0.175 -1.8398  1.5774 -0.4982
  602TMC3    C1 8917   3.340   4.611   0.126 -0.5047  0.1786 -0.1977
  602TMC3    C2 8918   3.466   4.646   0.079 -0.2524  0.6209 -0.2467
  602TMC3    C3 8919   3.470   4.690  17.634  1.0658 -0.1934  0.7384
  602TMC3    C4 8920   3.226   4.603   0.047 -0.0890 -0.0515 -0.0892
  602TMC3    C5 8921   3.241   4.626  17.604 -0.1798 -0.6724 -0.4791
  602TMC3    C6 8922   3.358   4.683  17.557 -0.0263 -0.0861  0.2858
  602TMC3     C 8923   3.332   4.556   0.262 -0.1249 -0.7270 -0.1456
  602TMC3     O 8924   3.417   4.595   0.341  0.0512 -0.3437 -0.0250
  602TMC3     H 8925   3.548   4.663   0.148 -0.5796  0.4526  0.1868
  602TMC3    H1 8926   3.130   4.591   0.095 -0.5135  1.7373 -0.5257
  602TMC3    H2 8927   3.386   4.711  17.456  1.5288  1.6593  1.2078
  602TMC3    C7 8928   3.113   4.641  17.529 -0.0667 -0.6224  0.0660
  602TMC3    C8 8929   3.574   0.077  17.609 -0.0354  0.5841  0.3138
  602TMC3    O1 8930   3.008   4.582  17.565  0.7750 -0.5542 -0.2649
  602TMC3    O2 8931   3.667   0.072  17.686  0.0220 -0.6347 -0.3007
  603TMC3    C1 8932   1.620   0.124  10.775 -0.5342 -0.2655  0.2661
  603TMC3    C2 8933   1.666   0.156  10.898 -0.4743  0.0504  0.3620
  603TMC3    C3 8934   1.798   0.202  10.904  0.6008  0.7148  0.5192
  603TMC3    C4 8935   1.683   0.145  10.662 -0.5197  0.5497  0.7000
  603TMC3    C5 8936   1.812   0.194  10.666  0.3734 -0.3083 -0.0715
  603TMC3    C6 8937   1.870   0.224  10.789 -0.2543  0.1960 -0.8539
  603TMC3     C 8938   1.486   0.085  10.771 -0.2633  0.5307 -0.0403
  603TMC3     O 8939   1.473   4.695  10.721 -0.1701  0.2513  0.3234
  603TMC3     H 8940   1.614   0.138  10.992 -0.1735  1.1476  0.7330
  603TMC3    H1 8941   1.630   0.101  10.578 -0.9952  0.4195  1.0712
  603TMC3    H2 8942   1.978   0.230  10.800 -0.5294  1.0821  1.3509
  603TMC3    C7 8943   1.892   0.216  10.548  0.5169  0.5281 -0.2843
  603TMC3    C8 8944   1.858   0.193  11.034 -0.0193 -0.2216 -0.2283
  603TMC3    O1 8945   2.009   0.240  10.557 -0.1021 -0.4554  0.1769
  603TMC3    O2 8946   1.821   0.102  11.112 -0.0896  0.4440  0.3237
  604MPD2     C 8947   2.410   3.326  16.309 -0.5817  0.2806  0.0251
  604MPD2    C1 8948   2.339   3.399  16.214 -0.7496 -0.0656 -0.1590
  604MPD2    C2 8949   2.364   3.371  16.082 -0.1252 -0.0814  0.6552
  604MPD2    C3 8950   2.463   3.286  16.046  0.4861 -0.8064 -0.0272
  604MPD2    C4 8951   2.529   3.211  16.144  0.8191 -0.1299 -0.1665
  604MPD2    C5 8952   2.509   3.239  16.276 -0.4331  0.3176  0.3132
  604MPD2     H 8953   2.324   3.425  15.997  1.4119 -1.4764 -0.9544
  604MPD2    H1 8954   2.616   3.150  16.123  1.3947  0.4508  0.5529
  604MPD2    H2 8955   2.375   3.345  16.410  1.3843  2.7767  0.2207
  604MPD2    H3 8956   2.564   3.185  16.352  2.4312 -0.3596 -2.2209
  604MPD2     N 8957   2.487   3.266  15.906  0.5119  0.2472 -0.1835
  604MPD2    H5 8958   2.418   3.298  15.838  0.4083 -0.3596 -0.3701
  604MPD2    N1 8959   2.255   3.500  16.248  0.6015  0.4249  0.4898
  604MPD2    H7 8960   2.248   3.516  16.348  1.5751  1.2594  0.4317
  605TMC3    C1 8961   2.153   3.713  16.233  0.1663  0.0297 -0.7170
  605TMC3    C2 8962   2.244   3.773  16.317  0.1713  0.4120 -0.2479
  605TMC3    C3 8963   2.247   3.907  16.335 -0.3460  0.5524  0.2085
  605TMC3    C4 8964   2.052   3.792  16.178 -0.6623  0.4330 -0.6177
  605TMC3    C5 8965   2.049   3.931  16.211  0.2796 -0.1202  0.1212
  605TMC3    C6 8966   2.154   3.992  16.282  0.0851 -0.0355  0.5449
  605TMC3     C 8967   2.188   3.592  16.167 -0.5913  0.2894 -0.6821
  605TMC3     O 8968   2.164   3.583  16.051 -0.0918  0.5342 -0.2647
  605TMC3     H 8969   2.326   3.713  16.354  0.3270  0.9406  0.2693
  605TMC3    H1 8970   1.975   3.753  16.113 -1.2259  0.0356  0.2924
  605TMC3    H2 8971   2.152   4.096  16.313 -0.2946  0.3702 -0.8482
  605TMC3    C7 8972   1.928   4.007  16.191  0.1382 -0.0047  0.3346
  605TMC3    C8 8973   2.322   3.957  16.446  0.0260  0.1555  0.1457
  605TMC3    O1 8974   1.826   3.940  16.177  0.1418  0.3996  0.3529
  605TMC3    O2 8975   2.353   4.077  16.448 -0.4397  0.3089  0.0116
  606TMC3    C1 8976   3.222   2.422   1.279 -0.7545 -0.0181  0.0917
  606TMC3    C2 8977   3.304   2.518   1.236  0.2759  0.1009  0.0354
  606TMC3    C3 8978   3.433   2.483   1.195  0.1584 -0.0558  0.5978
  606TMC3    C4 8979   3.255   2.285   1.265  0.4007  0.9061  0.1868
  606TMC3    C5 8980   3.376   2.257   1.216 -0.1204  0.2117  0.0486
  606TMC3    C6 8981   3.471   2.353   1.188 -0.4116 -0.1530 -0.3733
  606TMC3     C 8982   3.094   2.451   1.337 -0.0553 -0.3174  0.1005
  606TMC3     O 8983   3.017   2.356   1.350  0.0471 -0.2199  0.4815
  606TMC3     H 8984   3.278   2.623   1.242 -2.2689 -0.5534  0.4508
  606TMC3    H1 8985   3.194   2.203   1.299 -0.8989  0.9802 -1.9321
  606TMC3    H2 8986   3.572   2.335   1.152  0.5847  1.5349  1.6096
  606TMC3    C7 8987   3.401   2.114   1.182  0.5468 -0.2670 -0.0869
  606TMC3    C8 8988   3.524   2.580   1.139  0.5417 -0.2160 -0.2678
  606TMC3    O1 8989   3.514   2.068   1.187  0.0199 -0.6077 -0.3084
  606TMC3    O2 8990   3.634   2.542   1.099 -0.2522  0.4441 -0.3597
  607MPD2     C 8991   1.046   0.060  11.542  0.1331 -0.3892 -0.0917
  607MPD2    C1 8992   1.084   0.185  11.595  0.6517 -0.2875  0.5341
  607MPD2    C2 8993   1.064   0.219  11.728  0.4476  0.1588 -0.6595
  607MPD2    C3 8994   1.016   0.130  11.827 -0.3741  0.5892  0.5302
  607MPD2    C4 8995   0.978   0.007  11.770  0.3144 -0.7947 -0.3063
  607MPD2    C5 8996   1.007   4.688  11.636 -0.2493 -0.1726 -0.3343
  607MPD2     H 8997   1.100   0.316  11.760 -1.6003  0.4274  0.8395
  607MPD2    H1 8998   0.937   4.656  11.839  0.1274 -1.3911 -1.0585
  607MPD2    H2 8999   1.058   0.029  11.439 -0.4711  1.9246 -0.8581
  607MPD2    H3 9000   0.980   4.588  11.606 -0.4935  0.1103 -1.0413
  607MPD2     N 9001   1.017   0.174  11.964  0.1410 -0.2852  0.4211
  607MPD2    H5 9002   1.043   0.272  11.973  2.2122 -0.8307  0.2765
  607MPD2    N1 9003   1.135   0.288  11.509  0.6573  0.0148 -0.0102
  607MPD2    H7 9004   1.158   0.369  11.566 -0.9128 -0.8352  1.8782
  608TMC3    C1 9005   1.239   0.391  11.340 -0.2729 -0.8068  0.5613
  608TMC3    C2 9006   1.248   0.501  11.423  0.1764  0.1954  0.3353
  608TMC3    C3 9007   1.333   0.600  11.395  0.1019 -0.5202  0.3491
  608TMC3    C4 9008   1.315   0.381  11.227  0.0535  0.1547  1.0948
  608TMC3    C5 9009   1.404   0.476  11.215 -0.8885 -0.0067 -0.1536
  608TMC3    C6 9010   1.420   0.587  11.295  0.2482 -0.0292 -0.7270
  608TMC3     C 9011   1.152   0.288  11.375 -0.1381 -1.2510  0.1536
  608TMC3     O 9012   1.122   0.204  11.292 -0.0250 -0.3686  0.3984
  608TMC3     H 9013   1.168   0.520  11.492  1.0897 -1.2843  1.8049
  608TMC3    H1 9014   1.320   0.287  11.173 -0.7672  0.5069  0.3969
  608TMC3    H2 9015   1.469   0.677  11.260  0.8905  0.7813  2.1954
  608TMC3    C7 9016   1.484   0.463  11.092  0.1244  0.5798 -0.9750
  608TMC3    C8 9017   1.349   0.696  11.500  0.4665  0.3231 -0.4579
  608TMC3    O1 9018   1.461   0.385  10.998  0.6438 -0.4955 -0.3635
  608TMC3    O2 9019   1.393   0.807  11.464  0.2301  0.5752  0.5835
  609TMC3    C1 9020   0.315   3.634   9.029  0.4332 -0.1223 -0.3382
  609TMC3    C2 9021   0.279   3.544   8.935  0.0960  0.1002 -0.0436
  609TMC3    C3 9022   0.330   3.418   8.925 -0.4312  0.6907 -0.0683
  609TMC3    C4 9023   0.427   3.606   9.100  0.0275 -0.1990  0.4000
  609TMC3    C5 9024   0.491   3.484   9.084 -0.2781  0.1104  0.0813
  609TMC3    C6 9025   0.436   3.387   9.006  0.5925  0.3288 -0.5425
  609TMC3     C 9026   0.208   3.716   9.087 -0.0156 -0.0606 -1.0014
  609TMC3     O 9027   0.100   3.710   9.037  0.4786  0.8073 -0.1234
  609TMC3     H 9028   0.212   3.581   8.858 -2.4864 -0.4153  1.9570
  609TMC3    H1 9029   0.475   3.680   9.163 -0.8360 -0.3768  1.2804
  609TMC3    H2 9030   0.490   3.293   8.998  1.4048  0.7059  0.5013
  609TMC3    C7 9031   0.621   3.463   9.156  0.1788 -0.4806 -0.0409
  609TMC3    C8 9032   0.268   3.323   8.838  0.1436 -0.6375  0.0418
  609TMC3    O1 9033   0.649   3.546   9.239  0.2611  0.2090 -0.1996
  609TMC3    O2 9034   0.155   3.356   8.806 -0.1878 -0.3716 -0.2407
  610TMC3    C1 9035   1.650   0.243  12.533 -0.5035 -0.0956 -0.0039
  610TMC3    C2 9036   1.756   0.300  12.457 -0.9159 -0.1072  0.3698
  610TMC3    C3 9037   1.869   0.225  12.443  0.1802  0.8104 -0.2052
  610TMC3    C4 9038   1.655   0.116  12.587 -0.1324  0.3823  0.0440
  610TMC3    C5 9039   1.778   0.053  12.581 -0.4273 -0.1625 -0.8435
  610TMC3    C6 9040   1.886   0.106  12.514 -0.3767  0.1661 -0.0807
  610TMC3     C 9041   1.534   0.315  12.566 -0.6091  0.4946  0.6929
  610TMC3     O 9042   1.453   0.264  12.642 -0.1642  0.2768 -0.1564
  610TMC3     H 9043   1.771   0.407  12.454 -0.8338 -0.0928  1.2673
  610TMC3    H1 9044   1.569   0.070  12.634 -0.9471  0.1370 -1.6711
  610TMC3    H2 9045   1.975   0.048  12.494  0.0280  0.2242  1.5664
  610TMC3    C7 9046   1.808   4.665  12.669 -0.6919 -0.3213 -0.0640
  610TMC3    C8 9047   1.978   0.270  12.350  0.2982  0.0460 -0.3481
  610TMC3    O1 9048   1.924   4.646  12.702 -0.2511  0.2371  1.3674
  610TMC3    O2 9049   2.095   0.236  12.379 -0.2341 -0.1731  0.2881
  611MPD2     C 9050   1.140   4.381  10.306  0.1954  0.0197 -0.2044
  611MPD2    C1 9051   1.063   4.477  10.250 -0.1468 -0.1273  0.6782
  611MPD2    C2 9052   1.127   4.558  10.160 -0.2765  0.3668  0.4235
  611MPD2    C3 9053   1.255   4.536  10.110  0.0346 -0.3943  0.4802
  611MPD2    C4 9054   1.323   4.425  10.154  0.4005 -0.2907 -0.0115
  611MPD2    C5 9055   1.264   4.352  10.255  0.0663 -0.2531  0.5412
  611MPD2     H 9056   1.070   4.638  10.114  1.0684  1.5855  0.8783
  611MPD2    H1 9057   1.419   4.403  10.109 -0.3891  0.4208 -2.0441
  611MPD2    H2 9058   1.108   4.317  10.388  1.4202  0.2903  0.4789
  611MPD2    H3 9059   1.317   4.268  10.297 -1.5702 -0.7634  1.5861
  611MPD2     N 9060   1.320   4.623  10.022  0.0097 -0.4596  0.3206
  611MPD2    H5 9061   1.417   4.607   9.997  0.3195  2.5909 -0.4409
  611MPD2    N1 9062   0.936   4.496  10.305 -0.1897 -0.1648  0.4369
  611MPD2    H7 9063   0.916   4.430  10.380  0.2285  1.7717  2.2603
  612TMC3    C1 9064   1.348   0.043   9.839  0.6059  0.2066 -0.6587
  612TMC3    C2 9065   1.464   0.094   9.887  0.3547  0.0298 -0.4930
  612TMC3    C3 9066   1.531   0.184   9.811 -0.1517 -0.0791  0.9014
  612TMC3    C4 9067   1.304   0.068   9.715  0.5184  0.0991 -0.1438
  612TMC3    C5 9068   1.382   0.139   9.626  0.0640 -0.5481  0.6142
  612TMC3    C6 9069   1.494   0.195   9.677 -0.1490 -0.5459 -0.2614
  612TMC3     C 9070   1.254   4.704   9.927  0.2990 -0.7053 -0.3773
  612TMC3     O 9071   1.135   4.705   9.899  0.5463  0.5501 -0.7002
  612TMC3     H 9072   1.514   0.061   9.977  0.4343  0.2561 -0.4539
  612TMC3    H1 9073   1.209   0.030   9.681  0.2045  1.9555 -1.3262
  612TMC3    H2 9074   1.551   0.265   9.617  0.5894  0.3676  1.5083
  612TMC3    C7 9075   1.329   0.182   9.496  0.3320  0.1197 -0.1239
  612TMC3    C8 9076   1.660   0.234   9.865 -0.5407  0.0715 -0.3352
  612TMC3    O1 9077   1.214   0.217   9.491  0.2823 -0.1281  0.1401
  612TMC3    O2 9078   1.751   0.266   9.792 -0.1635 -0.1602 -0.7622
  613MPD2     C 9079   0.098   2.146  16.455  0.2182 -0.7090  0.6093
  613MPD2    C1 9080   0.045   2.127  16.330  1.2675 -1.0870  0.2231
  613MPD2    C2 9081   4.652   2.046  16.317  0.3645  0.0490 -0.3768
  613MPD2    C3 9082   4.581   2.000  16.427 -0.1504  0.5682 -0.0996
  613MPD2    C4 9083   4.647   2.009  16.550  1.4025 -0.1055 -0.0635
  613MPD2    C5 9084   0.036   2.090  16.568  0.2254 -0.4211 -0.4942
  613MPD2     H 9085   4.601   2.032  16.222  0.0359 -1.7312  0.0447
  613MPD2    H1 9086   4.587   1.996  16.639  1.2934 -0.4463 -0.1887
  613MPD2    H2 9087   0.191   2.202  16.457 -0.3841  0.2895  0.6884
  613MPD2    H3 9088   0.065   2.128  16.665  0.3340 -0.1952 -0.6138
  613MPD2     N 9089   4.450   1.952  16.402  0.0958  0.5462  0.1376
  613MPD2    H5 9090   4.412   1.951  16.308  1.8006  0.2241 -0.5507
  613MPD2    N1 9091   0.104   2.192  16.228  0.3470 -0.1881  0.1017
  613MPD2    H7 9092   0.177   2.261  16.245  0.3146 -0.1034 -0.1061
  614TMC3    C1 9093   0.143   2.261  16.012  0.3884 -0.0498  0.0941
  614TMC3    C2 9094   0.129   2.220  15.878  0.5053 -0.3686  0.2031
  614TMC3    C3 9095   0.098   2.319  15.785 -0.4490 -0.8755 -0.1472
  614TMC3    C4 9096   0.121   2.393  16.041 -0.3605  0.0505  0.1754
  614TMC3    C5 9097   0.111   2.489  15.945  0.1883 -0.4668 -0.1802
  614TMC3    C6 9098   0.109   2.450  15.815  0.2587 -0.4005  0.1671
  614TMC3     C 9099   0.087   2.161  16.098 -0.0068  0.0654  0.5122
  614TMC3     O 9100   0.021   2.072  16.045 -0.0761 -0.4175 -0.6508
  614TMC3     H 9101   0.128   2.119  15.838 -0.1034 -0.3382  0.1324
  614TMC3    H1 9102   0.110   2.427  16.143 -2.2618 -0.1830  0.0495
  614TMC3    H2 9103   0.110   2.527  15.738 -1.3631 -1.4134 -0.8619
  614TMC3    C7 9104   0.013   2.583  15.984 -0.2017  0.1770  0.0033
  614TMC3    C8 9105   4.683   2.296  15.737 -0.0737  0.1033 -0.6969
  614TMC3    O1 9106   4.711   2.608  16.102  0.3135  0.5216 -0.5454
  614TMC3    O2 9107   4.637   2.396  15.680 -0.0894 -0.6281 -0.3626
  615MPD2     C 9108   4.166   3.555  16.142 -0.1574  0.3622 -0.2882
  615MPD2    C1 9109   4.059   3.477  16.172 -0.0760  0.2218  0.9388
  615MPD2    C2 9110   3.951   3.474  16.092 -0.1860  0.5445 -0.5967
  615MPD2    C3 9111   3.958   3.546  15.975 -0.1533 -0.3157  0.1799
  615MPD2    C4 9112   4.066   3.620  15.937 -0.1084 -1.0220 -0.0665
  615MPD2    C5 9113   4.168   3.627  16.030 -0.8834  0.1956  1.1135
  615MPD2     H 9114   3.862   3.426  16.131  2.0448 -2.3109  0.9465
  615MPD2    H1 9115   4.070   3.689  15.854 -0.9316 -0.1020  0.6641
  615MPD2    H2 9116   4.257   3.556  16.202  0.0142  2.9791 -0.5892
  615MPD2    H3 9117   4.249   3.699  16.022  0.9077 -1.9163  0.2982
  615MPD2     N 9118   3.852   3.566  15.883  0.0704 -0.2861 -0.4654
  615MPD2    H5 9119   3.859   3.627  15.802  0.7416 -1.4806 -1.3072
  615MPD2    N1 9120   4.046   3.417  16.299  0.1294 -0.7056  0.0742
  615MPD2    H7 9121   3.964   3.359  16.310  1.8766 -3.0503  0.5451
  616TMC3    C1 9122   4.078   3.394  16.529  0.0845  0.7346 -0.0815
  616TMC3    C2 9123   4.119   3.462  16.636  0.0574 -0.4906 -0.6910
  616TMC3    C3 9124   4.042   3.464  16.753 -0.1623 -0.5614  0.0329
  616TMC3    C4 9125   3.958   3.322  16.537 -0.2202 -0.0913  0.8589
  616TMC3    C5 9126   3.880   3.327  16.651 -0.1417  0.3680 -0.4366
  616TMC3    C6 9127   3.919   3.394  16.761  0.0679 -0.2182 -0.1772
  616TMC3     C 9128   4.136   3.427  16.400  0.3145 -0.6862  0.2244
  616TMC3     O 9129   4.250   3.472  16.403 -0.0052  0.0172 -0.0232
  616TMC3     H 9130   4.217   3.507  16.629  0.2780 -1.0673 -1.3146
  616TMC3    H1 9131   3.920   3.263  16.455 -0.3913  1.4199 -0.1542
  616TMC3    H2 9132   3.862   3.402  16.853  0.2462  1.6011 -0.2166
  616TMC3    C7 9133   3.774   3.228  16.664  0.1638  0.4640 -0.0509
  616TMC3    C8 9134   4.089   3.542  16.868  0.4800 -0.3774 -0.7653
  616TMC3    O1 9135   3.769   3.138  16.578  0.2779 -0.2940  0.0529
  616TMC3    O2 9136   4.036   3.532  16.978 -0.7841  0.1898 -0.0458
  617MPD2     C 9137   2.514   1.968  13.813 -0.0731  0.2948 -0.0938
  617MPD2    C1 9138   2.507   1.963  13.951  0.7865  0.0774  0.1569
  617MPD2    C2 9139   2.377   1.939  14.000  0.2375  0.5104  0.0359
  617MPD2    C3 9140   2.266   1.931  13.917  0.1581  0.8802  0.7817
  617MPD2    C4 9141   2.274   1.952  13.782  0.3834  0.0820  0.2175
  617MPD2    C5 9142   2.402   1.966  13.736 -0.3337  0.0310  0.2608
  617MPD2     H 9143   2.368   1.926  14.107  1.2604 -0.0647  0.0511
  617MPD2    H1 9144   2.194   1.928  13.713 -0.3742 -0.1591  1.1797
  617MPD2    H2 9145   2.611   1.965  13.765 -0.2171  3.0875 -0.5953
  617MPD2    H3 9146   2.427   1.965  13.631  0.2710  0.3352  0.4030
  617MPD2     N 9147   2.136   1.914  13.979 -0.8435  0.1837  0.7382
  617MPD2    H5 9148   2.064   1.925  13.908  1.7515  0.6126 -1.8233
  617MPD2    N1 9149   2.633   1.965  14.017 -0.5502 -0.0761  0.1001
  617MPD2    H7 9150   2.714   1.969  13.956 -0.3341  0.9614  0.4571
  618TMC3    C1 9151   2.797   1.923  14.182  0.1337 -0.5748  0.0899
  618TMC3    C2 9152   2.842   1.815  14.260 -0.7849 -0.6594  0.7792
  618TMC3    C3 9153   2.942   1.742  14.216 -0.5466  0.2020  0.1732
  618TMC3    C4 9154   2.880   1.973  14.085  0.4699  0.5172 -0.3779
  618TMC3    C5 9155   2.983   1.899  14.052  0.4185 -0.5882  0.0108
  618TMC3    C6 9156   3.021   1.784  14.118  0.2157 -0.9817  0.2665
  618TMC3     C 9157   2.653   1.931  14.150  0.6087  0.8030  0.2688
  618TMC3     O 9158   2.573   1.891  14.231  0.0577 -0.4594  0.6182
  618TMC3     H 9159   2.773   1.775  14.333 -0.3602  0.1718  1.6288
  618TMC3    H1 9160   2.851   2.066  14.036 -0.0825  0.0796 -0.8825
  618TMC3    H2 9161   3.082   1.721  14.055  0.5272  0.6631 -1.0862
  618TMC3    C7 9162   2.989   1.891  13.909  0.4005 -0.1217  0.0143
  618TMC3    C8 9163   2.962   1.614  14.278  0.0352  0.4934 -0.1132
  618TMC3    O1 9164   2.882   1.910  13.852 -0.7431 -0.1739 -0.4953
  618TMC3    O2 9165   2.877   1.578  14.359 -0.1776 -0.4810 -0.5623
  619MPD2     C 9166   3.427   2.593  13.825  0.4762 -0.5581 -1.2260
  619MPD2    C1 9167   3.405   2.626  13.688  0.0177 -0.0775 -0.3058
  619MPD2    C2 9168   3.284   2.588  13.640 -0.1807  0.1576  0.0841
  619MPD2    C3 9169   3.180   2.536  13.716  0.1924 -0.1768  0.6827
  619MPD2    C4 9170   3.198   2.516  13.848  0.3371 -0.4486 -0.1337
  619MPD2    C5 9171   3.323   2.529  13.894 -0.3459 -0.4290  0.4243
  619MPD2     H 9172   3.253   2.619  13.541  0.1987 -0.8796 -0.3579
  619MPD2    H1 9173   3.122   2.480  13.916  0.1121 -0.7261 -0.5309
  619MPD2    H2 9174   3.524   2.610  13.869  0.3143 -1.3762 -0.5652
  619MPD2    H3 9175   3.338   2.524  14.001 -2.4902  0.8221  0.7950
  619MPD2     N 9176   3.056   2.532  13.657 -0.1673  0.4576 -0.0451
  619MPD2    H5 9177   3.031   2.574  13.568 -1.0113 -1.9825 -0.9479
  619MPD2    N1 9178   3.498   2.685  13.602 -0.1054  0.2591 -0.0484
  619MPD2    H7 9179   3.464   2.700  13.507 -1.7942  0.6253  0.6143
  620TMC3    C1 9180   3.608   2.856  13.523  0.0976  0.0863 -0.4986
  620TMC3    C2 9181   3.494   2.877  13.448 -0.0699  0.2047  0.1338
  620TMC3    C3 9182   3.502   2.958  13.339 -0.4914 -0.1507  0.2737
  620TMC3    C4 9183   3.730   2.897  13.480 -0.1150  0.1219 -0.0623
  620TMC3    C5 9184   3.743   2.962  13.358  0.1752 -0.8912  0.3113
  620TMC3    C6 9185   3.627   2.990  13.286 -0.6380 -0.2302 -0.4059
  620TMC3     C 9186   3.605   2.761  13.636  0.1767 -0.6082 -0.2672
  620TMC3     O 9187   3.677   2.754  13.735 -0.0501  0.6857  0.2651
  620TMC3     H 9188   3.393   2.853  13.480 -0.7983  3.3132  0.1769
  620TMC3    H1 9189   3.814   2.857  13.536 -1.9884 -1.2235  1.7843
  620TMC3    H2 9190   3.645   3.035  13.189 -0.6917  0.5657 -0.0443
  620TMC3    C7 9191   3.855   3.047  13.335 -0.2935  0.0843  0.3559
  620TMC3    C8 9192   3.406   3.067  13.331 -0.4677  0.0727  1.0518
  620TMC3    O1 9193   3.838   3.134  13.249  0.2074 -0.3698 -0.1474
  620TMC3    O2 9194   3.448   3.185  13.298  0.2824  0.0036  0.1021
  621MPD2     C 9195   4.017   2.744  10.495  0.0936  0.1094  0.1216
  621MPD2    C1 9196   4.094   2.689  10.391  0.0475  0.8967  0.0739
  621MPD2    C2 9197   4.161   2.773  10.300 -0.3231  0.1451 -0.2183
  621MPD2    C3 9198   4.133   2.908  10.311  1.0911  0.0011 -0.6889
  621MPD2    C4 9199   4.054   2.959  10.418  0.1957 -0.5362 -0.5113
  621MPD2    C5 9200   4.003   2.879  10.510 -0.1329 -0.0345 -0.2893
  621MPD2     H 9201   4.214   2.741  10.212  0.2263  1.2457 -0.2863
  621MPD2    H1 9202   4.026   3.064  10.412  0.8371 -0.3075  0.5489
  621MPD2    H2 9203   3.957   2.680  10.559 -0.2681 -0.7410 -1.0587
  621MPD2    H3 9204   3.942   2.925  10.587 -0.4553  0.7746 -1.0208
  621MPD2     N 9205   4.176   2.981  10.202 -0.1732 -0.4606  0.0029
  621MPD2    H5 9206   4.239   2.927  10.144  0.3779  0.9558 -0.7207
  621MPD2    N1 9207   4.110   2.549  10.365  0.3127  0.1252  0.2934
  621MPD2    H7 9208   4.135   2.520  10.271 -0.8306  3.9798 -1.1758
  622TMC3    C1 9209   4.049   2.322  10.385 -0.6626 -0.5092  0.6245
  622TMC3    C2 9210   3.963   2.249  10.463 -0.0706  0.0589  0.1404
  622TMC3    C3 9211   3.838   2.222  10.407  0.0505  0.5166  0.0784
  622TMC3    C4 9212   4.034   2.329  10.248  0.1304 -0.3093 -0.8670
  622TMC3    C5 9213   3.919   2.280  10.196 -0.7415  0.1367 -0.4567
  622TMC3    C6 9214   3.820   2.230  10.271  0.1770 -0.1505  0.3904
  622TMC3     C 9215   4.077   2.444  10.453 -0.4191  0.6223  0.7050
  622TMC3     O 9216   4.049   2.451  10.569 -0.2615  0.1156  0.1254
  622TMC3     H 9217   3.980   2.237  10.570  1.5670  3.4488  0.2487
  622TMC3    H1 9218   4.112   2.356  10.178 -0.5527  0.1065 -1.4571
  622TMC3    H2 9219   3.740   2.165  10.236  0.2360  1.1013 -1.9834
  622TMC3    C7 9220   3.933   2.226  10.067  0.0986  0.3842 -0.2806
  622TMC3    C8 9221   3.725   2.267  10.486  0.0800  0.9891  0.2839
  622TMC3    O1 9222   3.892   2.112  10.052  0.3295  0.0097 -0.4712
  622TMC3    O2 9223   3.727   2.248  10.607  0.4247 -0.2404  0.0692
  623MPD2     C 9224   2.687   0.070  16.429 -0.4726 -0.5676 -0.0058
  623MPD2    C1 9225   2.633   4.667  16.427 -0.0303  0.1676  0.1507
  623MPD2    C2 9226   2.674   4.567  16.511 -0.7710  0.4492  0.7258
  623MPD2    C3 9227   2.782   4.585  16.596 -0.1034  0.0532 -0.0586
  623MPD2    C4 9228   2.838   4.713  16.596  0.6411 -0.2630  0.1115
  623MPD2    C5 9229   2.783   0.094  16.528  0.1267  0.1923  0.2835
  623MPD2     H 9230   2.628   4.469  16.504  0.8602 -0.2343 -0.6743
  623MPD2    H1 9231   2.927   0.013  16.654  0.7212 -0.3953  0.0388
  623MPD2    H2 9232   2.652   0.163  16.386  1.3634 -0.7747 -1.9516
  623MPD2    H3 9233   2.829   0.191  16.541  0.0541  0.1906  0.5407
  623MPD2     N 9234   2.823   4.478  16.671 -0.3303  0.1885  0.4516
  623MPD2    H5 9235   2.776   4.389  16.658  0.9649 -0.1669 -1.8172
  623MPD2    N1 9236   2.512   4.664  16.352  0.5594  0.3871  0.0686
  623MPD2    H7 9237   2.478   0.028  16.311 -0.0914 -0.1271 -0.4725
  624TMC3    C1 9238   3.058   4.208  16.976 -0.4025 -0.4060  0.5293
  624TMC3    C2 9239   2.949   4.130  16.992  0.1400  0.5925  0.1830
  624TMC3    C3 9240   2.836   4.169  16.927 -0.1116 -0.3300 -0.2700
  624TMC3    C4 9241   3.058   4.320  16.900  0.1828  0.5278 -0.1940
  624TMC3    C5 9242   2.946   4.348  16.824 -0.2760 -0.4729  0.5769
  624TMC3    C6 9243   2.825   4.282  16.853  0.1655  0.5452 -0.0976
  624TMC3     C 9244   3.186   4.144  16.999 -0.9833  0.1658  0.4813
  624TMC3     O 9245   3.193   4.057  17.088 -0.7835  0.2687 -0.2147
  624TMC3     H 9246   2.952   4.032  17.038  1.2383  0.6818  0.2958
  624TMC3    H1 9247   3.150   4.375  16.885 -0.6450  2.6812  2.6441
  624TMC3    H2 9248   2.725   4.311  16.823 -0.8877 -1.0690  1.8811
  624TMC3    C7 9249   2.928   4.475  16.754  0.0365 -0.3025  0.5491
  624TMC3    C8 9250   2.721   4.092  16.951  0.7194 -0.3412  0.8737
  624TMC3    O1 9251   3.018   4.556  16.769 -0.7439 -0.3093 -0.6518
  624TMC3    O2 9252   2.716   4.025  17.052 -0.6972 -0.0867 -0.2143
  625MPD2     C 9253   2.686   0.208   0.869  0.3609  0.4548 -0.0142
  625MPD2    C1 9254   2.801   0.282   0.858 -0.3985 -0.1990 -0.0833
  625MPD2    C2 9255   2.878   0.310   0.971 -0.1303 -0.1953 -0.3033
  625MPD2    C3 9256   2.836   0.275   1.095 -0.5687 -0.5547  0.5798
  625MPD2    C4 9257   2.718   0.204   1.108  0.7906 -0.1787  0.2875
  625MPD2    C5 9258   2.647   0.167   0.995 -0.6443  0.2607 -1.1841
  625MPD2     H 9259   2.968   0.368   0.959  1.1471 -2.3202 -1.0296
  625MPD2    H1 9260   2.688   0.169   1.206 -1.3675  1.3837  0.1955
  625MPD2    H2 9261   2.627   0.174   0.785  0.8824  0.2945 -0.3187
  625MPD2    H3 9262   2.560   0.102   1.000 -0.5268  0.3457  1.6319
  625MPD2     N 9263   2.918   0.313   1.199 -0.6052  0.0557 -0.0571
  625MPD2    H5 9264   2.999   0.370   1.176 -1.4510  0.9597 -0.7934
  625MPD2    N1 9265   2.850   0.331   0.733  0.5967  0.2075 -0.6543
  625MPD2    H7 9266   2.939   0.379   0.743  0.8152 -0.0384 -1.4201
  626TMC3    C1 9267   2.866   0.374   0.498 -0.1027  0.5488 -0.1016
  626TMC3    C2 9268   2.802   0.403   0.380  0.1187  0.8246 -0.2301
  626TMC3    C3 9269   2.874   0.450   0.272 -0.2200 -0.3738 -0.3337
  626TMC3    C4 9270   2.994   0.419   0.513  0.2183  0.0166 -0.9932
  626TMC3    C5 9271   3.066   0.472   0.400 -0.4195 -0.4891  0.3011
  626TMC3    C6 9272   3.000   0.486   0.282  0.4408 -0.1210  0.3066
  626TMC3     C 9273   2.786   0.316   0.608 -0.0322 -0.0875  0.2628
  626TMC3     O 9274   2.676   0.266   0.583  0.0534 -0.1273  0.2819
  626TMC3     H 9275   2.701   0.367   0.367 -0.3937  1.6095  1.6383
  626TMC3    H1 9276   3.051   0.412   0.605  0.2665 -0.9538 -1.0985
  626TMC3    H2 9277   3.048   0.544   0.203 -0.2129 -1.0489 -0.7687
  626TMC3    C7 9278   3.154   0.573   0.438  0.2164 -1.1749 -0.5422
  626TMC3    C8 9279   2.793   0.509   0.165 -0.5990  0.9746 -0.4831
  626TMC3    O1 9280   3.264   0.571   0.387  0.4598 -1.2413  0.4686
  626TMC3    O2 9281   2.860   0.540   0.066  0.1691  0.8756  0.7567
  627MPD2     C 9282   1.845   0.913  14.730 -0.0850  0.4942 -0.3419
  627MPD2    C1 9283   1.879   0.866  14.856 -0.1223 -1.0557  0.0750
  627MPD2    C2 9284   1.832   0.744  14.898  0.2903  0.1449  0.3003
  627MPD2    C3 9285   1.747   0.674  14.821  0.3175  0.5469  0.1462
  627MPD2    C4 9286   1.701   0.728  14.706 -0.2671  0.4365 -0.6804
  627MPD2    C5 9287   1.759   0.842  14.662  0.2493  0.2511  0.3392
  627MPD2     H 9288   1.869   0.704  14.992  0.8991 -1.0679 -0.4481
  627MPD2    H1 9289   1.631   0.684  14.636 -0.6705 -0.6668  0.4272
  627MPD2    H2 9290   1.907   0.992  14.687 -0.5987  1.8361  1.3852
  627MPD2    H3 9291   1.745   0.876  14.560  0.7962 -0.3047  0.0816
  627MPD2     N 9292   1.704   0.550  14.865  0.1235  0.3407  0.3363
  627MPD2    H5 9293   1.729   0.521  14.959 -1.1015 -0.1324  0.5133
  627MPD2    N1 9294   1.964   0.938  14.945  0.0813  0.0246 -0.0123
  627MPD2    H7 9295   1.994   0.894  15.031  0.3752 -0.1674 -0.2135
  628TMC3    C1 9296   2.086   1.123  15.005 -0.3953 -0.1658  0.5070
  628TMC3    C2 9297   2.177   1.043  15.064  0.1727  0.0347 -0.1965
  628TMC3    C3 9298   2.286   1.105  15.125  0.8414 -0.8919  0.4416
  628TMC3    C4 9299   2.120   1.260  14.988 -0.0454 -0.0896 -0.3465
  628TMC3    C5 9300   2.234   1.317  15.031 -0.1549  0.4848  0.2845
  628TMC3    C6 9301   2.311   1.242  15.112  0.5973  0.6658  0.3441
  628TMC3     C 9302   1.990   1.072  14.924 -0.2399  0.3137  0.0209
  628TMC3     O 9303   1.928   1.155  14.854  0.3093 -0.4576 -0.1038
  628TMC3     H 9304   2.170   0.935  15.069  0.4492 -0.0947 -2.7985
  628TMC3    H1 9305   2.046   1.330  14.950 -3.5429 -3.8096 -0.3848
  628TMC3    H2 9306   2.411   1.281  15.126  1.7953 -1.1772 -2.8729
  628TMC3    C7 9307   2.305   1.391  14.928 -0.3072 -0.3546 -0.3929
  628TMC3    C8 9308   2.399   1.021  15.152  0.2539  0.2836  0.8453
  628TMC3    O1 9309   2.428   1.390  14.930 -0.7294 -0.8173  0.5173
  628TMC3    O2 9310   2.380   0.902  15.116 -0.6356 -0.8184 -0.2911
  629MPD2     C 9311   4.444   3.874  17.049  0.6978 -0.0557  0.0036
  629MPD2    C1 9312   4.451   3.877  16.915 -0.3091 -0.3482 -0.4725
  629MPD2    C2 9313   4.352   3.804  16.849 -0.1201 -0.2683  0.2194
  629MPD2    C3 9314   4.266   3.719  16.909 -0.3608  0.6425 -0.8842
  629MPD2    C4 9315   4.270   3.707  17.050  0.2453 -0.1850 -0.0583
  629MPD2    C5 9316   4.360   3.790  17.110 -0.2494  0.5260  0.6745
  629MPD2     H 9317   4.343   3.804  16.741 -1.2663  2.0039  0.3250
  629MPD2    H1 9318   4.206   3.637  17.103 -1.1464 -0.4047 -1.9806
  629MPD2    H2 9319   4.523   3.922  17.105  1.7986 -0.3921 -1.2563
  629MPD2    H3 9320   4.372   3.794  17.218 -0.3139  0.3161  0.6889
  629MPD2     N 9321   4.178   3.640  16.827 -0.1144  0.0170  0.2612
  629MPD2    H5 9322   4.185   3.665  16.729 -0.5462  0.9547  0.4648
  629MPD2    N1 9323   4.570   3.935  16.869  0.2730  0.0987 -0.3347
  629MPD2    H7 9324   4.627   3.980  16.940  0.5468 -0.3034 -0.3032
  630TMC3    C1 9325   0.004   3.986  16.704  0.5528 -0.1042  0.5895
  630TMC3    C2 9326   0.024   4.071  16.600 -0.5462 -0.4803  0.1235
  630TMC3    C3 9327   0.146   4.123  16.577  0.2443  0.5659  0.2237
  630TMC3    C4 9328   0.104   3.958  16.795 -0.0640  0.0519 -0.0623
  630TMC3    C5 9329   0.229   3.996  16.763  0.6972  0.6865  0.1672
  630TMC3    C6 9330   0.249   4.083  16.662  0.1018  0.1570  0.0716
  630TMC3     C 9331   4.597   3.939  16.734  0.1466  0.0498  0.0115
  630TMC3     O 9332   4.517   3.936  16.642 -0.3126 -0.3770  0.5413
  630TMC3     H 9333   4.664   4.082  16.530  0.4723  0.1276 -0.9779
  630TMC3    H1 9334   0.080   3.891  16.877  0.5584 -0.3240 -0.1927
  630TMC3    H2 9335   0.346   4.131  16.654  0.9843 -1.6201  0.2823
  630TMC3    C7 9336   0.324   3.983  16.870 -0.2613  0.1967 -0.0465
  630TMC3    C8 9337   0.185   4.219  16.472 -0.4677 -0.4763 -0.2981
  630TMC3    O1 9338   0.282   3.964  16.983 -0.0744  0.2310  0.2357
  630TMC3    O2 9339   0.308   4.246  16.463  0.1311 -0.4033 -0.5241
  631MPD2     C 9340   2.933   3.654  15.442  0.4534 -0.2247 -0.0134
  631MPD2    C1 9341   3.035   3.682  15.353 -0.1952 -0.0890  0.9090
  631MPD2    C2 9342   3.157   3.626  15.367 -0.5339 -0.4604  0.1796
  631MPD2    C3 9343   3.184   3.534  15.465 -0.1288  0.5984 -0.3101
  631MPD2    C4 9344   3.087   3.502  15.556  0.1036 -1.1002  0.0220
  631MPD2    C5 9345   2.959   3.561  15.546 -0.4097 -0.2870  0.2646
  631MPD2     H 9346   3.247   3.647  15.312 -0.0248  1.6901  1.8496
  631MPD2    H1 9347   3.102   3.451  15.651  0.0727 -0.8701  0.1519
  631MPD2    H2 9348   2.832   3.695  15.439 -0.4542 -2.2871  1.9035
  631MPD2    H3 9349   2.881   3.539  15.618 -0.5570 -1.9133 -0.3942
  631MPD2     N 9350   3.320   3.505  15.484 -0.0143 -0.1578  0.3335
  631MPD2    H5 9351   3.373   3.543  15.407  0.3434 -0.0592  0.6273
  631MPD2    N1 9352   3.027   3.779  15.252 -0.4377 -0.1982  0.0387
  631MPD2    H7 9353   2.939   3.829  15.255  0.3143  1.2534 -2.6918
  632TMC3    C1 9354   3.100   3.946  15.108 -0.2297  0.4494 -0.1979
  632TMC3    C2 9355   3.044   4.052  15.183  0.4371 -0.6725  0.2986
  632TMC3    C3 9356   3.085   4.182  15.164 -0.7931  0.0270  0.2558
  632TMC3    C4 9357   3.184   3.980  15.006  0.4045 -0.3486 -0.1544
  632TMC3    C5 9358   3.209   4.114  14.984 -0.1681  0.0013 -0.0797
  632TMC3    C6 9359   3.176   4.213  15.067 -0.4221 -0.2059 -0.6216
  632TMC3     C 9360   3.123   3.811  15.158  0.3214 -0.9289  1.1112
  632TMC3     O 9361   3.204   3.738  15.101 -0.5890  0.9015  0.2468
  632TMC3     H 9362   2.968   4.023  15.255  1.3156 -0.9650  1.1116
  632TMC3    H1 9363   3.208   3.906  14.930  0.6507 -0.5961  0.1640
  632TMC3    H2 9364   3.185   4.318  15.039  1.2920 -0.1871 -0.0150
  632TMC3    C7 9365   3.284   4.144  14.866  0.0899  0.1589 -0.4643
  632TMC3    C8 9366   3.056   4.272  15.278  0.6851 -0.4487  0.0942
  632TMC3    O1 9367   3.260   4.251  14.811 -0.1923  0.4848 -0.1088
  632TMC3    O2 9368   3.000   4.225  15.375 -0.5883  0.1029  0.1846
  633MPD2     C 9369   2.902   2.418   0.375 -0.2944 -0.0157  0.5716
  633MPD2    C1 9370   2.893   2.311   0.286  0.1927 -0.3340  0.4079
  633MPD2    C2 9371   2.864   2.183   0.333 -0.5866  0.9473  0.7247
  633MPD2    C3 9372   2.831   2.160   0.461  0.8264 -0.3206  0.4955
  633MPD2    C4 9373   2.837   2.269   0.546 -0.4723 -0.7002  0.4842
  633MPD2    C5 9374   2.871   2.394   0.510  0.0227 -0.2735 -0.3737
  633MPD2     H 9375   2.861   2.110   0.253  0.8170 -0.0713  1.5910
  633MPD2    H1 9376   2.817   2.249   0.651 -1.3670  0.8551  0.6080
  633MPD2    H2 9377   2.938   2.512   0.335 -1.7537  0.7163  0.9883
  633MPD2    H3 9378   2.885   2.460   0.595 -0.1364 -0.5539 -0.1288
  633MPD2     N 9379   2.808   2.036   0.516 -0.0099  0.4072 -0.4564
  633MPD2    H5 9380   2.803   2.036   0.617 -0.2217 -0.9614 -0.4684
  633MPD2    N1 9381   2.930   2.331   0.152 -0.2777 -0.5148  0.3293
  633MPD2    H7 9382   2.944   2.245   0.099 -1.1575  0.6171 -1.7503
  634TMC3    C1 9383   2.990   2.437  17.624 -0.0202  0.4322  0.4447
  634TMC3    C2 9384   3.038   2.325  17.580 -0.6388 -0.0685  0.2021
  634TMC3    C3 9385   3.052   2.310  17.443 -0.0095  0.2554  0.4606
  634TMC3    C4 9386   2.943   2.532  17.539 -0.4058 -0.1494  0.4621
  634TMC3    C5 9387   2.958   2.518  17.399  0.4014  0.1759  0.1790
  634TMC3    C6 9388   3.018   2.406  17.354 -0.2982  0.4884  0.5136
  634TMC3     C 9389   2.948   2.448   0.081  0.0050  0.6802  1.2598
  634TMC3     O 9390   2.918   2.559   0.117  0.5694 -0.1862  0.0012
  634TMC3     H 9391   3.073   2.251  17.652  1.2321  0.0773 -0.5321
  634TMC3    H1 9392   2.898   2.622  17.579 -1.3304 -0.5126  0.2401
  634TMC3    H2 9393   3.030   2.392  17.247  0.0993 -0.6254  0.7038
  634TMC3    C7 9394   2.916   2.617  17.302 -0.2444 -0.0687 -0.8344
  634TMC3    C8 9395   3.093   2.176  17.394 -0.4070 -0.6158 -0.3696
  634TMC3    O1 9396   2.946   2.592  17.185 -0.2302  0.2522 -0.3592
  634TMC3    O2 9397   3.057   2.083  17.466  0.4280 -0.4021 -0.0877
  635TMC3    C1 9398   3.219   2.991   0.111  0.4610 -0.8203  0.1825
  635TMC3    C2 9399   3.324   3.028   0.029 -0.5614  0.5226 -0.3855
  635TMC3    C3 9400   3.412   2.933  17.685 -0.0734 -0.4927 -0.2083
  635TMC3    C4 9401   3.208   2.860   0.159  0.0671  0.1184  0.8415
  635TMC3    C5 9402   3.302   2.765   0.123 -0.2746 -0.1911 -0.4334
  635TMC3    C6 9403   3.403   2.802   0.034  0.8954 -0.5021  0.8663
  635TMC3     C 9404   3.129   3.091   0.159 -0.3755 -0.3672 -0.0001
  635TMC3     O 9405   3.149   3.206   0.124  0.3782  1.0464 -0.4581
  635TMC3     H 9406   3.334   3.132  17.692  0.3607 -0.0221 -1.9832
  635TMC3    H1 9407   3.128   2.822   0.221  0.4808 -1.4927  0.4051
  635TMC3    H2 9408   3.476   2.727   0.005  0.3872 -0.4188 -0.6441
  635TMC3    C7 9409   3.286   2.633   0.177 -0.9645  0.8537 -0.1531
  635TMC3    C8 9410   3.539   2.980  17.632  0.0684 -0.4207 -0.7536
  635TMC3    O1 9411   3.234   2.619   0.285  0.0280 -0.7429 -0.5164
  635TMC3    O2 9412   3.602   2.912  17.548 -0.0211  0.1557  0.1711
  636MPD2     C 9413   3.671   2.532  16.502 -0.7273 -0.1217  0.4079
  636MPD2    C1 9414   3.727   2.534  16.377 -0.0543 -0.4115 -0.6751
  636MPD2    C2 9415   3.803   2.427  16.333  1.3847  0.0046 -0.2221
  636MPD2    C3 9416   3.821   2.314  16.405  0.2632  0.0774 -0.1591
  636MPD2    C4 9417   3.757   2.309  16.533 -0.4452 -0.7095 -0.3093
  636MPD2    C5 9418   3.683   2.421  16.575 -0.1387  0.8575  0.0603
  636MPD2     H 9419   3.857   2.436  16.239 -0.1387 -1.3266 -1.2026
  636MPD2    H1 9420   3.748   2.216  16.588  1.4554 -1.1689 -0.7740
  636MPD2    H2 9421   3.600   2.607  16.536 -0.2394 -0.2430  1.6964
  636MPD2    H3 9422   3.627   2.418  16.668  2.0485  1.2330  1.4014
  636MPD2     N 9423   3.917   2.217  16.357  0.1345  0.6270  0.1377
  636MPD2    H5 9424   3.972   2.247  16.277 -1.0294  1.5770 -0.3011
  636MPD2    N1 9425   3.739   2.658  16.308  0.4288 -0.1776  0.4541
  636MPD2    H7 9426   3.805   2.658  16.231 -1.4494 -0.0573 -1.1821
  637TMC3    C1 9427   4.057   2.022  16.378  0.3435 -0.2849  0.0457
  637TMC3    C2 9428   4.135   1.977  16.478  0.7051  0.2212  0.7233
  637TMC3    C3 9429   4.229   1.887  16.448  0.5591 -0.7646 -0.6830
  637TMC3    C4 9430   4.069   1.998  16.242  0.4328 -0.9374  0.7972
  637TMC3    C5 9431   4.169   1.908  16.213 -0.4178  0.0329 -0.3010
  637TMC3    C6 9432   4.242   1.843  16.316 -0.1790 -0.1515 -0.7853
  637TMC3     C 9433   3.943   2.099  16.422 -0.8489 -0.7106  0.1480
  637TMC3     O 9434   3.893   2.063  16.528 -0.1064  0.1023 -0.1404
  637TMC3     H 9435   4.117   2.007  16.581 -1.6445 -0.1680  0.4142
  637TMC3    H1 9436   4.014   2.054  16.168  3.1415  0.6521 -0.0012
  637TMC3    H2 9437   4.329   1.784  16.292  1.7685  1.9787  1.1159
  637TMC3    C7 9438   4.263   1.943  16.110 -0.8487  0.0541 -0.1606
  637TMC3    C8 9439   4.366   1.922  16.505 -0.3204  0.5228  0.3755
  637TMC3    O1 9440   4.380   1.940  16.141  0.6054  0.1742  0.1685
  637TMC3    O2 9441   4.375   1.940  16.622  0.4671 -0.2714  0.1596
  638MPD2     C 9442   4.178   1.204  14.968  0.1443  0.6330  0.0430
  638MPD2    C1 9443   4.181   1.077  14.911  0.1021  0.1938 -0.1663
  638MPD2    C2 9444   4.120   0.977  14.979  0.2318  0.6019  0.2089
  638MPD2    C3 9445   4.059   0.994  15.104 -0.1716  0.9990  1.1376
  638MPD2    C4 9446   4.065   1.122  15.154  0.4761 -0.2601 -0.1470
  638MPD2    C5 9447   4.123   1.224  15.093  0.4202  0.5577 -0.1731
  638MPD2     H 9448   4.121   0.877  14.938 -0.8259  0.8242 -0.3671
  638MPD2    H1 9449   4.028   1.150  15.252  2.7462  0.9501  0.3584
  638MPD2    H2 9450   4.228   1.285  14.916  1.5259  0.9962  1.9565
  638MPD2    H3 9451   4.125   1.318  15.148 -1.7869 -0.3266  1.4224
  638MPD2     N 9452   3.994   0.890  15.174  0.1741  0.0619 -0.6121
  638MPD2    H5 9453   3.993   0.797  15.133 -0.4636  0.3339 -1.2062
  638MPD2    N1 9454   4.238   1.062  14.787  0.6909 -0.0219 -0.1067
  638MPD2    H7 9455   4.308   1.130  14.757  0.3658  0.2158 -0.3170
  639TMC3    C1 9456   3.853   0.781  15.334 -0.0864 -0.0654 -0.4821
  639TMC3    C2 9457   3.795   0.706  15.235 -0.0095  0.3445  0.6218
  639TMC3    C3 9458   3.823   0.573  15.231 -0.3326  0.2937 -0.3569
  639TMC3    C4 9459   3.932   0.712  15.427  0.1137  0.1890 -0.3277
  639TMC3    C5 9460   3.972   0.584  15.406 -0.1454  0.7231 -0.0963
  639TMC3    C6 9461   3.921   0.514  15.307 -0.5239 -0.1040 -0.0595
  639TMC3     C 9462   3.912   0.907  15.288 -0.3109 -0.3819 -0.5045
  639TMC3     O 9463   3.894   1.009  15.355 -0.2508 -0.1885 -0.7656
  639TMC3     H 9464   3.731   0.751  15.160  0.5831  0.5497  0.2414
  639TMC3    H1 9465   3.971   0.770  15.509  0.8682  0.3378 -0.7910
  639TMC3    H2 9466   3.938   0.408  15.297  2.2055  0.2426  0.8855
  639TMC3    C7 9467   4.100   0.535  15.452 -0.5956  0.2017 -0.5359
  639TMC3    C8 9468   3.751   0.495  15.134 -0.3289 -0.3132  0.4361
  639TMC3    O1 9469   4.147   0.580  15.558 -0.0381  0.6347 -0.0473
  639TMC3    O2 9470   3.818   0.406  15.081 -0.4099  0.2470 -0.0957
  640MPD2     C 9471   0.040   4.094   9.989 -0.0151 -0.0466 -0.1745
  640MPD2    C1 9472   0.059   4.172   9.881 -0.4276  0.1171  0.1285
  640MPD2    C2 9473   4.675   4.254   9.848 -0.6848 -0.1950  0.1042
  640MPD2    C3 9474   4.557   4.260   9.924 -0.0633 -0.0460 -0.1637
  640MPD2    C4 9475   4.541   4.168  10.028 -0.3176  0.4347  0.1011
  640MPD2    C5 9476   4.645   4.084  10.055  0.1517 -0.0686 -0.3411
  640MPD2     H 9477   4.681   4.309   9.754  1.2581 -1.4032 -0.4915
  640MPD2    H1 9478   4.452   4.172  10.089  0.6190 -2.9048  1.6898
  640MPD2    H2 9479   0.120   4.040  10.039  0.0498 -0.2181 -0.4638
  640MPD2    H3 9480   4.642   4.007  10.132 -0.1505  0.3906  0.1061
  640MPD2     N 9481   4.446   4.348   9.891 -0.6337 -0.2057  0.3144
  640MPD2    H5 9482   4.357   4.329   9.934 -1.5049 -0.0384 -1.4295
  640MPD2    N1 9483   0.183   4.175   9.811  0.0386  1.2452 -0.0701
  640MPD2    H7 9484   0.250   4.102   9.835 -1.8144 -0.6097 -0.5029
  641TMC3    C1 9485   0.357   4.276   9.677 -0.5992 -0.3310 -0.3976
  641TMC3    C2 9486   0.443   4.184   9.735  0.0922 -0.5158  0.7146
  641TMC3    C3 9487   0.578   4.206   9.711  0.5232 -0.0299 -0.0484
  641TMC3    C4 9488   0.397   4.375   9.593 -0.7030  0.1292 -0.6342
  641TMC3    C5 9489   0.531   4.380   9.564 -0.3188 -0.1332  1.0550
  641TMC3    C6 9490   0.620   4.293   9.617 -0.9427  0.9723 -0.9212
  641TMC3     C 9491   0.218   4.274   9.719  0.2187 -0.4256 -0.2393
  641TMC3     O 9492   0.151   4.355   9.660  0.2312 -0.3235  0.3153
  641TMC3     H 9493   0.417   4.114   9.813 -2.6315 -0.1107  0.1474
  641TMC3    H1 9494   0.335   4.456   9.557  1.7283  0.6417 -3.7055
  641TMC3    H2 9495   0.724   4.316   9.599 -0.4564 -0.3445  0.2230
  641TMC3    C7 9496   0.580   4.491   9.475 -0.0229 -0.1886  0.0366
  641TMC3    C8 9497   0.678   4.103   9.745  0.0580 -0.2687 -0.0958
  641TMC3    O1 9498   0.688   4.547   9.503 -0.4385  0.0671 -0.2934
  641TMC3    O2 9499   0.778   4.094   9.679  0.5924 -0.1113 -0.1027
  642TMC3    C1 9500   0.912   1.257  12.049 -0.2509  0.0937 -0.4784
  642TMC3    C2 9501   1.016   1.282  12.127  0.5229  0.1099 -0.2884
  642TMC3    C3 9502   1.121   1.188  12.135  0.3212 -0.4441  0.0807
  642TMC3    C4 9503   0.892   1.130  11.992  0.2771  0.2333  0.0702
  642TMC3    C5 9504   0.982   1.032  12.020  0.2221  0.5701 -0.2824
  642TMC3    C6 9505   1.096   1.056  12.093 -0.4588 -0.1776  0.1547
  642TMC3     C 9506   0.783   1.317  12.093 -0.1593 -0.4306 -0.0935
  642TMC3     O 9507   0.689   1.245  12.125 -0.1441 -0.5395  0.3791
  642TMC3     H 9508   1.040   1.386  12.147 -1.1834  0.4583 -0.0695
  642TMC3    H1 9509   0.800   1.112  11.938 -0.0434  0.2144  0.6157
  642TMC3    H2 9510   1.154   0.975  12.136 -2.2670 -1.0635  0.9042
  642TMC3    C7 9511   0.924   0.896  12.015 -0.6523  0.2016 -0.2036
  642TMC3    C8 9512   1.226   1.213  12.238 -0.5203  0.4599  0.8975
  642TMC3    O1 9513   0.831   0.879  11.937  0.1517  0.5519  0.1404
  642TMC3    O2 9514   1.313   1.130  12.249 -0.3917  0.0408  0.3234
  643TMC3    C1 9515   0.301   0.280   0.247 -0.1841  0.5934 -0.1200
  643TMC3    C2 9516   0.185   0.217   0.226  0.1461  0.4317 -0.0039
  643TMC3    C3 9517   0.159   0.151   0.104  0.4305  0.3243  0.2744
  643TMC3    C4 9518   0.392   0.285   0.146  0.0649 -0.2748 -1.0058
  643TMC3    C5 9519   0.374   0.208   0.029  0.3643  0.1877  0.4198
  643TMC3    C6 9520   0.255   0.139   0.006  0.1322  0.6632 -0.4629
  643TMC3     C 9521   0.309   0.372   0.355  0.4377 -0.4260 -0.1652
  643TMC3     O 9522   0.202   0.416   0.403 -0.2746  0.4858  0.2064
  643TMC3     H 9523   0.108   0.214   0.302 -0.5843  3.1324 -0.6290
  643TMC3    H1 9524   0.487   0.335   0.163 -0.9374  1.4075 -0.3586
  643TMC3    H2 9525   0.227   0.117  17.596  2.2719 -0.0975 -0.8764
  643TMC3    C7 9526   0.419   0.278  17.604  0.6191 -0.4990 -0.2356
  643TMC3    C8 9527   0.046   0.199   0.035  0.4930 -0.5726 -1.7168
  643TMC3    O1 9528   0.386   0.392  17.612 -0.2407  0.4102 -0.0065
  643TMC3    O2 9529   4.714   0.124  17.652 -0.3404 -0.0714  0.1403
  644MPD2     C 9530   0.179   0.585   9.276 -0.7215 -0.8180  0.8007
  644MPD2    C1 9531   0.167   0.449   9.300 -0.4694  0.0690  0.7916
  644MPD2    C2 9532   0.051   0.386   9.260 -0.1147  0.3539  0.5706
  644MPD2    C3 9533   4.672   0.457   9.198  0.6396  0.2313  0.0968
  644MPD2    C4 9534   4.681   0.590   9.178  0.0969  0.4582  0.0114
  644MPD2    C5 9535   0.077   0.648   9.209  0.2105  0.1727  0.0327
  644MPD2     H 9536   0.042   0.278   9.265  3.4217  0.0368 -0.2861
  644MPD2    H1 9537   4.607   0.653   9.130 -0.2729 -0.6632 -0.8863
  644MPD2    H2 9538   0.268   0.640   9.303 -0.5427 -0.8204  0.2190
  644MPD2    H3 9539   0.095   0.751   9.181  0.2544 -0.1456 -1.1195
  644MPD2     N 9540   4.560   0.385   9.150  0.4182 -0.2713  0.0705
  644MPD2    H5 9541   4.574   0.288   9.124  1.0670 -0.7755  2.3021
  644MPD2    N1 9542   0.276   0.389   9.368 -0.1266  0.1420 -0.2115
  644MPD2    H7 9543   0.358   0.447   9.386 -0.3586  0.3713  0.1102
  645TMC3    C1 9544   4.330   0.331   9.092 -0.5194 -0.4372 -0.0303
  645TMC3    C2 9545   4.374   0.223   9.024 -0.1772  0.3064  0.2888
  645TMC3    C3 9546   4.290   0.108   9.033  0.7226  0.5291  0.0765
  645TMC3    C4 9547   4.208   0.333   9.154 -0.5134 -0.4429  0.4935
  645TMC3    C5 9548   4.130   0.222   9.165 -0.5873  0.1280  0.2594
  645TMC3    C6 9549   4.170   0.106   9.103  0.0631 -0.0468 -0.3145
  645TMC3     C 9550   4.428   0.435   9.139  0.2803 -0.4277  0.3928
  645TMC3     O 9551   4.390   0.542   9.186 -0.0913 -0.5058 -0.4027
  645TMC3     H 9552   4.464   0.216   8.964 -0.4097  0.6214 -0.1027
  645TMC3    H1 9553   4.168   0.419   9.207 -3.6033 -0.5521 -1.6705
  645TMC3    H2 9554   4.108   0.020   9.124 -1.0531  0.9961  0.6541
  645TMC3    C7 9555   4.006   0.235   9.230 -0.5038 -0.1027 -0.0879
  645TMC3    C8 9556   4.338   4.707   8.977  0.2431  0.3283  0.3460
  645TMC3    O1 9557   4.005   0.318   9.315  0.5068 -0.3336 -0.1009
  645TMC3    O2 9558   4.450   4.707   8.935 -0.4403 -0.3042  0.1818
  646MPD2     C 9559   4.263   4.546  14.504 -0.1204  0.5856 -0.0458
  646MPD2    C1 9560   4.179   4.491  14.602 -0.0729  0.2514  0.0195
  646MPD2    C2 9561   4.044   4.522  14.589  0.3175 -0.0497  0.4925
  646MPD2    C3 9562   4.003   4.623  14.507 -0.3450  0.0720 -0.1738
  646MPD2    C4 9563   4.097   4.688  14.423 -0.6290  0.0616  0.0358
  646MPD2    C5 9564   4.226   4.646  14.427  0.5172 -0.0850  0.3296
  646MPD2     H 9565   3.970   4.466  14.645  2.3577 -1.1233  2.1232
  646MPD2    H1 9566   4.073   0.050  14.359 -1.0718 -1.6897 -2.0686
  646MPD2    H2 9567   4.370   4.529  14.510 -0.7860 -2.2322  4.0915
  646MPD2    H3 9568   4.302   4.695  14.366  1.5640 -1.2589  0.6942
  646MPD2     N 9569   3.866   4.664  14.515 -0.0622 -0.1308 -0.4213
  646MPD2    H5 9570   3.807   4.625  14.588  0.0600  2.0769  0.8686
  646MPD2    N1 9571   4.233   4.394  14.690  0.0960  0.4700  0.3961
  646MPD2    H7 9572   4.332   4.373  14.687  0.4273  2.4693 -2.7125
  647TMC3    C1 9573   4.243   4.251  14.874  0.7208  0.4995 -0.0646
  647TMC3    C2 9574   4.184   4.163  14.954 -0.7958  0.3377 -0.3630
  647TMC3    C3 9575   4.262   4.106  15.052 -0.0628 -0.9006  0.0683
  647TMC3    C4 9576   4.384   4.277  14.877 -0.1612  0.2989 -0.4857
  647TMC3    C5 9577   4.452   4.221  14.983  0.6109  0.2823 -0.2322
  647TMC3    C6 9578   4.395   4.139  15.077 -0.6400  1.1731 -0.1035
  647TMC3     C 9579   4.159   4.314  14.774  0.5303 -0.2694 -0.3210
  647TMC3     O 9580   4.039   4.312  14.797  0.1295  0.2332 -0.1895
  647TMC3     H 9581   4.080   4.139  14.936 -0.6290 -2.1281  1.9219
  647TMC3    H1 9582   4.431   4.352  14.813  0.6824  0.6948  0.6000
  647TMC3    H2 9583   4.459   4.094  15.152  1.2864  3.0480 -0.6201
  647TMC3    C7 9584   4.600   4.227  14.986 -0.1637 -0.2402 -0.1332
  647TMC3    C8 9585   4.212   4.000  15.136  0.2423  0.2848 -0.2397
  647TMC3    O1 9586   4.649   4.186  15.090  0.2344 -0.1009  0.0704
  647TMC3    O2 9587   4.298   3.935  15.188 -0.9048  0.2505  0.8220
  648TMC3    C1 9588   3.418   2.169  16.723 -0.0830 -0.3406  0.6539
  648TMC3    C2 9589   3.505   2.071  16.689  0.3992  0.3856  0.2970
  648TMC3    C3 9590   3.490   2.022  16.563  0.0674 -0.4323 -0.9029
  648TMC3    C4 9591   3.323   2.221  16.640 -0.8102 -0.3241  0.7409
  648TMC3    C5 9592   3.304   2.155  16.522 -0.0067  0.2424 -0.1549
  648TMC3    C6 9593   3.393   2.062  16.479 -0.0743 -0.2754 -0.6696
  648TMC3     C 9594   3.431   2.235  16.842 -0.0106 -0.3773  0.5414
  648TMC3     O 9595   3.373   2.345  16.851  0.6534  0.0946 -0.5523
  648TMC3     H 9596   3.582   2.034  16.756 -1.4148 -3.8593  0.0713
  648TMC3    H1 9597   3.266   2.312  16.657 -0.5341  0.4250 -2.3357
  648TMC3    H2 9598   3.366   2.000  16.394  0.1583  1.3560 -1.9384
  648TMC3    C7 9599   3.229   2.215  16.407 -0.2845 -0.0527  0.3725
  648TMC3    C8 9600   3.567   1.900  16.541 -0.2800 -0.1097  1.0959
  648TMC3    O1 9601   3.249   2.173  16.294  0.6035 -0.1498 -0.1719
  648TMC3    O2 9602   3.599   1.830  16.636 -0.6060  0.2131  0.5073
  649TMC3    C1 9603   2.259   3.506  13.039 -0.0633 -0.1075 -0.2736
  649TMC3    C2 9604   2.385   3.557  13.087  0.1893  0.4316 -0.3299
  649TMC3    C3 9605   2.448   3.489  13.191  0.6666 -0.9373 -0.1368
  649TMC3    C4 9606   2.205   3.399  13.100  0.4231  0.6555  0.0271
  649TMC3    C5 9607   2.274   3.325  13.193  0.1216 -0.0545 -0.0468
  649TMC3    C6 9608   2.392   3.373  13.250  0.7066 -0.1173 -1.2346
  649TMC3     C 9609   2.165   3.604  12.973 -0.4702  0.6201 -0.3585
  649TMC3     O 9610   2.050   3.590  13.004 -0.4942  0.0689 -0.1605
  649TMC3     H 9611   2.429   3.645  13.043  2.6481 -1.6040 -1.9787
  649TMC3    H1 9612   2.110   3.362  13.063  0.5225  0.8312 -0.4038
  649TMC3    H2 9613   2.446   3.321  13.328  1.7078  1.0638 -1.1364
  649TMC3    C7 9614   2.201   3.212  13.248 -0.3704 -0.1490 -0.0985
  649TMC3    C8 9615   2.557   3.549  13.272  0.4663  0.0661 -0.6319
  649TMC3    O1 9616   2.080   3.211  13.251  0.5621  0.2303  0.7569
  649TMC3    O2 9617   2.600   3.500  13.377  0.3163 -0.3322 -0.5240
  650TMC3    C1 9618   0.325   0.206  12.440  0.4234 -0.0562  0.3477
  650TMC3    C2 9619   0.321   0.339  12.438  0.1595 -0.0453 -0.3685
  650TMC3    C3 9620   0.209   0.397  12.383 -0.1481  0.6649 -0.0695
  650TMC3    C4 9621   0.222   0.120  12.380 -0.6762 -0.7196  0.2430
  650TMC3    C5 9622   0.111   0.189  12.331  0.2609 -0.4686  0.9714
  650TMC3    C6 9623   0.107   0.327  12.326  0.0092 -0.0366 -0.3627
  650TMC3     C 9624   0.437   0.146  12.507 -0.0462  1.1284  0.1344
  650TMC3     O 9625   0.521   0.223  12.542 -0.4687 -0.2676 -0.1411
  650TMC3     H 9626   0.401   0.408  12.458 -1.4254  1.0229  2.2088
  650TMC3    H1 9627   0.231   0.013  12.365  0.3468 -0.7320  0.9069
  650TMC3    H2 9628   0.010   0.370  12.305  0.3646 -0.5591 -3.0704
  650TMC3    C7 9629   0.009   0.102  12.263  0.0467 -0.7207  0.0147
  650TMC3    C8 9630   0.191   0.541  12.405  0.7236  0.2213  0.0314
  650TMC3    O1 9631   4.720   4.706  12.299  0.3910  0.2140  0.5401
  650TMC3    O2 9632   0.137   0.613  12.321 -0.4362  0.2275 -0.6537
  651MPD2     C 9633   3.809   1.800  10.563  0.1713 -0.0954  0.7219
  651MPD2    C1 9634   3.807   1.905  10.653 -0.1771 -0.4758  0.7004
  651MPD2    C2 9635   3.927   1.975  10.671  0.4582  0.5685 -0.7885
  651MPD2    C3 9636   4.045   1.929  10.612 -0.4733  0.5170  0.2308
  651MPD2    C4 9637   4.051   1.822  10.528 -0.6468 -0.9092  0.3964
  651MPD2    C5 9638   3.924   1.758  10.502  0.1028  0.1193  0.5780
  651MPD2     H 9639   3.925   2.067  10.730 -2.9414 -0.0608  0.0886
  651MPD2    H1 9640   4.139   1.788  10.474  0.3635 -0.0266  1.4908
  651MPD2    H2 9641   3.719   1.755  10.522  0.3253 -0.3655  0.6783
  651MPD2    H3 9642   3.919   1.684  10.423 -1.4351 -0.3370  1.1080
  651MPD2     N 9643   4.164   2.007  10.638 -0.4929 -0.3321 -0.3343
  651MPD2    H5 9644   4.149   2.079  10.708  0.2265  1.0611 -1.6284
  651MPD2    N1 9645   3.691   1.958  10.709 -0.1908 -0.4100 -0.5021
  651MPD2    H7 9646   3.713   2.038  10.769  0.1063  1.8764 -3.6759
  652TMC3    C1 9647   4.582   2.185  10.563 -0.2831  0.2933  0.2422
  652TMC3    C2 9648   4.508   2.074  10.571  0.7279  0.4560 -0.0012
  652TMC3    C3 9649   4.378   2.100  10.615  0.1673  0.6525  0.8191
  652TMC3    C4 9650   4.541   2.306  10.614  0.5654  0.4073  0.3024
  652TMC3    C5 9651   4.415   2.328  10.652  0.1922  0.2999 -0.8518
  652TMC3    C6 9652   4.334   2.223  10.656 -0.4647 -0.0719 -0.3235
  652TMC3     C 9653   0.000   2.159  10.577 -0.3078 -0.0609 -0.1634
  652TMC3     O 9654   0.033   2.058  10.644  0.2441 -0.2482 -0.3113
  652TMC3     H 9655   4.550   1.975  10.557 -1.0793 -0.3365  0.1466
  652TMC3    H1 9656   4.623   2.374  10.630  0.9524 -0.5620  2.3924
  652TMC3    H2 9657   4.233   2.242  10.691  0.1724  3.4068 -0.3921
  652TMC3    C7 9658   4.400   2.417  10.759  0.3090  0.4767  0.0315
  652TMC3    C8 9659   4.291   1.993  10.585  0.6664 -0.7968 -0.1385
  652TMC3    O1 9660   4.356   2.371  10.864  0.8846 -0.3446 -0.4598
  652TMC3    O2 9661   4.336   1.908  10.514 -0.5735  0.0277 -0.2641
  653MPD2     C 9662   2.534   2.306   0.324  0.6265  0.1147  0.0813
  653MPD2    C1 9663   2.469   2.403   0.260  0.0815 -0.0036 -0.0826
  653MPD2    C2 9664   2.390   2.368   0.156  0.6667 -0.2857 -0.0966
  653MPD2    C3 9665   2.371   2.241   0.117  0.5409  0.1836 -0.2749
  653MPD2    C4 9666   2.433   2.139   0.190  0.1552 -0.1394  0.7394
  653MPD2    C5 9667   2.517   2.172   0.291 -0.7117 -0.4842 -0.2909
  653MPD2     H 9668   2.350   2.452   0.100  1.5012 -0.8714 -1.5828
  653MPD2    H1 9669   2.425   2.031   0.179 -0.7725 -0.0041  0.0407
  653MPD2    H2 9670   2.594   2.340   0.408 -0.2227  0.2202  0.6517
  653MPD2    H3 9671   2.573   2.096   0.345  0.5676 -1.5717 -3.1379
  653MPD2     N 9672   2.296   2.222  17.690 -0.4671  0.0966  0.0154
  653MPD2    H5 9673   2.252   2.305  17.650  0.8526  0.7065 -0.1820
  653MPD2    N1 9674   2.485   2.540   0.297 -0.3972 -0.1537 -0.0637
  653MPD2    H7 9675   2.446   2.601   0.226 -0.0041  2.6526  2.1460
  654TMC3    C1 9676   2.200   2.111  17.500 -0.3446  0.4375  0.1314
  654TMC3    C2 9677   2.124   2.222  17.476 -0.2015 -0.6606  0.1791
  654TMC3    C3 9678   2.037   2.223  17.370 -1.4993  0.6340 -0.1014
  654TMC3    C4 9679   2.182   2.001  17.411  0.2385  0.4293 -1.0959
  654TMC3    C5 9680   2.101   2.006  17.305  0.6160  0.1036  0.0958
  654TMC3    C6 9681   2.023   2.118  17.283  0.0868 -0.0454 -0.2611
  654TMC3     C 9682   2.285   2.100  17.621  0.2922 -0.1060  0.4493
  654TMC3     O 9683   2.352   1.998  17.631 -0.7795 -0.3628  0.7821
  654TMC3     H 9684   2.128   2.305  17.546  0.6950  0.8883 -1.6931
  654TMC3    H1 9685   2.251   1.921  17.436  0.9038  1.2748 -0.1769
  654TMC3    H2 9686   1.943   2.120  17.210  0.7855 -0.9687 -1.0432
  654TMC3    C7 9687   2.093   1.897  17.209  0.8589  0.4348  0.3282
  654TMC3    C8 9688   2.001   2.350  17.311 -0.2047 -0.2210  0.1868
  654TMC3    O1 9689   2.026   1.923  17.111 -0.0083  0.2757  0.1027
  654TMC3    O2 9690   1.998   2.446  17.388  0.3602 -0.0969  0.9098
  655MPD2     C 9691   3.733   2.343  15.914 -0.0577 -0.1787  0.3179
  655MPD2    C1 9692   3.623   2.410  15.854  0.5084  0.3284 -0.3533
  655MPD2    C2 9693   3.598   2.409  15.719  0.0051 -0.4716 -0.4652
  655MPD2    C3 9694   3.684   2.336  15.637 -0.2931 -0.1227  0.1524
  655MPD2    C4 9695   3.799   2.291  15.690  0.3210  0.4024  0.1795
  655MPD2    C5 9696   3.823   2.293  15.826  0.5293 -0.2118 -1.0080
  655MPD2     H 9697   3.513   2.458  15.674 -1.9948 -2.0223  1.6660
  655MPD2    H1 9698   3.866   2.242  15.620 -1.5983  0.1567 -1.5095
  655MPD2    H2 9699   3.750   2.346  16.021  2.4932  0.4916 -0.0983
  655MPD2    H3 9700   3.917   2.255  15.865  1.9832  1.4428 -2.9211
  655MPD2     N 9701   3.665   2.308  15.500 -0.7695  0.1275  0.3918
  655MPD2    H5 9702   3.738   2.269  15.442 -0.9904  1.1471 -0.5855
  655MPD2    N1 9703   3.524   2.479  15.933 -0.4524 -0.3683 -0.2291
  655MPD2    H7 9704   3.453   2.539  15.892  0.3403  0.2112 -0.7684
  656TMC3    C1 9705   3.427   2.560  16.137 -0.3369 -0.2473  0.7646
  656TMC3    C2 9706   3.400   2.551  16.272  0.4962  0.0572  0.2709
  656TMC3    C3 9707   3.324   2.649  16.336  0.1927  0.7101 -0.1132
  656TMC3    C4 9708   3.387   2.677  16.077 -0.0008 -0.7384  0.3042
  656TMC3    C5 9709   3.312   2.779  16.133  0.0954  0.1740  0.6327
  656TMC3    C6 9710   3.272   2.759  16.262  0.5826  1.0687 -0.0681
  656TMC3     C 9711   3.504   2.454  16.068 -0.3916  0.1854 -0.3152
  656TMC3     O 9712   3.536   2.352  16.129 -0.0057  0.0859 -0.2935
  656TMC3     H 9713   3.422   2.459  16.325  0.1081  0.9768  2.0332
  656TMC3    H1 9714   3.429   2.703  15.980  0.4902 -1.3243  0.3572
  656TMC3    H2 9715   3.188   2.823  16.287  0.3620  0.8627 -0.2795
  656TMC3    C7 9716   3.243   2.869  16.043  0.0743 -0.1623 -0.3279
  656TMC3    C8 9717   3.289   2.628  16.470  0.3296 -0.0919  0.2422
  656TMC3    O1 9718   3.141   2.916  16.088  0.1322  0.6334 -0.5046
  656TMC3    O2 9719   3.325   2.527  16.529 -0.0372 -0.1369  0.0212
  657TMC3    C1 9720   2.814   1.646  15.409 -0.0087 -0.3619 -0.1554
  657TMC3    C2 9721   2.889   1.637  15.526  0.6556  0.0597 -0.3460
  657TMC3    C3 9722   2.846   1.710  15.633 -0.1525 -0.2840  0.0512
  657TMC3    C4 9723   2.706   1.727  15.393 -0.2524 -0.2020  1.0303
  657TMC3    C5 9724   2.664   1.794  15.507 -0.4865  0.1189 -0.1756
  657TMC3    C6 9725   2.738   1.795  15.623  0.4022 -0.0958  0.1980
  657TMC3     C 9726   2.837   1.548  15.294 -0.4396  0.2526 -0.1568
  657TMC3     O 9727   2.750   1.525  15.213 -0.4280 -0.3216  0.6431
  657TMC3     H 9728   2.964   1.559  15.539 -0.9087 -1.7488 -2.2262
  657TMC3    H1 9729   2.640   1.715  15.307  1.9924  0.9727 -0.8521
  657TMC3    H2 9730   2.716   1.858  15.709  0.4507 -0.7210  0.6687
  657TMC3    C7 9731   2.546   1.879  15.498  0.0807  0.2944  0.6730
  657TMC3    C8 9732   2.929   1.724  15.752  0.1133 -0.4742  0.5329
  657TMC3    O1 9733   2.484   1.892  15.598 -0.0610 -0.2230  0.4928
  657TMC3    O2 9734   2.869   1.754  15.852 -0.1904  0.0263  1.2934
  658MPD2     C 9735   4.060   2.475  15.035 -0.6391  0.3331  0.1065
  658MPD2    C1 9736   3.938   2.433  14.978 -0.5188  0.0229 -0.3696
  658MPD2    C2 9737   3.915   2.483  14.847 -0.6155  0.8468 -0.7280
  658MPD2    C3 9738   4.003   2.578  14.789  0.9741 -0.0520 -0.2518
  658MPD2    C4 9739   4.119   2.616  14.850  0.7772 -0.1970  0.5739
  658MPD2    C5 9740   4.147   2.562  14.973 -0.0972 -0.1139 -0.2357
  658MPD2     H 9741   3.825   2.470  14.788 -0.1310 -2.4541 -0.7953
  658MPD2    H1 9742   4.192   2.684  14.806  1.3598 -1.6274 -0.6406
  658MPD2    H2 9743   4.091   2.448  15.135 -0.6165 -1.9008 -0.4933
  658MPD2    H3 9744   4.237   2.596  15.023 -0.9073  0.0358  1.1187
  658MPD2     N 9745   3.973   2.621  14.655  0.2170  1.0336  0.5220
  658MPD2    H5 9746   3.888   2.581  14.617 -0.3173  0.7243  2.0423
  658MPD2    N1 9747   3.854   2.340  15.049 -0.3994  0.0839  0.6204
  658MPD2    H7 9748   3.875   2.306  15.142 -0.7772 -1.0307  0.2971
  659TMC3    C1 9749   3.644   2.231  15.095  0.1399  0.6044  0.7216
  659TMC3    C2 9750   3.650   2.280  15.220 -0.0561 -0.2363  0.4429
  659TMC3    C3 9751   3.541   2.267  15.305 -0.0315 -0.1826 -0.3956
  659TMC3    C4 9752   3.542   2.159  15.041 -0.6976 -0.1120 -0.1802
  659TMC3    C5 9753   3.441   2.139  15.134  0.2170 -0.7524  0.0374
  659TMC3    C6 9754   3.433   2.202  15.255 -0.1644  0.1648 -0.1742
  659TMC3     C 9755   3.734   2.291  14.990 -0.9975 -0.2819 -0.2506
  659TMC3     O 9756   3.702   2.295  14.874 -0.4579 -0.2151  0.4447
  659TMC3     H 9757   3.731   2.340  15.260  0.4131 -0.3176 -0.4012
  659TMC3    H1 9758   3.551   2.113  14.944 -1.3015  2.1461 -1.2895
  659TMC3    H2 9759   3.347   2.178  15.316 -0.5085  1.5881 -0.0886
  659TMC3    C7 9760   3.314   2.088  15.086 -0.0191 -0.2769  0.1868
  659TMC3    C8 9761   3.533   2.313  15.443  0.1747 -0.2029 -0.5173
  659TMC3    O1 9762   3.218   2.135  15.143  0.4735 -0.2707  0.0017
  659TMC3    O2 9763   3.423   2.321  15.500 -0.2103  0.8703  0.9937
  660MPD2     C 9764   2.288   0.904  12.755  0.0247 -0.1010  0.2595
  660MPD2    C1 9765   2.152   0.922  12.728  0.0500 -0.1337  0.1937
  660MPD2    C2 9766   2.065   0.883  12.824 -0.5615 -0.5267 -0.2620
  660MPD2    C3 9767   2.105   0.841  12.952  0.0670  0.3117 -0.3474
  660MPD2    C4 9768   2.240   0.841  12.977 -0.2774 -0.1020  0.1142
  660MPD2    C5 9769   2.332   0.871  12.883 -0.7404 -0.1843 -0.0678
  660MPD2     H 9770   1.961   0.886  12.792 -0.0930  2.0317 -1.4856
  660MPD2    H1 9771   2.276   0.812  13.075 -1.3901 -2.9081 -0.2958
  660MPD2    H2 9772   2.362   0.927  12.679  0.2750  0.3622  0.6420
  660MPD2    H3 9773   2.434   0.887  12.915 -0.5015 -0.2613 -0.8001
  660MPD2     N 9774   2.007   0.824  13.059  0.3672 -0.2778 -0.0686
  660MPD2    H5 9775   2.049   0.781  13.141  2.0480  3.1442  0.8567
  660MPD2    N1 9776   2.119   0.986  12.609  0.0575 -0.7024  0.1272
  660MPD2    H7 9777   2.198   1.005  12.549  0.0344 -1.1452 -0.0381
  661TMC3    C1 9778   1.979   1.076  12.439 -0.4504  0.5391  0.3077
  661TMC3    C2 9779   2.040   0.993  12.349 -0.3987  0.3210 -0.2824
  661TMC3    C3 9780   2.017   1.021  12.219 -0.6556 -0.2384  0.4451
  661TMC3    C4 9781   1.882   1.166  12.412  0.8843 -0.1429 -0.2772
  661TMC3    C5 9782   1.865   1.199  12.280  0.7329  0.1587  0.3579
  661TMC3    C6 9783   1.929   1.124  12.178  0.8668 -0.0773  0.1190
  661TMC3     C 9784   1.991   1.032  12.579 -0.6008  0.1319 -0.2078
  661TMC3     O 9785   1.897   1.063  12.648  0.4943 -0.8935 -0.4038
  661TMC3     H 9786   2.101   0.908  12.375 -0.4749  0.0596 -0.9427
  661TMC3    H1 9787   1.821   1.209  12.490  0.0051 -0.0884 -0.9958
  661TMC3    H2 9788   1.910   1.140  12.072 -1.3158  1.5724  0.7508
  661TMC3    C7 9789   1.747   1.280  12.241  0.9070 -0.2555  0.4910
  661TMC3    C8 9790   2.083   0.929  12.121  0.1311 -0.6263 -0.2940
  661TMC3    O1 9791   1.706   1.359  12.322  0.7196 -0.0376 -0.4301
  661TMC3    O2 9792   2.183   0.869  12.161  0.3155 -0.6143 -0.0770
  662MPD2     C 9793   2.087   0.491  16.910 -0.3376 -0.2866 -0.6208
  662MPD2    C1 9794   2.162   0.525  17.020 -0.1582 -0.4907  0.0830
  662MPD2    C2 9795   2.165   0.663  17.057 -0.0082 -0.6030 -0.3115
  662MPD2    C3 9796   2.113   0.764  16.981 -0.5676  0.5168  0.0552
  662MPD2    C4 9797   2.043   0.720  16.871 -0.3884 -0.4507 -0.1308
  662MPD2    C5 9798   2.021   0.592  16.845  0.0016 -0.3362 -0.2496
  662MPD2     H 9799   2.209   0.680  17.154  0.3745  1.1431 -0.7916
  662MPD2    H1 9800   2.002   0.793  16.802  0.6270  0.0158 -0.2426
  662MPD2    H2 9801   2.067   0.387  16.884  1.3773 -0.5345 -0.9500
  662MPD2    H3 9802   1.955   0.565  16.764  0.6917 -1.2306 -0.5088
  662MPD2     N 9803   2.115   0.906  17.008  0.5007  0.2907 -0.5288
  662MPD2    H5 9804   2.056   0.965  16.952 -0.2142  0.2721  0.2076
  662MPD2    N1 9805   2.242   0.439  17.095 -0.5658 -0.0842  0.0260
  662MPD2    H7 9806   2.301   0.482  17.164 -0.4285 -1.0117  0.4838
  663TMC3    C1 9807   2.352   0.238  17.166  0.2488  0.4799 -0.1473
  663TMC3    C2 9808   2.331   0.248  17.299  0.4133  0.1494 -0.4306
  663TMC3    C3 9809   2.363   0.136  17.377 -0.6904 -0.8633 -0.5340
  663TMC3    C4 9810   2.400   0.125  17.098 -0.5724 -0.8138 -0.6323
  663TMC3    C5 9811   2.433   0.025  17.179  0.3404  0.0749  0.7652
  663TMC3    C6 9812   2.425   0.031  17.318  0.6087 -0.3319 -0.2025
  663TMC3     C 9813   2.265   0.304  17.073  0.8888  0.4019 -0.6148
  663TMC3     O 9814   2.223   0.234  16.985 -0.1763 -0.0246  0.0411
  663TMC3     H 9815   2.268   0.329  17.334  3.2482  2.2833 -0.3009
  663TMC3    H1 9816   2.418   0.132  16.992  0.4825 -1.2272 -0.4832
  663TMC3    H2 9817   2.446   4.666  17.377 -2.7911  0.2057  1.7770
  663TMC3    C7 9818   2.464   4.612  17.127 -0.1301  0.3673  0.2882
  663TMC3    C8 9819   2.442   0.167  17.494  0.1853 -0.2054 -0.0536
  663TMC3    O1 9820   2.479   4.518  17.206  0.6367  0.0475  0.2000
  663TMC3    O2 9821   2.550   0.112  17.501  0.4679 -0.3727 -0.6898
  664MPD2     C 9822   0.264   4.182   0.269  0.1533  0.4562  0.9967
  664MPD2    C1 9823   0.367   4.269   0.242 -0.6806 -0.4154  0.5522
  664MPD2    C2 9824   0.446   4.303   0.349 -0.2992 -0.4468  0.5993
  664MPD2    C3 9825   0.417   4.260   0.480 -0.4753 -0.1586 -0.1891
  664MPD2    C4 9826   0.319   4.168   0.498  0.5566  0.7822 -0.0800
  664MPD2    C5 9827   0.247   4.125   0.391  0.4538  0.5421 -0.1084
  664MPD2     H 9828   0.535   4.358   0.319  0.8173 -3.3963 -1.4847
  664MPD2    H1 9829   0.307   4.123   0.596 -1.1662  3.7137  1.0633
  664MPD2    H2 9830   0.198   4.153   0.188  1.5796  1.5909 -0.5844
  664MPD2    H3 9831   0.170   4.049   0.399 -0.1444  1.3208  1.5636
  664MPD2     N 9832   0.512   4.309   0.580 -0.9280 -0.0070  0.2985
  664MPD2    H5 9833   0.581   4.368   0.535  0.1987 -1.7166 -0.2112
  664MPD2    N1 9834   0.403   4.309   0.116  0.1544 -0.6967 -0.0644
  664MPD2    H7 9835   0.502   4.333   0.110 -0.4176  1.1116 -2.3209
  665TMC3    C1 9836   0.578   4.395   0.784  0.3527  0.5487 -0.5934
  665TMC3    C2 9837   0.619   4.365   0.914 -0.4087  0.5390 -0.3970
  665TMC3    C3 9838   0.657   4.476   0.981  0.0830  0.3507  0.4804
  665TMC3    C4 9839   0.572   4.523   0.735 -0.4094  0.3513 -0.8550
  665TMC3    C5 9840   0.606   4.626   0.810  0.1108  0.1517 -0.5007
  665TMC3    C6 9841   0.651   4.607   0.938 -0.1663 -0.3024  0.1426
  665TMC3     C 9842   0.517   4.283   0.711  0.0341 -0.1687 -0.0906
  665TMC3     O 9843   0.469   4.194   0.773  0.0780  0.1664  0.1050
  665TMC3     H 9844   0.651   4.265   0.941  0.9697  0.6858 -1.5120
  665TMC3    H1 9845   0.533   4.547   0.637 -0.9932  1.5795 -0.3158
  665TMC3    H2 9846   0.682   4.693   0.996 -1.2744 -0.7431  1.3751
  665TMC3    C7 9847   0.528   0.026   0.774  0.2002 -0.0018  0.5811
  665TMC3    C8 9848   0.694   4.463   1.117  0.3172 -0.0757 -1.1405
  665TMC3    O1 9849   0.503   0.049   0.658 -0.3030 -0.1514 -0.4634
  665TMC3    O2 9850   0.770   4.544   1.164 -0.3225 -0.7112 -0.1638
  666TMC3    C1 9851   4.243   3.193  10.103 -0.5434 -0.2274  0.3485
  666TMC3    C2 9852   4.374   3.156  10.085  0.7740 -0.2918 -0.5371
  666TMC3    C3 9853   4.465   3.248  10.044 -0.3481  0.3390 -0.5765
  666TMC3    C4 9854   4.205   3.324  10.079 -0.0704  0.6267 -0.2168
  666TMC3    C5 9855   4.297   3.411  10.031 -0.3283  0.8030  0.3538
  666TMC3    C6 9856   4.431   3.380  10.023  0.3141  0.4005 -0.6268
  666TMC3     C 9857   4.154   3.118  10.188 -0.5013  0.3921 -0.0258
  666TMC3     O 9858   4.063   3.182  10.232  0.2904 -0.2352  0.3793
  666TMC3     H 9859   4.405   3.055  10.111 -3.2715 -1.9840 -2.2645
  666TMC3    H1 9860   4.103   3.357  10.073 -0.1262  0.4343 -0.3383
  666TMC3    H2 9861   4.504   3.459  10.021  1.5173 -0.7312 -2.0201
  666TMC3    C7 9862   4.249   3.553  10.026  0.3340 -0.0472  0.2966
  666TMC3    C8 9863   4.609   3.217  10.078  0.4708 -0.3926 -0.0250
  666TMC3    O1 9864   4.145   3.586  10.080  0.7574 -0.5587  0.3126
  666TMC3    O2 9865   4.627   3.110  10.132 -0.0508 -0.1854  0.2912
  667MPD2     C 9866   1.861   3.936  14.909  0.3937 -0.3551  1.1415
  667MPD2    C1 9867   1.732   3.993  14.915  0.6909 -0.2367  0.3937
  667MPD2    C2 9868   1.631   3.922  14.851 -0.5066  0.2495  0.5823
  667MPD2    C3 9869   1.656   3.805  14.782 -0.3465 -0.8743 -0.4097
  667MPD2    C4 9870   1.782   3.752  14.775  0.1994 -0.8724 -0.2969
  667MPD2    C5 9871   1.882   3.820  14.837 -0.3973 -0.8535  0.1915
  667MPD2     H 9872   1.531   3.963  14.864 -1.1387 -0.8992 -0.6308
  667MPD2    H1 9873   1.806   3.661  14.721  3.0358 -0.6020  0.5476
  667MPD2    H2 9874   1.949   3.969  14.964  0.1574 -1.9263  2.4642
  667MPD2    H3 9875   1.977   3.768  14.847 -0.5576 -1.2310 -0.2670
  667MPD2     N 9876   1.550   3.729  14.730  0.5185  0.0392  0.2086
  667MPD2    H5 9877   1.578   3.644  14.683 -0.5046 -0.5315  0.6284
  667MPD2    N1 9878   1.699   4.104  14.992  0.4040 -0.0121 -0.2564
  667MPD2    H7 9879   1.600   4.122  15.007  0.8673  0.6701  2.0046
  668TMC3    C1 9880   1.719   4.279  15.140  0.2585  0.2374 -0.6374
  668TMC3    C2 9881   1.787   4.396  15.183  0.1301 -0.5414  0.3480
  668TMC3    C3 9882   1.730   4.456  15.297 -0.5114 -0.0538  0.7744
  668TMC3    C4 9883   1.602   4.233  15.197 -0.0512  0.2393  0.8456
  668TMC3    C5 9884   1.557   4.305  15.305 -0.0324 -0.5166  0.1505
  668TMC3    C6 9885   1.617   4.413  15.362 -0.3197  0.2912  0.1549
  668TMC3     C 9886   1.787   4.189  15.054  0.5653 -0.0685  0.1306
  668TMC3     O 9887   1.909   4.186  15.057 -0.0297 -0.1491  0.0354
  668TMC3     H 9888   1.886   4.420  15.144 -0.4836 -1.0056 -1.4948
  668TMC3    H1 9889   1.562   4.134  15.179 -1.0460  0.8482 -0.2106
  668TMC3    H2 9890   1.581   4.468  15.449 -0.6789  3.5694 -2.0410
  668TMC3    C7 9891   1.423   4.280  15.366  0.4504 -0.6010 -0.3852
  668TMC3    C8 9892   1.798   4.566  15.351  0.0781  0.2268 -0.6931
  668TMC3    O1 9893   1.378   4.353  15.456 -0.0807  0.2043  0.0734
  668TMC3    O2 9894   1.790   4.578  15.476  0.2731  0.1646  0.0355
  669TMC3    C1 9895   4.182   3.669  14.359 -0.5140  0.2175  0.6135
  669TMC3    C2 9896   4.070   3.686  14.282 -0.2192  0.2053  1.0371
  669TMC3    C3 9897   4.085   3.773  14.177 -0.6520  0.5687 -0.3475
  669TMC3    C4 9898   4.304   3.726  14.342 -0.0309  0.1796  0.0032
  669TMC3    C5 9899   4.320   3.802  14.233  0.8427  0.3163  0.3217
  669TMC3    C6 9900   4.216   3.819  14.147 -0.1468 -0.5588 -0.2465
  669TMC3     C 9901   4.158   3.595  14.487  0.2222  1.1559 -0.2485
  669TMC3     O 9902   4.041   3.575  14.513 -0.3295 -0.2998 -0.4033
  669TMC3     H 9903   3.976   3.641  14.308  0.6253 -0.4132  3.0738
  669TMC3    H1 9904   4.380   3.721  14.419 -0.5617 -0.9874  0.4508
  669TMC3    H2 9905   4.229   3.883  14.060  1.9936  1.1527  1.3362
  669TMC3    C7 9906   4.429   3.898  14.238 -0.2038 -0.4245  0.0165
  669TMC3    C8 9907   3.980   3.774  14.078 -0.0156  0.6337 -0.6729
  669TMC3    O1 9908   4.483   3.920  14.348  0.0111  0.9087 -0.0811
  669TMC3    O2 9909   3.904   3.675  14.081  0.4102  0.0498  0.1874
  670MPD2     C 9910   2.190   1.659  13.583 -0.1526 -0.8173  0.0075
  670MPD2    C1 9911   2.323   1.649  13.615  0.4467 -0.4154 -0.7431
  670MPD2    C2 9912   2.355   1.627  13.750 -0.6026 -0.3429 -0.7624
  670MPD2    C3 9913   2.259   1.616  13.848 -0.2947  0.3596 -0.2542
  670MPD2    C4 9914   2.127   1.624  13.809 -0.2002 -0.2571 -0.1579
  670MPD2    C5 9915   2.094   1.653  13.680 -0.3331  0.2222 -0.6010
  670MPD2     H 9916   2.462   1.618  13.764 -0.2199  2.5333 -1.9001
  670MPD2    H1 9917   2.044   1.612  13.878  0.1493  0.7344  0.4344
  670MPD2    H2 9918   2.172   1.676  13.478  1.3557 -0.6947 -0.2402
  670MPD2    H3 9919   1.991   1.654  13.646 -0.5239 -2.2941 -0.0998
  670MPD2     N 9920   2.305   1.571  13.970 -0.4484  0.0475  0.3500
  670MPD2    H5 9921   2.406   1.569  13.983 -0.5262 -2.4238  0.5523
  670MPD2    N1 9922   2.430   1.645  13.511  0.2461  0.0703  0.3817
  670MPD2    H7 9923   2.523   1.641  13.550  1.8464 -2.1710 -3.6874
  671TMC3    C1 9924   2.326   1.427  14.154 -0.1986 -0.6370 -0.2121
  671TMC3    C2 9925   2.450   1.403  14.111  0.2931 -0.2406  0.0069
  671TMC3    C3 9926   2.528   1.315  14.185  0.6448 -0.1252 -0.4156
  671TMC3    C4 9927   2.277   1.367  14.266 -0.2523 -1.3426  0.8032
  671TMC3    C5 9928   2.341   1.262  14.323  0.2574  0.2604 -0.2826
  671TMC3    C6 9929   2.475   1.236  14.285 -0.1208 -0.7870 -0.7281
  671TMC3     C 9930   2.233   1.511  14.070 -0.0548  0.2974 -0.6721
  671TMC3     O 9931   2.115   1.482  14.066  0.2945  0.5819  0.4930
  671TMC3     H 9932   2.485   1.413  14.009  1.0982  2.2770  0.5284
  671TMC3    H1 9933   2.179   1.391  14.307  0.4539 -0.2830  1.8977
  671TMC3    H2 9934   2.541   1.162  14.330  0.0299  0.7357  1.5597
  671TMC3    C7 9935   2.260   1.145  14.303 -0.2927 -0.4211 -0.3214
  671TMC3    C8 9936   2.650   1.263  14.126  0.1250  0.7245  0.0169
  671TMC3    O1 9937   2.148   1.166  14.252  0.1036 -0.4249 -0.0370
  671TMC3    O2 9938   2.681   1.151  14.160 -0.1124  0.1380  0.1707
  672MPD2     C 9939   2.338   2.221   1.739  0.5546  0.8363  0.3377
  672MPD2    C1 9940   2.451   2.172   1.672 -0.1488  0.0290 -0.2092
  672MPD2    C2 9941   2.578   2.211   1.706  0.5343  0.5425 -0.5412
  672MPD2    C3 9942   2.599   2.303   1.806 -0.6885  0.4221 -0.4471
  672MPD2    C4 9943   2.486   2.344   1.877 -0.0740  0.7962 -0.2966
  672MPD2    C5 9944   2.358   2.318   1.838 -0.0978  0.1038  0.3605
  672MPD2     H 9945   2.654   2.189   1.631 -1.3148 -1.1396 -1.9170
  672MPD2    H1 9946   2.499   2.426   1.947 -1.4057 -0.9341  1.9845
  672MPD2    H2 9947   2.235   2.198   1.713  0.0365  0.5314  2.5930
  672MPD2    H3 9948   2.282   2.363   1.900 -0.2527  0.2048  0.1011
  672MPD2     N 9949   2.715   2.380   1.816  0.1702 -0.1896  0.2857
  672MPD2    H5 9950   2.731   2.454   1.883 -0.3032 -0.8082  1.0748
  672MPD2    N1 9951   2.439   2.091   1.556 -0.0202  0.2766  0.2367
  672MPD2    H7 9952   2.527   2.055   1.521  0.7161 -1.0624  3.4726
  673TMC3    C1 9953   2.349   1.977   1.368 -0.3539 -0.2791 -0.4674
  673TMC3    C2 9954   2.442   1.874   1.365 -0.3951 -0.4536  0.3438
  673TMC3    C3 9955   2.449   1.803   1.248  0.2608  0.3850  0.4855
  673TMC3    C4 9956   2.269   2.004   1.262 -0.6358 -0.5111  0.7443
  673TMC3    C5 9957   2.271   1.922   1.151  0.1953 -0.3186  0.6278
  673TMC3    C6 9958   2.367   1.822   1.144 -0.1870  0.1005  0.0379
  673TMC3     C 9959   2.327   2.061   1.481 -0.0930  0.1062  0.3519
  673TMC3     O 9960   2.225   2.131   1.481  0.0437  0.0341  0.0998
  673TMC3     H 9961   2.499   1.853   1.454 -1.2500  1.5395  1.3495
  673TMC3    H1 9962   2.220   2.101   1.271 -0.5801 -0.4624  0.5272
  673TMC3    H2 9963   2.365   1.751   1.061 -0.6719  0.4661 -0.2593
  673TMC3    C7 9964   2.216   1.965   1.021 -0.2138 -0.0900 -0.4255
  673TMC3    C8 9965   2.519   1.680   1.261  0.1099  0.5417  0.0852
  673TMC3    O1 9966   2.216   1.902   0.917  0.4147 -0.3847 -0.8050
  673TMC3    O2 9967   2.477   1.592   1.192  0.2552  0.4692 -0.3998
  674MPD2     C 9968   2.088   2.477   0.318  0.6794  0.2977 -0.6804
  674MPD2    C1 9969   2.152   2.425   0.430 -0.2263  0.1226  0.1013
  674MPD2    C2 9970   2.150   2.292   0.449  1.0484  0.2879  0.0422
  674MPD2    C3 9971   2.111   2.209   0.345  0.0944  0.2447 -0.7067
  674MPD2    C4 9972   2.039   2.258   0.237 -0.2634 -0.0883  0.4741
  674MPD2    C5 9973   2.022   2.393   0.229 -0.4003  0.2273  0.7156
  674MPD2     H 9974   2.181   2.240   0.539  1.0173  0.6269  0.2464
  674MPD2    H1 9975   2.001   2.189   0.162 -1.7474 -2.7994  3.7021
  674MPD2    H2 9976   2.088   2.583   0.294  2.3483  0.3086 -0.6342
  674MPD2    H3 9977   1.968   2.426   0.141  0.6824 -1.6107 -0.6522
  674MPD2     N 9978   2.138   2.067   0.372 -0.3532 -0.1211 -0.1494
  674MPD2    H5 9979   2.185   2.047   0.460  0.4701 -4.3529 -1.5542
  674MPD2    N1 9980   2.208   2.525   0.514  0.2026  0.8971  0.2976
  674MPD2    H7 9981   2.205   2.615   0.467  0.1773  0.6702 -0.1371
  675TMC3    C1 9982   2.309   2.389   0.700 -0.0237 -0.2073  0.3054
  675TMC3    C2 9983   2.382   2.297   0.635  0.4322  0.5191  0.2688
  675TMC3    C3 9984   2.447   2.201   0.710  0.4893 -0.0916 -0.3321
  675TMC3    C4 9985   2.313   2.400   0.836  0.3637  0.0440  0.3202
  675TMC3    C5 9986   2.386   2.311   0.908 -0.3688  0.3550 -0.0537
  675TMC3    C6 9987   2.455   2.210   0.846  0.5391  0.0042  0.1364
  675TMC3     C 9988   2.264   2.516   0.638 -0.1051 -0.1997 -0.0682
  675TMC3     O 9989   2.276   2.616   0.713  0.0912  0.3809 -0.3505
  675TMC3     H 9990   2.377   2.296   0.527  1.8688  1.5307  0.1896
  675TMC3    H1 9991   2.260   2.483   0.882 -0.6126  0.4589 -1.5485
  675TMC3    H2 9992   2.512   2.143   0.909  0.2857  1.8707  2.3720
  675TMC3    C7 9993   2.408   2.335   1.049 -0.5776  0.7704 -0.2425
  675TMC3    C8 9994   2.432   2.067   0.656  0.2066 -0.0820  0.2076
  675TMC3    O1 9995   2.444   2.238   1.114 -0.3154 -0.1798 -0.1035
  675TMC3    O2 9996   2.370   2.059   0.554 -0.3081  0.1197  0.3567
  676MPD2     C 9997   0.024   4.624  11.058  0.4047 -0.0512  0.1985
  676MPD2    C1 9998   0.002   4.547  11.165 -0.3926 -0.0116 -0.4480
  676MPD2    C2 9999   0.032   4.412  11.163 -0.0478 -0.4642 -0.0360
  676MPD2    C310000   0.049   4.348  11.039  0.5633  0.2358  0.3342
  676MPD2    C410001   0.060   4.431  10.928 -0.1015 -0.2342  0.4627
  676MPD2    C510002   0.048   4.567  10.933  0.1805 -0.3256 -0.3320
  676MPD2     H10003   0.016   4.357  11.254  1.7050 -0.1456  0.4600
  676MPD2    H110004   0.081   4.387  10.831 -1.3314  0.0942  0.0548
  676MPD2    H210005   0.016   0.010  11.052 -1.4194 -0.0550  2.4192
  676MPD2    H310006   0.074   4.628  10.847 -0.6863  0.3209 -0.1296
  676MPD2     N10007   0.085   4.217  11.025 -0.6996  0.4433  0.0948
  676MPD2    H510008   0.118   4.200  10.930  0.6380 -1.4528  0.8953
  676MPD2    N110009   4.683   4.604  11.288 -0.8035 -0.1811  0.0880
  676MPD2    H710010   4.685   4.532  11.359 -0.8399  0.9940  1.2772
  677TMC3    C110011   4.629   0.024  11.465 -0.1548  0.4606 -0.7017
  677TMC3    C210012   4.634   4.634  11.541  0.2636  0.2822 -0.0008
  677TMC3    C310013   4.644   4.647  11.677 -0.7940 -0.3211  0.0129
  677TMC3    C410014   4.629   0.144  11.525  0.4208 -0.0347 -0.3227
  677TMC3    C510015   4.645   0.155  11.661 -0.0873 -0.0598  0.4693
  677TMC3    C610016   4.649   0.045  11.739  0.8295  0.3906  0.2892
  677TMC3     C10017   4.657   0.016  11.320 -0.4009  0.6359 -0.3561
  677TMC3     O10018   4.666   0.117  11.257  0.0076 -0.0166 -0.2732
  677TMC3     H10019   4.629   4.532  11.504  0.1694  0.4496 -0.4584
  677TMC3    H110020   4.616   0.233  11.464 -2.0255 -1.0486 -1.3069
  677TMC3    H210021   4.629   0.055  11.845 -2.5443  0.2432 -0.3360
  677TMC3    C710022   4.706   0.274  11.704  0.5158  0.3823  0.1912
  677TMC3    C810023   4.591   4.533  11.738  0.4428 -0.8602 -0.0646
  677TMC3    O110024   4.719   0.371  11.630  0.3021 -0.2900 -0.4367
  677TMC3    O210025   4.478   4.493  11.702 -0.0765  0.0363  0.6490
  678MPD2     C10026   1.695   0.779   1.818 -0.7480 -0.3887 -0.5941
  678MPD2    C110027   1.729   0.726   1.698 -0.0200  0.7340 -0.0551
  678MPD2    C210028   1.625   0.703   1.612  0.6394  0.2796  0.1903
  678MPD2    C310029   1.493   0.724   1.639  0.1367  0.1847  0.4962
  678MPD2    C410030   1.460   0.764   1.769  0.4028  0.0453 -0.4454
  678MPD2    C510031   1.565   0.792   1.851 -0.8268  0.8764 -0.9267
  678MPD2     H10032   1.653   0.671   1.512  1.6438  1.5537  0.0715
  678MPD2    H110033   1.358   0.773   1.805  1.1846 -1.9724  2.2813
  678MPD2    H210034   1.768   0.811   1.893 -1.7115  0.5905 -0.0738
  678MPD2    H310035   1.537   0.829   1.949  2.4237  0.4947  0.1348
  678MPD2     N10036   1.395   0.706   1.537 -0.0170  0.1340 -0.2367
  678MPD2    H510037   1.430   0.675   1.447 -0.8805  0.3530 -0.6402
  678MPD2    N110038   1.863   0.700   1.651  0.4592  0.1986  0.2099
  678MPD2    H710039   1.855   0.659   1.559  0.1015  0.2802  0.2060
  679TMC3    C110040   2.294   0.556   1.677  0.1013 -0.4835 -0.7800
  679TMC3    C210041   2.190   0.617   1.734  0.5565  0.5245 -0.2945
  679TMC3    C310042   2.089   0.666   1.656  0.2909  0.3848  0.1174
  679TMC3    C410043   2.301   0.552   1.544 -0.0471  0.2257  0.4600
  679TMC3    C510044   2.206   0.611   1.472 -0.6307  0.0768  0.3102
  679TMC3    C610045   2.097   0.676   1.521  0.9609  0.3835  0.6489
  679TMC3     C10046   2.344   0.433   1.726  0.3267 -0.3357 -0.1719
  679TMC3     O10047   2.336   0.333   1.654 -0.3455 -0.2019  0.0105
  679TMC3     H10048   2.182   0.614   1.842 -2.1741 -3.9219 -0.6444
  679TMC3    H110049   2.383   0.493   1.504 -1.9823 -0.6934 -2.1305
  679TMC3    H210050   2.028   0.737   1.463  1.1013 -0.2066 -0.1330
  679TMC3    C710051   2.222   0.615   1.329 -0.0421  0.4677 -0.4926
  679TMC3    C810052   1.974   0.724   1.720 -0.0253  0.1921 -0.0295
  679TMC3    O110053   2.127   0.654   1.270 -0.0673  0.1352  0.3927
  679TMC3    O210054   1.987   0.758   1.838  0.5852  0.1880  0.1337
  680MPD2     C10055   1.448   3.134  13.735  0.4572 -0.5702 -0.3727
  680MPD2    C110056   1.586   3.092  13.738  1.0653 -0.4119 -0.3269
  680MPD2    C210057   1.680   3.183  13.779  0.3976 -0.3994  0.1364
  680MPD2    C310058   1.648   3.310  13.828  0.3176 -0.6437  0.2079
  680MPD2    C410059   1.515   3.352  13.828 -0.2136  0.0315 -0.1044
  680MPD2    C510060   1.422   3.264  13.780 -0.7983  0.3869  0.0278
  680MPD2     H10061   1.786   3.157  13.782  0.4887 -0.0899 -0.2812
  680MPD2    H110062   1.480   3.450  13.860 -0.0285  0.0067  0.1771
  680MPD2    H210063   1.375   3.064  13.696 -1.6734  1.6778 -0.4007
  680MPD2    H310064   1.320   3.297  13.764 -0.1184  1.7214 -1.5451
  680MPD2     N10065   1.749   3.401  13.884 -0.3163 -0.2147 -0.4719
  680MPD2    H510066   1.721   3.495  13.908 -2.9450 -1.0718 -0.1229
  680MPD2    N110067   1.636   2.970  13.683 -0.5718  0.5681 -0.3401
  680MPD2    H710068   1.734   2.947  13.668 -1.4093 -2.0204 -1.9469
  681TMC3    C110069   1.641   2.734  13.638  0.1665  0.1893  0.2878
  681TMC3    C210070   1.618   2.645  13.743  0.2690 -0.3081  0.0295
  681TMC3    C310071   1.725   2.584  13.805 -0.1259 -0.7437  0.5607
  681TMC3    C410072   1.765   2.751  13.581 -1.4786  0.4457 -0.3203
  681TMC3    C510073   1.865   2.700  13.653 -0.4035 -0.3597 -0.3943
  681TMC3    C610074   1.843   2.621  13.763 -0.5171 -0.2020  0.4926
  681TMC3     C10075   1.559   2.856  13.652 -0.5304 -0.0022 -0.0304
  681TMC3     O10076   1.437   2.839  13.658 -0.2657 -0.5238  0.3560
  681TMC3     H10077   1.521   2.646  13.791  0.4657 -0.0166  0.4157
  681TMC3    H110078   1.782   2.782  13.479  1.0028  1.1474  0.3201
  681TMC3    H210079   1.934   2.591  13.815  0.2926 -1.6534 -1.7831
  681TMC3    C710080   1.991   2.698  13.596 -0.2234 -0.5453  0.3590
  681TMC3    C810081   1.715   2.584  13.949 -0.1408  0.6527  0.3494
  681TMC3    O110082   2.062   2.605  13.637  0.4090  0.2025  0.3423
  681TMC3    O210083   1.604   2.569  13.998 -0.1267  0.3009 -0.3700
  682MPD2     C10084   4.010   0.064  10.561  0.1180 -0.6228 -0.1588
  682MPD2    C110085   3.931   4.672  10.578  0.0088  0.1213  0.2388
  682MPD2    C210086   3.852   4.682  10.695  0.4008  0.5576  0.0263
  682MPD2    C310087   3.856   0.068  10.788 -0.4895  0.6248  0.5048
  682MPD2    C410088   3.947   0.165  10.767  0.1203  0.0607 -0.4075
  682MPD2    C510089   4.021   0.162  10.657 -0.1967  0.3530 -0.4704
  682MPD2     H10090   3.784   4.600  10.717 -0.0569  0.8204 -0.3978
  682MPD2    H110091   3.954   0.251  10.832 -1.2466  0.9577 -1.4404
  682MPD2    H210092   4.076   0.072  10.475 -1.5588 -3.6173 -1.7322
  682MPD2    H310093   4.095   0.235  10.628  0.5993 -0.6408 -0.9672
  682MPD2     N10094   3.792   0.058  10.914  0.3296  0.4816  0.0145
  682MPD2    H510095   3.801   0.134  10.981  2.9669 -1.1792  1.5494
  682MPD2    N110096   3.919   4.554  10.501  0.5712 -0.4330  0.6853
  682MPD2    H710097   3.861   4.479  10.537 -0.8035  0.2281 -0.1749
  683TMC3    C110098   3.685   4.702  11.309 -0.1719 -0.3293 -0.5419
  683TMC3    C210099   3.568   4.629  11.329  0.7507  0.0306 -0.0337
  683TMC3    C310100   3.496   4.600  11.221 -0.0121  0.1161  0.4577
  683TMC3    C410101   3.719   0.022  11.181  0.1577 -0.0453  0.5461
  683TMC3    C510102   3.638   4.699  11.076  0.5628  0.0657 -0.2200
  683TMC3    C610103   3.530   4.625  11.094  0.2516 -0.2067  0.2378
  683TMC3     C10104   3.749   0.040  11.431 -0.1312 -0.5083  0.3970
  683TMC3     O10105   3.810   0.144  11.426 -0.0762  0.3473 -0.7477
  683TMC3     H10106   3.532   4.600  11.427 -1.2318  1.4305 -0.3503
  683TMC3    H110107   3.809   0.081  11.165  1.5751 -2.9376 -2.1360
  683TMC3    H210108   3.456   4.598  11.020 -0.1364  1.0801  0.1601
  683TMC3    C710109   3.677   4.704  10.939 -0.9098 -0.3582 -0.6281
  683TMC3    C810110   3.380   4.505  11.241  0.6636  0.0926  0.0508
  683TMC3    O110111   3.604   4.647  10.861 -0.2904 -0.3971 -0.2591
  683TMC3    O210112   3.289   4.520  11.163  0.5108  0.6805 -0.3443
  684MPD2     C10113   1.906   0.330  16.189  0.1327  0.4140 -0.3695
  684MPD2    C110114   2.045   0.313  16.208  0.3687  0.1612  0.2762
  684MPD2    C210115   2.119   0.420  16.249  0.2146  0.1812 -0.5497
  684MPD2    C310116   2.066   0.541  16.278 -0.2427  0.2610 -0.1264
  684MPD2    C410117   1.933   0.562  16.257  0.5070  0.1232 -0.2204
  684MPD2    C510118   1.856   0.452  16.220 -0.6036 -0.0639  0.2072
  684MPD2     H10119   2.226   0.408  16.264  0.1860 -1.2324 -1.4207
  684MPD2    H110120   1.885   0.654  16.289 -0.2738 -0.9120  1.5721
  684MPD2    H210121   1.834   0.255  16.159 -0.2529  0.4945  0.3361
  684MPD2    H310122   1.750   0.476  16.209 -0.9325 -1.1600  1.0089
  684MPD2     N10123   2.147   0.652  16.322  0.4081 -0.4257  0.2631
  684MPD2    H510124   2.094   0.738  16.330  2.1226  0.6446  0.0148
  684MPD2    N110125   2.109   0.187  16.186  0.5327  0.1531 -0.1944
  684MPD2    H710126   2.207   0.185  16.212  1.0857  2.9293 -2.1279
  685TMC3    C110127   2.149   4.690  16.147 -0.4015 -0.1666 -0.3184
  685TMC3    C210128   2.126   4.603  16.050 -0.2096 -0.0384 -0.4396
  685TMC3    C310129   2.195   4.488  16.054  0.5027 -0.0269 -0.4083
  685TMC3    C410130   2.253   4.679  16.235  0.3941  0.3998  0.6285
  685TMC3    C510131   2.325   4.567  16.231 -0.2689 -0.4206  0.3496
  685TMC3    C610132   2.293   4.465  16.151 -0.2482  0.6804  0.3012
  685TMC3     C10133   2.051   0.075  16.141  0.6371  0.2883 -0.5901
  685TMC3     O10134   1.941   0.060  16.099 -0.5770  0.0845  0.4299
  685TMC3     H10135   2.056   4.608  15.968 -0.2067  1.0273 -0.3773
  685TMC3    H110136   2.273   0.036  16.306 -0.9175  0.9160  0.4240
  685TMC3    H210137   2.341   4.368  16.164 -0.9452  0.1668 -0.9658
  685TMC3    C710138   2.436   4.549  16.323 -0.0788  0.2641  0.4847
  685TMC3    C810139   2.181   4.383  15.952  0.6269  0.4360  0.1788
  685TMC3    O110140   2.479   4.439  16.339  0.1077 -0.5114  0.5443
  685TMC3    O210141   2.280   4.322  15.913 -0.1832 -0.1013 -0.1883
  686MPD2     C10142   3.030   3.929  15.908  0.1617 -1.1784  0.0346
  686MPD2    C110143   3.154   3.930  15.965 -0.3297 -0.1938  0.0021
  686MPD2    C210144   3.267   3.907  15.891  0.3263 -0.0906  0.1640
  686MPD2    C310145   3.265   3.862  15.759  0.4878  0.3603  0.4243
  686MPD2    C410146   3.138   3.860  15.705 -0.3786  0.8630 -0.3089
  686MPD2    C510147   3.023   3.902  15.778  0.1500 -0.3726  0.1248
  686MPD2     H10148   3.366   3.909  15.935  0.5417  0.9746 -0.3715
  686MPD2    H110149   3.120   3.835  15.601 -0.1784  1.5028 -0.4958
  686MPD2    H210150   2.943   3.952  15.968  1.5506  2.1515  0.7823
  686MPD2    H310151   2.925   3.909  15.732  0.9107 -0.4195 -1.4855
  686MPD2     N10152   3.372   3.814  15.685 -0.8176  0.1517  0.1261
  686MPD2    H510153   3.350   3.748  15.612  0.4366 -0.4925  0.3203
  686MPD2    N110154   3.159   3.947  16.105  0.0310  0.4010  0.1247
  686MPD2    H710155   3.074   3.978  16.151  0.1861 -0.9401  1.3349
  687TMC3    C110156   3.580   3.723  15.665 -0.1722 -0.5489 -0.0180
  687TMC3    C210157   3.507   3.648  15.576 -0.0738 -0.7407  0.6227
  687TMC3    C310158   3.494   3.516  15.624  0.2210 -0.9716 -0.6780
  687TMC3    C410159   3.657   3.681  15.763  0.3118  0.9738 -0.3191
  687TMC3    C510160   3.648   3.548  15.792 -0.0695 -0.4953  0.3194
  687TMC3    C610161   3.558   3.464  15.732  0.0982 -0.3493  0.1646
  687TMC3     C10162   3.508   3.835  15.709 -0.0841  0.1824 -0.2396
  687TMC3     O10163   3.552   3.913  15.791 -0.0062 -0.5713  0.4776
  687TMC3     H10164   3.472   3.688  15.481 -0.8967 -0.6761  0.9490
  687TMC3    H110165   3.734   3.747  15.800 -0.0657  0.6183  1.0817
  687TMC3    H210166   3.552   3.363  15.771 -0.7126 -0.8284 -1.2117
  687TMC3    C710167   3.731   3.503  15.897  0.0842  0.3893 -0.2402
  687TMC3    C810168   3.372   3.448  15.593  0.0982  0.3374 -0.2505
  687TMC3    O110169   3.695   3.402  15.956  0.3344 -0.7862  0.3376
  687TMC3    O210170   3.319   3.396  15.693  0.0020  0.4885  0.3866
  688MPD2     C10171   2.655   3.157  17.632  0.2183 -0.0391 -0.2895
  688MPD2    C110172   2.723   3.054   0.008  0.1733  0.4722  0.0227
  688MPD2    C210173   2.845   3.010  17.648  0.8006  0.8404 -0.1638
  688MPD2    C310174   2.894   3.063  17.528  0.1826 -0.6302 -0.6426
  688MPD2    C410175   2.824   3.174  17.471 -0.4835  0.0695  0.2160
  688MPD2    C510176   2.706   3.220  17.522 -0.3097  0.4749 -0.3578
  688MPD2     H10177   2.895   2.932   0.012  0.4584 -0.0336 -1.0819
  688MPD2    H110178   2.855   3.222  17.379  0.4819 -0.0821  0.4622
  688MPD2    H210179   2.557   3.181  17.671 -0.1452 -0.5931 -0.8562
  688MPD2    H310180   2.652   3.306  17.484  0.7992 -0.1843 -3.4257
  688MPD2     N10181   3.009   3.009  17.466 -0.1059  0.3240  0.2543
  688MPD2    H510182   3.032   3.063  17.384  0.4595  0.6135  0.6014
  688MPD2    N110183   2.657   2.984   0.115 -0.2115 -0.1631  0.2054
  688MPD2    H710184   2.707   2.902   0.151  1.0263  1.7514  2.8321
  689TMC3    C110185   2.526   2.949   0.307  0.3621  0.0489 -0.0931
  689TMC3    C210186   2.501   3.017   0.425 -0.1380  0.8481 -0.1127
  689TMC3    C310187   2.495   2.940   0.537  0.8745 -0.3999 -0.1732
  689TMC3    C410188   2.550   2.817   0.293 -0.4958 -0.0932 -0.2601
  689TMC3    C510189   2.528   2.741   0.407  0.0690  0.4438  0.7966
  689TMC3    C610190   2.495   2.801   0.526 -0.1950 -0.6945  0.7806
  689TMC3     C10191   2.552   3.034   0.185 -0.0947  0.2437  0.7010
  689TMC3     O10192   2.483   3.134   0.180  0.1296  0.3721  0.1088
  689TMC3     H10193   2.477   3.123   0.418  0.2037  0.7713 -2.1893
  689TMC3    H110194   2.578   2.765   0.202 -2.0859 -0.7571 -0.3581
  689TMC3    H210195   2.466   2.734   0.607  0.5432 -0.3181  1.3480
  689TMC3    C710196   2.553   2.596   0.404  0.7595  0.4789 -0.9030
  689TMC3    C810197   2.482   3.001   0.669  0.3597 -0.6760  0.2387
  689TMC3    O110198   2.597   2.544   0.507  0.2617 -0.2004  0.2229
  689TMC3    O210199   2.490   2.925   0.760  0.2937  0.0352 -0.4531
  690MPD2     C10200   0.403   0.054  15.862 -0.4012  1.2443 -0.3380
  690MPD2    C110201   0.329   0.046  15.751  0.0891 -0.0193 -0.3246
  690MPD2    C210202   0.360   0.133  15.651 -0.0195 -0.6117  0.0402
  690MPD2    C310203   0.471   0.221  15.660 -0.1207 -0.2703 -0.6483
  690MPD2    C410204   0.535   0.240  15.779  0.7385 -0.0583 -0.1649
  690MPD2    C510205   0.496   0.154  15.880 -0.3043  0.5962  0.4289
  690MPD2     H10206   0.314   0.109  15.555  0.8211 -1.2696 -0.1986
  690MPD2    H110207   0.606   0.318  15.804  3.2600 -1.6732 -2.1948
  690MPD2    H210208   0.401   4.708  15.946 -0.5972  0.3813 -1.0457
  690MPD2    H310209   0.539   0.170  15.978 -0.0379  0.6207  0.3072
  690MPD2     N10210   0.507   0.311  15.563  0.3069  0.2181 -0.7871
  690MPD2    H510211   0.561   0.392  15.590 -1.4608  0.8593  0.8013
  690MPD2    N110212   0.221   4.671  15.735 -0.6400 -0.0695  0.2105
  690MPD2    H710213   0.159   4.689  15.657 -0.3589  0.0693  0.0181
  691TMC3    C110214   0.090   4.476  15.789  0.7776 -0.5048 -0.1576
  691TMC3    C210215   4.698   4.521  15.858  0.3044 -0.0685  0.0141
  691TMC3    C310216   4.615   4.428  15.900  0.6890  0.1095  0.6727
  691TMC3    C410217   0.118   4.340  15.774 -0.0333  0.8496  0.3515
  691TMC3    C510218   0.036   4.246  15.827 -0.2694  0.1966 -0.2731
  691TMC3    C610219   4.640   4.291  15.887 -0.4088 -0.2388 -0.0136
  691TMC3     C10220   0.206   4.561  15.819  0.5149 -0.6671  0.3264
  691TMC3     O10221   0.272   4.524  15.913 -0.1121 -0.3701  0.6006
  691TMC3     H10222   4.685   4.622  15.898 -1.7958 -0.9285  1.5357
  691TMC3    H110223   0.210   4.300  15.734 -0.5648  0.0878 -0.1027
  691TMC3    H210224   4.566   4.220  15.922 -2.0796  1.6872  0.3443
  691TMC3    C710225   0.073   4.103  15.804 -0.3468 -0.5651  0.1258
  691TMC3    C810226   4.492   4.457  15.971  0.6074 -0.3607  0.2988
  691TMC3    O110227   0.188   4.077  15.790 -0.6058 -0.2829  0.2645
  691TMC3    O210228   4.434   4.359  16.020  0.3739 -0.7616 -0.9438
  692TMC3    C110229   1.917   1.691  15.945  0.2536 -0.8910  0.0301
  692TMC3    C210230   2.032   1.739  16.006 -0.5663  0.5174 -0.4743
  692TMC3    C310231   2.153   1.689  15.963 -0.2331  0.4332  0.2378
  692TMC3    C410232   1.909   1.599  15.844 -0.2303 -0.7255  0.3926
  692TMC3    C510233   2.030   1.550  15.805  0.7414 -0.3842 -0.2752
  692TMC3    C610234   2.153   1.599  15.856 -0.2316  0.2553  0.5761
  692TMC3     C10235   1.795   1.751  15.987 -0.2918  0.2135  0.8308
  692TMC3     O10236   1.688   1.702  15.956  0.0411 -0.1276 -0.0476
  692TMC3     H10237   2.026   1.785  16.104 -0.9948  0.4268 -0.4578
  692TMC3    H110238   1.818   1.548  15.815  0.3473 -1.4908 -0.0704
  692TMC3    H210239   2.242   1.544  15.825 -1.4483 -1.7813  0.6983
  692TMC3    C710240   2.027   1.403  15.790  0.3200 -0.0217  0.2650
  692TMC3    C810241   2.244   1.636  16.064 -0.7034  0.2755  0.2933
  692TMC3    O110242   1.927   1.361  15.737  0.1048 -0.5694  0.0102
  692TMC3    O210243   2.279   1.524  16.046  0.2382  0.0504  0.5152
  693MPD2     C10244   1.367   3.945  11.169  0.4135 -1.0144 -0.2233
  693MPD2    C110245   1.343   3.826  11.104 -0.1732 -0.0591 -0.2870
  693MPD2    C210246   1.461   3.752  11.080 -0.4104  0.0758 -0.3217
  693MPD2    C310247   1.578   3.778  11.144 -0.0937 -0.4174 -0.3953
  693MPD2    C410248   1.588   3.898  11.214 -0.2658 -0.7276  0.1012
  693MPD2    C510249   1.487   3.980  11.223  0.6516  0.0400  1.0740
  693MPD2     H10250   1.468   3.659  11.026 -0.2330  0.2737 -0.6451
  693MPD2    H110251   1.678   3.931  11.264  0.7334 -0.5923 -1.8153
  693MPD2    H210252   1.290   4.018  11.191 -2.0940 -3.0296 -2.4728
  693MPD2    H310253   1.492   4.071  11.282 -0.2310  1.1307 -0.5315
  693MPD2     N10254   1.695   3.706  11.138 -0.1889 -0.1445 -0.0900
  693MPD2    H510255   1.770   3.742  11.197 -1.3495  2.6302 -0.3188
  693MPD2    N110256   1.220   3.798  11.044  0.2275  0.4412 -0.1448
  693MPD2    H710257   1.141   3.857  11.069 -0.0990  1.4744 -3.6124
  694TMC3    C110258   1.056   3.671  10.920 -0.4684 -0.7112 -1.0006
  694TMC3    C210259   1.046   3.581  10.819 -0.6321 -0.4885 -0.0359
  694TMC3    C310260   0.933   3.502  10.825  0.1014 -0.3672 -0.0485
  694TMC3    C410261   0.968   3.693  11.018  0.3980  0.2505  0.0665
  694TMC3    C510262   0.858   3.611  11.017  0.5930  0.0862 -0.3394
  694TMC3    C610263   0.836   3.520  10.918 -0.5148  0.2151 -0.1185
  694TMC3     C10264   1.194   3.695  10.960 -0.5447 -0.4891  0.1972
  694TMC3     O10265   1.278   3.616  10.918  0.0118 -0.4640 -0.1680
  694TMC3     H10266   1.121   3.577  10.740 -0.1409  0.2868  0.3922
  694TMC3    H110267   0.976   3.769  11.094 -0.1439  0.5661 -0.1955
  694TMC3    H210268   0.738   3.479  10.894 -1.1096  1.6973 -0.2517
  694TMC3    C710269   0.795   3.588  11.145 -0.0378  0.6827 -0.0217
  694TMC3    C810270   0.891   3.432  10.710 -0.5785 -0.3413  0.4559
  694TMC3    O110271   0.826   3.663  11.237 -0.2417  0.7307 -0.2871
  694TMC3    O210272   0.804   3.351  10.715 -0.5540 -0.4265  0.7445
  695MPD2     C10273   2.691   0.626  13.357  0.8737  0.2395 -0.2589
  695MPD2    C110274   2.704   0.726  13.453  0.7361  0.7379 -0.2464
  695MPD2    C210275   2.593   0.800  13.490 -0.2426  0.2876  0.3081
  695MPD2    C310276   2.476   0.792  13.421  1.1928  0.4003  0.1733
  695MPD2    C410277   2.463   0.700  13.311 -0.5573  1.0074  0.5002
  695MPD2    C510278   2.573   0.616  13.287 -0.4642  0.4003 -0.0981
  695MPD2     H10279   2.595   0.864  13.577 -1.7748 -0.2169  0.7098
  695MPD2    H110280   2.384   0.713  13.237  0.2952 -0.1270 -0.6183
  695MPD2    H210281   2.774   0.560  13.333 -0.9081 -1.2964 -2.1346
  695MPD2    H310282   2.575   0.544  13.206 -2.3080  0.3762 -0.1257
  695MPD2     N10283   2.361   0.849  13.478  0.4906 -0.2609  0.1594
  695MPD2    H510284   2.384   0.910  13.555 -0.3049 -2.3079  1.9959
  695MPD2    N110285   2.828   0.739  13.524  0.1782 -0.8116  0.3322
  695MPD2    H710286   2.837   0.800  13.604  3.7944  1.1390 -1.5915
  696TMC3    C110287   2.151   0.917  13.517 -0.6783 -0.4609  0.4304
  696TMC3    C210288   2.146   0.888  13.648 -0.7518 -0.5401 -0.8572
  696TMC3    C310289   2.045   0.935  13.724 -0.0804 -0.0108 -0.2269
  696TMC3    C410290   2.062   1.001  13.465  0.4026 -0.3158 -0.3806
  696TMC3    C510291   1.969   1.063  13.546 -0.3464 -0.0088  0.2778
  696TMC3    C610292   1.952   1.025  13.682 -0.7485  0.5319 -0.3220
  696TMC3     C10293   2.229   0.837  13.433 -0.4733  0.5066  0.5982
  696TMC3     O10294   2.173   0.767  13.348 -0.1533  0.3344  0.1609
  696TMC3     H10295   2.211   0.809  13.685 -0.1032  0.0070 -0.8443
  696TMC3    H110296   2.060   1.018  13.358 -0.0404  0.1851 -0.2938
  696TMC3    H210297   1.870   1.054  13.747 -0.4986 -0.5868  0.5132
  696TMC3    C710298   1.898   1.176  13.501 -0.0545 -0.1128  0.1603
  696TMC3    C810299   2.061   0.927  13.873  0.2618 -0.2198 -0.0240
  696TMC3    O110300   1.849   1.164  13.390 -0.1187 -0.4468 -0.0840
  696TMC3    O210301   2.023   1.024  13.938 -0.2722 -0.1208  0.3078
  697MPD2     C10302   1.450   2.888  15.822 -0.1989  0.0303  0.3251
  697MPD2    C110303   1.492   2.822  15.708  0.2920  0.1686  0.2071
  697MPD2    C210304   1.578   2.887  15.622  0.0229 -0.1042  0.1436
  697MPD2    C310305   1.617   3.017  15.650  0.1187  0.0322 -0.3527
  697MPD2    C410306   1.566   3.082  15.759 -0.1608 -0.1101 -0.3266
  697MPD2    C510307   1.488   3.019  15.844  0.1500  0.1263  0.0348
  697MPD2     H10308   1.619   2.837  15.535 -1.5640  0.2948 -0.8340
  697MPD2    H110309   1.580   3.188  15.775  1.1264 -0.1998 -0.8224
  697MPD2    H210310   1.392   2.847  15.904 -1.7880  2.7511  0.5642
  697MPD2    H310311   1.454   3.057  15.940 -0.4164 -0.9455  0.2612
  697MPD2     N10312   1.698   3.082  15.559 -0.3442 -0.3856 -0.0970
  697MPD2    H510313   1.744   3.026  15.489  0.3608  1.1011 -0.8326
  697MPD2    N110314   1.462   2.687  15.683  0.0401  0.1481 -0.5730
  697MPD2    H710315   1.508   2.650  15.601  1.1054 -0.6447  0.3756
  698TMC3    C110316   1.820   3.232  15.440 -0.0460  0.1668  0.1730
  698TMC3    C210317   1.942   3.296  15.459  0.7704  0.2561  0.0484
  698TMC3    C310318   2.028   3.296  15.357 -0.3464 -0.3416  0.2966
  698TMC3    C410319   1.793   3.165  15.324 -0.4556 -0.3636 -0.5835
  698TMC3    C510320   1.890   3.161  15.227  0.1875 -0.2456 -0.5020
  698TMC3    C610321   2.001   3.239  15.237 -0.5368 -1.1460 -0.0520
  698TMC3     C10322   1.742   3.210  15.560 -0.8224  0.6977 -0.8890
  698TMC3     O10323   1.740   3.302  15.641  0.6753  0.2103 -0.5582
  698TMC3     H10324   1.963   3.341  15.555  1.9428  1.3355 -0.7090
  698TMC3    H110325   1.694   3.123  15.310 -1.1746  0.2542  2.7115
  698TMC3    H210326   2.081   3.246  15.165 -1.9177 -2.0025 -1.6534
  698TMC3    C710327   1.864   3.083  15.109  0.3549  0.5685 -0.0820
  698TMC3    C810328   2.160   3.382  15.377 -0.5932  0.3871 -0.2468
  698TMC3    O110329   1.759   3.022  15.105  0.5106 -0.4211  0.0446
  698TMC3    O210330   2.163   3.447  15.480  0.1430 -0.3234 -0.1239
  699TMC3    C110331   1.808   0.815  13.177  0.5141 -0.0017 -0.1495
  699TMC3    C210332   1.871   0.735  13.267 -0.3308  0.2465 -0.2008
  699TMC3    C310333   1.825   0.734  13.396  0.4308  0.2835 -0.2347
  699TMC3    C410334   1.713   0.906  13.211 -0.5867 -0.0909 -0.8706
  699TMC3    C510335   1.676   0.908  13.345 -0.6299  0.2878 -0.6228
  699TMC3    C610336   1.732   0.819  13.437  0.2993 -0.3265  0.2172
  699TMC3     C10337   1.873   0.850  13.048  0.0676  0.2530 -0.7294
  699TMC3     O10338   1.799   0.889  12.959 -0.3352  0.0667 -0.1294
  699TMC3     H10339   1.945   0.664  13.235  2.3909  1.1902  4.0324
  699TMC3    H110340   1.677   0.981  13.142 -1.7865  0.1158 -0.0218
  699TMC3    H210341   1.697   0.821  13.540  3.4110  0.2190  1.2533
  699TMC3    C710342   1.554   0.977  13.390  0.3714  0.1950  0.2610
  699TMC3    C810343   1.872   0.639  13.491  0.1369 -0.7192 -1.5968
  699TMC3    O110344   1.514   0.957  13.504  0.1571 -0.4312  0.4143
  699TMC3    O210345   1.813   0.626  13.597  0.0935  0.3858  0.5006
  700TMC3    C110346   0.416   3.455  17.179 -0.1997  0.1689  0.2421
  700TMC3    C210347   0.515   3.369  17.182  0.2488 -0.3639 -0.4898
  700TMC3    C310348   0.598   3.362  17.292  0.2972 -0.2965 -0.7423
  700TMC3    C410349   0.419   3.552  17.271 -0.0642  0.5035 -0.2527
  700TMC3    C510350   0.504   3.553  17.375 -0.0780 -0.6814 -0.7494
  700TMC3    C610351   0.603   3.460  17.386 -0.0145 -0.2217 -0.2011
  700TMC3     C10352   0.384   3.517  17.051  0.9353 -0.6159 -0.3154
  700TMC3     O10353   0.269   3.529  17.012 -0.3159  0.0417  0.6380
  700TMC3     H10354   0.517   3.300  17.098  2.0087 -1.1327  0.1867
  700TMC3    H110355   0.344   3.629  17.258 -2.8163 -1.9133  1.2286
  700TMC3    H210356   0.675   3.444  17.465 -1.6029  1.1811  1.5283
  700TMC3    C710357   0.481   3.658  17.474 -0.0554  0.2489  0.2438
  700TMC3    C810358   0.720   3.283  17.276  0.0342  0.4257  0.1831
  700TMC3    O110359   0.369   3.695  17.489 -0.6586 -0.0281 -0.1537
  700TMC3    O210360   0.818   3.333  17.327 -0.0819 -0.0367 -0.0320
  701TMC3    C110361   0.801   1.874  15.633 -0.3701 -0.2301 -0.2141
  701TMC3    C210362   0.818   1.841  15.506  0.1346 -0.5945  0.0852
  701TMC3    C310363   0.923   1.890  15.439  0.7347 -0.6573  0.3478
  701TMC3    C410364   0.888   1.946  15.705 -0.2867  0.1741 -0.4767
  701TMC3    C510365   1.003   1.990  15.640 -0.9224 -0.5633 -0.2928
  701TMC3    C610366   1.019   1.962  15.504 -0.9976 -0.3321  0.0010
  701TMC3     C10367   0.668   1.838  15.694 -0.2759  0.0056  0.2700
  701TMC3     O10368   0.667   1.816  15.814  0.2561 -0.3592 -0.3139
  701TMC3     H10369   0.738   1.791  15.452 -1.6025  1.7973  0.4688
  701TMC3    H110370   0.878   1.952  15.813 -0.6312 -0.3609 -0.4758
  701TMC3    H210371   1.119   1.965  15.460 -0.9902 -0.0380  0.0360
  701TMC3    C710372   1.038   2.128  15.658  0.2721  0.5931  0.2509
  701TMC3    C810373   0.941   1.875  15.295 -0.0925 -0.4765  0.3945
  701TMC3    O110374   1.108   2.176  15.570 -0.2618  0.1042 -0.3329
  701TMC3    O210375   0.997   1.976  15.248 -0.3589  0.3322  0.3625
  702MPD2     C10376   0.458   3.833  10.566  0.4456  0.5080 -0.1445
  702MPD2    C110377   0.395   3.940  10.619 -0.2307  0.3649 -0.3429
  702MPD2    C210378   0.415   4.062  10.554  0.5878 -0.9455  0.2780
  702MPD2    C310379   0.515   4.077  10.454 -0.5145  0.7065  0.4112
  702MPD2    C410380   0.576   3.967  10.404  0.2390 -0.4701 -0.2559
  702MPD2    C510381   0.545   3.847  10.458  0.1235  0.2243 -0.2986
  702MPD2     H10382   0.366   4.148  10.598 -2.2786 -2.7261  0.4998
  702MPD2    H110383   0.657   3.972  10.332 -0.5840 -1.1790 -1.2282
  702MPD2    H210384   0.434   3.734  10.603 -2.0188  1.0568 -0.2719
  702MPD2    H310385   0.601   3.763  10.418  0.9678 -0.0459  1.4451
  702MPD2     N10386   0.550   4.208  10.400  0.0103  0.0986 -0.3097
  702MPD2    H510387   0.630   4.210  10.338 -0.4846  0.9156 -0.9302
  702MPD2    N110388   0.301   3.927  10.727  0.0072  1.1463 -1.1836
  702MPD2    H710389   0.268   4.016  10.764 -2.3430 -0.0418 -0.4365
  703TMC3    C110390   0.531   4.454  10.373 -0.1843 -0.5255 -0.4307
  703TMC3    C210391   0.457   4.564  10.404 -0.2846  0.0431  0.5521
  703TMC3    C310392   0.520   4.685  10.396  0.4709 -0.5563 -0.1371
  703TMC3    C410393   0.667   4.455  10.352 -0.4731  0.5132 -0.2542
  703TMC3    C510394   0.719   4.578  10.335 -0.4149 -0.6023  0.0625
  703TMC3    C610395   0.655   4.690  10.371 -0.3741 -0.7532 -0.5175
  703TMC3     C10396   0.483   4.324  10.425 -0.3824  1.1899 -0.2031
  703TMC3     O10397   0.368   4.335  10.459  0.2996 -0.2643  0.1124
  703TMC3     H10398   0.355   4.556  10.440  0.2426 -1.8034  1.6557
  703TMC3    H110399   0.724   4.364  10.338 -0.7795  0.6244 -2.2601
  703TMC3    H210400   0.700   0.066  10.376 -0.1614 -0.8684 -0.1637
  703TMC3    C710401   0.850   4.597  10.279  0.2126  1.2115  0.9324
  703TMC3    C810402   0.457   0.081  10.452 -0.0800 -0.9544  0.2731
  703TMC3    O110403   0.869   4.698  10.219 -0.0255 -0.3960 -0.0937
  703TMC3    O210404   0.528   0.180  10.458 -0.5267  0.5482  0.2870
  704TMC3    C110405   2.706   2.307  12.594  0.7574  0.7857  0.3716
  704TMC3    C210406   2.832   2.310  12.552 -0.3136 -0.0048  0.0738
  704TMC3    C310407   2.923   2.220  12.608 -0.7553  0.3040 -0.0783
  704TMC3    C410408   2.652   2.212  12.676 -0.3776  0.3343 -0.5276
  704TMC3    C510409   2.737   2.114  12.722 -0.5863  0.1889  0.8425
  704TMC3    C610410   2.873   2.112  12.685  0.1390  0.4176 -0.7428
  704TMC3     C10411   2.611   2.383  12.521  0.3441 -0.5808 -0.1502
  704TMC3     O10412   2.498   2.390  12.570  0.0018  0.3060 -0.8785
  704TMC3     H10413   2.866   2.395  12.494  0.3101 -0.3799 -0.1105
  704TMC3    H110414   2.551   2.225  12.712  0.0513  1.0221  0.4116
  704TMC3    H210415   2.936   2.027  12.713 -0.6486 -0.5480 -1.9076
  704TMC3    C710416   2.672   1.982  12.709 -0.0747  0.1774 -0.1012
  704TMC3    C810417   3.050   2.212  12.535  0.8972  0.1054  0.7982
  704TMC3    O110418   2.747   1.885  12.698 -0.4622  0.6027  0.0205
  704TMC3    O210419   3.041   2.244  12.417  0.3470  0.3209 -0.1454
  705MPD2     C10420   2.427   0.985  16.710 -0.0646  0.0488  0.1606
  705MPD2    C110421   2.438   1.122  16.699  0.0371  0.1613  0.5132
  705MPD2    C210422   2.322   1.201  16.697 -0.1047  0.4624  0.3032
  705MPD2    C310423   2.201   1.136  16.671 -0.2586 -0.3221 -0.0297
  705MPD2    C410424   2.192   0.997  16.691  0.3056  0.5365 -0.1409
  705MPD2    C510425   2.309   0.924  16.702  0.8372  0.3547  0.5391
  705MPD2     H10426   2.331   1.309  16.697 -2.1562  0.6294 -0.9407
  705MPD2    H110427   2.096   0.947  16.684  0.3152  0.5441 -0.3527
  705MPD2    H210428   2.516   0.926  16.729 -0.6300 -0.4704  1.1716
  705MPD2    H310429   2.305   0.819  16.726 -1.6096 -0.2356 -2.4682
  705MPD2     N10430   2.071   1.196  16.647  0.4685  0.3204 -0.0336
  705MPD2    H510431   1.992   1.133  16.637 -0.3259  1.4015 -0.4376
  705MPD2    N110432   2.558   1.193  16.696 -0.0838  0.4861  0.2749
  705MPD2    H710433   2.545   1.293  16.685  1.8280  0.7039  0.0295
  706TMC3    C110434   3.016   1.257  16.592  0.6584  0.5429  0.6770
  706TMC3    C210435   3.001   1.375  16.540  0.5480 -0.0008 -0.5538
  706TMC3    C310436   2.869   1.423  16.552  0.1169 -0.7219  0.4164
  706TMC3    C410437   2.918   1.189  16.658  0.2133  1.2816 -0.4737
  706TMC3    C510438   2.791   1.233  16.667  0.0191 -0.2700 -0.8555
  706TMC3    C610439   2.766   1.355  16.612  0.4380  0.1405 -0.0556
  706TMC3     C10440   3.132   1.185  16.533 -0.0460  0.1928  0.6488
  706TMC3     O10441   3.193   1.102  16.600 -0.3469  0.2677 -0.0099
  706TMC3     H10442   3.071   1.435  16.482 -1.6567  1.2633 -1.9116
  706TMC3    H110443   2.942   1.089  16.694  0.4879  1.2898 -0.6335
  706TMC3    H210444   2.668   1.402  16.619  2.0084  3.3962 -0.1477
  706TMC3    C710445   2.685   1.142  16.713  0.1477 -0.2760 -0.0512
  706TMC3    C810446   2.853   1.560  16.506 -0.1908  0.0186  0.0691
  706TMC3    O110447   2.725   1.040  16.768  0.5104 -0.1969 -0.2590
  706TMC3    O210448   2.943   1.606  16.445 -0.0381  0.4680 -0.4926
  707TMC3    C110449   4.643   0.469   2.065  0.2525 -0.2711 -0.7195
  707TMC3    C210450   0.027   0.426   2.147  0.0408  0.5052  0.2455
  707TMC3    C310451   0.068   0.512   2.237  0.3494  0.1987  0.0028
  707TMC3    C410452   4.586   0.593   2.075 -1.1754  0.5430  0.0199
  707TMC3    C510453   4.643   0.678   2.167 -0.4025  0.0934 -0.1673
  707TMC3    C610454   0.018   0.638   2.259  0.1728 -0.1642  0.1506
  707TMC3     C10455   4.613   0.391   1.950  0.3656 -1.1142  0.2017
  707TMC3     O10456   4.631   0.269   1.953 -0.1374 -0.5407 -0.0449
  707TMC3     H10457   0.074   0.329   2.132  0.8594  0.6578  1.8456
  707TMC3    H110458   4.518   0.636   2.003 -0.6700 -0.2463 -0.9165
  707TMC3    H210459   0.049   0.701   2.342  2.0551 -0.9746  0.0684
  707TMC3    C710460   4.584   0.814   2.174 -1.0985 -0.1043  0.4545
  707TMC3    C810461   0.189   0.479   2.306 -0.4753  0.1914 -0.5831
  707TMC3    O110462   4.473   0.824   2.126 -0.2071  0.1184  0.1075
  707TMC3    O210463   0.207   0.531   2.413 -0.3016  0.2310  0.5605
  708MPD2     C10464   0.925   4.093  13.798  0.3195 -1.2356  0.1073
  708MPD2    C110465   0.839   4.082  13.898 -0.0662  0.1586 -0.2360
  708MPD2    C210466   0.886   4.079  14.025 -0.3544  0.2590 -0.3672
  708MPD2    C310467   1.018   4.092  14.051  0.2695 -0.5270 -0.1773
  708MPD2    C410468   1.117   4.097  13.949 -1.3275  0.1810 -0.4240
  708MPD2    C510469   1.067   4.082  13.821  0.0152 -0.0600 -0.4768
  708MPD2     H10470   0.818   4.075  14.109  0.3871 -1.3984  0.1489
  708MPD2    H110471   1.224   4.080  13.962 -1.3188 -1.0499 -2.0661
  708MPD2    H210472   0.891   4.094  13.695  0.8566  0.8312 -0.0535
  708MPD2    H310473   1.137   4.079  13.738  1.6858 -0.7389  0.9384
  708MPD2     N10474   1.055   4.096  14.187  0.3451 -0.2225 -0.0402
  708MPD2    H510475   0.978   4.102  14.254  0.7744 -1.5415  0.5693
  708MPD2    N110476   0.699   4.083  13.867  0.1203 -0.0716  0.3867
  708MPD2    H710477   0.676   4.096  13.769  1.7052  1.4070  0.2037
  709TMC3    C110478   0.468   4.102  13.910 -0.2151  0.2087  0.5570
  709TMC3    C210479   0.437   4.009  13.823  0.6188  0.2538 -0.4359
  709TMC3    C310480   0.340   3.918  13.857 -0.3568 -0.4647 -0.1838
  709TMC3    C410481   0.384   4.117  14.016  0.5108 -0.1496  0.4346
  709TMC3    C510482   0.292   4.029  14.061  0.2118  0.0729  0.0322
  709TMC3    C610483   0.268   3.922  13.977  0.0525  0.5482  0.8600
  709TMC3     C10484   0.601   4.111  13.960  1.3640 -0.1145  0.0240
  709TMC3     O10485   0.596   4.118  14.086  0.3510  0.0316 -0.2493
  709TMC3     H10486   0.493   3.995  13.731 -0.1351 -2.7745 -0.4555
  709TMC3    H110487   0.402   4.205  14.078 -0.8098 -0.3058  1.0491
  709TMC3    H210488   0.201   3.838  13.991  0.0385  0.1721 -1.5786
  709TMC3    C710489   0.276   4.012  14.203  0.6802 -0.6371 -0.6392
  709TMC3    C810490   0.276   3.836  13.752  0.7022 -0.1800 -0.4228
  709TMC3    O110491   0.175   3.944  14.244 -0.0602  0.2336  1.1784
  709TMC3    O210492   0.172   3.777  13.777 -0.2995  0.0427  0.1521
  710TMC3    C110493   1.962   0.685   0.510 -0.0695 -0.3223  0.0504
  710TMC3    C210494   2.022   0.616   0.411  0.3937  0.2977 -0.0550
  710TMC3    C310495   2.107   0.522   0.453  0.0315  0.7430 -0.0752
  710TMC3    C410496   1.983   0.665   0.643  0.5730 -0.1689  0.2966
  710TMC3    C510497   2.075   0.569   0.676 -0.6640 -0.5356 -0.2587
  710TMC3    C610498   2.135   0.494   0.582 -0.2749 -0.1823 -0.1324
  710TMC3     C10499   1.864   0.789   0.467 -0.0115  0.1177  0.0483
  710TMC3     O10500   1.815   0.773   0.357  0.3179 -0.7014  0.5931
  710TMC3     H10501   1.979   0.624   0.312 -1.0945  0.1455  0.5673
  710TMC3    H110502   1.948   0.732   0.721 -1.5866 -1.4890  0.4783
  710TMC3    H210503   2.195   0.410   0.617 -0.6899 -0.3637  0.1461
  710TMC3    C710504   2.139   0.577   0.807 -0.1556  0.2169 -0.6227
  710TMC3    C810505   2.161   0.439   0.340 -0.2774  0.1006 -0.3466
  710TMC3    O110506   2.086   0.651   0.892  0.0124 -0.5192 -0.7271
  710TMC3    O210507   2.090   0.434   0.238 -0.0306 -0.1719 -0.3668
  711TMC3    C110508   1.732   1.503  15.104 -0.3264  0.2790  0.1056
  711TMC3    C210509   1.779   1.628  15.156  1.0454  0.2444 -0.4738
  711TMC3    C310510   1.869   1.620  15.256  0.1152  0.7837  0.5213
  711TMC3    C410511   1.791   1.383  15.138  0.2354 -0.0994  0.1473
  711TMC3    C510512   1.881   1.387  15.247 -0.4479 -0.4560 -0.7325
  711TMC3    C610513   1.916   1.505  15.304  0.6090  0.5257 -0.0436
  711TMC3     C10514   1.604   1.485  15.026  0.2482  0.5042 -0.2835
  711TMC3     O10515   1.581   1.376  14.981 -0.3258 -0.3849  0.3668
  711TMC3     H10516   1.741   1.722  15.116  1.5281  1.0648  0.9725
  711TMC3    H110517   1.763   1.287  15.095 -0.2445  0.3866 -0.6142
  711TMC3    H210518   1.983   1.509  15.389  0.8698  1.6999 -0.3034
  711TMC3    C710519   1.948   1.266  15.288 -0.8968  0.3842 -0.4657
  711TMC3    C810520   1.865   1.733  15.350 -0.4963 -0.3507  0.0361
  711TMC3    O110521   2.055   1.286  15.342 -0.5192  0.1539 -0.6692
  711TMC3    O210522   1.778   1.814  15.329  0.6744 -0.3562  0.0454
  712MPD2     C10523   2.288   1.974  13.320 -0.4836  0.3770 -0.4997
  712MPD2    C110524   2.231   2.066  13.412  1.1215  0.1942 -0.3922
  712MPD2    C210525   2.314   2.157  13.473 -0.4018 -0.5333 -0.1808
  712MPD2    C310526   2.453   2.156  13.459 -0.4582 -0.2913  0.2733
  712MPD2    C410527   2.502   2.066  13.366 -0.6040  0.1482  0.0558
  712MPD2    C510528   2.422   1.981  13.305 -0.2684 -0.4856 -0.6267
  712MPD2     H10529   2.279   2.212  13.559  0.9935 -0.2498  0.2036
  712MPD2    H110530   2.609   2.064  13.353 -0.6420 -1.5037 -0.0505
  712MPD2    H210531   2.233   1.890  13.279  0.4245 -0.6883  0.4670
  712MPD2    H310532   2.468   1.905  13.242 -3.6124 -1.0114 -2.4137
  712MPD2     N10533   2.529   2.253  13.524 -0.1184 -0.2785 -0.2662
  712MPD2    H510534   2.627   2.231  13.538 -0.8399 -1.0270  3.5242
  712MPD2    N110535   2.093   2.067  13.444  0.3492  0.6439  0.6357
  712MPD2    H710536   2.053   2.132  13.511 -0.3915  0.2576  0.5686
  713TMC3    C110537   2.587   2.468  13.615  0.3018 -0.3187 -0.4954
  713TMC3    C210538   2.714   2.426  13.649 -0.7945  0.3067  0.2142
  713TMC3    C310539   2.828   2.503  13.651 -0.2092 -0.4953 -0.1521
  713TMC3    C410540   2.568   2.611  13.605 -0.5254 -0.2166 -0.1631
  713TMC3    C510541   2.683   2.684  13.608 -0.7934  0.1562 -0.5965
  713TMC3    C610542   2.809   2.637  13.633  0.3558 -0.3576  0.0665
  713TMC3     C10543   2.489   2.384  13.550  0.0169  0.9773  0.0341
  713TMC3     O10544   2.380   2.435  13.527  0.3691 -0.5693  0.6792
  713TMC3     H10545   2.735   2.320  13.662 -1.6678  0.1710  0.5147
  713TMC3    H110546   2.471   2.655  13.583 -1.5906 -1.6196  1.6941
  713TMC3    H210547   2.893   2.705  13.625  0.2105 -0.2015 -0.1325
  713TMC3    C710548   2.670   2.826  13.603  0.4654  0.5241 -0.5570
  713TMC3    C810549   2.949   2.458  13.702 -0.4062  0.2817 -0.4720
  713TMC3    O110550   2.769   2.881  13.552 -0.4917 -0.1572  0.3098
  713TMC3    O210551   2.950   2.362  13.779  0.1962  0.2127  0.8226
  714MPD2     C10552   0.115   1.392   1.553  0.3873 -0.3233 -0.2164
  714MPD2    C110553   0.216   1.414   1.462 -0.3323 -0.6045  0.4406
  714MPD2    C210554   0.224   1.530   1.393 -0.1009  0.1361 -0.2845
  714MPD2    C310555   0.160   1.642   1.429 -0.0473  0.0581 -0.4363
  714MPD2    C410556   0.051   1.620   1.517  0.0397  0.1847  0.1572
  714MPD2    C510557   0.033   1.504   1.569 -0.6461 -0.2427  0.1818
  714MPD2     H10558   0.305   1.542   1.322 -0.1817  2.2302 -0.0135
  714MPD2    H110559   4.700   1.695   1.545 -1.8345 -1.5672 -0.0502
  714MPD2    H210560   0.100   1.309   1.620 -1.5181  0.2092  0.0110
  714MPD2    H310561   4.667   1.490   1.629 -1.9556  2.1820 -1.1964
  714MPD2     N10562   0.185   1.767   1.371 -0.5472 -0.8465 -0.2709
  714MPD2    H510563   0.256   1.771   1.298  1.7257 -1.4886  1.9259
  714MPD2    N110564   0.323   1.314   1.451  0.7233 -0.5482 -0.6282
  714MPD2    H710565   0.315   1.241   1.521  1.5512  0.2103  0.2587
  715TMC3    C110566   0.534   1.228   1.412  0.0908 -0.1511  0.3772
  715TMC3    C210567   0.623   1.178   1.323  0.6588  0.5845 -0.3445
  715TMC3    C310568   0.746   1.135   1.367  0.5373  1.0347  0.4177
  715TMC3    C410569   0.574   1.240   1.550  0.1510 -0.0419  0.2112
  715TMC3    C510570   0.700   1.210   1.586 -0.0944  0.3083 -0.2765
  715TMC3    C610571   0.793   1.155   1.499 -0.3273 -0.5113 -0.6288
  715TMC3     C10572   0.431   1.317   1.366 -0.1046  0.1676  0.2140
  715TMC3     O10573   0.453   1.378   1.263 -0.5742  0.0710  0.2137
  715TMC3     H10574   0.592   1.167   1.219 -0.6689  1.5072 -0.0414
  715TMC3    H110575   0.500   1.275   1.621 -0.1949 -0.1904 -0.0763
  715TMC3    H210576   0.893   1.134   1.536  0.3996  1.1492 -1.6433
  715TMC3    C710577   0.759   1.256   1.710 -0.4386 -0.4861 -0.4867
  715TMC3    C810578   0.833   1.068   1.273 -0.8747  0.7028  0.2659
  715TMC3    O110579   0.868   1.214   1.748  0.2255  0.1466 -0.0777
  715TMC3    O210580   0.791   1.041   1.159  0.9083 -0.1231 -0.6082
  716MPD2     C10581   0.691   3.898  10.051  0.0325 -0.1003  0.2129
  716MPD2    C110582   0.722   3.934   9.923  0.8572  0.1874  0.2021
  716MPD2    C210583   0.838   3.883   9.868  0.2303  0.7004  0.0391
  716MPD2    C310584   0.932   3.813   9.943  0.3260  0.2240 -0.1527
  716MPD2    C410585   0.903   3.793  10.072 -0.1614  0.1538  0.1379
  716MPD2    C510586   0.785   3.831  10.128  0.3853 -0.1980  0.4598
  716MPD2     H10587   0.860   3.906   9.765 -0.7558  0.0758 -0.3084
  716MPD2    H110588   0.967   3.730  10.133  1.2704 -0.2723 -1.7912
  716MPD2    H210589   0.604   3.939  10.102 -0.3368  0.8115 -1.1596
  716MPD2    H310590   0.758   3.793  10.226  0.3242 -3.6905 -0.8733
  716MPD2     N10591   1.040   3.757   9.869 -0.3215 -0.3133  0.0526
  716MPD2    H510592   1.040   3.787   9.772  0.2342 -0.6110 -0.0399
  716MPD2    N110593   0.640   4.031   9.856 -0.3063 -0.0389 -0.0589
  716MPD2    H710594   0.561   4.070   9.905  0.5114  0.7367  0.6451
  717TMC3    C110595   1.177   3.583   9.811  0.1239 -0.4854 -0.5952
  717TMC3    C210596   1.100   3.575   9.697 -0.4331 -0.3765 -0.2907
  717TMC3    C310597   1.106   3.457   9.630  0.0616  0.1784  0.6922
  717TMC3    C410598   1.237   3.469   9.866 -0.0274 -0.0132  0.4760
  717TMC3    C510599   1.233   3.353   9.800  0.7037 -0.5030 -0.2502
  717TMC3    C610600   1.165   3.340   9.682  0.2629 -0.2668 -0.0784
  717TMC3     C10601   1.143   3.679   9.914 -0.8110  0.3832 -0.3271
  717TMC3     O10602   1.195   3.679  10.027  0.4406  0.3355  0.3177
  717TMC3     H10603   1.052   3.663   9.656  0.2264  0.8612  1.6344
  717TMC3    H110604   1.295   3.476   9.958  1.7789  0.6095 -0.6982
  717TMC3    H210605   1.155   3.250   9.623 -1.2258 -0.4608  0.4619
  717TMC3    C710606   1.309   3.247   9.856 -0.2516  0.4103 -0.0752
  717TMC3    C810607   1.029   3.460   9.506 -0.0730 -0.2706  0.4022
  717TMC3    O110608   1.323   3.246   9.976 -0.0536  0.4744  0.1178
  717TMC3    O210609   0.932   3.535   9.493  0.0550  0.2603 -0.5314
  718MPD2     C10610   4.291   2.251  13.068 -0.2243 -0.8666 -0.1371
  718MPD2    C110611   4.208   2.315  12.981  0.6361 -0.2642  0.4065
  718MPD2    C210612   4.072   2.279  12.992  0.8244 -0.1510 -0.0552
  718MPD2    C310613   4.019   2.211  13.101  0.2819 -0.0102 -0.4985
  718MPD2    C410614   4.098   2.183  13.206 -0.2895  0.3326  0.0170
  718MPD2    C510615   4.239   2.191  13.177  0.6439 -0.2540 -0.8371
  718MPD2     H10616   3.998   2.300  12.915  2.0190 -1.5601 -1.6042
  718MPD2    H110617   4.057   2.124  13.288 -2.7795  3.6189  1.1169
  718MPD2    H210618   4.398   2.267  13.055 -0.2922 -0.0678  0.3255
  718MPD2    H310619   4.309   2.148  13.247  3.3696  0.7670 -2.9217
  718MPD2     N10620   3.878   2.192  13.107  0.0288 -0.3032 -0.3304
  718MPD2    H510621   3.829   2.211  13.020 -0.4381  1.3889  0.3136
  718MPD2    N110622   4.262   2.403  12.887  0.1680  0.4978  0.5833
  718MPD2    H710623   4.362   2.395  12.873  0.5527  0.3093  3.5528
  719TMC3    C110624   4.250   2.551  12.700 -0.6425  0.1740  0.3969
  719TMC3    C210625   4.151   2.587  12.608  0.2741 -0.3190  1.0702
  719TMC3    C310626   4.119   2.716  12.587  0.0862  0.3337  0.3388
  719TMC3    C410627   4.333   2.641  12.753  0.3224  0.6011  0.3589
  719TMC3    C510628   4.309   2.771  12.716 -0.1831  0.7136 -0.1161
  719TMC3    C610629   4.204   2.809  12.639  0.4594  0.4309 -0.3977
  719TMC3     C10630   4.180   2.464  12.796 -0.1581  0.3139  0.2055
  719TMC3     O10631   4.059   2.465  12.780 -0.0488  0.1589 -0.2175
  719TMC3     H10632   4.100   2.500  12.568  3.1973 -0.9277 -1.3911
  719TMC3    H110633   4.410   2.616  12.826  0.3156 -1.7543 -0.4388
  719TMC3    H210634   4.166   2.910  12.642 -1.4817 -0.2773 -1.4566
  719TMC3    C710635   4.428   2.854  12.696 -0.2455 -0.0060  0.2695
  719TMC3    C810636   3.980   2.749  12.568 -0.3367  0.3109 -0.2850
  719TMC3    O110637   4.541   2.801  12.694  0.6695 -0.3724 -0.1031
  719TMC3    O210638   3.948   2.856  12.527  0.1722 -0.5114  0.6221
  720MPD2     C10639   3.027   4.099  13.699 -0.5362  0.3379 -0.2511
  720MPD2    C110640   3.075   4.220  13.665  0.2451  0.2118 -0.3123
  720MPD2    C210641   3.186   4.279  13.727  0.3265 -0.4722 -0.0627
  720MPD2    C310642   3.254   4.208  13.827  0.0146 -0.4111 -0.2564
  720MPD2    C410643   3.208   4.081  13.854 -0.4935  0.1781  1.0266
  720MPD2    C510644   3.090   4.034  13.796  0.3345 -0.4956  0.1064
  720MPD2     H10645   3.219   4.381  13.709 -3.2655  0.5366 -1.0258
  720MPD2    H110646   3.248   4.021  13.935  0.5872  0.6364  0.8345
  720MPD2    H210647   2.940   4.049  13.657  0.7141 -2.8759  0.9945
  720MPD2    H310648   3.033   3.948  13.829  0.1837 -0.9165 -1.2463
  720MPD2     N10649   3.372   4.269  13.885  0.6454  0.5541 -0.5670
  720MPD2    H510650   3.401   4.359  13.849  1.3133  0.7597  0.4595
  720MPD2    N110651   3.005   4.291  13.560 -0.2849  1.1208  0.2932
  720MPD2    H710652   2.916   4.253  13.529  0.4289 -0.4618  0.2306
  721TMC3    C110653   3.529   4.306  14.058  0.2236  0.0331  0.5971
  721TMC3    C210654   3.536   4.300  14.191 -0.4335 -0.6407 -0.6366
  721TMC3    C310655   3.638   4.365  14.253 -0.3668  0.3483  0.2708
  721TMC3    C410656   3.613   4.382  13.980 -0.5292  0.2212  0.2184
  721TMC3    C510657   3.712   4.446  14.041  0.6430 -0.2526 -0.1826
  721TMC3    C610658   3.733   4.435  14.179  0.4196 -0.0621 -0.3249
  721TMC3     C10659   3.443   4.213  13.992  0.2681  0.5022  0.3429
  721TMC3     O10660   3.416   4.111  14.056 -0.4034 -0.3983  0.4023
  721TMC3     H10661   3.474   4.230  14.245 -0.3625  0.0927  0.3817
  721TMC3    H110662   3.597   4.400  13.875  2.0772  3.7056  0.3936
  721TMC3    H210663   3.815   4.485  14.229 -0.7639  0.7986  0.7343
  721TMC3    C710664   3.828   4.476  13.953 -0.0696  0.1242  0.2201
  721TMC3    C810665   3.697   4.310  14.377  0.0438  0.1894 -0.4395
  721TMC3    O110666   3.834   4.447  13.838  0.5540 -0.5031  0.0966
  721TMC3    O210667   3.814   4.331  14.398 -0.3622 -0.1291 -0.2897
  722MPD2     C10668   1.611   2.933  13.322  0.2748 -0.1346 -0.5021
  722MPD2    C110669   1.577   3.065  13.349 -0.1938 -0.1829  0.5341
  722MPD2    C210670   1.452   3.106  13.313  0.1606 -0.2917  0.0118
  722MPD2    C310671   1.369   3.017  13.247  0.4456  0.1801 -0.3473
  722MPD2    C410672   1.407   2.890  13.215  1.0934 -0.0702 -0.2090
  722MPD2    C510673   1.528   2.847  13.255 -0.0958  0.2879 -0.6247
  722MPD2     H10674   1.426   3.210  13.328  0.9514 -0.0420 -0.3371
  722MPD2    H110675   1.335   2.817  13.179  0.3071  0.1635  0.8810
  722MPD2    H210676   1.709   2.893  13.347 -0.5589 -1.3866  0.8061
  722MPD2    H310677   1.548   2.746  13.220 -3.1062  0.1289 -1.8964
  722MPD2     N10678   1.250   3.077  13.184 -0.3527 -0.3403 -0.5104
  722MPD2    H510679   1.239   3.178  13.182  1.1661 -0.1869 -0.4803
  722MPD2    N110680   1.667   3.167  13.379  0.0144  0.5289  0.2385
  722MPD2    H710681   1.629   3.260  13.387 -1.7533 -0.1739  0.0548
  723TMC3    C110682   1.038   3.086  13.084 -0.3954 -0.4173  0.4484
  723TMC3    C210683   0.918   3.026  13.053 -0.0841 -0.1421  0.8496
  723TMC3    C310684   0.811   3.105  13.017  0.0563 -0.4998 -0.3818
  723TMC3    C410685   1.056   3.220  13.052 -0.2017  0.3154 -0.1649
  723TMC3    C510686   0.947   3.292  13.007 -0.1904 -0.0533  0.1381
  723TMC3    C610687   0.825   3.238  12.979 -0.3161  0.4246  0.1844
  723TMC3     C10688   1.148   3.003  13.120  1.0740  0.3950 -0.3965
  723TMC3     O10689   1.140   2.884  13.101  0.2116  0.3658  0.1009
  723TMC3     H10690   0.896   2.921  13.071  0.3492 -0.6352 -1.4150
  723TMC3    H110691   1.150   3.274  13.053  1.3226 -2.3268 -0.6460
  723TMC3    H210692   0.739   3.300  12.959 -1.1947 -2.0533 -3.6978
  723TMC3    C710693   0.961   3.435  13.005  0.4882 -0.2175 -0.5697
  723TMC3    C810694   0.709   3.034  12.944  0.5237  0.5904  0.7721
  723TMC3    O110695   1.047   3.485  13.076 -0.8591 -0.2858 -0.2011
  723TMC3    O210696   0.601   3.090  12.935  0.3951 -1.0063 -0.6501
  724TMC3    C110697   2.697   1.334  10.527 -0.1495 -0.3438 -0.2817
  724TMC3    C210698   2.657   1.326  10.393  0.9980  0.3854 -0.3695
  724TMC3    C310699   2.704   1.416  10.305  0.4431 -0.8099  0.3388
  724TMC3    C410700   2.773   1.439  10.574 -0.2491  0.4353  0.8413
  724TMC3    C510701   2.798   1.546  10.489 -0.0366 -0.7711 -0.6982
  724TMC3    C610702   2.771   1.525  10.350 -0.3374  0.0985  0.3790
  724TMC3     C10703   2.645   1.236  10.620 -0.6298  0.0987 -0.0859
  724TMC3     O10704   2.549   1.167  10.584 -0.0421 -0.0550  0.3186
  724TMC3     H10705   2.627   1.227  10.360 -1.4548  0.6091  1.1483
  724TMC3    H110706   2.798   1.451  10.679 -1.7093  4.8171  0.6538
  724TMC3    H210707   2.813   1.602  10.287 -0.2830  0.3293  0.6984
  724TMC3    C710708   2.878   1.653  10.541 -0.2155  0.6649  0.3244
  724TMC3    C810709   2.613   1.454  10.198 -0.1043 -0.7309  0.6677
  724TMC3    O110710   2.970   1.704  10.472 -0.9699  0.6636 -0.0603
  724TMC3    O210711   2.548   1.363  10.141 -0.6712 -0.1961 -0.1298
  725TMC3    C110712   3.710   4.459  12.669 -0.1303  0.7890  0.2168
  725TMC3    C210713   3.580   4.474  12.646  0.0239 -0.2993  0.3349
  725TMC3    C310714   3.515   4.378  12.571 -0.2903 -0.0212 -0.4515
  725TMC3    C410715   3.777   4.346  12.641  0.5132 -0.2005  0.2166
  725TMC3    C510716   3.706   4.245  12.579  0.0020 -1.1621 -0.0596
  725TMC3    C610717   3.568   4.256  12.549 -0.4645 -0.3187 -0.0257
  725TMC3     C10718   3.782   4.573  12.714 -0.1281 -0.4025 -0.4363
  725TMC3     O10719   3.722   4.649  12.789 -0.3012  0.0324 -0.6341
  725TMC3     H10720   3.530   4.566  12.671  0.4671  0.3519 -1.1853
  725TMC3    H110721   3.878   4.338  12.681  0.9274 -1.5614 -1.0997
  725TMC3    H210722   3.515   4.178  12.496  1.4454 -2.4126  1.1495
  725TMC3    C710723   3.786   4.127  12.525 -0.1254  0.0123 -0.8959
  725TMC3    C810724   3.411   4.429  12.478 -0.5150  0.4326 -0.2803
  725TMC3    O110725   3.892   4.157  12.470  0.0521  0.1678 -0.1209
  725TMC3    O210726   3.300   4.376  12.473  0.8317  0.0038 -0.0466
  726MPD2     C10727   1.515   0.898  10.570  0.3013 -0.2038  0.0961
  726MPD2    C110728   1.573   1.019  10.597  0.3447 -0.7616 -0.7504
  726MPD2    C210729   1.499   1.114  10.664  0.6015 -0.0061  0.8346
  726MPD2    C310730   1.380   1.076  10.727 -0.5717  0.1337  0.2817
  726MPD2    C410731   1.335   0.947  10.717 -0.3185 -0.0637 -0.0983
  726MPD2    C510732   1.401   0.860  10.638 -0.2672  0.5996 -0.2107
  726MPD2     H10733   1.534   1.215  10.685  0.0675  0.6784 -1.5936
  726MPD2    H110734   1.245   0.919  10.769 -0.6284  0.2956 -0.4406
  726MPD2    H210735   1.554   0.817  10.510  1.9980  0.9729 -0.3826
  726MPD2    H310736   1.362   0.761  10.620 -1.3059  0.9982 -0.1690
  726MPD2     N10737   1.300   1.169  10.799  0.1021 -0.2468 -0.3132
  726MPD2    H510738   1.217   1.129  10.841 -1.3343  2.9263 -0.1230
  726MPD2    N110739   1.701   1.061  10.549  0.1264  0.0009 -0.3475
  726MPD2    H710740   1.735   1.154  10.568 -3.0590  1.1648 -0.2958
  727TMC3    C110741   1.914   1.056  10.484  0.0404  0.4007 -0.2232
  727TMC3    C210742   2.011   0.993  10.559 -0.0682  0.2309  0.0918
  727TMC3    C310743   2.105   1.080  10.607 -0.1799 -0.3732  0.0940
  727TMC3    C410744   1.911   1.192  10.454  0.4072  0.1049  0.1315
  727TMC3    C510745   2.014   1.272  10.508  0.5944 -0.0606  0.0628
  727TMC3    C610746   2.110   1.216  10.588  0.1771  0.3737  0.4892
  727TMC3     C10747   1.793   0.981  10.490  0.1401 -0.6289  0.5462
  727TMC3     O10748   1.795   0.862  10.474  0.3448 -0.3768 -0.5899
  727TMC3     H10749   2.012   0.888  10.584  0.4343  0.1695 -0.2022
  727TMC3    H110750   1.835   1.228  10.385  1.2920 -0.3728 -1.0926
  727TMC3    H210751   2.202   1.263  10.623 -0.3183  1.4271  0.3488
  727TMC3    C710752   1.998   1.414  10.508  0.1669 -0.3000 -0.5215
  727TMC3    C810753   2.137   1.060  10.746 -0.5134  0.0055  0.1072
  727TMC3    O110754   1.938   1.469  10.416  0.4053 -0.3383 -0.1486
  727TMC3    O210755   2.117   1.155  10.819  0.0857 -0.2275  0.4005
  728TMC3    C110756   0.480   0.434  15.362  0.0611 -0.0143  0.3745
  728TMC3    C210757   0.482   0.549  15.424  0.0315  0.4551  0.3885
  728TMC3    C310758   0.538   0.649  15.352  0.3538  0.1253 -0.4587
  728TMC3    C410759   0.529   0.416  15.237 -0.3118 -0.5464  0.1003
  728TMC3    C510760   0.570   0.520  15.171  0.5203 -0.5402 -0.1297
  728TMC3    C610761   0.577   0.644  15.223  0.7027 -0.2178  0.3643
  728TMC3     C10762   0.459   0.309  15.432  0.6554 -0.7688  0.0477
  728TMC3     O10763   0.391   0.234  15.359 -0.0169  0.3247 -0.1856
  728TMC3     H10764   0.434   0.567  15.520 -1.1679  0.2163 -0.1654
  728TMC3    H110765   0.517   0.321  15.187 -2.3407 -0.5237  0.5198
  728TMC3    H210766   0.581   0.730  15.158  0.3169  0.2750  0.9957
  728TMC3    C710767   0.601   0.504  15.033  0.1249  0.0891  0.4501
  728TMC3    C810768   0.532   0.774  15.418 -0.4487  0.2608  0.1006
  728TMC3    O110769   0.566   0.400  14.980 -0.3740 -0.2698  0.0140
  728TMC3    O210770   0.437   0.792  15.491 -0.4962 -0.1206  0.3946
  729MPD2     C10771   3.102   1.083   0.163 -0.0521 -0.3471  0.4513
  729MPD2    C110772   3.063   1.206   0.116  0.5247 -0.0407  0.9212
  729MPD2    C210773   2.992   1.292   0.196 -0.9915  0.5486  0.5057
  729MPD2    C310774   2.946   1.257   0.323 -0.3979 -0.0002 -0.5891
  729MPD2    C410775   2.969   1.125   0.360  0.3846 -1.1656 -0.3861
  729MPD2    C510776   3.057   1.052   0.290  1.0835  0.9273  0.3582
  729MPD2     H10777   2.970   1.389   0.152 -1.4149 -0.0610 -0.6228
  729MPD2    H110778   2.931   1.085   0.453 -1.9466  0.7300 -0.5315
  729MPD2    H210779   3.160   1.013   0.104 -2.1609 -1.4571 -0.3195
  729MPD2    H310780   3.079   0.956   0.333  0.8269  2.0843  3.0360
  729MPD2     N10781   2.867   1.341   0.410 -0.3406  0.1040  0.3023
  729MPD2    H510782   2.846   1.302   0.501  0.0446 -1.9160 -0.4671
  729MPD2    N110783   3.105   1.233  17.671 -0.1037 -0.2641  0.4552
  729MPD2    H710784   3.164   1.164  17.625  0.9575  3.1613 -3.2595
  730TMC3    C110785   2.796   1.558   0.499 -0.3643 -0.5959  0.2893
  730TMC3    C210786   2.869   1.544   0.611  0.4244  0.4173 -0.1175
  730TMC3    C310787   2.923   1.659   0.665 -0.1533  0.6052  0.5147
  730TMC3    C410788   2.758   1.682   0.446 -0.6391 -0.2257 -0.1362
  730TMC3    C510789   2.802   1.790   0.517  0.7494 -0.0442 -0.5023
  730TMC3    C610790   2.885   1.782   0.625 -0.3325 -0.2844  0.3119
  730TMC3     C10791   2.825   1.472   0.381 -0.3290  0.3126  0.3167
  730TMC3     O10792   2.833   1.527   0.271 -0.0204  0.5271 -0.0105
  730TMC3     H10793   2.913   1.446   0.622  0.2235  0.2705 -0.6288
  730TMC3    H110794   2.703   1.694   0.353  1.4678  3.6283 -0.8994
  730TMC3    H210795   2.945   1.866   0.657  0.9502 -0.3916 -1.8803
  730TMC3    C710796   2.805   1.916   0.438  0.5112  0.3895  0.6841
  730TMC3    C810797   3.028   1.647   0.764  0.1727 -0.1670  0.4964
  730TMC3    O110798   2.806   1.900   0.321 -0.1400  0.0058  0.1650
  730TMC3    O210799   3.081   1.542   0.770  0.0231 -0.2736 -0.0727
  731MPD2     C10800   3.649   3.803  12.254 -0.3470 -0.0338  0.8818
  731MPD2    C110801   3.571   3.910  12.225  0.0129 -0.2080  0.2359
  731MPD2    C210802   3.466   3.930  12.309 -0.3199 -0.4642  0.5093
  731MPD2    C310803   3.431   3.847  12.415 -0.1019  0.4583 -0.6249
  731MPD2    C410804   3.506   3.733  12.428  0.4142 -0.1878  0.4687
  731MPD2    C510805   3.616   3.716  12.352 -1.0324  0.0583  0.0452
  731MPD2     H10806   3.405   4.018  12.292  2.1299  1.0927 -0.1628
  731MPD2    H110807   3.497   3.675  12.519 -0.3725  0.6046  0.8955
  731MPD2    H210808   3.727   3.764  12.191 -2.3797 -0.7771 -1.1741
  731MPD2    H310809   3.686   3.637  12.376 -0.1606  0.9500  0.4332
  731MPD2     N10810   3.323   3.873  12.506  0.3955 -0.0383  0.2180
  731MPD2    H510811   3.299   3.806  12.578 -0.5355  2.9660  2.7203
  731MPD2    N110812   3.598   3.988  12.112  0.3339  0.2664  0.0772
  731MPD2    H710813   3.664   3.942  12.050 -0.3180 -1.0471  0.3726
  732TMC3    C110814   3.583   4.183  11.967  0.0395 -0.7322 -0.0764
  732TMC3    C210815   3.508   4.292  11.933 -0.0111  0.0473  0.3719
  732TMC3    C310816   3.533   4.346  11.803  0.4639 -0.2755  0.3741
  732TMC3    C410817   3.687   4.136  11.890 -0.4094  0.4829  0.2139
  732TMC3    C510818   3.701   4.196  11.767 -0.1265  0.0629  0.8019
  732TMC3    C610819   3.614   4.291  11.713  0.2454 -0.5091 -0.6731
  732TMC3     C10820   3.549   4.120  12.095 -0.3878 -0.3084  0.2719
  732TMC3     O10821   3.461   4.176  12.154 -0.0601 -0.1060 -0.2908
  732TMC3     H10822   3.430   4.326  12.001 -0.2805  0.5003 -0.1630
  732TMC3    H110823   3.753   4.053  11.912  0.0658  0.5176 -1.0992
  732TMC3    H210824   3.629   4.337  11.615  1.8691 -0.0908 -0.2250
  732TMC3    C710825   3.816   4.177  11.686 -0.2377 -0.1368  0.8264
  732TMC3    C810826   3.435   4.434  11.746 -0.6131 -0.3351 -0.2473
  732TMC3    O110827   3.816   4.214  11.569  0.0122 -0.2515  0.1737
  732TMC3    O210828   3.470   4.516  11.659 -0.0118  0.9539 -0.3538
  733TMC3    C110829   3.429   2.136  13.199  0.5344 -0.5224  0.3758
  733TMC3    C210830   3.556   2.095  13.239  0.4757  0.3533 -0.1725
  733TMC3    C310831   3.655   2.179  13.190  0.6803 -0.5477  0.3225
  733TMC3    C410832   3.402   2.248  13.124  0.3367 -0.0389  0.1949
  733TMC3    C510833   3.509   2.318  13.082 -0.4482 -0.2916 -0.1621
  733TMC3    C610834   3.639   2.289  13.113  0.8002  0.2385 -0.1654
  733TMC3     C10835   3.313   2.054  13.222 -0.2622 -0.0767  0.3853
  733TMC3     O10836   3.331   1.934  13.214 -0.0951  0.2120  0.2041
  733TMC3     H10837   3.586   2.000  13.282  2.5968  1.1806  0.1410
  733TMC3    H110838   3.307   2.268  13.074 -0.9562 -0.1798  2.5921
  733TMC3    H210839   3.717   2.362  13.094 -0.0220  1.0529 -0.4111
  733TMC3    C710840   3.479   2.424  12.987 -0.2249  0.0851  0.3196
  733TMC3    C810841   3.798   2.139  13.213 -0.2725 -0.3024  0.5101
  733TMC3    O110842   3.382   2.495  13.013  0.6770 -0.1961 -0.7067
  733TMC3    O210843   3.826   2.073  13.309 -0.3168 -0.0767 -0.4472
  734MPD2     C10844   1.352   0.800  12.005 -0.0152 -0.4588  0.0009
  734MPD2    C110845   1.291   0.684  11.982 -0.0271  0.0594 -0.1831
  734MPD2    C210846   1.276   0.648  11.853 -0.4468 -0.5205  0.8711
  734MPD2    C310847   1.340   0.718  11.750  0.4179 -0.4146  0.7852
  734MPD2    C410848   1.395   0.841  11.774 -0.0467  0.9864 -0.1284
  734MPD2    C510849   1.401   0.876  11.906 -0.7075 -0.0344 -0.7644
  734MPD2     H10850   1.235   0.554  11.817 -1.4124  0.9463 -1.9067
  734MPD2    H110851   1.437   0.905  11.696  1.9563  0.2442  0.3525
  734MPD2    H210852   1.355   0.837  12.107  1.9572 -0.2681 -0.1202
  734MPD2    H310853   1.439   0.975  11.928 -1.1511  0.2466 -1.2438
  734MPD2     N10854   1.341   0.645  11.626  0.2068 -0.0554 -0.3024
  734MPD2    H510855   1.331   0.545  11.636 -1.6995  0.2392  0.6878
  734MPD2    N110856   1.230   0.613  12.088  0.3621  0.0432 -0.5122
  734MPD2    H710857   1.252   0.642  12.182  3.4173  1.4841 -1.6550
  735TMC3    C110858   1.147   0.415  12.184  0.1774 -0.3901 -0.3647
  735TMC3    C210859   1.061   0.315  12.158  0.6611  0.6283 -0.0725
  735TMC3    C310860   1.091   0.179  12.175  0.2535  0.7519 -0.4951
  735TMC3    C410861   1.267   0.374  12.231 -0.4714 -0.1407  0.3922
  735TMC3    C510862   1.301   0.240  12.255  0.1953  0.1447  1.1205
  735TMC3    C610863   1.210   0.142  12.228  1.0716 -0.0561 -0.5084
  735TMC3     C10864   1.154   0.500  12.065 -0.6664 -0.0361 -0.1045
  735TMC3     O10865   1.106   0.449  11.967 -0.3057  0.1452 -0.1348
  735TMC3     H10866   0.958   0.341  12.134 -0.0094 -3.5564 -1.8631
  735TMC3    H110867   1.348   0.441  12.257 -1.6631  0.9829  1.1484
  735TMC3    H210868   1.241   0.038  12.224  1.0526 -0.1227  0.9393
  735TMC3    C710869   1.444   0.204  12.239 -0.3277  0.0396  0.1711
  735TMC3    C810870   1.024   0.096  12.081 -0.3011 -0.9321 -0.2313
  735TMC3    O110871   1.512   0.283  12.178  0.1452  0.1170  0.1977
  735TMC3    O210872   1.033   4.696  12.089 -0.2370 -0.0458 -0.4010
  736MPD2     C10873   1.604   4.624  12.335 -0.9098  0.3652  0.4081
  736MPD2    C110874   1.589   0.009  12.263  0.6753  0.8189  0.1865
  736MPD2    C210875   1.685   0.045  12.172  0.7023  0.6151 -0.7969
  736MPD2    C310876   1.802   4.687  12.163 -0.5960 -0.3761 -0.0671
  736MPD2    C410877   1.819   4.573  12.239 -0.4171 -0.3843 -1.0734
  736MPD2    C510878   1.715   4.549  12.328  0.0120 -0.1680  1.1955
  736MPD2     H10879   1.685   0.135  12.111  1.1224  1.2571  0.1562
  736MPD2    H110880   1.905   4.507  12.226  0.2598  0.1777  0.5412
  736MPD2    H210881   1.528   4.596  12.407  0.0214 -2.2987  0.3456
  736MPD2    H310882   1.711   4.460  12.391 -2.1861 -1.0537 -0.2062
  736MPD2     N10883   1.912   4.704  12.079 -0.0077  0.5911  0.6212
  736MPD2    H510884   1.994   4.648  12.100 -1.9121 -1.1923  3.2731
  736MPD2    N110885   1.470   0.080  12.280 -0.2190  0.0211 -0.1141
  736MPD2    H710886   1.394   0.033  12.329 -0.5194 -0.0046 -0.5995
  737TMC3    C110887   2.053   0.079  11.921  0.5293 -0.7632 -0.3249
  737TMC3    C210888   2.059   0.178  11.827 -0.3546  0.3985  0.2716
  737TMC3    C310889   2.112   0.147  11.710  0.4963  0.2810 -0.4118
  737TMC3    C410890   2.108   4.675  11.901 -0.4311 -0.1797  0.0070
  737TMC3    C510891   2.181   4.657  11.782  0.3081  0.7424 -0.3756
  737TMC3    C610892   2.183   0.030  11.680  0.3807 -0.4247  0.1235
  737TMC3     C10893   1.927   0.080  11.990  0.1727  0.6608  0.6140
  737TMC3     O10894   1.843   0.149  11.937  0.1447 -0.0240 -0.2019
  737TMC3     H10895   2.001   0.268  11.847 -2.0617 -0.1789 -2.0764
  737TMC3    H110896   2.115   4.595  11.974 -3.1093 -0.3614  0.0501
  737TMC3    H210897   2.232   0.017  11.584  1.5786 -0.2169  0.7125
  737TMC3    C710898   2.217   4.526  11.735  0.0713  0.3293  0.2775
  737TMC3    C810899   2.129   0.248  11.616  0.4554 -0.3711  0.5689
  737TMC3    O110900   2.171   4.430  11.793  0.2740  0.1639  0.3885
  737TMC3    O210901   2.169   0.359  11.656  0.2771  0.2160  0.6084
  738MPD2     C10902   2.435   3.493  15.391  0.5716 -0.1086  0.8062
  738MPD2    C110903   2.381   3.425  15.282  0.7451 -0.7213 -0.6226
  738MPD2    C210904   2.453   3.417  15.170  0.2121  0.2924 -0.7986
  738MPD2    C310905   2.578   3.471  15.160  0.8553  0.2255 -0.0926
  738MPD2    C410906   2.624   3.550  15.262  0.6338  0.0937  0.2737
  738MPD2    C510907   2.556   3.551  15.379  0.1581 -0.2200  0.6980
  738MPD2     H10908   2.412   3.366  15.083 -0.9042 -0.3217  0.1024
  738MPD2    H110909   2.724   3.590  15.257 -0.2637  2.1848 -1.0142
  738MPD2    H210910   2.384   3.508  15.486  0.0913 -1.4615  0.7659
  738MPD2    H310911   2.600   3.592  15.470 -0.0770  1.8128 -0.1050
  738MPD2     N10912   2.659   3.460  15.049 -0.3328  0.2146 -0.1047
  738MPD2    H510913   2.739   3.521  15.056 -0.0863  0.1284 -2.1751
  738MPD2    N110914   2.257   3.360  15.284  0.4942  0.3056  0.3396
  738MPD2    H710915   2.246   3.302  15.202 -0.7745 -3.3042  3.0468
  739TMC3    C110916   2.731   3.403  14.823  0.0301  0.1560 -0.0715
  739TMC3    C210917   2.668   3.400  14.698  0.4603 -0.2473  0.8109
  739TMC3    C310918   2.734   3.473  14.596  0.1146  0.0655 -0.0521
  739TMC3    C410919   2.838   3.474  14.848  0.4164 -0.7069  0.3491
  739TMC3    C510920   2.901   3.535  14.747 -0.1386 -0.3538  0.5136
  739TMC3    C610921   2.843   3.547  14.619  0.1479  0.2394  0.3612
  739TMC3     C10922   2.639   3.377  14.942  0.6194  0.0488 -0.2936
  739TMC3     O10923   2.541   3.298  14.928 -0.2425 -0.1803 -0.8320
  739TMC3     H10924   2.567   3.361  14.689  0.1824  0.6485  0.0597
  739TMC3    H110925   2.885   3.483  14.945 -0.1395 -2.3283  0.7678
  739TMC3    H210926   2.905   3.582  14.536 -1.4463  1.8077 -0.1661
  739TMC3    C710927   3.040   3.580  14.769 -0.1708 -0.4463  0.2154
  739TMC3    C810928   2.665   3.490  14.467  0.0722  0.6818  0.1476
  739TMC3    O110929   3.095   3.538  14.871 -0.2224 -0.1140 -0.0716
  739TMC3    O210930   2.545   3.467  14.466 -0.3110  0.0851 -0.5754
  740TMC3    C110931   2.431   0.292  14.330  0.3561  0.3503 -0.1894
  740TMC3    C210932   2.442   0.166  14.377 -0.2268 -0.0914 -0.3168
  740TMC3    C310933   2.444   0.065  14.282  0.2372  1.1704  0.0905
  740TMC3    C410934   2.432   0.326  14.196  0.0191 -0.5271  0.6450
  740TMC3    C510935   2.451   0.222  14.108 -0.5909  0.0502 -0.5277
  740TMC3    C610936   2.473   0.098  14.156 -0.4256 -0.2030  0.1575
  740TMC3     C10937   2.462   0.396  14.428 -0.4172  0.2570  0.2788
  740TMC3     O10938   2.496   0.504  14.385  0.4320  0.0664  0.2135
  740TMC3     H10939   2.459   0.148  14.482  3.4688  0.0677 -0.8832
  740TMC3    H110940   2.419   0.425  14.156 -0.7092 -0.3900  1.2194
  740TMC3    H210941   2.471   0.016  14.085 -2.0183  0.6051 -0.7214
  740TMC3    C710942   2.446   0.255  13.962  1.2754 -0.2769  0.5268
  740TMC3    C810943   2.434   4.650  14.326 -0.2979 -0.1562  0.1952
  740TMC3    O110944   2.395   0.365  13.946 -0.4451 -0.0736  0.6788
  740TMC3    O210945   2.499   4.570  14.262 -0.3098  0.0932 -0.5116
  741TMC3    C110946   2.130   4.477  13.415 -0.5193  0.1003  0.0665
  741TMC3    C210947   2.147   4.437  13.549  0.2463  0.1720 -0.1320
  741TMC3    C310948   2.271   4.384  13.586  0.4217  0.3549 -0.2240
  741TMC3    C410949   2.223   4.437  13.323 -0.5107  0.1034  0.2061
  741TMC3    C510950   2.345   4.402  13.365  0.4334  0.7363  0.7071
  741TMC3    C610951   2.369   4.374  13.492  0.6628  0.5875  0.3542
  741TMC3     C10952   1.992   4.481  13.362 -0.0832 -0.3318 -0.2668
  741TMC3     O10953   1.963   4.415  13.264 -0.2032  0.4761 -0.0909
  741TMC3     H10954   2.063   4.430  13.617 -0.4971  0.2728 -1.0445
  741TMC3    H110955   2.193   4.426  13.219  0.8884  2.3012 -0.4151
  741TMC3    H210956   2.464   4.333  13.524  0.9049 -0.7400 -2.0627
  741TMC3    C710957   2.458   4.381  13.270 -0.0327 -0.8183  0.2792
  741TMC3    C810958   2.269   4.300  13.703  0.3624  0.3140 -0.3930
  741TMC3    O110959   2.560   4.316  13.305  0.2627  0.3763  0.1082
  741TMC3    O210960   2.170   4.302  13.777 -0.3824  0.3415 -0.2298
  742TMC3    C110961   1.930   2.516  15.401  0.4249 -0.0278  0.2050
  742TMC3    C210962   1.866   2.543  15.286  0.7296  0.6695  0.6021
  742TMC3    C310963   1.938   2.544  15.168 -0.4078 -0.2563 -0.7130
  742TMC3    C410964   2.067   2.506  15.398  0.0194  0.3128 -0.0578
  742TMC3    C510965   2.135   2.513  15.281 -0.1727 -1.1584  0.4654
  742TMC3    C610966   2.077   2.517  15.160  0.0718  0.4075  0.5081
  742TMC3     C10967   1.859   2.536  15.528  0.0384  0.1998 -0.4894
  742TMC3     O10968   1.756   2.603  15.521  0.0248  0.4014 -0.1883
  742TMC3     H10969   1.760   2.525  15.291  0.5131  1.3611 -1.5883
  742TMC3    H110970   2.122   2.503  15.491  0.8575 -0.6698 -0.5783
  742TMC3    H210971   2.136   2.515  15.069 -0.3548  0.0966  0.2426
  742TMC3    C710972   2.284   2.500  15.285 -0.3023  0.0042 -0.7167
  742TMC3    C810973   1.872   2.522  15.040 -0.2197  0.2139 -0.4426
  742TMC3    O110974   2.342   2.479  15.176  0.0974 -0.0674 -0.5904
  742TMC3    O210975   1.934   2.466  14.950 -0.4138 -0.2418 -0.6015
  743MPD2     C10976   1.242   0.469   2.003  0.8141  0.1665 -0.4282
  743MPD2    C110977   1.259   0.351   1.940  0.0931  0.0989 -0.4128
  743MPD2    C210978   1.387   0.310   1.902  0.1378  0.4016  0.3071
  743MPD2    C310979   1.496   0.393   1.932  0.1276  0.5658 -0.1368
  743MPD2    C410980   1.476   0.516   1.989  0.5359  0.4657 -0.3488
  743MPD2    C510981   1.345   0.556   2.025 -0.4476 -0.0352 -0.5381
  743MPD2     H10982   1.405   0.219   1.845 -1.0150  1.1670 -1.2795
  743MPD2    H110983   1.561   0.580   2.006  1.3510 -0.6817 -0.0758
  743MPD2    H210984   1.140   0.499   2.027  0.9540  0.0481  0.3085
  743MPD2    H310985   1.324   0.648   2.079  0.3617 -0.2014  0.0748
  743MPD2     N10986   1.623   0.370   1.871 -0.1592 -0.0055 -0.4527
  743MPD2    H510987   1.630   0.294   1.804  1.7614  1.2794 -1.7049
  743MPD2    N110988   1.140   0.275   1.915 -0.8023 -0.5820 -0.0226
  743MPD2    H710989   1.056   0.315   1.956  0.3341  1.0432  0.7352
  744TMC3    C110990   0.985   0.117   1.836 -0.2463 -0.8047  0.3951
  744TMC3    C210991   0.889   0.191   1.888  0.2096 -0.3499 -0.0287
  744TMC3    C310992   0.756   0.157   1.865 -0.0919  0.1901  0.5422
  744TMC3    C410993   0.961   0.006   1.749  0.3324 -0.2557  0.1382
  744TMC3    C510994   0.833   4.695   1.736 -0.4059 -0.2387 -0.1715
  744TMC3    C610995   0.730   0.043   1.789  0.6387  0.0443  0.3067
  744TMC3     C10996   1.124   0.152   1.862  0.2693 -0.9580  0.1126
  744TMC3     O10997   1.212   0.088   1.808 -0.0821 -0.2989  0.8126
  744TMC3     H10998   0.914   0.280   1.943 -0.4655 -0.4691  0.4709
  744TMC3    H110999   1.037   4.665   1.706  1.3043  2.1014 -1.6068
  744TMC3    H211000   0.624   0.035   1.769  0.5000  0.1676  0.9907
  744TMC3    C711001   0.804   4.618   1.617  0.5622  0.1266  0.1589
  744TMC3    C811002   0.650   0.219   1.942  0.7916 -0.2149  0.2977
  744TMC3    O111003   0.880   4.619   1.517 -0.0084 -0.3732  0.2049
  744TMC3    O211004   0.546   0.225   1.883  0.1223  0.1082  0.7595
  745TMC3    C111005   1.873   2.026  13.436 -0.3863 -0.6515  0.0077
  745TMC3    C211006   1.868   2.016  13.569 -0.4396  0.3599 -0.4576
  745TMC3    C311007   1.809   2.123  13.633 -0.1284  0.0985  0.6895
  745TMC3    C411008   1.801   2.124  13.366 -0.3080 -0.7865  0.0026
  745TMC3    C511009   1.730   2.223  13.436  0.8945 -0.3758  0.1040
  745TMC3    C611010   1.724   2.221  13.576  0.2722 -0.6332  0.3058
  745TMC3     C11011   2.000   1.984  13.386 -0.3163  0.8487 -0.1981
  745TMC3     O11012   2.011   1.927  13.278 -0.2010  0.2438  0.1057
  745TMC3     H11013   1.933   1.951  13.626 -1.0094  1.0373  0.9720
  745TMC3    H111014   1.823   2.121  13.260  0.7162  1.7145  0.1365
  745TMC3    H211015   1.665   2.285  13.641  0.3258  0.5752 -0.8157
  745TMC3    C711016   1.734   2.353  13.375  0.2499  0.1330 -0.1027
  745TMC3    C811017   1.833   2.123  13.775 -0.3754  0.4791  0.0254
  745TMC3    O111018   1.676   2.445  13.436 -0.1803  0.1588 -0.2277
  745TMC3    O211019   1.827   2.010  13.827 -0.1267  0.5025 -0.1787
  746TMC3    C111020   0.094   3.985  11.071  0.4520 -0.3427 -0.1758
  746TMC3    C211021   0.178   3.976  10.964 -0.3222  0.0561  0.2396
  746TMC3    C311022   0.184   3.851  10.909  0.1731 -0.0954 -0.5201
  746TMC3    C411023   0.005   3.891  11.114 -0.2761 -0.3169 -0.2840
  746TMC3    C511024   0.004   3.778  11.043  0.3032 -0.1915 -0.0384
  746TMC3    C611025   0.094   3.756  10.944 -0.3639  0.0292  0.0921
  746TMC3     C11026   0.054   4.118  11.115  0.2291  0.8518 -0.5052
  746TMC3     O11027   4.710   4.133  11.219  0.2227  0.2487  0.2665
  746TMC3     H11028   0.257   4.049  10.960 -1.4679  1.3366  1.1096
  746TMC3    H111029   4.663   3.914  11.198  0.2716 -1.2808  0.4146
  746TMC3    H211030   0.096   3.663  10.888  0.5693  0.1509 -0.0891
  746TMC3    C711031   4.622   3.671  11.063  1.0477  0.0955  0.2762
  746TMC3    C811032   0.273   3.817  10.801  0.3592  0.7819  0.2790
  746TMC3    O111033   4.647   3.571  10.999  0.2867  0.1605  0.9302
  746TMC3    O211034   0.297   3.699  10.782 -0.2032 -0.4437 -0.0438
  747TMC3    C111035   2.807   4.503  10.895 -0.7061 -0.1230  0.6201
  747TMC3    C211036   2.729   4.416  10.965 -0.4092 -0.0284  0.0381
  747TMC3    C311037   2.744   4.410  11.098 -0.2589 -0.4141  0.0468
  747TMC3    C411038   2.913   4.570  10.953  0.0777 -0.0512 -0.0015
  747TMC3    C511039   2.925   4.552  11.093 -0.3110  0.5649  0.5064
  747TMC3    C611040   2.845   4.468  11.166 -0.2925 -0.1085 -0.2299
  747TMC3     C11041   2.745   4.554  10.771  0.2436  0.1512 -0.2225
  747TMC3     O11042   2.756   4.675  10.750 -0.0845 -0.1251  0.1159
  747TMC3     H11043   2.640   4.375  10.918 -0.6098  0.4571 -0.0015
  747TMC3    H111044   2.965   4.639  10.888  0.0493 -0.5443 -0.5449
  747TMC3    H211045   2.863   4.432  11.266 -1.0578  1.5595  0.5223
  747TMC3    C711046   2.997   4.645  11.181  0.0151 -0.3050  0.5224
  747TMC3    C811047   2.641   4.332  11.173 -0.9610  0.0240  0.6886
  747TMC3    O111048   2.953   4.662  11.292  0.3520 -0.6268 -0.1182
  747TMC3    O211049   2.584   4.242  11.111 -0.2726 -0.0791 -0.1230
  748MPD2     C11050   3.608   1.225   1.514  0.5229  0.2308 -0.2565
  748MPD2    C111051   3.712   1.188   1.600  0.5032  0.2752  0.5122
  748MPD2    C211052   3.841   1.206   1.561  0.5561 -0.7023 -0.3277
  748MPD2    C311053   3.869   1.259   1.440 -0.9015 -0.6086  0.6136
  748MPD2    C411054   3.771   1.300   1.354 -0.1388 -0.2822  0.4076
  748MPD2    C511055   3.636   1.281   1.390  0.6434  0.1789  1.1659
  748MPD2     H11056   3.925   1.169   1.620  0.6886 -0.9641 -0.6807
  748MPD2    H111057   3.793   1.349   1.259  1.7400 -0.7158  0.6228
  748MPD2    H211058   3.508   1.200   1.549  0.0341  0.1935 -1.6971
  748MPD2    H311059   3.558   1.306   1.319  2.2399  0.5228 -0.4698
  748MPD2     N11060   4.002   1.290   1.421 -0.3871 -0.3537  0.0108
  748MPD2    H511061   4.060   1.271   1.503  0.2210 -0.6084 -0.4788
  748MPD2    N111062   3.674   1.122   1.719  0.1336  0.0986 -0.2320
  748MPD2    H711063   3.575   1.107   1.736 -0.6131  4.7087 -0.6260
  749TMC3    C111064   4.211   1.347   1.314 -0.0379 -0.3836 -0.4298
  749TMC3    C211065   4.276   1.289   1.419 -0.1801 -0.4659 -0.1594
  749TMC3    C311066   4.416   1.285   1.414 -0.1176  0.3927  0.4849
  749TMC3    C411067   4.272   1.393   1.208  0.2991 -0.4399 -0.0278
  749TMC3    C511068   4.412   1.403   1.210 -0.5504  0.1366 -0.6954
  749TMC3    C611069   4.489   1.350   1.315  0.2400 -0.4027 -0.1957
  749TMC3     C11070   4.067   1.334   1.306  0.3141 -0.3101  0.0624
  749TMC3     O11071   4.016   1.365   1.198  0.6460 -0.1454 -0.0543
  749TMC3     H11072   4.228   1.244   1.505  1.0332  0.7642  1.1543
  749TMC3    H111073   4.220   1.432   1.122  0.7853  2.2615  0.8933
  749TMC3    H211074   4.594   1.370   1.332 -0.1548  0.5429  1.1510
  749TMC3    C711075   4.479   1.480   1.103  0.0563 -0.4628 -0.1271
  749TMC3    C811076   4.482   1.249   1.538 -0.0770  0.4344 -0.1531
  749TMC3    O111077   4.581   1.540   1.132 -0.2170  0.0378 -0.7051
  749TMC3    O211078   4.416   1.270   1.636  0.0267 -0.2631 -0.2893
  750MPD2     C11079   0.577   1.497  11.393  0.4078 -0.4477 -0.2278
  750MPD2    C111080   0.513   1.394  11.453 -0.2136 -0.9223  0.0459
  750MPD2    C211081   0.495   1.279  11.375 -0.2853  0.5364 -0.5302
  750MPD2    C311082   0.525   1.273  11.241 -0.2114  0.4560 -0.8646
  750MPD2    C411083   0.600   1.374  11.187  0.1737 -0.1182 -0.1558
  750MPD2    C511084   0.621   1.483  11.265  0.1667  0.1669 -0.4182
  750MPD2     H11085   0.439   1.198  11.420  2.2454 -0.2424  1.2098
  750MPD2    H111086   0.632   1.354  11.085 -2.0872 -2.6260 -0.3570
  750MPD2    H211087   0.580   1.600  11.426  1.8869 -0.1851 -1.2122
  750MPD2    H311088   0.662   1.574  11.224 -1.3086  1.8871  1.8931
  750MPD2     N11089   0.499   1.169  11.153 -0.7408 -0.3986 -0.9546
  750MPD2    H511090   0.531   1.175  11.057  2.5818  1.6582  0.2705
  750MPD2    N111091   0.460   1.406  11.585 -0.1594 -0.3383 -0.0695
  750MPD2    H711092   0.451   1.500  11.621  1.7181 -0.1923  0.0351
  751TMC3    C111093   0.407   0.967  11.085  0.2407 -0.3336  0.0727
  751TMC3    C211094   0.287   0.905  11.088 -0.5021 -0.7110  0.4401
  751TMC3    C311095   0.259   0.819  10.982 -0.0227 -0.1094  0.6730
  751TMC3    C411096   0.487   0.965  10.976 -0.0689 -0.4393 -0.0583
  751TMC3    C511097   0.463   0.876  10.882 -0.0055 -0.2124  0.5978
  751TMC3    C611098   0.349   0.804  10.878  0.1000  0.1574  0.3401
  751TMC3     C11099   0.438   1.054  11.194 -0.2210  0.1451  0.1741
  751TMC3     O11100   0.373   1.027  11.295 -0.1258  0.2639 -0.3782
  751TMC3     H11101   0.224   0.923  11.174  0.3209  1.3789  0.5938
  751TMC3    H111102   0.590   0.998  10.981 -0.2029  0.1482 -1.1824
  751TMC3    H211103   0.320   0.761  10.782  0.8773  1.8431 -0.6571
  751TMC3    C711104   0.561   0.861  10.772  0.6917  0.4818  0.3364
  751TMC3    C811105   0.123   0.771  10.966 -0.3715 -0.1724 -0.1117
  751TMC3    O111106   0.633   0.956  10.743  0.0698  0.2460 -0.3284
  751TMC3    O211107   0.099   0.691  10.877 -0.0262  0.3673  0.0384
  752TMC3    C111108   4.016   1.012   0.339  0.9084 -0.3619  0.2439
  752TMC3    C211109   4.151   0.974   0.345 -0.0204  0.0775  0.3747
  752TMC3    C311110   4.235   1.041   0.425 -0.1709  0.3829  0.6423
  752TMC3    C411111   3.967   1.099   0.433 -0.3952 -1.0225  0.7147
  752TMC3    C511112   4.051   1.142   0.533 -0.4267 -0.4906  0.6143
  752TMC3    C611113   4.191   1.128   0.522 -0.2633  0.1731 -0.2367
  752TMC3     C11114   3.926   0.958   0.238 -0.0348 -0.9686  0.0064
  752TMC3     O11115   3.961   0.848   0.199  0.4527  0.9261 -0.0288
  752TMC3     H11116   4.180   0.912   0.261  1.1431  1.0632  0.0473
  752TMC3    H111117   3.860   1.109   0.429 -0.4478 -1.5825  0.6435
  752TMC3    H211118   4.262   1.172   0.590 -0.9720  0.8724  0.0505
  752TMC3    C711119   4.004   1.237   0.636  0.6022  0.2556  0.5849
  752TMC3    C811120   4.363   0.974   0.451  0.7274 -0.5514 -0.0081
  752TMC3    O111121   4.083   1.273   0.724  0.1062  0.0908  0.0007
  752TMC3    O211122   4.458   1.042   0.491  0.3655  0.4130  0.4898
  753TMC3    C111123   0.870   2.618  13.505 -0.1594  0.0596 -0.2367
  753TMC3    C211124   0.927   2.608  13.630  0.5738 -0.4994 -0.6024
  753TMC3    C311125   0.876   2.509  13.710  0.5363  0.1799 -0.8193
  753TMC3    C411126   0.772   2.536  13.451 -0.2599  0.2099  0.2881
  753TMC3    C511127   0.746   2.430  13.530 -0.3137  0.0887  0.1550
  753TMC3    C611128   0.787   2.416  13.660 -0.2987  0.4837 -0.7035
  753TMC3     C11129   0.870   2.745  13.440 -0.3577 -0.0888 -0.9386
  753TMC3     O11130   0.769   2.781  13.379  0.0060 -0.2046 -0.0514
  753TMC3     H11131   1.012   2.666  13.665  0.3815 -0.4239 -0.2569
  753TMC3    H111132   0.732   2.543  13.351  0.8427 -1.9142 -0.2897
  753TMC3    H211133   0.749   2.334  13.720  0.1633 -0.9002 -2.2988
  753TMC3    C711134   0.648   2.339  13.483 -0.0212 -0.2552 -0.1299
  753TMC3    C811135   0.940   2.472  13.836  0.4680  0.4849  0.6937
  753TMC3    O111136   0.555   2.307  13.557 -0.1476 -0.1167  0.2725
  753TMC3    O211137   0.900   2.364  13.877  0.0599 -0.5396 -0.1192
  754MPD2     C11138   4.428   1.090  13.018 -0.0856  0.1028  0.7076
  754MPD2    C111139   4.438   0.982  12.940  0.2262 -0.5182  0.5614
  754MPD2    C211140   4.316   0.925  12.899 -0.9835  0.3029 -0.3082
  754MPD2    C311141   4.195   0.972  12.940  0.3978  0.4573  0.3589
  754MPD2    C411142   4.185   1.092  13.012  0.6256  0.3502 -0.0703
  754MPD2    C511143   4.307   1.146  13.059 -0.1443 -0.3800  0.3529
  754MPD2     H11144   4.337   0.839  12.838  1.0700 -0.5704  1.6412
  754MPD2    H111145   4.095   1.140  13.047  0.4068  1.1678 -1.7052
  754MPD2    H211146   4.518   1.145  13.041  1.8820 -2.8216  0.0235
  754MPD2    H311147   4.306   1.237  13.117  1.2038  0.7503 -1.4141
  754MPD2     N11148   4.072   0.905  12.914 -0.0225  0.1141  0.2564
  754MPD2    H511149   3.979   0.943  12.924 -0.2158 -0.7926  1.8524
  754MPD2    N111150   4.565   0.926  12.925 -0.0450 -0.6853  0.7496
  754MPD2    H711151   4.639   0.959  12.986 -0.7613 -0.5767  1.5530
  755MPD2     C11152   3.430   0.635  13.548 -0.5397  0.1732 -0.2457
  755MPD2    C111153   3.506   0.735  13.510  0.1071 -0.4921  0.3802
  755MPD2    C211154   3.573   0.720  13.389 -0.0435 -0.5009 -0.0799
  755MPD2    C311155   3.557   0.605  13.311 -0.4009 -0.4577  0.6004
  755MPD2    C411156   3.481   0.500  13.361 -0.7299  0.3908 -0.0987
  755MPD2    C511157   3.407   0.526  13.468  0.1687  0.3681  0.1524
  755MPD2     H11158   3.646   0.794  13.361  0.2511 -1.7055 -2.5036
  755MPD2    H111159   3.471   0.402  13.315  2.7183 -0.2664  0.5159
  755MPD2    H211160   3.381   0.639  13.645  1.5763 -3.1138  0.9862
  755MPD2    H311161   3.352   0.445  13.515  3.7110 -2.3920 -0.4612
  755MPD2     N11162   3.616   0.584  13.182 -0.7406 -0.0447  0.4930
  755MPD2    H511163   3.623   0.489  13.148  1.0784  0.8044 -1.5153
  755MPD2    N111164   3.544   0.846  13.592 -0.0324  0.8208  0.0818
  755MPD2    H711165   3.594   0.918  13.541  0.9497 -1.6275 -2.4172
  756MPD2     C11166   4.670   1.787   9.529  0.3109  0.3456  0.3502
  756MPD2    C111167   4.575   1.744   9.618 -0.1016  0.1793  0.2148
  756MPD2    C211168   4.465   1.693   9.557  0.1546  0.0110 -0.2146
  756MPD2    C311169   4.448   1.682   9.417 -0.8216 -0.3756 -0.1027
  756MPD2    C411170   4.546   1.721   9.332 -0.1779 -0.6016  0.1709
  756MPD2    C511171   4.654   1.774   9.394  0.0266  0.1881 -0.2903
  756MPD2     H11172   4.382   1.662   9.619 -0.2336 -0.7609 -1.1238
  756MPD2    H111173   4.561   1.703   9.226  0.0271  1.2464 -0.1248
  756MPD2    H211174   0.041   1.825   9.568  1.2691 -0.8850 -0.7472
  756MPD2    H311175   0.019   1.805   9.339  0.0915  0.3926 -0.0742
  756MPD2     N11176   4.327   1.625   9.371 -0.0470  0.2297 -0.1837
  756MPD2    H511177   4.260   1.583   9.435 -1.0648  1.6796 -0.2888
  756MPD2    N111178   4.591   1.741   9.758 -0.1562  0.0456 -0.6630
  756MPD2    H711179   4.507   1.717   9.809  0.6626 -0.4991  0.4299
  757MPD2     C11180   4.094   0.815   9.582 -0.3824 -0.0195  0.0264
  757MPD2    C111181   4.210   0.851   9.517 -0.0919 -0.0947  0.4531
  757MPD2    C211182   4.215   0.977   9.453 -0.0728 -0.0492 -0.1696
  757MPD2    C311183   4.099   1.059   9.449  0.4285 -0.3116 -0.1984
  757MPD2    C411184   3.989   1.019   9.521 -0.7717 -0.1311  0.5769
  757MPD2    C511185   3.989   0.898   9.588 -0.6261  0.8616 -0.0088
  757MPD2     H11186   4.294   1.003   9.383 -0.1251 -1.5511 -0.7951
  757MPD2    H111187   3.895   1.073   9.527 -1.1879 -0.9754  1.6937
  757MPD2    H211188   4.078   0.715   9.621  2.0825 -0.6970 -0.7207
  757MPD2    H311189   3.902   0.858   9.637 -0.2300  1.5561  1.2757
  757MPD2     N11190   4.106   1.179   9.380  0.1548  0.0681 -0.7143
  757MPD2    H511191   4.195   1.203   9.337  0.9765 -0.8485  0.4664
  757MPD2    N111192   4.309   0.751   9.508 -0.2636  0.1190  0.1211
  757MPD2    H711193   4.289   0.666   9.560 -0.1631 -0.1225 -0.2364
  758MPD2     C11194   4.504   1.045  15.691  0.8344 -0.6438  0.1113
  758MPD2    C111195   4.505   0.946  15.782  0.2580 -0.7150  0.2220
  758MPD2    C211196   4.510   0.979  15.917 -0.2355  0.2222 -0.6072
  758MPD2    C311197   4.487   1.107  15.958 -0.1305 -0.0189  0.4457
  758MPD2    C411198   4.469   1.206  15.864 -0.4906  0.6541  0.4011
  758MPD2    C511199   4.486   1.179  15.730 -0.1873 -0.1144 -0.5411
  758MPD2     H11200   4.525   0.902  15.992 -1.7548 -0.8300 -1.3994
  758MPD2    H111201   4.453   1.308  15.900 -2.9063 -0.7244  3.3379
  758MPD2    H211202   4.506   1.023  15.585 -0.3856  0.0521 -0.0598
  758MPD2    H311203   4.487   1.259  15.657 -2.4661 -1.0692 -1.6035
  758MPD2     N11204   4.468   1.139  16.091  0.4888 -0.1412 -0.6562
  758MPD2    H511205   4.421   1.226  16.118 -0.8000 -0.7224 -1.0010
  758MPD2    N111206   4.530   0.811  15.738 -0.2661  0.3212  0.0191
  758MPD2    H711207   4.555   0.801  15.640  1.5248 -2.3210  0.7315
  759MPD2     C11208   4.168   3.126   9.785 -0.8175  0.7303 -1.0823
  759MPD2    C111209   4.059   3.212   9.804 -0.3931 -0.0655  0.4241
  759MPD2    C211210   4.064   3.340   9.756 -0.2790 -0.6961  0.0751
  759MPD2    C311211   4.163   3.371   9.668  0.3786 -0.6580 -0.4320
  759MPD2    C411212   4.267   3.285   9.637  0.4462 -0.8201  0.1542
  759MPD2    C511213   4.274   3.170   9.715 -0.1769  0.0848 -0.1724
  759MPD2     H11214   3.978   3.406   9.753  0.4989  0.3237  0.3028
  759MPD2    H111215   4.344   3.306   9.564 -0.6895 -1.2417 -1.1720
  759MPD2    H211216   4.165   3.027   9.829 -1.9126  1.3927  0.3296
  759MPD2    H311217   4.361   3.105   9.718  1.4881  2.3279  0.3654
  759MPD2     N11218   4.145   3.489   9.597 -0.3113 -0.0803  0.4125
  759MPD2    H511219   4.057   3.539   9.599 -0.2789  0.0574 -1.6060
  759MPD2    N111220   3.941   3.177   9.876 -0.3100  0.7584 -0.2085
  759MPD2    H711221   3.883   3.260   9.886 -0.1643  0.8793 -0.3523
  760MPD2     C11222   2.931   1.110  11.908  0.3170  0.2729  0.1787
  760MPD2    C111223   3.058   1.147  11.948 -0.5969  0.1046 -0.0397
  760MPD2    C211224   3.141   1.056  12.000 -0.2147 -0.9510 -0.3100
  760MPD2    C311225   3.110   0.923  12.023 -0.2174 -0.1278  0.4212
  760MPD2    C411226   2.976   0.889  11.986 -0.0904 -0.0435  0.8699
  760MPD2    C511227   2.892   0.984  11.939  0.3282  0.1276  0.6252
  760MPD2     H11228   3.242   1.080  12.033 -0.2700  0.5105 -1.2255
  760MPD2    H111229   2.952   0.784  11.980  0.1652 -0.1096  1.0547
  760MPD2    H211230   2.851   1.177  11.878 -1.0634 -0.8532  1.3367
  760MPD2    H311231   2.788   0.956  11.925 -0.1408  1.0819  2.2255
  760MPD2     N11232   3.205   0.828  12.062 -0.3801  0.0811  0.0725
  760MPD2    H511233   3.165   0.735  12.068  1.1207 -0.6298 -0.8440
  760MPD2    N111234   3.103   1.284  11.926 -1.0107  0.1668 -0.2784
  760MPD2    H711235   3.197   1.297  11.961 -1.8163 -0.1526  1.9996
  761MPD2     C11236   4.347   0.775  11.056  0.3196 -0.4491  0.7063
  761MPD2    C111237   4.427   0.667  11.023 -0.7795 -0.0161  0.0631
  761MPD2    C211238   4.560   0.686  11.016  0.0427  0.7329 -0.3897
  761MPD2    C311239   4.610   0.813  11.049  0.2259 -1.3837 -0.1934
  761MPD2    C411240   4.531   0.912  11.098 -0.0744  0.0971 -0.1421
  761MPD2    C511241   4.397   0.894  11.092  0.0551 -0.2743  1.1106
  761MPD2     H11242   4.621   0.609  10.972 -0.2501  0.8104 -0.9295
  761MPD2    H111243   4.578   1.002  11.137  0.7272 -0.3791 -0.0216
  761MPD2    H211244   4.242   0.766  11.081 -0.4156 -2.5895 -3.2524
  761MPD2    H311245   4.325   0.968  11.127 -0.5361 -0.0481 -0.6135
  761MPD2     N11246   0.032   0.840  11.044  0.6546  0.0041 -0.1285
  761MPD2    H511247   0.058   0.925  11.093  0.8167  0.5280 -1.1203
  761MPD2    N111248   4.360   0.550  10.969 -1.1589  0.3094  0.4237
  761MPD2    H711249   4.260   0.539  10.984 -1.3575 -0.1443 -1.2758
  762MPD2     C11250   0.110   0.332  10.736 -0.1581  0.4103  0.6633
  762MPD2    C111251   0.055   0.208  10.706 -0.4064  0.1336 -0.2946
  762MPD2    C211252   0.126   0.131  10.613 -0.1044  0.4003 -0.0343
  762MPD2    C311253   0.257   0.161  10.573  0.4673 -0.4244 -0.0857
  762MPD2    C411254   0.303   0.288  10.609  0.4605 -0.3185  0.9435
  762MPD2    C511255   0.236   0.371  10.694  0.5500  0.1030 -0.6995
  762MPD2     H11256   0.068   0.043  10.591  0.0513  0.2470  0.1645
  762MPD2    H111257   0.406   0.314  10.589 -0.1782  1.6015  0.0990
  762MPD2    H211258   0.050   0.392  10.802  1.0588  1.2702  0.9948
  762MPD2    H311259   0.288   0.461  10.724  0.2301 -0.5681  1.8897
  762MPD2     N11260   0.329   0.063  10.504  0.8597  0.2598  0.6766
  762MPD2    H511261   0.273   4.703  10.483  0.3255  1.1089 -1.2633
  762MPD2    N111262   4.652   0.189  10.760 -0.0329 -0.0412  0.1300
  762MPD2    H711263   4.621   0.271  10.811 -0.2182 -0.6239  0.9454
  763MPD2     C11264   2.045   1.181  16.224  0.1647  0.8970 -0.8221
  763MPD2    C111265   1.935   1.256  16.168 -0.7514 -0.5383  0.2060
  763MPD2    C211266   1.925   1.391  16.202 -0.4371  0.0019  0.5780
  763MPD2    C311267   2.026   1.451  16.284 -0.1145 -0.1660 -0.4002
  763MPD2    C411268   2.135   1.373  16.327  0.6686 -0.2686 -0.0493
  763MPD2    C511269   2.136   1.242  16.298  0.0674 -0.0726 -0.0747
  763MPD2     H11270   1.837   1.448  16.178  0.7134  0.7993 -1.7281
  763MPD2    H111271   2.213   1.408  16.393  0.5005  1.6109 -0.8574
  763MPD2    H211272   2.062   1.076  16.206 -0.8704  0.6210 -0.1909
  763MPD2    H311273   2.219   1.181  16.333 -0.7044 -0.7772  0.5390
  763MPD2     N11274   2.015   1.579  16.350 -0.7009 -0.0758 -0.5694
  763MPD2    H511275   2.097   1.605  16.404 -1.4614  1.0988  0.0273
  763MPD2    N111276   1.850   1.199  16.068  0.0373 -0.2019 -0.8742
  763MPD2    H711277   1.788   1.263  16.019 -2.1228 -1.1185  0.6845
  764MPD2     C11278   4.083   3.019   0.229  1.1534 -1.3701 -0.1733
  764MPD2    C111279   4.009   2.925   0.301 -0.0117  1.0370  0.0893
  764MPD2    C211280   4.027   2.915   0.437 -0.1817  0.7631  0.9797
  764MPD2    C311281   4.131   2.984   0.498  0.3002  0.2861 -0.1576
  764MPD2    C411282   4.215   3.063   0.417 -0.3428 -0.0610 -0.1064
  764MPD2    C511283   4.183   3.089   0.290 -0.3000 -0.5612  0.1405
  764MPD2     H11284   3.969   2.853   0.505 -0.6986 -1.1462 -1.2088
  764MPD2    H111285   4.298   3.117   0.460  0.0799 -0.2079 -0.7256
  764MPD2    H211286   4.068   3.042   0.125 -0.7975 -1.8981 -0.0222
  764MPD2    H311287   4.241   3.159   0.230 -3.8898  0.3344 -2.2592
  764MPD2     N11288   4.155   2.976   0.636 -0.0080 -0.0587  0.2322
  764MPD2    H511289   4.091   2.911   0.682 -0.0723  0.6798  1.1887
  764MPD2    N111290   3.913   2.844   0.245  0.4753 -0.5714  0.6499
  764MPD2    H711291   3.874   2.781   0.314 -1.9724  0.0480 -0.1676
  765MPD2     C11292   4.127   0.034  16.160  0.0428 -0.2181 -0.2118
  765MPD2    C111293   4.183   0.097  16.051  0.1886  0.6594 -0.3890
  765MPD2    C211294   4.294   0.042  15.997  0.8707  0.4856 -0.5954
  765MPD2    C311295   4.340   4.637  16.034  0.9065 -0.4789 -1.0774
  765MPD2    C411296   4.284   4.572  16.143  0.2637 -0.2669  0.3175
  765MPD2    C511297   4.173   4.632  16.201 -0.1649 -0.0575  0.6913
  765MPD2     H11298   4.339   0.078  15.906  0.5983  1.8789 -0.1836
  765MPD2    H111299   4.316   4.475  16.178  0.0145 -0.2918  0.4742
  765MPD2    H211300   4.042   0.078  16.211  2.0592  2.3414  0.9594
  765MPD2    H311301   4.121   4.573  16.275 -1.0593  1.0319  0.9398
  765MPD2     N11302   4.450   4.588  15.966  0.0874 -0.3054 -0.2771
  765MPD2    H511303   4.505   4.640  15.898  0.0815 -0.0542 -0.0915
  765MPD2    N111304   4.128   0.219  16.003  0.0711 -0.4060 -0.0392
  765MPD2    H711305   4.035   0.236  16.039 -0.1751  0.1396 -0.9480
  766MPD2     C11306   3.596   0.372  15.511  0.5999  0.1440  0.7211
  766MPD2    C111307   3.725   0.322  15.536 -0.1738 -0.2123 -0.2016
  766MPD2    C211308   3.777   0.239  15.437 -0.5844  0.0041  0.3391
  766MPD2    C311309   3.700   0.190  15.332 -0.0819  0.4701  0.5820
  766MPD2    C411310   3.575   0.239  15.313  0.4932  0.5176  0.1731
  766MPD2    C511311   3.525   0.331  15.403  0.1929 -0.4580  0.0715
  766MPD2     H11312   3.882   0.211  15.438 -0.0762  1.9119  0.4291
  766MPD2    H111313   3.506   0.206  15.236 -0.2595 -1.2856  1.6248
  766MPD2    H211314   3.546   0.432  15.586 -0.3811 -1.2137  1.1417
  766MPD2    H311315   3.422   0.361  15.393  0.3907 -0.0979 -0.9540
  766MPD2     N11316   3.751   0.098  15.234  0.0899  0.1896  0.5286
  766MPD2    H511317   3.681   0.078  15.163  1.4240  2.9087 -1.5784
  766MPD2    N111318   3.796   0.364  15.650 -0.0847 -0.2583 -0.0616
  766MPD2    H711319   3.880   0.311  15.672  0.4318 -0.8155 -3.4199
  767MPD2     C11320   3.395   0.487  15.088  0.2243 -0.7334  0.3161
  767MPD2    C111321   3.520   0.458  15.053 -0.4056 -0.3832  0.2475
  767MPD2    C211322   3.556   0.362  14.963  0.3532 -1.1259  0.2707
  767MPD2    C311323   3.459   0.307  14.881  0.4714 -0.3714  0.0799
  767MPD2    C411324   3.326   0.329  14.919 -0.5363 -0.1276  0.4227
  767MPD2    C511325   3.300   0.404  15.022 -0.1451  0.3533 -0.0200
  767MPD2     H11326   3.659   0.346  14.934  0.7719  1.5969  0.2531
  767MPD2    H111327   3.245   0.274  14.873  0.3546 -1.6591  0.6670
  767MPD2    H211328   3.360   0.549  15.170  1.1471  0.5251 -0.2409
  767MPD2    H311329   3.196   0.424  15.047  0.6132  1.9929  1.8645
  767MPD2     N11330   3.506   0.228  14.771 -0.2876 -0.1642 -0.5309
  767MPD2    H511331   3.606   0.211  14.762  0.0842  0.8296  1.5351
  767MPD2    N111332   3.623   0.521  15.131 -0.3234  0.2056 -0.4556
  767MPD2    H711333   3.585   0.583  15.202 -0.2259  0.8383 -0.9613
  768MPD2     C11334   0.003   3.428  10.453  0.4081  0.0169  0.1600
  768MPD2    C111335   4.648   3.385  10.563  0.2719  0.8042 -0.8433
  768MPD2    C211336   4.704   3.395  10.694 -0.1985 -0.5012 -0.5745
  768MPD2    C311337   0.111   3.431  10.703 -0.0962  0.1743 -0.3435
  768MPD2    C411338   0.186   3.467  10.595 -0.3508 -0.6942  0.4351
  768MPD2    C511339   0.134   3.473  10.473 -0.3101  0.4182 -0.4416
  768MPD2     H11340   4.647   3.372  10.783 -0.3735 -0.3812 -0.6557
  768MPD2    H111341   0.292   3.487  10.607 -0.8383  2.5200 -0.7088
  768MPD2    H211342   4.678   3.434  10.355 -0.1736  2.3816  0.5888
  768MPD2    H311343   0.204   3.493  10.393 -1.3119  0.2762 -1.3643
  768MPD2     N11344   0.178   3.421  10.832 -0.0854  0.2539 -0.1055
  768MPD2    H511345   0.260   3.479  10.844 -1.1665  1.9556 -1.0949
  768MPD2    N111346   4.521   3.322  10.553  0.3869  0.1963 -0.5235
  768MPD2    H711347   4.480   3.278  10.634  0.3831 -1.4356 -1.4053
  769MPD2     C11348   0.740   1.770  14.826 -0.3365 -0.4562  0.9093
  769MPD2    C111349   0.708   1.675  14.920 -0.2355 -0.1028 -1.0968
  769MPD2    C211350   0.755   1.678  15.050  0.1728  0.4433  0.1161
  769MPD2    C311351   0.821   1.788  15.091  0.0423  0.3091 -0.2310
  769MPD2    C411352   0.859   1.887  15.001 -0.4616  0.1058  0.2491
  769MPD2    C511353   0.814   1.876  14.869  0.4668  0.3994  0.1393
  769MPD2     H11354   0.737   1.595  15.117 -1.3052 -0.0479 -0.8833
  769MPD2    H111355   0.913   1.978  15.023  1.2651 -0.7966 -0.2569
  769MPD2    H211356   0.714   1.774  14.721  0.7859  1.3254  0.7085
  769MPD2    H311357   0.843   1.957  14.803 -2.5836  0.0806 -1.5481
  769MPD2     N11358   0.853   1.788  15.234 -0.2928  0.0451  0.4909
  769MPD2    H511359   0.812   1.715  15.292 -1.2627 -0.3196 -0.6574
  769MPD2    N111360   0.651   1.553  14.869 -0.5397  0.2294  0.8539
  769MPD2    H711361   0.625   1.551  14.771  1.5298  1.2377  0.2787
  770MPD2     C11362   4.574   0.810  14.831 -0.1598 -0.1026 -0.5316
  770MPD2    C111363   4.694   0.746  14.793  0.0275  0.8657 -0.2700
  770MPD2    C211364   0.090   0.816  14.784 -0.2519  0.2081  0.0589
  770MPD2    C311365   0.101   0.950  14.822  0.1565 -0.1414  0.2547
  770MPD2    C411366   4.709   1.015  14.869  0.9247  1.0163  1.0339
  770MPD2    C511367   4.589   0.944  14.862  0.4717 -0.1349  0.0330
  770MPD2     H11368   0.175   0.759  14.748  0.5773  0.8578  0.9874
  770MPD2    H111369   4.703   1.111  14.918 -1.4022  1.6556 -0.4979
  770MPD2    H211370   4.481   0.755  14.841  0.8857 -1.7110  0.1693
  770MPD2    H311371   4.505   1.004  14.898  0.3809 -0.8518  1.0285
  770MPD2     N11372   0.230   1.005  14.816  0.0984 -0.1717 -0.8249
  770MPD2    H511373   0.301   0.933  14.811  0.3555 -0.1822  3.2147
  770MPD2    N111374   4.693   0.611  14.773 -0.2071 -0.0616  0.3124
  770MPD2    H711375   0.057   0.573  14.736 -0.8978  0.2203 -1.5411
  771MPD2     C11376   1.526   4.193  13.772 -0.7745  0.3804  0.0097
  771MPD2    C111377   1.491   4.321  13.723 -0.6353  0.4864 -0.1714
  771MPD2    C211378   1.396   4.333  13.623 -0.1530  0.4847 -0.6105
  771MPD2    C311379   1.345   4.221  13.559  0.2492 -0.1137  0.3364
  771MPD2    C411380   1.368   4.096  13.610 -0.4078  0.2011 -0.1608
  771MPD2    C511381   1.459   4.085  13.718 -0.6601  0.0383  0.1375
  771MPD2     H11382   1.374   4.429  13.579 -0.9536  0.3991 -0.3961
  771MPD2    H111383   1.328   4.011  13.556 -0.9367  0.5106 -0.2553
  771MPD2    H211384   1.586   4.170  13.859 -1.1205  2.2124  0.7453
  771MPD2    H311385   1.483   3.988  13.758 -1.8151 -1.4451 -2.7448
  771MPD2     N11386   1.257   4.250  13.446 -0.1810  0.1745  0.3884
  771MPD2    H511387   1.227   4.344  13.420 -0.7207 -0.1162 -0.0329
  771MPD2    N111388   1.540   4.440  13.785  0.0550  0.2878 -0.3020
  771MPD2    H711389   1.486   4.525  13.769  2.6554  1.8549 -0.6635
  772MPD2     C11390   1.376   0.318  14.224 -0.5991 -0.2386 -0.2147
  772MPD2    C111391   1.362   0.226  14.122 -0.5671 -0.0952 -0.5088
  772MPD2    C211392   1.237   0.188  14.088 -0.4935  0.3567  0.4026
  772MPD2    C311393   1.121   0.228  14.160 -0.3100 -0.2175  0.9774
  772MPD2    C411394   1.142   0.329  14.253  0.1864  0.5489  1.1097
  772MPD2    C511395   1.268   0.377  14.285 -0.1667  0.7647 -0.4555
  772MPD2     H11396   1.233   0.131  13.997  0.5613 -0.1222  0.6599
  772MPD2    H111397   1.054   0.360  14.309 -0.7661 -1.9581  1.0126
  772MPD2    H211398   1.475   0.357  14.241 -1.5704  2.3856 -0.4741
  772MPD2    H311399   1.292   0.441  14.369  2.4224 -0.8516  0.0035
  772MPD2     N11400   0.995   0.180  14.134 -0.1289 -0.1621 -0.0294
  772MPD2    H511401   0.919   0.219  14.189 -1.1238  0.4470 -1.8273
  772MPD2    N111402   1.462   0.147  14.054  0.1130 -0.9800 -0.8243
  772MPD2    H711403   1.430   0.082  13.983 -2.7258  0.1586 -0.6004
  773MPD2     C11404   0.485   0.858   0.206  0.2658  0.1444 -0.3994
  773MPD2    C111405   0.456   0.853   0.073  0.5094  0.2319 -0.1394
  773MPD2    C211406   0.526   0.770  17.677  0.2615  0.2667 -0.5755
  773MPD2    C311407   0.606   0.676   0.036  0.2580  0.0077 -0.3314
  773MPD2    C411408   0.638   0.672   0.173 -0.3183 -0.1131  0.1822
  773MPD2    C511409   0.570   0.760   0.248 -0.1478 -0.4679 -0.3275
  773MPD2     H11410   0.500   0.787  17.573 -2.8070 -0.6647  0.0412
  773MPD2    H111411   0.708   0.598   0.211 -2.1943  0.2034  4.2144
  773MPD2    H211412   0.419   0.916   0.270  0.0833 -0.1194 -0.3479
  773MPD2    H311413   0.578   0.753   0.356 -1.3314 -1.0123 -0.2792
  773MPD2     N11414   0.666   0.588  17.632 -0.0066 -0.7260  0.4702
  773MPD2    H511415   0.648   0.596  17.532 -0.4833 -0.0193  0.6176
  773MPD2    N111416   0.353   0.936   0.022  0.2222 -0.0491  0.5982
  773MPD2    H711417   0.331   0.919  17.617  0.7136 -1.9905  0.8194
  774MPD2     C11418   4.322   4.645  13.062  1.0713  0.6158 -0.1064
  774MPD2    C111419   4.432   4.658  13.138 -0.5160  0.2271 -0.6597
  774MPD2    C211420   4.507   0.048  13.135  0.4256 -0.1428 -1.3186
  774MPD2    C311421   4.474   0.155  13.053  0.0945  0.0729 -0.4042
  774MPD2    C411422   4.363   0.140  12.974 -0.9700 -0.4193 -0.5993
  774MPD2    C511423   4.293   0.022  12.978  0.2325 -0.0766  0.6027
  774MPD2     H11424   4.586   0.066  13.207 -0.6806 -1.8501  0.3238
  774MPD2    H111425   4.330   0.207  12.895  1.0379 -0.3328 -1.3695
  774MPD2    H211426   4.258   4.558  13.075  1.5137  0.3946  0.6200
  774MPD2    H311427   4.204   0.016  12.915  0.4328  0.7618  0.2409
  774MPD2     N11428   4.559   0.268  13.043 -0.6320 -0.3164  0.2627
  774MPD2    H511429   4.646   0.271  13.095 -1.0535  1.5925  0.8340
  774MPD2    N111430   4.455   4.542  13.215  0.0633  0.0895 -0.5613
  774MPD2    H711431   4.396   4.461  13.204  1.9418 -1.1781 -1.3266
  775MPD2     C11432   0.994   1.729  15.998  0.4666  0.1928  0.3923
  775MPD2    C111433   0.970   1.856  16.037 -0.6103 -0.1206 -0.0118
  775MPD2    C211434   1.064   1.960  16.006 -0.4144 -0.4943 -0.4027
  775MPD2    C311435   1.174   1.938  15.927 -0.3558 -0.4546  0.3718
  775MPD2    C411436   1.188   1.808  15.876 -0.0402 -0.3404  0.4989
  775MPD2    C511437   1.108   1.704  15.919  0.0123 -0.3279  0.2763
  775MPD2     H11438   1.050   2.059  16.050  0.0644  0.2300 -1.8967
  775MPD2    H111439   1.271   1.778  15.813 -0.7272 -1.0342 -0.0766
  775MPD2    H211440   0.937   1.642  16.028  1.0242  0.1688  1.3985
  775MPD2    H311441   1.136   1.604  15.889  0.3033 -0.6151  1.4663
  775MPD2     N11442   1.270   2.038  15.899 -0.3534  0.4062 -0.9609
  775MPD2    H511443   1.355   2.003  15.858 -0.0623  0.4643 -0.4085
  775MPD2    N111444   0.850   1.885  16.109  0.1618 -0.2708  0.6286
  775MPD2    H711445   0.793   1.803  16.129  1.0129 -1.0052  0.0118
  776MPD2     C11446   4.623   1.822  11.779  0.0483  0.6386  0.5586
  776MPD2    C111447   0.036   1.811  11.776  0.0501  0.7045  0.0898
  776MPD2    C211448   0.113   1.902  11.710  0.1082  0.1105  0.3218
  776MPD2    C311449   0.048   1.993  11.631  0.1071  0.9278  0.8322
  776MPD2    C411450   4.634   2.001  11.633  0.0230 -0.1700  0.5116
  776MPD2    C511451   4.563   1.920  11.703  0.3470 -0.2746  0.2503
  776MPD2     H11452   0.220   1.888  11.710 -0.0297 -1.0118  1.3336
  776MPD2    H111453   4.583   2.078  11.577  0.4667 -0.9656 -0.9676
  776MPD2    H211454   4.557   1.752  11.829  0.0950  0.9863  1.1043
  776MPD2    H311455   4.456   1.927  11.690  0.1311 -1.3973  1.4067
  776MPD2     N11456   0.111   2.078  11.547 -0.4780 -0.0864 -0.0643
  776MPD2    H511457   0.064   2.101  11.460 -1.3219  0.5186  0.5496
  776MPD2    N111458   0.090   1.704  11.844 -0.0219  0.0899 -0.6064
  776MPD2    H711459   0.027   1.643  11.896 -1.0947  2.1155  0.4843
  777MPD2     C11460   0.263   0.450   0.936  0.2419  0.6023  0.2840
  777MPD2    C111461   0.328   0.390   1.043 -0.4106  0.2720  0.8606
  777MPD2    C211462   0.406   0.279   1.025 -0.3940 -0.0827  0.3284
  777MPD2    C311463   0.428   0.226   0.903 -0.6280  1.1155 -0.1112
  777MPD2    C411464   0.384   0.300   0.799 -0.4161 -0.9913 -0.2626
  777MPD2    C511465   0.297   0.410   0.807 -0.2738  0.9745 -0.2301
  777MPD2     H11466   0.434   0.227   1.116  1.9710 -0.2869 -0.5088
  777MPD2    H111467   0.393   0.269   0.696  0.0812  1.5974 -0.9968
  777MPD2    H211468   0.206   0.541   0.949 -2.3357 -1.0423  0.4727
  777MPD2    H311469   0.257   0.463   0.721 -1.2054 -2.0421 -1.6504
  777MPD2     N11470   0.504   0.104   0.885  0.4218  0.1565  0.0813
  777MPD2    H511471   0.528   0.052   0.969 -1.8648 -2.1561 -0.7004
  777MPD2    N111472   0.315   0.451   1.172  0.0124 -0.1810  0.0791
  777MPD2    H711473   0.237   0.514   1.187  0.5027  0.4024  0.2198
  778MPD2     C11474   1.913   0.124  15.379 -0.3270 -0.1442  0.4724
  778MPD2    C111475   1.896   0.056  15.258  0.4224  0.8004  0.2521
  778MPD2    C211476   1.933   0.118  15.137 -0.3677 -0.5616  0.2869
  778MPD2    C311477   1.998   0.246  15.147  0.7768 -0.2913 -0.4552
  778MPD2    C411478   2.015   0.309  15.263  0.7730  0.0288  0.3481
  778MPD2    C511479   1.969   0.252  15.379  0.1843  0.3254  0.7197
  778MPD2     H11480   1.927   0.072  15.039  0.6871 -1.2302  0.5417
  778MPD2    H111481   2.063   0.406  15.271 -0.0874  0.3863  1.1479
  778MPD2    H211482   1.877   0.073  15.467  0.0620 -0.9537  0.1643
  778MPD2    H311483   1.987   0.293  15.478 -0.0268 -0.7084  1.1789
  778MPD2     N11484   2.034   0.307  15.022 -0.0383  0.0507  0.7692
  778MPD2    H511485   2.038   0.236  14.949  1.5117  0.0020  0.8881
  778MPD2    N111486   1.842   4.648  15.248 -0.2844 -0.5030 -0.0597
  778MPD2    H711487   1.822   4.605  15.158 -0.0268 -2.3104  0.7520
  779MPD2     C11488   1.447   3.606  14.342  0.7960 -0.4180  0.0785
  779MPD2    C111489   1.558   3.533  14.379 -0.4019  0.1791 -0.6220
  779MPD2    C211490   1.680   3.595  14.399 -0.2338 -0.9316  0.2287
  779MPD2    C311491   1.687   3.734  14.387 -0.5569  0.2890 -0.6902
  779MPD2    C411492   1.569   3.810  14.354  0.1997  0.1516 -1.0574
  779MPD2    C511493   1.455   3.737  14.326 -0.4850 -0.3976  0.0272
  779MPD2     H11494   1.768   3.537  14.426  1.1454  1.2693  0.4200
  779MPD2    H111495   1.579   3.916  14.335  0.4692  0.5678  1.4639
  779MPD2    H211496   1.354   3.554  14.320  0.6339  0.1607 -0.6162
  779MPD2    H311497   1.370   3.793  14.288  1.6133  0.3766 -3.4674
  779MPD2     N11498   1.812   3.797  14.402  0.7494 -0.7160  0.1631
  779MPD2    H511499   1.883   3.730  14.428 -2.0931 -3.9431 -0.3477
  779MPD2    N111500   1.555   3.392  14.378  0.4280  0.2881  0.1819
  779MPD2    H711501   1.644   3.346  14.369  0.2478 -0.0339  0.0470
  780MPD2     C11502   4.616   3.601   0.785 -0.6469 -0.0431  0.5391
  780MPD2    C111503   4.696   3.495   0.747 -0.0514 -0.6001  0.0466
  780MPD2    C211504   0.085   3.515   0.668  0.2820 -0.3746  0.1869
  780MPD2    C311505   0.112   3.641   0.629  0.0098 -0.2093  0.0704
  780MPD2    C411506   0.031   3.748   0.655  0.2830 -0.1240 -0.0526
  780MPD2    C511507   4.641   3.729   0.737  0.4811  0.4831 -0.0727
  780MPD2     H11508   0.150   3.433   0.639 -0.8692 -1.3959  0.4827
  780MPD2    H111509   0.057   3.848   0.622 -0.6082  0.2926  0.5229
  780MPD2    H211510   4.529   3.595   0.850 -0.1920 -0.9091  1.0612
  780MPD2    H311511   4.589   3.820   0.767 -2.6083 -1.6826  1.0961
  780MPD2     N11512   0.227   3.650   0.552 -0.7197 -0.2339 -0.8498
  780MPD2    H511513   0.277   3.564   0.531  0.1970  0.1932 -0.4636
  780MPD2    N111514   4.665   3.370   0.805  0.1333  0.0081 -0.4505
  780MPD2    H711515   4.592   3.355   0.873  1.5926 -1.9473  0.7189
  781MPD2     C11516   2.713   0.000  12.161 -1.4215 -0.0298 -0.0536
  781MPD2    C111517   2.760   0.124  12.151 -0.2567 -0.0649  0.3636
  781MPD2    C211518   2.889   0.142  12.088 -0.2659  0.4691  0.0493
  781MPD2    C311519   2.961   0.036  12.030 -0.8223  0.4695 -1.1585
  781MPD2    C411520   2.900   4.635  12.040  0.1831 -0.2385 -0.0807
  781MPD2    C511521   2.781   4.621  12.103 -0.3658  0.2298 -0.1256
  781MPD2     H11522   2.930   0.242  12.095  0.5172  0.1283  0.3456
  781MPD2    H111523   2.959   4.550  12.011  0.1906  0.4885 -2.1851
  781MPD2    H211524   2.622   4.697  12.215 -2.5401  0.7661 -1.5381
  781MPD2    H311525   2.750   4.518  12.116 -1.0184  0.4790  0.3046
  781MPD2     N11526   3.084   0.045  11.961 -0.6933  0.1231  0.1229
  781MPD2    H511527   3.132   4.683  11.932  2.1309  1.4264  0.9908
  781MPD2    N111528   2.708   0.235  12.220  0.3132  0.7612  0.5671
  781MPD2    H711529   2.767   0.318  12.220 -1.9060  2.3639 -1.4152
  782MPD2     C11530   0.611   1.460  10.402  0.3461 -0.0395  0.3259
  782MPD2    C111531   0.734   1.400  10.379  0.5483  0.1768 -0.5181
  782MPD2    C211532   0.837   1.413  10.473 -0.5705 -0.3854 -0.4271
  782MPD2    C311533   0.813   1.488  10.591 -0.3329 -0.3020  0.0197
  782MPD2    C411534   0.691   1.554  10.606 -1.1338  0.5689  0.7762
  782MPD2    C511535   0.593   1.536  10.510 -0.1365  0.1193 -0.8584
  782MPD2     H11536   0.927   1.354  10.465  0.8128  1.8615 -1.2680
  782MPD2    H111537   0.669   1.619  10.690  2.6774  1.5083  1.0879
  782MPD2    H211538   0.533   1.434  10.332 -1.2594  2.6638  1.1588
  782MPD2    H311539   0.494   1.578  10.520 -0.3003 -0.1105 -1.5284
  782MPD2     N11540   0.918   1.488  10.691 -0.2139 -0.5705  0.4005
  782MPD2    H511541   1.002   1.431  10.683  0.4569  0.3003  1.2914
  782MPD2    N111542   0.743   1.315  10.259  0.0326 -0.0785  0.4155
  782MPD2    H711543   0.657   1.285  10.214  1.1271  0.8580 -2.2686
  783MPD2     C11544   0.598   0.555  10.568  0.2815  0.2915 -0.2468
  783MPD2    C111545   0.613   0.686  10.605 -0.0872  0.4318 -0.7246
  783MPD2    C211546   0.663   0.770  10.507  0.3295 -0.6112  0.0495
  783MPD2    C311547   0.686   0.731  10.376  0.4697 -0.4787  0.1634
  783MPD2    C411548   0.665   0.600  10.340 -0.7617  0.3728 -0.1311
  783MPD2    C511549   0.624   0.515  10.438  0.3187  0.7450  0.5630
  783MPD2     H11550   0.676   0.872  10.539 -0.3889  0.3045 -2.6119
  783MPD2    H111551   0.681   0.559  10.241 -2.6979 -0.5833 -0.0563
  783MPD2    H211552   0.557   0.491  10.646 -0.3754  1.2820  0.2364
  783MPD2    H311553   0.623   0.409  10.413 -0.4981  0.5643  1.3583
  783MPD2     N11554   0.736   0.833  10.295  0.1788  0.0579 -0.2079
  783MPD2    H511555   0.749   0.924  10.338  0.9484 -0.8879  1.5765
  783MPD2    N111556   0.554   0.731  10.726 -0.1733  0.4505  0.5503
  783MPD2    H711557   0.503   0.661  10.779 -0.6762 -1.1631 -2.0825
  784MPD2     C11558   2.940   1.415   1.334  0.3430 -0.2648 -0.1929
  784MPD2    C111559   2.972   1.545   1.347  0.4975  0.4767  0.3259
  784MPD2    C211560   2.867   1.635   1.346  0.3275 -1.0485 -0.2987
  784MPD2    C311561   2.740   1.596   1.335  0.3021 -0.0122  0.1233
  784MPD2    C411562   2.708   1.461   1.334  0.7421 -0.9768  0.9884
  784MPD2    C511563   2.813   1.371   1.336 -0.1634 -0.2118 -0.2041
  784MPD2     H11564   2.894   1.739   1.356  2.1870 -1.6460  0.8324
  784MPD2    H111565   2.606   1.425   1.326  0.1481  0.6103  1.3748
  784MPD2    H211566   3.022   1.344   1.319 -1.0230 -1.7540 -0.6004
  784MPD2    H311567   2.786   1.266   1.343 -0.4375 -0.1284 -0.0346
  784MPD2     N11568   2.645   1.699   1.321 -0.1806  0.0799 -0.8034
  784MPD2    H511569   2.675   1.794   1.339 -0.1454 -0.0817  0.0201
  784MPD2    N111570   3.104   1.590   1.367 -0.4138  0.4848  0.4136
  784MPD2    H711571   3.112   1.691   1.376 -0.9642  0.3609  2.2785
  785MPD2     C11572   3.383   4.006  10.358  0.9341 -0.0804  0.2643
  785MPD2    C111573   3.299   4.113  10.382 -0.0591  0.0758 -0.5194
  785MPD2    C211574   3.166   4.103  10.339  0.0075 -0.3120  0.4399
  785MPD2    C311575   3.134   4.002  10.249  0.4294  0.6185 -0.0412
  785MPD2    C411576   3.228   3.904  10.216 -1.0242  0.3152  0.1548
  785MPD2    C511577   3.351   3.906  10.274 -0.1917 -0.3305 -0.2514
  785MPD2     H11578   3.093   4.179  10.364 -1.2837 -1.2151 -0.5432
  785MPD2    H111579   3.214   3.824  10.144  1.6316  0.5872 -0.6901
  785MPD2    H211580   3.487   4.011  10.388  0.5276 -2.5321  2.1707
  785MPD2    H311581   3.421   3.826  10.250 -1.8603 -1.8191 -0.2053
  785MPD2     N11582   3.003   4.009  10.193 -0.0971 -0.2967  0.1249
  785MPD2    H511583   2.946   4.083  10.232  1.9507  2.6693 -2.5273
  785MPD2    N111584   3.337   4.220  10.467  0.0019 -0.3436 -0.2446
  785MPD2    H711585   3.433   4.215  10.501  0.2551  0.0238 -0.9038
  786MPD2     C11586   1.514   2.646  14.694 -0.6128  0.1055 -0.3448
  786MPD2    C111587   1.632   2.575  14.681  0.0859  0.1764 -0.1813
  786MPD2    C211588   1.716   2.568  14.784  0.0438 -0.2154  0.4751
  786MPD2    C311589   1.684   2.623  14.909 -0.2677  0.1860  0.1024
  786MPD2    C411590   1.575   2.706  14.915 -0.0075 -0.0301  0.1715
  786MPD2    C511591   1.490   2.712  14.813 -0.0259 -0.7136 -0.5430
  786MPD2     H11592   1.804   2.506  14.771 -0.6006 -0.7764 -1.2467
  786MPD2    H111593   1.548   2.760  15.005  1.0728 -1.2697  1.2338
  786MPD2    H211594   1.448   2.663  14.610  1.8910 -2.4216 -2.8222
  786MPD2    H311595   1.405   2.779  14.820  1.3857  1.5191 -4.6014
  786MPD2     N11596   1.757   2.603  15.027 -0.0751 -0.1983  0.4485
  786MPD2    H511597   1.720   2.652  15.108 -0.8457 -1.0023  0.5858
  786MPD2    N111598   1.665   2.502  14.569 -0.2216 -0.3076 -0.5190
  786MPD2    H711599   1.757   2.459  14.576 -0.4901 -0.1974  3.6519
  787MPD2     C11600   1.686   1.782  14.608 -0.1341 -0.3783  0.2704
  787MPD2    C111601   1.774   1.883  14.598 -0.4403 -1.0054 -0.5732
  787MPD2    C211602   1.886   1.892  14.682 -0.0633  0.1300  0.4159
  787MPD2    C311603   1.913   1.793  14.770 -0.4412 -0.0515  0.8589
  787MPD2    C411604   1.817   1.687  14.781  0.8251 -0.1750  0.3445
  787MPD2    C511605   1.697   1.688  14.703 -0.2953 -0.1153  0.0935
  787MPD2     H11606   1.962   1.967  14.661 -0.2446 -0.4820 -2.4455
  787MPD2    H111607   1.831   1.613  14.859  1.0381 -1.4648 -0.9246
  787MPD2    H211608   1.609   1.779  14.532 -1.7495 -0.2386  1.8929
  787MPD2    H311609   1.631   1.603  14.700  0.3618 -0.6675  1.0913
  787MPD2     N11610   2.026   1.804  14.847  0.1676  0.3176 -0.2093
  787MPD2    H511611   2.088   1.881  14.827 -2.9236  2.3131 -1.9602
  787MPD2    N111612   1.738   1.976  14.491 -0.1368  0.1864  0.6044
  787MPD2    H711613   1.647   1.970  14.447  0.9845 -0.7888 -1.5574
  788MPD2     C11614   3.046   0.973   1.246 -0.2958 -0.2326 -1.3179
  788MPD2    C111615   3.154   0.890   1.265  0.4082 -0.1298 -0.2301
  788MPD2    C211616   3.275   0.934   1.216 -0.7999 -0.1532 -0.0883
  788MPD2    C311617   3.289   1.055   1.152  0.0463  0.1599 -0.9107
  788MPD2    C411618   3.183   1.143   1.141 -0.3040  0.9433  0.3054
  788MPD2    C511619   3.062   1.098   1.187  0.1776  0.0205 -0.0378
  788MPD2     H11620   3.357   0.864   1.206 -0.6242  0.4877 -3.0918
  788MPD2    H111621   3.192   1.238   1.091  1.7525  1.4937  1.7183
  788MPD2    H211622   2.952   0.944   1.290  1.2059 -0.6212  1.6207
  788MPD2    H311623   2.976   1.163   1.188 -0.1557 -0.4294  0.9728
  788MPD2     N11624   3.414   1.099   1.105 -0.3164 -0.4110 -0.0263
  788MPD2    H511625   3.400   1.169   1.033 -1.1067 -0.0247  0.4889
  788MPD2    N111626   3.121   0.761   1.314  0.0420  0.2055  0.6540
  788MPD2    H711627   3.024   0.734   1.326 -0.5286  2.3984  0.9000
  789MPD2     C11628   4.329   0.683  16.599 -0.1669  0.5874  0.1426
  789MPD2    C111629   4.269   0.640  16.718 -0.1791 -0.6750  0.1196
  789MPD2    C211630   4.146   0.695  16.754  0.4766  0.2628 -0.2703
  789MPD2    C311631   4.083   0.788  16.670 -0.0670  0.5020 -0.5215
  789MPD2    C411632   4.136   0.817  16.550  0.2156  0.0239 -0.0107
  789MPD2    C511633   4.257   0.772  16.515  0.2735 -0.0854 -0.5812
  789MPD2     H11634   4.107   0.665  16.851  0.3554  0.9124 -0.1187
  789MPD2    H111635   4.094   0.899  16.494  0.7613  0.9425  0.9156
  789MPD2    H211636   4.430   0.650  16.578 -0.6648 -1.7809  1.3786
  789MPD2    H311637   4.302   0.812  16.426  1.3056  1.7369  0.7608
  789MPD2     N11638   3.956   0.849  16.704 -0.3814  0.0095 -0.0895
  789MPD2    H511639   3.908   0.906  16.635 -1.3487  0.3648  0.8713
  789MPD2    N111640   4.333   0.545  16.803 -0.0762  0.1523  0.8458
  789MPD2    H711641   4.296   0.530  16.896 -0.7119 -1.7862  0.2776
  790MPD2     C11642   0.107   2.249  13.627  0.4862 -0.1940  0.1310
  790MPD2    C111643   0.187   2.145  13.618 -0.2458  0.4868  0.1217
  790MPD2    C211644   0.161   2.063  13.504  1.0797 -0.0478 -0.2361
  790MPD2    C311645   0.057   2.090  13.417 -0.0182  0.8026  0.3193
  790MPD2    C411646   4.699   2.200  13.437 -0.1714  0.5983  0.0537
  790MPD2    C511647   0.008   2.286  13.544  0.2224 -0.0443  0.0381
  790MPD2     H11648   0.218   1.972  13.491  3.2281  1.3720 -0.8443
  790MPD2    H111649   4.605   2.230  13.392 -0.9781  0.5384  1.6965
  790MPD2    H211650   0.124   2.326  13.702  2.3366  0.4020 -0.9093
  790MPD2    H311651   4.667   2.369  13.573  0.9095  0.4815  0.0385
  790MPD2     N11652   0.031   2.003  13.310  0.2639  0.2951 -0.3697
  790MPD2    H511653   0.082   1.915  13.306  0.0877  0.0860  2.0193
  790MPD2    N111654   0.290   2.145  13.716  0.0883  0.0839 -0.1736
  790MPD2    H711655   0.276   2.212  13.791  0.6786  1.6799 -1.4928
  791MPD2     C11656   4.185   2.042  12.766 -0.1086  0.4263  0.3815
  791MPD2    C111657   4.231   1.915  12.788 -0.0913 -0.1649 -0.8005
  791MPD2    C211658   4.150   1.804  12.776  0.2657 -0.7934 -0.0981
  791MPD2    C311659   4.028   1.827  12.710  0.0095 -0.1461 -0.4836
  791MPD2    C411660   3.978   1.957  12.672  0.6739  0.5774  0.9402
  791MPD2    C511661   4.060   2.063  12.709 -0.0037  0.3289  0.2355
  791MPD2     H11662   4.187   1.707  12.808  0.7214 -0.2630  0.9894
  791MPD2    H111663   3.879   1.977  12.634  0.1703  0.2379  2.0788
  791MPD2    H211664   4.237   2.129  12.805 -0.6937  0.4026  1.1978
  791MPD2    H311665   4.013   2.161  12.705  0.6832  0.7243  1.6330
  791MPD2     N11666   3.949   1.715  12.684  0.2777 -0.3949 -0.3976
  791MPD2    H511667   4.001   1.629  12.698  0.8865  0.0541  0.1283
  791MPD2    N111668   4.345   1.911  12.865 -0.0647  0.1343  0.0843
  791MPD2    H711669   4.384   1.993  12.910  0.5752  0.0996 -0.3961
  792MPD2     C11670   0.348   1.759  11.416 -0.3305 -0.4553 -0.0602
  792MPD2    C111671   0.392   1.747  11.285  0.1258 -0.0334 -0.5247
  792MPD2    C211672   0.343   1.642  11.210 -0.2157  0.5191 -0.1580
  792MPD2    C311673   0.249   1.553  11.263 -0.3144  0.2379 -0.9553
  792MPD2    C411674   0.213   1.568  11.395  0.0126 -0.1763 -0.6207
  792MPD2    C511675   0.270   1.670  11.472  0.0213 -0.1278 -0.1121
  792MPD2     H11676   0.376   1.618  11.109  1.8943  0.5670  0.5093
  792MPD2    H111677   0.141   1.500  11.440 -0.0555  1.4971  1.7800
  792MPD2    H211678   0.389   1.843  11.472  0.7376 -0.6388 -0.5644
  792MPD2    H311679   0.250   1.677  11.578  0.9978 -0.2875  0.0779
  792MPD2     N11680   0.195   1.456  11.181 -0.7504 -0.0404 -0.1450
  792MPD2    H511681   0.230   1.448  11.086  0.1710 -0.0995  0.1999
  792MPD2    N111682   0.486   1.834  11.222 -0.3026  0.4169  0.0827
  792MPD2    H711683   0.536   1.902  11.278  1.0159 -0.8916  0.5094
  793MPD2     C11684   4.330   1.533  10.486 -0.9164 -0.4385  0.2728
  793MPD2    C111685   4.469   1.527  10.469 -0.1760 -0.7677 -0.4179
  793MPD2    C211686   4.531   1.448  10.556 -0.2043  0.5782  0.3162
  793MPD2    C311687   4.475   1.390  10.668 -0.2660 -0.4231  0.2923
  793MPD2    C411688   4.340   1.423  10.697 -0.2926  0.2405 -0.2124
  793MPD2    C511689   4.271   1.493  10.600  0.1441 -0.6545 -0.1149
  793MPD2     H11690   4.632   1.418  10.532  0.2693  2.8893 -0.5764
  793MPD2    H111691   4.281   1.378  10.776  1.2903  1.1114  1.4599
  793MPD2    H211692   4.260   1.581  10.419  0.4447  1.5505  0.2651
  793MPD2    H311693   4.166   1.518  10.609  0.3861  0.6752 -0.9577
  793MPD2     N11694   4.555   1.321  10.757  0.5599  0.4257 -0.2344
  793MPD2    H511695   4.650   1.307  10.725  0.3675  0.1546 -0.6758
  793MPD2    N111696   4.538   1.579  10.352  0.4760 -0.5677  0.0144
  793MPD2    H711697   4.636   1.553  10.344  0.5106 -0.1076 -1.0653
  794MPD2     C11698   4.438   1.544   0.093 -0.1617  0.0213 -0.3021
  794MPD2    C111699   4.418   1.456  17.680 -0.3179 -0.4525 -0.1722
  794MPD2    C211700   4.314   1.468  17.590 -0.1514  1.0388  0.3002
  794MPD2    C311701   4.243   1.589  17.597  0.1820 -0.0136 -0.1243
  794MPD2    C411702   4.246   1.664   0.017 -0.3290 -0.1555  0.3864
  794MPD2    C511703   4.340   1.641   0.115  0.9820  0.1174 -0.5065
  794MPD2     H11704   4.281   1.385  17.528  1.1580  1.3832 -0.8468
  794MPD2    H111705   4.178   1.748   0.020  0.0549  0.2308 -1.5907
  794MPD2    H211706   4.517   1.524   0.165 -1.0535  0.4300  0.8045
  794MPD2    H311707   4.353   1.709   0.199 -1.4671 -1.8761  1.4998
  794MPD2     N11708   4.151   1.636  17.502  0.2280 -0.4303 -0.3628
  794MPD2    H511709   4.114   1.729  17.519 -0.3222 -0.8600  0.8139
  794MPD2    N111710   4.501   1.342  17.666 -0.3359 -0.8069  0.4730
  794MPD2    H711711   4.466   1.278  17.595  0.4672 -0.0090 -0.6413
  795MPD2     C11712   2.465   3.299  13.600  0.8152 -0.8312 -0.3653
  795MPD2    C111713   2.365   3.213  13.626 -0.1957  0.0384 -0.2853
  795MPD2    C211714   2.398   3.079  13.643  0.0179  0.0959 -0.2657
  795MPD2    C311715   2.532   3.035  13.636  0.1171 -0.2790 -0.6215
  795MPD2    C411716   2.628   3.127  13.620 -0.0015 -0.3409  0.2279
  795MPD2    C511717   2.597   3.262  13.604 -1.2697  0.1408  0.4091
  795MPD2     H11718   2.322   3.002  13.658  0.3544 -0.1476  0.1895
  795MPD2    H111719   2.731   3.092  13.624  0.8139  2.0407 -0.3554
  795MPD2    H211720   2.443   3.405  13.595  0.6227 -0.7805  1.7298
  795MPD2    H311721   2.674   3.337  13.594  0.0748 -1.0417  1.7856
  795MPD2     N11722   2.553   2.891  13.640  0.0356  0.4304  0.4899
  795MPD2    H511723   2.470   2.838  13.665  1.6684 -2.5261 -0.2841
  795MPD2    N111724   2.228   3.252  13.642  0.2693  0.1208  0.0598
  795MPD2    H711725   2.164   3.182  13.678  1.3232 -1.8600 -1.9330
  796MPD2     C11726   2.254   0.944  15.813  0.0542 -0.3437  0.6377
  796MPD2    C111727   2.297   1.022  15.922 -0.1070  1.1160 -0.0030
  796MPD2    C211728   2.251   1.154  15.929  0.0548 -0.2703  0.1110
  796MPD2    C311729   2.154   1.198  15.844  0.1845 -0.0028  0.6498
  796MPD2    C411730   2.105   1.116  15.741  0.0133  0.2309 -0.5928
  796MPD2    C511731   2.154   0.987  15.733 -0.0678 -0.2354 -0.2254
  796MPD2     H11732   2.290   1.224  16.001  0.7678  0.3672 -0.8936
  796MPD2    H111733   2.049   1.155  15.657 -1.1744 -1.4626 -0.6044
  796MPD2    H211734   2.286   0.840  15.815 -0.2706 -0.4567 -0.0853
  796MPD2    H311735   2.118   0.915  15.660  0.3263 -0.9678  0.3020
  796MPD2     N11736   2.126   1.334  15.858 -0.3429 -0.6547  0.9198
  796MPD2    H511737   2.191   1.384  15.916 -0.0385 -0.3850  0.3489
  796MPD2    N111738   2.378   0.964  16.020  0.7537  0.5392 -0.4867
  796MPD2    H711739   2.386   0.863  16.026 -2.0238  0.2691 -1.4883
  797MPD2     C11740   2.889   0.054  17.382  0.3564 -0.0435 -0.0121
  797MPD2    C111741   3.023   0.095  17.383 -0.1339  0.2681 -0.0304
  797MPD2    C211742   3.069   0.206  17.318 -0.0763 -0.5659 -0.1120
  797MPD2    C311743   2.974   0.283  17.255  0.2475  0.2320  0.0007
  797MPD2    C411744   2.839   0.248  17.256  0.0630  0.1548 -0.2654
  797MPD2    C511745   2.803   0.133  17.321  0.3752 -1.1366 -0.6278
  797MPD2     H11746   3.174   0.229  17.326  0.2198 -2.1986  0.8922
  797MPD2    H111747   2.761   0.299  17.200  0.0309  0.6310  0.2118
  797MPD2    H211748   2.857   4.687  17.434 -0.6854 -0.2522 -1.0117
  797MPD2    H311749   2.700   0.099  17.314 -0.0498  0.2153 -1.0852
  797MPD2     N11750   3.032   0.389  17.180 -0.6910 -0.2869  0.0630
  797MPD2    H511751   3.133   0.398  17.186 -0.5736 -0.3043 -2.0682
  797MPD2    N111752   3.129   0.026  17.448 -0.3469 -1.2997  0.2451
  797MPD2    H711753   3.222   0.064  17.430 -0.5883  0.0715  1.8876
  798MPD2     C11754   3.659   0.544  17.380 -0.3332 -0.0626 -0.1700
  798MPD2    C111755   3.546   0.484  17.337 -0.5732 -0.1367 -0.5408
  798MPD2    C211756   3.504   0.367  17.392 -0.2767  0.6261 -0.2662
  798MPD2    C311757   3.587   0.298  17.484 -1.0330 -0.1141 -0.7964
  798MPD2    C411758   3.707   0.357  17.527  0.0486 -0.2990  0.1197
  798MPD2    C511759   3.740   0.479  17.469 -0.0676  0.1804 -0.4540
  798MPD2     H11760   3.408   0.321  17.371 -0.4267  0.8926 -0.1660
  798MPD2    H111761   3.777   0.308  17.593 -0.3762 -0.6537  0.3058
  798MPD2    H211762   3.690   0.640  17.341 -0.3844 -0.6684 -1.6840
  798MPD2    H311763   3.832   0.527  17.500 -0.0840 -0.7358  1.0239
  798MPD2     N11764   3.527   0.179  17.525  0.3637 -0.2324 -0.2203
  798MPD2    H511765   3.439   0.155  17.480  0.1514 -1.1766  0.6774
  798MPD2    N111766   3.473   0.554  17.238  0.6075  0.7324 -0.3863
  798MPD2    H711767   3.511   0.636  17.191 -0.3143  2.7637  2.3901
  799MPD2     C11768   2.383   1.526  14.670  0.6966  0.4567 -0.4451
  799MPD2    C111769   2.251   1.511  14.710  0.1380  0.1878  0.2463
  799MPD2    C211770   2.148   1.567  14.633 -0.8475  0.1946 -0.1326
  799MPD2    C311771   2.186   1.634  14.520  0.8108  0.3402  0.3738
  799MPD2    C411772   2.316   1.660  14.488  1.0018  0.7251 -0.3756
  799MPD2    C511773   2.415   1.605  14.560  0.1512  0.0171  0.0044
  799MPD2     H11774   2.043   1.550  14.655 -0.7802  0.3974  0.3623
  799MPD2    H111775   2.340   1.723  14.403 -1.0187 -0.0649 -1.5529
  799MPD2    H211776   2.472   1.497  14.725  0.2698 -1.7954 -0.9514
  799MPD2    H311777   2.518   1.622  14.531  0.4807  1.6115  2.0808
  799MPD2     N11778   2.090   1.683  14.425  0.0816 -0.0526  0.1145
  799MPD2    H511779   2.120   1.752  14.356  0.7675 -0.8199 -0.3567
  799MPD2    N111780   2.215   1.435  14.830 -0.2868  0.0882 -0.2866
  799MPD2    H711781   2.119   1.409  14.846 -0.1636 -0.6362 -0.7026
  800MPD2     C11782   2.113   2.261  14.165  0.3535  0.3715 -0.0452
  800MPD2    C111783   2.170   2.309  14.051 -0.1782 -0.2774  0.1410
  800MPD2    C211784   2.094   2.314  13.936  0.1679  0.2095 -0.0234
  800MPD2    C311785   1.971   2.252  13.936  0.3970 -0.6434  0.5422
  800MPD2    C411786   1.928   2.184  14.046  0.1315  0.2028  0.9948
  800MPD2    C511787   2.000   2.182  14.161 -0.3123 -0.0104 -0.3303
  800MPD2     H11788   2.134   2.351  13.843  0.0355 -1.6637 -0.8275
  800MPD2    H111789   1.834   2.130  14.041 -0.2079  0.7373  1.6191
  800MPD2    H211790   2.180   2.280  14.248 -0.1456  1.3365  0.1298
  800MPD2    H311791   1.968   2.128  14.249 -0.7147 -0.3615 -0.6883
  800MPD2     N11792   1.905   2.237  13.811 -0.3465  0.1573 -0.1913
  800MPD2    H511793   1.938   2.297  13.736 -2.4567 -0.3667 -1.5528
  800MPD2    N111794   2.307   2.356  14.067  0.2767  0.4432  0.3676
  800MPD2    H711795   2.359   2.339  14.153  0.9763 -1.0956 -0.3472
  801MPD2     C11796   2.676   3.032  13.984 -0.3436  0.1340  0.0011
  801MPD2    C111797   2.632   2.944  14.078  0.1329 -0.1906  0.1953
  801MPD2    C211798   2.545   2.993  14.176  0.2215  0.9631 -0.3464
  801MPD2    C311799   2.502   3.125  14.172  0.3506 -0.3360  0.0642
  801MPD2    C411800   2.564   3.205  14.081  0.0983 -0.3868 -0.5012
  801MPD2    C511801   2.651   3.159  13.987 -0.6742  0.0283 -0.1350
  801MPD2     H11802   2.511   2.920  14.249 -1.0441 -0.2573 -2.1518
  801MPD2    H111803   2.533   3.306  14.102 -1.2302 -1.3399  2.1446
  801MPD2    H211804   2.740   3.005  13.901 -0.1667  0.4622  0.0313
  801MPD2    H311805   2.681   3.212  13.897 -0.8115 -0.9515 -0.7534
  801MPD2     N11806   2.398   3.186  14.251  0.3860 -0.7508 -0.4311
  801MPD2    H511807   2.378   3.281  14.221 -3.1892 -1.1031  0.7810
  801MPD2    N111808   2.638   2.801  14.064 -0.4418  0.3305 -0.6076
  801MPD2    H711809   2.576   2.751  14.127  0.1332 -0.8649 -0.9941
  802MPD2     C11810   1.779   3.104  17.588 -0.9087  0.4108 -0.3124
  802MPD2    C111811   1.792   3.217  17.512  0.1953  0.2788  0.1627
  802MPD2    C211812   1.869   3.213  17.396  0.2248  0.1098  0.1461
  802MPD2    C311813   1.929   3.096  17.355  0.0985  0.7659  0.3809
  802MPD2    C411814   1.911   2.984  17.431  0.1645 -0.1415 -0.2032
  802MPD2    C511815   1.837   2.990  17.543 -0.1236  0.0263 -0.8049
  802MPD2     H11816   1.874   3.300  17.331 -1.1203  1.1642  1.4507
  802MPD2    H111817   1.942   2.882  17.408  0.8708 -0.0231  0.2138
  802MPD2    H211818   1.732   3.102  17.685 -1.1443  1.2481 -0.4094
  802MPD2    H311819   1.820   2.896  17.595 -1.2583  1.1467  0.8196
  802MPD2     N11820   2.009   3.093  17.233 -0.0970  0.6614  0.0684
  802MPD2    H511821   2.017   3.185  17.190  1.2567  0.4999 -0.0297
  802MPD2    N111822   1.734   3.340  17.553  0.1534 -0.0959  0.2538
  802MPD2    H711823   1.766   3.420  17.500  0.4468 -0.4489 -0.1006
  803MPD2     C11824   2.983   1.963  11.661  0.6759 -0.0599 -0.5957
  803MPD2    C111825   3.049   1.929  11.776 -0.0424  0.6806  0.4452
  803MPD2    C211826   2.997   1.832  11.860  0.0269  0.6492 -0.3717
  803MPD2    C311827   2.872   1.776  11.840  0.0328 -0.4001  0.0368
  803MPD2    C411828   2.801   1.822  11.732  0.8329 -0.8464 -0.6426
  803MPD2    C511829   2.861   1.911  11.642 -0.1419 -0.2553  0.1371
  803MPD2     H11830   3.069   1.793  11.931  1.4368  1.3836 -1.4085
  803MPD2    H111831   2.710   1.772  11.701 -0.0554  0.3315  0.0708
  803MPD2    H211832   3.022   2.046  11.602 -0.9868  0.4920 -0.9195
  803MPD2    H311833   2.803   1.959  11.564 -2.6608  0.3850  2.3854
  803MPD2     N11834   2.807   1.669  11.906  0.6977 -0.2072 -0.3158
  803MPD2    H511835   2.716   1.640  11.874  0.5913 -1.8437  1.4820
  803MPD2    N111836   3.168   1.986  11.822 -0.3977 -0.0168  0.6050
  803MPD2    H711837   3.197   1.958  11.915 -2.1754 -0.6423  0.9800
  804MPD2     C11838   2.346   3.361  17.252 -0.4301  0.3315  0.6538
  804MPD2    C111839   2.337   3.369  17.390  0.2762  0.2285  0.0960
  804MPD2    C211840   2.385   3.485  17.459 -1.0324  0.0773  0.6464
  804MPD2    C311841   2.463   3.576  17.392  0.1083 -0.2349 -0.2295
  804MPD2    C411842   2.481   3.560  17.253 -0.4167 -0.2388 -0.2634
  804MPD2    C511843   2.413   3.460  17.186  0.1127 -0.1514 -0.1928
  804MPD2     H11844   2.372   3.495  17.567 -2.6503 -3.1384  0.7557
  804MPD2    H111845   2.548   3.625  17.199 -0.9127  1.4601  1.1454
  804MPD2    H211846   2.310   3.280  17.190  0.9023  0.7658 -0.7024
  804MPD2    H311847   2.433   3.447  17.081 -0.6647  1.5886 -0.5644
  804MPD2     N11848   2.515   3.679  17.471 -0.0460  0.1002  0.2836
  804MPD2    H511849   2.494   3.673  17.571  1.9769 -1.7699  0.6030
  804MPD2    N111850   2.292   3.262  17.467  0.1777  0.5785 -0.3558
  804MPD2    H711851   2.284   3.271  17.568  1.3402  0.7259 -0.2854
  805MPD2     C11852   1.872   1.912  15.602 -0.0905 -0.2612 -0.0915
  805MPD2    C111853   1.973   1.836  15.552  0.4011 -0.8245  0.1401
  805MPD2    C211854   2.101   1.866  15.603  0.1880  0.2425  0.0357
  805MPD2    C311855   2.125   1.961  15.697 -0.1077  0.1762 -0.2765
  805MPD2    C411856   2.011   2.027  15.752  0.0899 -0.6266 -0.0273
  805MPD2    C511857   1.892   2.005  15.698  0.2712 -0.1293 -0.8207
  805MPD2     H11858   2.187   1.830  15.547  0.5292  1.6853 -0.3678
  805MPD2    H111859   2.015   2.105  15.828  0.8619 -0.0322 -0.6770
  805MPD2    H211860   1.772   1.909  15.561 -0.0038 -0.7425 -0.2719
  805MPD2    H311861   1.812   2.072  15.727 -0.7204 -2.2448  1.3983
  805MPD2     N11862   2.250   1.980  15.752  0.7108  0.6941 -0.2745
  805MPD2    H511863   2.336   1.945  15.710  0.1897  1.6247 -2.0881
  805MPD2    N111864   1.966   1.744  15.444 -0.0011 -0.5296 -0.4952
  805MPD2    H711865   2.052   1.701  15.412  2.1262  0.9012  3.2386
  806MPD2     C11866   2.440   1.547   0.665 -0.5240 -0.2640  0.7106
  806MPD2    C111867   2.528   1.590   0.766 -0.4055 -0.2234 -0.2473
  806MPD2    C211868   2.543   1.723   0.787 -0.2275  0.3249  0.2026
  806MPD2    C311869   2.481   1.816   0.705  0.4731  0.0139  0.6094
  806MPD2    C411870   2.403   1.773   0.600 -0.9217  0.0717  0.5195
  806MPD2    C511871   2.381   1.641   0.584  0.1445  0.1066  0.3673
  806MPD2     H11872   2.610   1.759   0.864 -0.6386  3.2965 -0.8203
  806MPD2    H111873   2.367   1.837   0.519  2.3673  0.6174 -0.5179
  806MPD2    H211874   2.409   1.444   0.650 -0.8726  0.2603 -2.2405
  806MPD2    H311875   2.313   1.614   0.504  1.1918 -2.7560  0.4608
  806MPD2     N11876   2.496   1.964   0.724 -0.3281  0.0750 -0.5959
  806MPD2    H511877   2.541   1.987   0.813  1.2401 -1.9971 -0.8525
  806MPD2    N111878   2.592   1.487   0.838  0.2128 -0.1992  0.4389
  806MPD2    H711879   2.569   1.394   0.802 -1.5945  0.5006 -0.2152
  807MPD2     C11880   2.504   0.951   1.356 -0.7865 -0.0363  0.2950
  807MPD2    C111881   2.437   1.031   1.272  0.0635  0.3122  0.0865
  807MPD2    C211882   2.304   1.057   1.304  0.3011 -0.0923 -0.2034
  807MPD2    C311883   2.243   1.031   1.421 -0.1462 -0.0858  1.2762
  807MPD2    C411884   2.317   0.952   1.510  0.3239 -0.2620  0.2083
  807MPD2    C511885   2.446   0.914   1.470 -0.3007  0.4977  1.0677
  807MPD2     H11886   2.250   1.117   1.231  0.2089 -0.3770 -0.3715
  807MPD2    H111887   2.272   0.916   1.601 -2.4780 -0.7860 -1.3937
  807MPD2    H211888   2.596   0.897   1.334 -0.3628  0.5520  0.6136
  807MPD2    H311889   2.501   0.838   1.525 -1.1649 -0.3680  0.7237
  807MPD2     N11890   2.112   1.083   1.453  0.0879 -0.3383  0.4881
  807MPD2    H511891   2.064   1.113   1.369 -1.2337 -1.6605  0.7707
  807MPD2    N111892   2.495   1.088   1.153  0.0868 -0.3910 -0.0861
  807MPD2    H711893   2.440   1.154   1.099 -0.3940 -1.1724 -0.5574
  808MPD2     C11894   2.786   2.604   9.602 -0.3463  0.2504  0.2457
  808MPD2    C111895   2.767   2.637   9.741 -0.1857 -0.0820 -0.2667
  808MPD2    C211896   2.839   2.745   9.795 -0.1673 -0.5055  0.3308
  808MPD2    C311897   2.931   2.812   9.713  0.2196  0.3967 -0.3783
  808MPD2    C411898   2.944   2.781   9.578 -0.1904  0.2594  0.1058
  808MPD2    C511899   2.876   2.677   9.529 -0.4019  0.2246 -0.1403
  808MPD2     H11900   2.829   2.772   9.900 -1.5069 -3.9366  1.0932
  808MPD2    H111901   3.007   2.835   9.508  0.9629 -0.7144  0.3909
  808MPD2    H211902   2.729   2.529   9.549 -0.4445 -0.0142  0.7225
  808MPD2    H311903   2.893   2.647   9.426  3.0575 -0.0953  0.5343
  808MPD2     N11904   3.015   2.922   9.761 -0.4760  0.3789 -0.5528
  808MPD2    H511905   3.071   2.968   9.691 -0.6266 -0.0309 -0.9472
  808MPD2    N111906   2.675   2.562   9.821  0.1914  0.1280 -0.4786
  808MPD2    H711907   2.667   2.589   9.918 -0.5684  3.9571 -1.6057
  809MPD2     C11908   3.808   3.368   9.504  0.2518  0.3836  0.3050
  809MPD2    C111909   3.771   3.242   9.549 -0.3946  0.0917  0.7145
  809MPD2    C211910   3.652   3.241   9.621  0.4015 -0.6574  0.1638
  809MPD2    C311911   3.570   3.349   9.641  0.4324 -0.1252 -0.4596
  809MPD2    C411912   3.610   3.466   9.597 -0.2438  0.4503  0.3866
  809MPD2    C511913   3.728   3.479   9.529  0.3034  0.2481  0.2613
  809MPD2     H11914   3.625   3.139   9.646 -0.8054 -0.3414  0.1264
  809MPD2    H111915   3.562   3.561   9.619 -1.1435  0.5044 -1.7648
  809MPD2    H211916   3.900   3.392   9.452 -0.2096  3.3187  0.8757
  809MPD2    H311917   3.770   3.572   9.493  0.6540  0.4149  1.0880
  809MPD2     N11918   3.441   3.341   9.687 -0.0949 -0.3523 -0.1500
  809MPD2    H511919   3.386   3.426   9.678  0.6160  0.1397  0.2004
  809MPD2    N111920   3.852   3.126   9.520 -0.0648 -0.1442  0.2973
  809MPD2    H711921   3.822   3.037   9.559 -0.2489 -0.2689 -0.1309
  810MPD2     C11922   2.453   1.838  10.892  0.3651  0.3543 -0.3461
  810MPD2    C111923   2.463   1.709  10.842 -0.2358  0.0549  0.9581
  810MPD2    C211924   2.492   1.618  10.938 -0.1317  0.1316 -0.3309
  810MPD2    C311925   2.503   1.651  11.081  0.1392  0.9544  0.4974
  810MPD2    C411926   2.480   1.779  11.118  0.4231 -0.7902 -0.2500
  810MPD2    C511927   2.458   1.874  11.022  1.2579 -0.5604  0.5652
  810MPD2     H11928   2.490   1.514  10.908 -0.3422  0.2209 -0.6178
  810MPD2    H111929   2.479   1.804  11.223  1.7311  0.3348 -0.4981
  810MPD2    H211930   2.424   1.910  10.817 -2.9833  0.2996  0.9345
  810MPD2    H311931   2.455   1.981  11.043 -1.2558  0.0284 -2.8129
  810MPD2     N11932   2.498   1.554  11.185  0.0639  0.0701  0.2757
  810MPD2    H511933   2.475   1.583  11.280 -2.3816 -1.2973  0.1118
  810MPD2    N111934   2.428   1.685  10.710  1.3346 -0.2109  0.8787
  810MPD2    H711935   2.393   1.760  10.652 -0.6457 -1.1655  0.8117
  811MPD2     C11936   2.055   1.773   9.946 -0.9858  0.4471 -0.3121
  811MPD2    C111937   2.096   1.824  10.064 -0.0366 -0.3392  0.8688
  811MPD2    C211938   2.097   1.964  10.084 -0.1535  0.0642  0.8287
  811MPD2    C311939   2.051   2.043   9.982 -0.1728 -0.2663  0.6507
  811MPD2    C411940   1.994   1.986   9.869  0.3662  0.6315 -0.4114
  811MPD2    C511941   1.999   1.850   9.854 -0.8570  0.1787 -0.1484
  811MPD2     H11942   2.144   2.018  10.165  0.0188  0.4456  0.4696
  811MPD2    H111943   1.940   2.045   9.796  1.3557  0.4233 -1.2946
  811MPD2    H211944   2.052   1.665   9.944  0.8122  0.3807  0.5157
  811MPD2    H311945   1.956   1.798   9.769 -0.3137  0.1216 -0.3886
  811MPD2     N11946   2.054   2.182  10.005  0.1203 -0.4763 -0.1582
  811MPD2    H511947   2.066   2.219  10.099  2.1579  2.2023 -1.4615
  811MPD2    N111948   2.152   1.728  10.151 -0.0409 -0.1289  0.0215
  811MPD2    H711949   2.145   1.634  10.113 -0.2093 -1.0230  2.2591
  812MPD2     C11950   1.118   1.905  12.019  0.6502  0.0501 -0.5869
  812MPD2    C111951   1.030   1.982  12.093  1.0702  0.2252  0.3363
  812MPD2    C211952   0.952   1.917  12.191 -0.7643  0.2690 -0.5227
  812MPD2    C311953   0.980   1.786  12.229 -1.1564  0.1791 -0.5074
  812MPD2    C411954   1.063   1.711  12.149  0.3865  1.0651 -0.5106
  812MPD2    C511955   1.130   1.776  12.045 -1.3075 -0.9739  0.9124
  812MPD2     H11956   0.870   1.967  12.240 -1.1582  0.0996 -1.0036
  812MPD2    H111957   1.089   1.607  12.162 -1.9624  0.7322  1.6180
  812MPD2    H211958   1.170   1.951  11.935 -0.0646 -2.0675 -2.1734
  812MPD2    H311959   1.190   1.714  11.980  0.0837  0.7606  0.5676
  812MPD2     N11960   0.911   1.731  12.340  0.4025 -0.1827  0.7513
  812MPD2    H511961   0.847   1.800  12.378  1.2890  0.9159  0.2495
  812MPD2    N111962   1.017   2.119  12.065  0.4263  0.0819  0.0947
  812MPD2    H711963   1.077   2.152  11.990 -1.5708  2.2880 -0.5471
  813MPD2     C11964   4.595   3.964  12.886  0.8410 -0.0800 -0.2359
  813MPD2    C111965   4.684   3.873  12.832  0.1232 -0.6576 -0.5501
  813MPD2    C211966   4.694   3.746  12.886 -0.7088 -0.0115  1.0104
  813MPD2    C311967   4.627   3.716  13.008  0.3819  0.7338  0.0254
  813MPD2    C411968   4.529   3.802  13.054 -0.7312 -0.9228 -0.2992
  813MPD2    C511969   4.522   3.927  12.998  0.1979 -0.4536  0.3887
  813MPD2     H11970   0.044   3.674  12.849 -0.9442  1.7160 -2.8433
  813MPD2    H111971   4.459   3.788  13.135 -1.0333  0.7302 -0.2718
  813MPD2    H211972   4.604   4.070  12.867 -1.2620 -0.0633 -1.0931
  813MPD2    H311973   4.459   4.008  13.034  1.6406  0.1863  1.5174
  813MPD2     N11974   4.659   3.601  13.075 -0.8411 -0.3306  0.9184
  813MPD2    H511975   4.698   3.525  13.020 -4.9174 -1.9403  0.1624
  813MPD2    N111976   0.062   3.920  12.742  0.1689  0.4083  0.1353
  813MPD2    H711977   0.060   4.020  12.723 -1.8082  0.4794  0.8005
  814MPD2     C11978   0.781   0.473  12.253 -0.3469  0.2083  0.2719
  814MPD2    C111979   0.774   0.507  12.119  0.2065  0.0418  0.1421
  814MPD2    C211980   0.812   0.628  12.084 -0.0041  0.1675 -0.1362
  814MPD2    C311981   0.886   0.715  12.169  0.3698 -0.0113 -0.4346
  814MPD2    C411982   0.891   0.679  12.305  0.5601 -0.7457 -0.1393
  814MPD2    C511983   0.834   0.562  12.346 -0.3361 -0.5524 -0.1876
  814MPD2     H11984   0.813   0.661  11.980  1.1143  0.1357 -0.1416
  814MPD2    H111985   0.941   0.744  12.376 -0.4054 -1.3268  1.0748
  814MPD2    H211986   0.763   0.377  12.301 -1.6835  0.8231  1.0086
  814MPD2    H311987   0.837   0.526  12.448 -0.0680  1.0205  0.3717
  814MPD2     N11988   0.955   0.836  12.132  0.3252  0.5280  0.1681
  814MPD2    H511989   1.003   0.880  12.210 -0.0746  0.5256  0.4140
  814MPD2    N111990   0.732   0.423  12.017  0.3500 -0.2457  0.6778
  814MPD2    H711991   0.728   0.469  11.926 -2.0715  0.0527  0.9546
  815MPD2     C11992   0.966   2.859  12.251 -0.1568 -0.2937  0.1535
  815MPD2    C111993   0.950   2.905  12.125  0.0177  0.1431  0.1269
  815MPD2    C211994   0.822   2.889  12.075  0.1496 -0.2357  0.2473
  815MPD2    C311995   0.715   2.850  12.157 -0.3428  0.3780  0.5053
  815MPD2    C411996   0.745   2.802  12.279  0.4993 -0.0914 -0.3380
  815MPD2    C511997   0.871   2.805  12.329  0.3792  0.5371 -0.6995
  815MPD2     H11998   0.788   2.925  11.979  0.8773 -0.8155 -0.2253
  815MPD2    H111999   0.670   2.758  12.343  0.1807 -0.9853 -1.3168
  815MPD2    H212000   1.062   2.870  12.300  0.1526 -1.8635 -0.1095
  815MPD2    H312001   0.892   2.766  12.428  1.2793  0.1255 -1.0580
  815MPD2     N12002   0.585   2.859  12.108 -0.1835  0.0701 -0.0449
  815MPD2    H512003   0.573   2.894  12.014  0.5469 -0.6786 -0.4211
  815MPD2    N112004   1.060   2.953  12.048 -0.2477  0.1121 -0.3653
  815MPD2    H712005   1.151   2.966  12.091 -1.2525  2.4510  1.0157
  816MPD2     C12006   0.792   2.979  17.079 -0.6054  0.2473 -0.4278
  816MPD2    C112007   0.829   3.094  17.147  0.1382  0.3880 -0.1865
  816MPD2    C212008   0.963   3.111  17.185 -0.4229  0.3127 -0.1103
  816MPD2    C312009   1.066   3.025  17.150 -0.5954 -1.0498  0.6429
  816MPD2    C412010   1.029   2.919  17.070 -0.0650 -0.1184 -0.4987
  816MPD2    C512011   0.896   2.894  17.041 -0.5165  0.4662  0.2162
  816MPD2     H12012   0.997   3.198  17.241 -1.3966  1.2403 -0.9765
  816MPD2    H112013   1.102   2.862  17.015  0.5879  1.4133 -1.2018
  816MPD2    H212014   0.689   2.960  17.052 -1.2487  3.7587 -0.3902
  816MPD2    H312015   0.868   2.806  16.984 -0.2369  0.1809  0.5130
  816MPD2     N12016   1.199   3.049  17.188  0.0226 -0.6205  0.1190
  816MPD2    H512017   1.230   3.133  17.236  1.0203 -0.6938 -0.3756
  816MPD2    N112018   0.722   3.179  17.179 -0.4375  0.0744 -0.4944
  816MPD2    H712019   0.633   3.149  17.141 -0.2494  0.4966 -1.2574
  817MPD2     C12020   0.571   4.303  10.055 -0.1249  0.5017 -0.1359
  817MPD2    C112021   0.688   4.366  10.005 -0.9009 -0.4770  0.5677
  817MPD2    C212022   0.662   4.481   9.936  0.2591 -0.2424  0.7381
  817MPD2    C312023   0.535   4.527   9.913 -0.0788  0.0009  0.4966
  817MPD2    C412024   0.420   4.456   9.956  0.1903  0.5889  0.1829
  817MPD2    C512025   0.445   4.350  10.032 -0.4327  0.0883 -0.0920
  817MPD2     H12026   0.749   4.530   9.893 -2.5056  1.1579 -3.1661
  817MPD2    H112027   0.315   4.480   9.940 -0.5288 -3.0478 -0.5255
  817MPD2    H212028   0.571   4.210  10.111 -2.0631  1.9679  2.3348
  817MPD2    H312029   0.360   4.294  10.068  0.0047 -0.3251  0.2861
  817MPD2     N12030   0.530   4.649   9.834 -0.4015 -0.9815  0.3327
  817MPD2    H512031   0.617   4.691   9.806  0.0161 -1.3359  1.1005
  817MPD2    N112032   0.817   4.311  10.009 -0.1634 -0.2174  0.0271
  817MPD2    H712033   0.886   4.347   9.944 -1.3126  3.3293  0.7646
  818MPD2     C12034   4.284   4.030   9.884 -0.2295  0.2519 -0.2859
  818MPD2    C112035   4.228   3.974   9.995  0.5305  0.0959 -0.0764
  818MPD2    C212036   4.251   3.838  10.018  0.3646 -0.4899 -0.1425
  818MPD2    C312037   4.319   3.768   9.922  0.1999  0.1533  1.0368
  818MPD2    C412038   4.377   3.828   9.810 -0.6273 -0.4407  0.5113
  818MPD2    C512039   4.364   3.964   9.796  0.4525 -0.2354 -0.7060
  818MPD2     H12040   4.219   3.799  10.115 -2.0542  1.3398 -0.1917
  818MPD2    H112041   4.421   3.773   9.728 -0.0344 -1.1714  1.3284
  818MPD2    H212042   4.272   4.135   9.860  0.2192  0.2537 -0.5046
  818MPD2    H312043   4.411   4.033   9.726  1.0740 -0.5197 -0.5730
  818MPD2     N12044   4.329   3.625   9.942  0.0509 -0.1902  0.1971
  818MPD2    H512045   4.408   3.584   9.894  0.0025 -1.3644  1.1060
  818MPD2    N112046   4.166   4.051  10.094  0.0190  0.3286 -0.2685
  818MPD2    H712047   4.137   3.998  10.176  0.5111 -1.1585 -1.0670
  819MPD2     C12048   2.541   1.364  15.874 -0.3060  0.6554 -0.2879
  819MPD2    C112049   2.635   1.264  15.851 -0.1087 -0.1989  0.0687
  819MPD2    C212050   2.770   1.283  15.876  0.5239  0.6106 -0.3791
  819MPD2    C312051   2.809   1.401  15.940 -0.1039  0.2163  0.2763
  819MPD2    C412052   2.720   1.498  15.969  0.4509 -0.1814 -0.3083
  819MPD2    C512053   2.592   1.484  15.924  0.5022  0.4533  0.9540
  819MPD2     H12054   2.848   1.211  15.856  2.9110  2.4726  2.2297
  819MPD2    H112055   2.758   1.593  16.005 -1.2051 -0.3626  1.9007
  819MPD2    H212056   2.438   1.361  15.843 -0.6031  1.2645  0.6466
  819MPD2    H312057   2.522   1.567  15.917 -0.2013 -0.2909 -0.7884
  819MPD2     N12058   2.944   1.418  15.967  0.3896  0.2919 -0.6601
  819MPD2    H512059   3.007   1.344  15.938  0.0685  0.1788 -1.0629
  819MPD2    N112060   2.585   1.143  15.805  0.1212  0.0347 -0.3613
  819MPD2    H712061   2.486   1.133  15.786  0.1138  2.0162 -1.3282
  820MPD2     C12062   1.868   0.911  15.247  0.1224  0.3690 -0.1049
  820MPD2    C112063   1.945   1.021  15.276  0.2604  0.2739 -0.2022
  820MPD2    C212064   2.065   0.995  15.339 -0.6160 -0.0598 -0.6400
  820MPD2    C312065   2.114   0.866  15.357  0.2214  0.1801 -1.4399
  820MPD2    C412066   2.038   0.759  15.328  0.2360  0.5032 -0.1894
  820MPD2    C512067   1.912   0.778  15.267  0.5586  0.2366 -0.0185
  820MPD2     H12068   2.130   1.079  15.362 -0.4411 -0.0568 -1.1335
  820MPD2    H112069   2.074   0.658  15.344 -0.1199  0.5868  1.1006
  820MPD2    H212070   1.768   0.927  15.209  0.5792 -0.3241 -1.5635
  820MPD2    H312071   1.848   0.693  15.248 -0.4969  1.7117 -3.1639
  820MPD2     N12072   2.234   0.827  15.415  0.1485  0.3226 -0.3711
  820MPD2    H512073   2.247   0.728  15.432  1.3132  0.5195 -0.1084
  820MPD2    N112074   1.887   1.149  15.255  0.9011 -0.2897  0.7225
  820MPD2    H712075   1.794   1.149  15.214  2.4206  3.4055 -2.7562
  821MPD2     C12076   1.796   2.592  13.229 -0.0994 -0.0360 -0.1758
  821MPD2    C112077   1.874   2.481  13.224 -0.9536  0.2469  0.2806
  821MPD2    C212078   1.998   2.475  13.174  0.4184 -0.4018 -0.4094
  821MPD2    C312079   2.065   2.594  13.139 -0.6525 -0.4783  0.4325
  821MPD2    C412080   1.990   2.709  13.144 -0.4516  0.4275  0.6915
  821MPD2    C512081   1.859   2.706  13.190 -0.4252 -0.7940 -0.1587
  821MPD2     H12082   2.050   2.381  13.164  2.4683  0.7603 -0.6237
  821MPD2    H112083   2.029   2.807  13.116 -2.4917  0.7973 -0.8201
  821MPD2    H212084   1.692   2.585  13.259 -0.0453 -0.4213 -0.0772
  821MPD2    H312085   1.800   2.797  13.195 -0.7096 -1.0585  1.0671
  821MPD2     N12086   2.200   2.603  13.096 -0.0182 -0.5924  0.2378
  821MPD2    H512087   2.224   2.698  13.069 -1.4088 -0.3087 -0.0023
  821MPD2    N112088   1.825   2.361  13.271  0.3364 -0.0581 -0.3881
  821MPD2    H712089   1.883   2.280  13.253 -2.3626 -1.4054 -3.0661
  822MPD2     C12090   3.083   2.402  16.214 -0.3112 -0.2137 -0.1554
  822MPD2    C112091   3.061   2.395  16.352  0.0359 -0.7611  0.4668
  822MPD2    C212092   2.977   2.484  16.408  0.3435  0.9532 -0.1636
  822MPD2    C312093   2.933   2.592  16.344  0.3703  0.1707  0.3596
  822MPD2    C412094   2.957   2.607  16.210 -0.3041 -0.8284 -0.0813
  822MPD2    C512095   3.042   2.515  16.151 -0.6833  0.2951 -0.4139
  822MPD2     H12096   2.964   2.480  16.516 -1.0490 -0.9099 -0.3931
  822MPD2    H112097   2.936   2.696  16.152  1.8195 -0.8124 -0.8280
  822MPD2    H212098   3.149   2.347  16.149  0.9225  0.9531  0.1075
  822MPD2    H312099   3.082   2.523  16.051 -2.0576  0.5738 -0.9284
  822MPD2     N12100   2.856   2.681  16.425  0.4448 -0.1604 -0.4872
  822MPD2    H512101   2.849   2.656  16.523  2.3970 -0.1540 -0.3348
  822MPD2    N112102   3.124   2.297  16.443 -0.2264  0.5650  0.1594
  822MPD2    H712103   3.101   2.302  16.542  2.8378 -2.9571  1.0201
  823MPD2     C12104   2.556   2.974  17.176 -0.2574  0.1820 -0.4057
  823MPD2    C112105   2.623   2.880  17.094  0.3767  0.7873  0.5867
  823MPD2    C212106   2.718   2.788  17.150 -0.1044  0.1825  0.6459
  823MPD2    C312107   2.740   2.792  17.284  0.3296 -0.0494  0.1738
  823MPD2    C412108   2.653   2.868  17.364 -0.2881 -0.0365  0.5977
  823MPD2    C512109   2.563   2.956  17.307  0.1322  0.2892 -0.1449
  823MPD2     H12110   2.773   2.717  17.091  1.6610  1.9603  0.1392
  823MPD2    H112111   2.664   2.873  17.472 -0.4494 -2.3517  0.7263
  823MPD2    H212112   2.495   3.056  17.139  0.3767  1.3330  1.0741
  823MPD2    H312113   2.513   3.034  17.364 -0.7560  0.3768 -1.0287
  823MPD2     N12114   2.834   2.715  17.348  0.2517  0.2589  0.0677
  823MPD2    H512115   2.827   2.719  17.449  1.4943  2.7006  0.0409
  823MPD2    N112116   2.618   2.908  16.955 -0.1827 -0.1050 -0.3722
  823MPD2    H712117   2.577   2.999  16.939 -0.2512 -0.4749 -2.2419
  824MPD2     C12118   3.727   1.681  16.436  0.1808  0.4203 -0.1490
  824MPD2    C112119   3.660   1.772  16.356  0.0064  0.5360 -0.0763
  824MPD2    C212120   3.655   1.749  16.217 -0.0681  0.7276  0.0735
  824MPD2    C312121   3.729   1.649  16.162  0.8990  0.0884  0.3434
  824MPD2    C412122   3.803   1.561  16.247 -0.6814 -0.1661 -0.1003
  824MPD2    C512123   3.804   1.577  16.385  0.6640  0.3750 -0.1512
  824MPD2     H12124   3.604   1.812  16.145  0.6122 -0.9827 -1.9189
  824MPD2    H112125   3.842   1.469  16.206  1.1973 -0.2660  1.9210
  824MPD2    H212126   3.738   1.698  16.542 -0.9493 -0.1598  0.0554
  824MPD2    H312127   3.859   1.504  16.444 -1.1996  0.6963  1.9815
  824MPD2     N12128   3.749   1.648  16.022 -0.8156 -0.1645  0.4520
  824MPD2    H512129   3.710   1.722  15.965 -1.7767  0.6836  2.2043
  824MPD2    N112130   3.575   1.874  16.409 -0.0400 -0.3886 -0.2980
  824MPD2    H712131   3.538   1.944  16.346 -0.8298 -0.0115  0.5847
  825MPD2     C12132   4.286   1.914  15.405 -0.0438  0.0382 -0.1674
  825MPD2    C112133   4.160   1.934  15.457  0.2542 -0.6384  0.1452
  825MPD2    C212134   4.106   2.062  15.451  0.8070  0.6794  0.1001
  825MPD2    C312135   4.190   2.171  15.408 -0.0457 -1.4071 -0.8315
  825MPD2    C412136   4.314   2.150  15.358  0.5633 -0.0217 -0.0437
  825MPD2    C512137   4.361   2.022  15.346  0.0806 -0.0411 -0.0668
  825MPD2     H12138   4.012   2.078  15.502  0.2657  1.3052 -1.1041
  825MPD2    H112139   4.372   2.238  15.331  3.0206 -0.9119  2.3729
  825MPD2    H212140   4.324   1.812  15.403 -0.6701 -0.1942 -0.1035
  825MPD2    H312141   4.459   2.015  15.301 -0.4215 -1.4604 -0.9269
  825MPD2     N12142   4.148   2.303  15.400  0.2197 -0.4450  0.1667
  825MPD2    H512143   4.223   2.369  15.416  2.2227 -1.9399 -3.1668
  825MPD2    N112144   4.099   1.826  15.523 -0.5973  0.1842 -0.0991
  825MPD2    H712145   4.143   1.737  15.502 -2.2363 -0.6144 -0.1766
  826MPD2     C12146   4.155   1.642  13.593 -0.3792  0.1292 -0.3230
  826MPD2    C112147   4.032   1.626  13.534 -0.4632 -0.3583 -0.4480
  826MPD2    C212148   3.941   1.727  13.531 -0.2163  0.4998 -0.5080
  826MPD2    C312149   3.967   1.834  13.614 -0.0123  0.4337 -1.0687
  826MPD2    C412150   4.093   1.856  13.671  0.0134 -0.2062 -0.0002
  826MPD2    C512151   4.188   1.755  13.655  0.5164 -0.5427  0.3041
  826MPD2     H12152   3.844   1.712  13.485 -0.5230 -0.0829  0.3394
  826MPD2    H112153   4.121   1.942  13.729 -1.3787  1.8035 -2.3094
  826MPD2    H212154   4.229   1.564  13.587  0.6589  1.0705  0.1717
  826MPD2    H312155   4.289   1.752  13.693  0.2580  0.0241  1.0297
  826MPD2     N12156   3.868   1.934  13.633 -0.3455 -0.3113 -0.4771
  826MPD2    H512157   3.893   2.024  13.672  0.4100 -0.9754  0.6137
  826MPD2    N112158   4.009   1.500  13.470  0.2028  0.4179 -0.6810
  826MPD2    H712159   4.075   1.426  13.492  0.1431  0.2408 -1.0999
  827MPD2     C12160   0.401   3.316   9.794  0.2057  0.2279 -0.8670
  827MPD2    C112161   0.383   3.183   9.811 -0.6408  0.6366 -0.3644
  827MPD2    C212162   0.278   3.124   9.738 -0.3384 -0.2939  0.3503
  827MPD2    C312163   0.186   3.199   9.673  0.1166 -0.8299 -0.8744
  827MPD2    C412164   0.216   3.332   9.651  0.8187  0.3146 -0.6798
  827MPD2    C512165   0.314   3.389   9.721 -0.5321 -0.3123 -0.2467
  827MPD2     H12166   0.253   3.019   9.738 -1.6036  0.0078  0.7001
  827MPD2    H112167   0.162   3.401   9.588  0.1945  1.3709  0.9916
  827MPD2    H212168   0.488   3.368   9.832 -0.3436  1.3493 -1.1280
  827MPD2    H312169   0.327   3.497   9.722  2.8162 -0.7314  1.4974
  827MPD2     N12170   0.071   3.132   9.619  0.0721 -0.1062  0.2285
  827MPD2    H512171   0.078   3.031   9.617  2.4859  0.0430  1.0235
  827MPD2    N112172   0.478   3.108   9.891  0.1764 -0.5091  0.2219
  827MPD2    H712173   0.553   3.162   9.933  0.3243 -1.1757  0.8122
  828MPD2     C12174   2.991   2.483  12.844 -0.5179  0.2153 -0.1767
  828MPD2    C112175   3.012   2.557  12.728 -0.5587  0.0784 -0.1564
  828MPD2    C212176   3.130   2.559  12.658 -0.1586 -0.0488 -0.2477
  828MPD2    C312177   3.229   2.470  12.693  1.2650  0.0327  0.6628
  828MPD2    C412178   3.204   2.385  12.805  0.2965 -0.6481  0.0839
  828MPD2    C512179   3.089   2.392  12.875  0.5132  0.0218 -0.1067
  828MPD2     H12180   3.138   2.609  12.562 -0.3814  3.0180  1.3271
  828MPD2    H112181   3.272   2.306  12.834  1.0647 -0.2961 -0.7877
  828MPD2    H212182   2.897   2.481  12.898 -0.5991 -2.6952 -0.3859
  828MPD2    H312183   3.082   2.320  12.956  0.4977 -0.7874 -0.8289
  828MPD2     N12184   3.335   2.443  12.607 -0.4637 -0.6178 -0.7461
  828MPD2    H512185   3.406   2.380  12.644 -1.8985  0.6053  4.1807
  828MPD2    N112186   2.913   2.634  12.673  0.1840  0.1135 -0.3824
  828MPD2    H712187   2.946   2.697  12.601 -0.6908  1.2596  0.2111
  829MPD2     C12188   3.163   2.944  11.969  0.7394  0.4945  0.4159
  829MPD2    C112189   3.033   2.999  11.956  0.3878  0.7477  0.0524
  829MPD2    C212190   2.945   2.971  12.057 -0.1559 -0.2624  0.0521
  829MPD2    C312191   2.971   2.877  12.158 -0.5150 -0.0162 -0.2637
  829MPD2    C412192   3.092   2.816  12.156 -0.4167 -0.3156  0.1461
  829MPD2    C512193   3.186   2.854  12.067  0.2410  0.1999 -0.5654
  829MPD2     H12194   2.850   3.025  12.056  0.8359  1.4954 -0.4089
  829MPD2    H112195   3.118   2.740  12.228  0.9830  1.4103  1.4447
  829MPD2    H212196   3.242   2.965  11.897  1.3930  2.4870  1.7202
  829MPD2    H312197   3.289   2.828  12.085  0.8410  0.9627 -2.9370
  829MPD2     N12198   2.877   2.825  12.254 -0.4833  0.0283 -0.1362
  829MPD2    H512199   2.912   2.751  12.314 -0.5816  0.1312  0.0503
  829MPD2    N112200   3.018   3.100  11.855  0.0684  0.5966  0.7205
  829MPD2    H712201   3.094   3.106  11.789  0.1503  1.0763  0.8613
  830MPD2     C12202   3.643   1.103  15.861 -0.2187  0.9167  0.0793
  830MPD2    C112203   3.585   1.211  15.800  0.0021  0.1264 -0.7665
  830MPD2    C212204   3.606   1.239  15.663 -0.5558 -0.1862  0.0361
  830MPD2    C312205   3.686   1.160  15.595  0.2672 -0.6016  0.1776
  830MPD2    C412206   3.748   1.050  15.650 -0.8906  0.8217 -0.3360
  830MPD2    C512207   3.723   1.018  15.784 -0.0600 -0.5524 -0.1651
  830MPD2     H12208   3.560   1.321  15.610  0.7616 -0.7093 -1.9229
  830MPD2    H112209   3.805   0.986  15.583 -1.4637  0.1517 -0.1852
  830MPD2    H212210   3.628   1.078  15.965 -1.7984 -1.2423 -0.6824
  830MPD2    H312211   3.760   0.926  15.828  3.6710  0.5377 -1.0533
  830MPD2     N12212   3.723   1.195  15.462  0.3023  0.8230  0.9599
  830MPD2    H512213   3.788   1.133  15.416  0.1224  1.0890  0.3557
  830MPD2    N112214   3.497   1.287  15.872 -0.1502 -0.1640  0.4337
  830MPD2    H712215   3.508   1.268  15.971 -0.8993  1.2308  0.7860
  831MPD2     C12216   3.080   2.856  16.686  0.4305  0.0777 -0.3854
  831MPD2    C112217   3.131   2.740  16.631 -0.9561  0.5524  0.8617
  831MPD2    C212218   3.098   2.618  16.687 -0.1192 -0.1124 -0.5027
  831MPD2    C312219   3.007   2.616  16.795  0.1645 -0.0660 -0.0625
  831MPD2    C412220   2.974   2.730  16.856 -0.6289  0.2187 -0.4739
  831MPD2    C512221   3.007   2.849  16.800 -0.2240  0.1338 -0.0204
  831MPD2     H12222   3.125   2.520  16.648  1.1551  0.0091  0.0716
  831MPD2    H112223   2.914   2.739  16.946 -1.3643  4.1617 -1.3609
  831MPD2    H212224   3.115   2.955  16.661 -1.7846  1.8273  3.4972
  831MPD2    H312225   2.984   2.941  16.853  1.5524  0.5544  0.0326
  831MPD2     N12226   2.952   2.496  16.851 -0.5297  0.8347 -0.1814
  831MPD2    H512227   2.912   2.514  16.943 -0.3654 -0.6486  0.1823
  831MPD2    N112228   3.219   2.740  16.519 -0.2890 -0.0712 -0.3207
  831MPD2    H712229   3.223   2.827  16.467  0.3330 -0.1541 -0.4133
  832MPD2     C12230   1.784   3.568  16.770 -0.3363 -0.5999  0.6700
  832MPD2    C112231   1.759   3.687  16.833  0.3092 -0.9647  0.3103
  832MPD2    C212232   1.641   3.755  16.813 -0.8196  0.4015  0.6990
  832MPD2    C312233   1.541   3.686  16.745 -0.3946  0.6451 -0.0572
  832MPD2    C412234   1.564   3.565  16.686  0.2355 -0.1734  0.5360
  832MPD2    C512235   1.685   3.507  16.695 -0.0587 -0.0738 -0.7987
  832MPD2     H12236   1.612   3.834  16.883  1.1463 -0.4737  2.4935
  832MPD2    H112237   1.482   3.507  16.647 -1.1958  1.4656  1.0909
  832MPD2    H212238   1.872   3.505  16.777 -1.2241 -2.0040 -0.8766
  832MPD2    H312239   1.699   3.410  16.650 -0.2920  0.3924 -1.8747
  832MPD2     N12240   1.414   3.742  16.714 -0.7251 -0.6987  0.0781
  832MPD2    H512241   1.347   3.690  16.658 -0.6891  0.5958 -1.1532
  832MPD2    N112242   1.861   3.744  16.910  0.4111 -0.4936  0.3568
  832MPD2    H712243   1.939   3.685  16.936  0.7775 -1.6240 -3.2797
  833MPD2     C12244   3.540   0.330  12.596  0.2837  0.1012 -0.1942
  833MPD2    C112245   3.563   0.452  12.542 -0.0655  0.4644  0.4628
  833MPD2    C212246   3.665   0.455  12.442  0.4226  0.2605  0.9222
  833MPD2    C312247   3.750   0.345  12.412  0.1127  0.2384  0.1199
  833MPD2    C412248   3.721   0.225  12.475  0.2874 -0.4089 -0.2437
  833MPD2    C512249   3.618   0.228  12.560  0.0276  0.9014  0.6042
  833MPD2     H12250   3.680   0.546  12.384  0.5322 -1.5722 -1.9128
  833MPD2    H112251   3.773   0.131  12.461 -0.4374 -0.6051 -1.6250
  833MPD2    H212252   3.464   0.315  12.673 -0.6933 -0.1756 -1.2116
  833MPD2    H312253   3.606   0.133  12.612 -0.9707  2.3975  3.1439
  833MPD2     N12254   3.850   0.347  12.317  0.4460  0.1760  0.1361
  833MPD2    H512255   3.889   0.256  12.293 -1.4232  0.2243 -3.0523
  833MPD2    N112256   3.469   0.553  12.573 -0.1765 -0.0850  0.3329
  833MPD2    H712257   3.404   0.525  12.646  1.4902 -1.8847  1.1285
  834MPD2     C12258   3.854   4.545  11.716 -0.4408 -0.0642 -0.0969
  834MPD2    C112259   3.840   4.668  11.648 -0.6881 -0.1647  0.7697
  834MPD2    C212260   3.879   0.068  11.707  0.4905 -0.1577 -0.2181
  834MPD2    C312261   3.944   0.055  11.826 -0.0839 -0.8502 -0.2373
  834MPD2    C412262   3.985   4.653  11.881 -0.7609  0.5628  0.4251
  834MPD2    C512263   3.933   4.537  11.829  0.2284  0.4410 -0.2790
  834MPD2     H12264   3.851   0.162  11.660  3.2576  0.1340 -1.2591
  834MPD2    H112265   4.047   4.642  11.969  1.7944  0.7647 -1.3791
  834MPD2    H212266   3.811   4.452  11.681  2.2350 -1.9426  1.5784
  834MPD2    H312267   3.959   4.441  11.870  0.9329  0.3557 -0.9196
  834MPD2     N12268   4.001   0.162  11.898  0.8916  0.3688  0.4140
  834MPD2    H512269   4.027   0.148  11.994  1.2482 -2.3499 -0.0864
  834MPD2    N112270   3.755   4.664  11.536  0.6273  0.4704 -0.1784
  834MPD2    H712271   3.707   4.579  11.508  1.6378 -0.4091  0.7896
  835MPD2     C12272   4.162   3.102  11.124  0.5533  0.3109  0.1934
  835MPD2    C112273   4.028   3.064  11.146 -0.1994 -0.2585  0.0750
  835MPD2    C212274   3.984   3.051  11.278 -0.6993  0.0793  0.4594
  835MPD2    C312275   4.065   3.061  11.388  0.8957  0.1235  0.0460
  835MPD2    C412276   4.197   3.104  11.363  0.4796  0.4255  0.4613
  835MPD2    C512277   4.240   3.117  11.230  0.0682  0.2247 -0.4241
  835MPD2     H12278   3.879   3.029  11.294 -1.3884  2.0923 -1.2660
  835MPD2    H112279   4.271   3.106  11.442  1.2877  0.9012 -0.3115
  835MPD2    H212280   4.193   3.136  11.025 -0.6067 -0.2366 -0.3554
  835MPD2    H312281   4.336   3.161  11.208 -0.3618  2.2193  1.6869
  835MPD2     N12282   4.025   3.055  11.526  0.1537 -0.1282  0.3819
  835MPD2    H512283   4.096   3.067  11.597 -0.3632  0.5112  0.7920
  835MPD2    N112284   3.924   3.053  11.043  0.3657  0.0465  0.8905
  835MPD2    H712285   3.829   3.049  11.080 -0.7941 -0.4543 -2.0888
  836MPD2     C12286   3.381   3.382  11.786  0.0408 -0.1683  0.4236
  836MPD2    C112287   3.415   3.291  11.876 -0.3265 -0.2301 -0.2158
  836MPD2    C212288   3.325   3.287  11.981  0.5622 -0.6520 -0.5314
  836MPD2    C312289   3.219   3.377  11.995  0.1827 -0.3606 -0.5603
  836MPD2    C412290   3.199   3.472  11.905 -0.0136  0.4228  0.1797
  836MPD2    C512291   3.280   3.475  11.793 -0.2492  0.1630 -0.5207
  836MPD2     H12292   3.347   3.209  12.054 -2.1323 -0.6701  0.2666
  836MPD2    H112293   3.120   3.546  11.909 -1.0456 -0.6742  0.0862
  836MPD2    H212294   3.440   3.396  11.696 -1.4775 -2.1409 -0.8658
  836MPD2    H312295   3.254   3.540  11.710  2.0539  0.2435 -1.1799
  836MPD2     N12296   3.131   3.367  12.105 -0.2370 -0.1367  0.0771
  836MPD2    H512297   3.065   3.444  12.117 -1.1039 -0.6999 -1.0193
  836MPD2    N112298   3.530   3.220  11.855  0.1021 -0.0644 -0.0867
  836MPD2    H712299   3.590   3.250  11.779 -1.0029  1.1627 -0.4792
  837MPD2     C12300   1.775   2.765  10.439  0.0605  0.4460 -0.6574
  837MPD2    C112301   1.888   2.793  10.379  0.4060 -0.0021 -0.2098
  837MPD2    C212302   1.950   2.916  10.394 -0.0912 -0.0915 -0.2265
  837MPD2    C312303   1.893   3.014  10.477 -0.0197 -0.0183 -0.4441
  837MPD2    C412304   1.780   2.982  10.543 -0.4377 -0.3737  0.0003
  837MPD2    C512305   1.719   2.864  10.519  0.1383  0.2779  0.0270
  837MPD2     H12306   2.041   2.937  10.339  1.4891 -0.3243  2.3283
  837MPD2    H112307   1.726   3.052  10.606  0.7116  0.9322 -0.4727
  837MPD2    H212308   1.711   2.681  10.417 -0.0835  0.3853  0.0071
  837MPD2    H312309   1.624   2.844  10.568  0.0690 -1.1153 -0.6906
  837MPD2     N12310   1.943   3.146  10.468 -0.0030  0.2543  0.3829
  837MPD2    H512311   2.031   3.160  10.420  0.1780 -1.7586  0.1016
  837MPD2    N112312   1.950   2.709  10.284 -0.2458  0.0544  0.3966
  837MPD2    H712313   2.030   2.747  10.235 -0.0809  3.3353  3.2416
  838MPD2     C12314   0.176   0.446  11.142  0.1612 -1.1970  0.1353
  838MPD2    C112315   0.179   0.538  11.239 -0.6039  0.3618 -0.7496
  838MPD2    C212316   0.061   0.569  11.304  0.8058  0.6072 -0.6506
  838MPD2    C312317   4.660   0.515  11.278  0.3671  0.1863 -0.3565
  838MPD2    C412318   4.660   0.425  11.171 -0.2530  0.8098  0.7534
  838MPD2    C512319   0.056   0.397  11.103 -0.2513  0.1918  0.0976
  838MPD2     H12320   0.061   0.623  11.398  0.5535 -0.6166  0.0455
  838MPD2    H112321   4.572   0.368  11.145  0.8372 -0.1826 -0.7316
  838MPD2    H212322   0.259   0.405  11.086  1.7151  1.0272  0.8082
  838MPD2    H312323   0.055   0.317  11.029  1.2307  1.0525 -0.8501
  838MPD2     N12324   4.554   0.533  11.364  0.0294  0.2664  0.6073
  838MPD2    H512325   4.567   0.604  11.436  2.2293 -0.9330  1.3813
  838MPD2    N112326   0.301   0.592  11.301  0.0221  0.3730 -0.9321
  838MPD2    H712327   0.293   0.645  11.387  0.2104  1.3037 -1.4857
  839MPD2     C12328   0.226   0.277  11.974  0.2570 -0.0314 -0.5064
  839MPD2    C112329   0.159   0.323  11.862 -0.3072  0.0955 -0.8557
  839MPD2    C212330   0.202   0.441  11.801 -0.1034 -0.0211 -0.0244
  839MPD2    C312331   0.330   0.487  11.829  0.0211 -0.3360 -0.1479
  839MPD2    C412332   0.405   0.441  11.938  0.4221  0.8147  0.2373
  839MPD2    C512333   0.344   0.339  12.018 -0.4326  0.7491  0.7828
  839MPD2     H12334   0.148   0.482  11.717  0.3641 -0.7764 -0.7009
  839MPD2    H112335   0.501   0.483  11.964  0.3650  1.6974 -0.9634
  839MPD2    H212336   0.189   0.193  12.031  0.8321  1.3355  1.8696
  839MPD2    H312337   0.403   0.311  12.104  0.7133 -0.4168 -0.3927
  839MPD2     N12338   0.379   0.579  11.737 -0.3783  0.4430 -0.2173
  839MPD2    H512339   0.318   0.607  11.661 -1.3348 -0.9242  0.0528
  839MPD2    N112340   0.053   0.246  11.818 -0.0583  0.7849 -0.1531
  839MPD2    H712341   0.037   0.165  11.878  2.6218  0.4852  0.1496
  840MPD2     C12342   0.915   3.385  10.188  0.0960  0.0484  0.2181
  840MPD2    C112343   0.838   3.317  10.283 -0.1811  0.4121 -0.4287
  840MPD2    C212344   0.850   3.341  10.421 -0.0375 -0.1582  0.4830
  840MPD2    C312345   0.923   3.446  10.465 -0.3580  0.1280  0.6925
  840MPD2    C412346   0.992   3.508  10.374  0.0200  0.3071  0.1417
  840MPD2    C512347   0.993   3.478  10.235 -0.3069 -0.0610  0.7240
  840MPD2     H12348   0.796   3.282  10.495  0.2715 -1.6391 -0.4816
  840MPD2    H112349   1.065   3.585  10.398 -1.0501  2.1577 -2.5300
  840MPD2    H212350   0.921   3.364  10.082 -1.9438  0.6059  0.0032
  840MPD2    H312351   1.070   3.525  10.174 -1.0061 -0.0599 -0.1522
  840MPD2     N12352   0.944   3.486  10.595  0.0270  0.5630  0.4356
  840MPD2    H512353   0.994   3.573  10.605  1.5932 -0.3515  0.6423
  840MPD2    N112354   0.771   3.201  10.238  0.1923 -0.5392 -0.7674
  840MPD2    H712355   0.793   3.177  10.142 -0.2456  1.8580 -1.4570
  841MPD2     C12356   0.609   3.767  14.189  0.4779 -0.2483  0.4847
  841MPD2    C112357   0.599   3.697  14.302  0.2040 -0.9245 -0.2520
  841MPD2    C212358   0.702   3.685  14.387  0.5568 -0.1812  0.2040
  841MPD2    C312359   0.824   3.724  14.354 -0.1491  0.0490  0.1331
  841MPD2    C412360   0.843   3.777  14.232  0.1349  0.2214 -0.0179
  841MPD2    C512361   0.732   3.805  14.147 -0.3449  0.5203  0.2896
  841MPD2     H12362   0.683   3.644  14.485  2.4847  1.1701  1.1369
  841MPD2    H112363   0.933   3.830  14.202 -0.4020  1.5434  0.7049
  841MPD2    H212364   0.526   3.789  14.122  0.7190 -0.5683  0.0833
  841MPD2    H312365   0.738   3.861  14.055 -0.2435  0.5122  0.2904
  841MPD2     N12366   0.926   3.699  14.447  0.1393  0.8338 -0.1171
  841MPD2    H512367   0.898   3.676  14.541 -0.5062 -1.9243 -0.9777
  841MPD2    N112368   0.472   3.645  14.344  0.8461  0.0110  0.4610
  841MPD2    H712369   0.472   3.600  14.435 -1.0322 -0.1002  0.4020
  842MPD2     C12370   0.679   4.076  16.829 -0.1093 -0.2466 -0.2949
  842MPD2    C112371   0.562   4.056  16.900 -0.8059  0.0421 -0.7587
  842MPD2    C212372   0.555   4.078  17.035  0.5280 -0.4502  0.5838
  842MPD2    C312373   0.664   4.127  17.101  0.7774  0.6817  0.5471
  842MPD2    C412374   0.783   4.143  17.035  0.4280 -0.2964  0.8874
  842MPD2    C512375   0.789   4.114  16.903 -0.2572  0.0818  0.7065
  842MPD2     H12376   0.460   4.071  17.087 -1.3435  0.6095 -2.7088
  842MPD2    H112377   0.876   4.193  17.061  1.4786 -2.0427  0.5230
  842MPD2    H212378   0.683   4.049  16.724  0.8784 -0.9310 -0.0744
  842MPD2    H312379   0.880   4.150  16.856  0.3108  1.2482  2.6792
  842MPD2     N12380   0.650   4.190  17.227 -0.0989  0.2753  0.1938
  842MPD2    H512381   0.718   4.264  17.240  0.6610 -0.3518 -0.1598
  842MPD2    N112382   0.449   4.010  16.821  0.2927 -0.5536  0.0392
  842MPD2    H712383   0.466   4.000  16.721 -0.0634 -2.0867  0.1283
  843MPD2     C12384   2.902   0.121   0.118  0.7104 -0.4032 -0.1365
  843MPD2    C112385   2.988   0.111   0.222 -0.5114  0.0222  0.9220
  843MPD2    C212386   3.108   0.182   0.209  0.2301 -0.1685 -0.3491
  843MPD2    C312387   3.140   0.250   0.091  0.2539  0.5774 -0.4561
  843MPD2    C412388   3.043   0.256  17.683  0.7710 -0.0616 -0.5043
  843MPD2    C512389   2.922   0.191   0.007 -0.8696  0.7297  0.3094
  843MPD2     H12390   3.170   0.186   0.298 -1.9915 -0.7095  1.2137
  843MPD2    H112391   3.064   0.308  17.591  0.9268  2.3671  0.9123
  843MPD2    H212392   2.810   0.065   0.114  0.8794 -0.8348  1.9136
  843MPD2    H312393   2.854   0.205  17.616  0.2436 -0.7102 -0.8520
  843MPD2     N12394   3.264   0.316   0.072  0.0141  0.3181  0.1673
  843MPD2    H512395   3.279   0.377  17.684  0.1164  0.4730  0.3048
  843MPD2    N112396   2.938   0.042   0.331 -0.0160 -0.0994 -0.0916
  843MPD2    H712397   2.847   4.721   0.316  0.1450 -0.2509 -0.6207
  844MPD2     C12398   1.125   3.823  16.228 -0.0251  0.4505  0.4897
  844MPD2    C112399   1.198   3.715  16.281 -0.4208 -0.2413 -0.4524
  844MPD2    C212400   1.317   3.743  16.342  0.2946  0.7433 -0.4834
  844MPD2    C312401   1.367   3.873  16.354 -0.1353  0.5374  0.8067
  844MPD2    C412402   1.286   3.977  16.303  0.9997  0.4108 -0.8996
  844MPD2    C512403   1.171   3.953  16.236 -0.9407  0.9817 -0.2491
  844MPD2     H12404   1.379   3.661  16.376  0.0423  1.1162  0.8622
  844MPD2    H112405   1.314   4.081  16.321  0.3704 -0.1365  3.2390
  844MPD2    H212406   1.037   3.808  16.167 -0.2542 -1.9632  1.4296
  844MPD2    H312407   1.115   4.039  16.202 -0.2970  1.7277  0.5625
  844MPD2     N12408   1.492   3.886  16.412 -0.5144 -0.0830  0.4968
  844MPD2    H512409   1.550   3.803  16.420 -1.9835 -1.2925 -1.3423
  844MPD2    N112410   1.156   3.584  16.281  0.1569 -0.2257 -0.0769
  844MPD2    H712411   1.198   3.532  16.357 -2.2805 -1.9317  0.1089
  845MPD2     C12412   1.939   4.620  16.929 -0.4642 -0.1548  0.5943
  845MPD2    C112413   1.811   4.585  16.889  0.2188 -0.1119  0.2133
  845MPD2    C212414   1.796   4.464  16.816 -1.1357  0.1445 -0.1238
  845MPD2    C312415   1.902   4.386  16.770 -0.2510 -0.1076  0.8629
  845MPD2    C412416   2.027   4.432  16.801  0.7159  0.3920 -0.1967
  845MPD2    C512417   2.046   4.540  16.882 -0.0225  0.0910  0.0057
  845MPD2     H12418   1.698   4.430  16.786 -1.4236  0.2889  0.6454
  845MPD2    H112419   2.119   4.381  16.772  0.6961  0.0793  0.3037
  845MPD2    H212420   1.959   4.714  16.979 -1.2218 -0.2583  1.0855
  845MPD2    H312421   2.149   4.571  16.898  0.8673 -1.9928 -1.6766
  845MPD2     N12422   1.878   4.266  16.702  0.2862 -0.7898 -0.6152
  845MPD2    H512423   1.777   4.253  16.706  0.3776 -0.6771  1.6231
  845MPD2    N112424   1.705   4.662  16.942  1.0766 -0.6964 -0.7440
  845MPD2    H712425   1.732   0.019  16.998  0.4592 -0.4285 -0.8263
  846MPD2     C12426   2.716   0.330  13.533 -0.3986  0.1013  0.3357
  846MPD2    C112427   2.780   0.233  13.597 -0.1393  0.7748  0.2461
  846MPD2    C212428   2.717   0.184  13.710 -0.3686 -0.1520 -0.3225
  846MPD2    C312429   2.593   0.233  13.757  0.3373 -0.2242 -0.4997
  846MPD2    C412430   2.536   0.332  13.684  0.3197  0.4143 -0.5490
  846MPD2    C512431   2.600   0.384  13.575  0.5749 -0.3110 -0.4402
  846MPD2     H12432   2.752   0.092  13.756 -0.3894  0.2680  0.5366
  846MPD2    H112433   2.440   0.378  13.706 -0.2541 -0.4384 -1.3224
  846MPD2    H212434   2.756   0.364  13.439  0.7094  1.3095  1.2547
  846MPD2    H312435   2.555   0.453  13.505 -1.8040 -0.2882  1.0887
  846MPD2     N12436   2.535   0.182  13.882 -0.2670  0.0956 -0.7796
  846MPD2    H512437   2.581   0.103  13.925  0.2203  0.6472 -0.2885
  846MPD2    N112438   2.905   0.179  13.546 -0.3373  0.3381  0.5071
  846MPD2    H712439   2.936   0.098  13.598  2.3962  1.4837  0.6733
  847MPD2     C12440   3.102   0.970  14.554 -0.0500  0.4754  0.2493
  847MPD2    C112441   3.218   1.035  14.557  0.3111 -0.5551  0.2453
  847MPD2    C212442   3.336   0.974  14.514  0.4209  1.1526 -0.4779
  847MPD2    C312443   3.340   0.841  14.478  0.3516 -0.2943 -0.4797
  847MPD2    C412444   3.221   0.777  14.486 -0.7771 -0.3669  1.1209
  847MPD2    C512445   3.100   0.841  14.508 -0.2757 -0.1855 -0.2934
  847MPD2     H12446   3.430   1.025  14.528  1.1889 -0.6925  1.1035
  847MPD2    H112447   3.222   0.674  14.454 -1.2158  0.1777 -0.6880
  847MPD2    H212448   3.005   1.002  14.591  0.5658 -0.7366  2.9258
  847MPD2    H312449   3.009   0.783  14.505 -0.1818 -0.3161 -0.7508
  847MPD2     N12450   3.467   0.783  14.454 -0.3370  0.1772 -0.4723
  847MPD2    H512451   3.545   0.848  14.449 -0.6927  0.8066  2.1869
  847MPD2    N112452   3.226   1.176  14.582  0.3532  0.1009 -0.4300
  847MPD2    H712453   3.314   1.221  14.562  0.0883  1.4220  1.3200
  848MPD2     C12454   1.298   4.362  16.323 -0.6224 -0.0732 -0.1173
  848MPD2    C112455   1.176   4.330  16.382 -0.1473 -0.2363 -0.3149
  848MPD2    C212456   1.063   4.405  16.354 -0.3989  1.1624  0.3434
  848MPD2    C312457   1.070   4.522  16.288  0.6070 -0.6283 -0.2915
  848MPD2    C412458   1.188   4.554  16.232  0.4229 -0.3902 -0.1195
  848MPD2    C512459   1.295   4.470  16.235 -0.2096 -0.0571 -0.0206
  848MPD2     H12460   0.965   4.375  16.391 -1.2589  1.5384 -1.6249
  848MPD2    H112461   1.202   4.642  16.171 -0.2517  0.2298  0.6382
  848MPD2    H212462   1.387   4.302  16.334  0.9584  2.1582 -0.7170
  848MPD2    H312463   1.388   4.492  16.184  0.0704 -1.6559 -0.2006
  848MPD2     N12464   0.956   4.609  16.267  0.2803 -0.0531  0.1431
  848MPD2    H512465   0.966   4.705  16.234  1.1850  0.0808  0.8120
  848MPD2    N112466   1.177   4.220  16.474 -0.5055  0.6057 -0.0590
  848MPD2    H712467   1.259   4.160  16.472 -2.0144 -1.3843 -2.0640
  849MPD2     C12468   0.364   3.982  14.505 -0.2911 -0.2818 -0.3103
  849MPD2    C112469   0.437   4.034  14.401  0.6814  0.0936 -0.1319
  849MPD2    C212470   0.565   4.075  14.428  0.7772 -0.4765  0.5209
  849MPD2    C312471   0.620   4.085  14.554  0.0398 -0.2624 -0.3409
  849MPD2    C412472   0.538   4.046  14.660  0.1413 -0.0810 -0.0654
  849MPD2    C512473   0.410   3.996  14.634  0.5231  0.1593 -0.4636
  849MPD2     H12474   0.628   4.087  14.341 -1.6025 -1.7913 -1.3778
  849MPD2    H112475   0.569   4.033  14.763  1.1697  0.1940 -0.3309
  849MPD2    H212476   0.262   3.954  14.481 -0.7235 -0.6717  1.9270
  849MPD2    H312477   0.341   3.981  14.716  0.3261 -0.4547 -0.7393
  849MPD2     N12478   0.751   4.125  14.584  0.3976 -0.1680 -0.1580
  849MPD2    H512479   0.779   4.123  14.682 -1.9950 -0.6086  0.5319
  849MPD2    N112480   0.401   4.038  14.261  0.7042 -0.4034 -0.2567
  849MPD2    H712481   0.476   4.061  14.197 -0.8781  2.7429 -1.0225
  850MPD2     C12482   3.046   1.667  14.937  0.1719 -0.0631 -0.4290
  850MPD2    C112483   3.000   1.791  14.987  0.0797 -0.0555 -0.8432
  850MPD2    C212484   3.092   1.898  14.997  0.2289  0.0300 -0.6483
  850MPD2    C312485   3.229   1.873  14.982  0.5453  0.3318 -0.8665
  850MPD2    C412486   3.272   1.744  14.940  0.4264  0.5017 -0.4090
  850MPD2    C512487   3.178   1.640  14.925 -0.3680 -0.6583 -0.2147
  850MPD2     H12488   3.055   1.997  15.020  0.6245 -0.1311  0.7212
  850MPD2    H112489   3.375   1.719  14.916  0.0970 -0.6295 -0.6080
  850MPD2    H212490   2.981   1.581  14.938  1.5470 -1.0834  0.9524
  850MPD2    H312491   3.212   1.540  14.900 -1.0685 -0.3236 -2.4206
  850MPD2     N12492   3.331   1.965  15.019 -0.0087 -0.0801  0.0060
  850MPD2    H512493   3.428   1.943  14.999  0.2061  0.4480  0.4632
  850MPD2    N112494   2.863   1.801  15.029 -0.3490  1.0637  0.0741
  850MPD2    H712495   2.790   1.737  15.000  0.6930  0.3932 -1.0554
  851MPD2     C12496   3.515   1.992  15.556 -0.5447 -0.6809 -0.6077
  851MPD2    C112497   3.425   1.933  15.468  0.6632 -0.3409  0.6621
  851MPD2    C212498   3.474   1.848  15.372  0.5869 -0.4092 -0.8850
  851MPD2    C312499   3.604   1.809  15.358 -0.6515 -0.0341 -0.6228
  851MPD2    C412500   3.692   1.877  15.443 -1.1378 -0.3917 -0.8906
  851MPD2    C512501   3.648   1.966  15.539  0.4545  0.4214 -0.2964
  851MPD2     H12502   3.406   1.801  15.302 -2.4783 -1.9229  3.1062
  851MPD2    H112503   3.798   1.870  15.420 -0.1858 -0.5523  3.6576
  851MPD2    H212504   3.493   2.067  15.631  1.0547 -1.6080  0.7852
  851MPD2    H312505   3.726   2.000  15.605  0.5023  0.3770 -0.3298
  851MPD2     N12506   3.646   1.713  15.262 -0.0183 -0.1860  1.0561
  851MPD2    H512507   3.571   1.655  15.225  0.9482 -0.6256 -0.1887
  851MPD2    N112508   3.289   1.965  15.470  0.3023  0.3089 -0.4750
  851MPD2    H712509   3.260   2.041  15.530  2.1422  1.5404 -1.1456
  852MPD2     C12510   2.947   4.338   9.489  0.2084  0.7627  0.3403
  852MPD2    C112511   3.014   4.277   9.594 -0.9429 -0.3519  0.0629
  852MPD2    C212512   3.152   4.290   9.597  0.5070  1.2109  0.6088
  852MPD2    C312513   3.218   4.355   9.496  0.1368  0.1306  0.1761
  852MPD2    C412514   3.154   4.399   9.387 -0.2852 -0.2868 -0.2440
  852MPD2    C512515   3.018   4.409   9.394  0.2615 -0.2020 -0.1023
  852MPD2     H12516   3.212   4.261   9.683 -0.1034 -2.5650 -0.2298
  852MPD2    H112517   3.203   4.458   9.310 -1.2717 -0.9789 -1.3957
  852MPD2    H212518   2.840   4.322   9.482  0.6937 -1.3617 -2.3923
  852MPD2    H312519   2.968   4.448   9.306  0.6756  1.6020  0.4596
  852MPD2     N12520   3.353   4.379   9.526  0.2553  0.5067 -0.7287
  852MPD2    H512521   3.384   4.362   9.621 -0.2045 -0.9174 -0.8210
  852MPD2    N112522   2.960   4.201   9.701 -0.2817  0.7922 -0.0197
  852MPD2    H712523   3.027   4.163   9.767  0.0727  2.0464  0.3564
  853MPD2     C12524   4.610   4.002  12.405 -0.6008 -1.5399  0.9557
  853MPD2    C112525   4.562   4.120  12.353 -0.1647 -0.0381 -0.5225
  853MPD2    C212526   4.543   4.136  12.219  0.1809 -0.4662  0.5007
  853MPD2    C312527   4.563   4.029  12.134  0.6477  0.4532 -0.1179
  853MPD2    C412528   4.608   3.912  12.186 -0.5302  0.2671 -0.4224
  853MPD2    C512529   4.632   3.897  12.322  0.6589  0.0933 -0.7374
  853MPD2     H12530   4.501   4.230  12.186 -0.1355 -0.6801  0.2936
  853MPD2    H112531   4.631   3.826  12.124  0.4566 -0.3373  0.7753
  853MPD2    H212532   4.623   3.991  12.512  0.8363  1.3531  1.0699
  853MPD2    H312533   4.655   3.797  12.356  1.9038  0.0637 -1.6608
  853MPD2     N12534   4.558   4.030  11.990  0.5312  0.3469  0.3122
  853MPD2    H512535   4.587   3.943  11.946 -0.2252  0.9014 -1.2708
  853MPD2    N112536   4.549   4.235  12.444 -0.2030 -0.1320  0.2129
  853MPD2    H712537   4.577   4.216  12.540  1.4433  4.1122  0.5545
  854MPD2     C12538   1.592   4.441  12.878 -0.2914 -0.5338  0.8262
  854MPD2    C112539   1.701   4.484  12.805  0.2465 -0.0744 -0.5631
  854MPD2    C212540   1.819   4.417  12.827 -0.0757 -0.1097  0.2130
  854MPD2    C312541   1.823   4.311  12.919 -0.4056 -0.2855 -0.4557
  854MPD2    C412542   1.710   4.280  12.997 -0.4999 -0.3996 -0.0184
  854MPD2    C512543   1.599   4.343  12.969  0.1871  0.7539  0.1072
  854MPD2     H12544   1.919   4.446  12.795 -0.0735 -0.5766 -0.1917
  854MPD2    H112545   1.703   4.207  13.077  0.8465 -1.7767 -1.1577
  854MPD2    H212546   1.503   4.503  12.872  0.9739  1.1597 -0.7049
  854MPD2    H312547   1.513   4.321  13.032  0.7674 -1.0463  0.2681
  854MPD2     N12548   1.938   4.239  12.949  0.1440 -0.2267  0.3403
  854MPD2    H512549   1.926   4.161  13.013 -0.4677  1.0476  1.7489
  854MPD2    N112550   1.696   4.601  12.723 -0.0631 -0.2489 -0.0429
  854MPD2    H712551   1.604   4.639  12.707  0.2752 -1.2577 -4.3447
  855MPD2     C12552   1.917   4.072  13.709 -0.6813  0.1823 -0.0291
  855MPD2    C112553   2.031   3.990  13.696 -0.2766  0.3397  0.8637
  855MPD2    C212554   2.106   4.013  13.586 -1.0050 -1.0353  0.4016
  855MPD2    C312555   2.062   4.104  13.491  0.0255  0.1418 -0.3311
  855MPD2    C412556   1.942   4.175  13.503  0.8343  0.4891 -0.5387
  855MPD2    C512557   1.876   4.169  13.619 -0.0100  0.2700 -0.4947
  855MPD2     H12558   2.195   3.952  13.575 -0.1064  0.2141  0.8619
  855MPD2    H112559   1.916   4.237  13.418 -0.1604 -0.4178 -0.8934
  855MPD2    H212560   1.849   4.065  13.793 -0.0893  0.5930  0.4864
  855MPD2    H312561   1.792   4.236  13.634  0.0195 -0.2072  1.9213
  855MPD2     N12562   2.126   4.130  13.369  0.7025 -0.1390  0.2438
  855MPD2    H512563   2.074   4.189  13.304 -1.4226  0.3900  2.4120
  855MPD2    N112564   2.062   3.887  13.784  0.1880  0.3520  0.0511
  855MPD2    H712565   2.145   3.830  13.771  0.2735  0.5249 -0.1567
  856MPD2     C12566   4.472   0.130  13.696 -0.1832 -0.0878  0.6455
  856MPD2    C112567   4.486   0.248  13.765 -0.2072 -0.0269  0.2947
  856MPD2    C212568   4.412   0.354  13.731  0.2279  0.4892  0.7149
  856MPD2    C312569   4.312   0.341  13.637  0.0548  0.5154 -0.5174
  856MPD2    C412570   4.308   0.224  13.555  0.7146 -0.7700  0.6957
  856MPD2    C512571   4.391   0.116  13.582  0.3641  0.1091 -0.7355
  856MPD2     H12572   4.410   0.445  13.790  1.5458 -1.4296  3.7163
  856MPD2    H112573   4.234   0.200  13.479  2.4830 -2.8503 -0.3934
  856MPD2    H212574   4.530   0.042  13.720 -1.1764 -1.1752 -0.9663
  856MPD2    H312575   4.381   0.020  13.533 -1.3061 -0.0383 -0.1003
  856MPD2     N12576   4.211   0.435  13.610  0.8214 -0.3448  0.2340
  856MPD2    H512577   4.135   0.400  13.553 -0.9087 -1.0587  2.9948
  856MPD2    N112578   4.570   0.266  13.873  0.0621 -0.0925  0.2732
  856MPD2    H712579   4.572   0.359  13.912  0.2982 -0.2944  0.7405
  857MPD2     C12580   0.554   2.655  12.641 -0.6602  0.0137  0.0215
  857MPD2    C112581   0.689   2.638  12.668 -0.4522 -0.0438 -0.2183
  857MPD2    C212582   0.750   2.729  12.745  0.4211 -0.1794 -0.8079
  857MPD2    C312583   0.685   2.831  12.804  0.3272  0.9690 -0.3974
  857MPD2    C412584   0.552   2.857  12.771 -0.0908 -0.5489 -0.3984
  857MPD2    C512585   0.488   2.766  12.690  0.2254  0.0989 -0.1607
  857MPD2     H12586   0.852   2.728  12.783 -0.0756 -0.1100  0.5311
  857MPD2    H112587   0.486   2.938  12.800  0.8015  0.5749 -1.4958
  857MPD2    H212588   0.507   2.579  12.580 -1.2064 -0.4108  0.9865
  857MPD2    H312589   0.383   2.777  12.665  0.0235 -2.4403 -0.4424
  857MPD2     N12590   0.756   2.922  12.880 -0.1753  0.1278 -0.2340
  857MPD2    H512591   0.856   2.905  12.873 -0.5696 -1.6361 -1.3652
  857MPD2    N112592   0.740   2.512  12.620  0.1326  0.4225 -0.2254
  857MPD2    H712593   0.673   2.451  12.574 -1.3765  0.7553  1.5212
  858MPD2     C12594   1.643   2.335  16.642  0.7275 -0.0650 -0.4289
  858MPD2    C112595   1.718   2.250  16.722 -0.9074 -0.0040  0.5598
  858MPD2    C212596   1.721   2.263  16.859  0.1200 -0.0419 -0.2834
  858MPD2    C312597   1.640   2.356  16.922 -0.3484 -0.0081  0.3374
  858MPD2    C412598   1.585   2.455  16.835  0.6526 -0.2681 -0.4347
  858MPD2    C512599   1.592   2.447  16.700 -0.3958  0.1352  0.2541
  858MPD2     H12600   1.780   2.191  16.913  0.8240  0.0082 -0.9786
  858MPD2    H112601   1.530   2.539  16.876  0.9007  0.2762 -1.2280
  858MPD2    H212602   1.644   2.327  16.534  0.7663 -1.6934 -0.2966
  858MPD2    H312603   1.523   2.512  16.648 -0.1071 -0.2466 -0.6075
  858MPD2     N12604   1.619   2.365  17.058 -0.2903  0.2129 -0.6572
  858MPD2    H512605   1.582   2.440  17.116  0.0305  0.6289 -0.9987
  858MPD2    N112606   1.794   2.145  16.666 -0.4786 -0.0705 -0.9187
  858MPD2    H712607   1.847   2.097  16.738  0.9146  0.9168 -1.2751
  859MPD2     C12608   0.456   3.756  15.710 -0.3422 -0.4880 -0.1780
  859MPD2    C112609   0.518   3.758  15.590 -0.0905  0.0797 -0.5890
  859MPD2    C212610   0.537   3.631  15.536 -0.8888  0.7370  0.6972
  859MPD2    C312611   0.494   3.515  15.600 -0.0867 -0.1857 -0.0878
  859MPD2    C412612   0.433   3.523  15.721  0.1323  0.0799  0.3630
  859MPD2    C512613   0.423   3.644  15.779 -0.4402  0.3513  0.0670
  859MPD2     H12614   0.589   3.612  15.442 -2.6014  0.8738 -0.2709
  859MPD2    H112615   0.392   3.431  15.760  1.6686 -0.8589 -0.2105
  859MPD2    H212616   0.431   3.848  15.762  0.9295 -1.6515  2.4933
  859MPD2    H312617   0.375   3.640  15.876  1.2834  1.9754  0.9909
  859MPD2     N12618   0.505   3.383  15.549  0.6224  0.2272  0.8298
  859MPD2    H512619   0.497   3.309  15.619 -0.3692 -0.7529 -0.3248
  859MPD2    N112620   0.557   3.875  15.528 -0.1438  0.1357  0.1944
  859MPD2    H712621   0.539   3.966  15.569  0.4063  0.7001 -0.8162
  860MPD2     C12622   3.160   4.518  11.632 -0.3159 -0.3229  0.5259
  860MPD2    C112623   3.185   4.448  11.751 -0.3145 -0.9297  0.2038
  860MPD2    C212624   3.080   4.408  11.822 -0.4897  0.3688 -0.0130
  860MPD2    C312625   2.947   4.428  11.770 -0.4743 -0.2828  0.4939
  860MPD2    C412626   2.926   4.504  11.658 -0.4343 -0.2046  0.7616
  860MPD2    C512627   3.033   4.548  11.590 -0.1406  0.0123  0.3745
  860MPD2     H12628   3.105   4.369  11.920 -0.0360  0.1224 -0.2285
  860MPD2    H112629   2.830   4.527  11.613  0.8393  2.6036 -0.4753
  860MPD2    H212630   3.249   4.540  11.573  0.2812  0.5494  1.7479
  860MPD2    H312631   3.023   4.598  11.494 -0.5834  3.3301  2.1359
  860MPD2     N12632   2.838   4.382  11.850  0.0398  0.2969 -0.7711
  860MPD2    H512633   2.860   4.332  11.936  0.7731  0.9172 -0.5958
  860MPD2    N112634   3.307   4.400  11.798 -0.5900 -0.2506  0.5684
  860MPD2    H712635   3.296   4.349  11.885  1.1894  1.0730  1.5996
  861MPD2     C12636   1.175   2.159  10.903  0.1776  0.7136  0.7947
  861MPD2    C112637   1.217   2.268  10.982  0.8648 -0.0939  0.0122
  861MPD2    C212638   1.169   2.393  10.953  0.5435  0.0127  0.0338
  861MPD2    C312639   1.080   2.411  10.852 -0.2618  0.0434  0.4816
  861MPD2    C412640   1.048   2.308  10.775 -0.6642  0.6032 -0.4494
  861MPD2    C512641   1.094   2.180  10.791 -0.4167 -0.1841 -0.6420
  861MPD2     H12642   1.210   2.479  11.006  1.1512  0.6663 -1.4974
  861MPD2    H112643   0.994   2.319  10.682 -0.9138  0.3599 -0.3354
  861MPD2    H212644   1.212   2.059  10.922  0.9826  0.8687  0.0233
  861MPD2    H312645   1.070   2.096  10.727  1.7103 -0.9192 -0.5026
  861MPD2     N12646   1.011   2.530  10.825 -0.0290  0.4280 -0.2100
  861MPD2    H512647   0.944   2.535  10.749 -0.3094 -2.4869 -0.1519
  861MPD2    N112648   1.311   2.253  11.087  0.2806 -0.0945 -0.1992
  861MPD2    H712649   1.338   2.339  11.135  0.1143  1.3036 -2.6078
  862MPD2     C12650   1.034   2.896  10.315 -0.4978  0.0522 -0.7732
  862MPD2    C112651   0.936   2.830  10.388 -0.5669 -0.9529  0.0075
  862MPD2    C212652   0.899   2.697  10.356 -0.1521  0.0725 -0.0600
  862MPD2    C312653   0.974   2.626  10.259 -0.4563  0.5822 -0.1724
  862MPD2    C412654   1.055   2.704  10.180 -0.4323  0.4335 -0.6330
  862MPD2    C512655   1.082   2.835  10.207 -0.2625 -0.4247  0.2274
  862MPD2     H12656   0.821   2.652  10.416  1.9312 -2.3290  0.8482
  862MPD2    H112657   1.121   2.666  10.103 -0.9799 -0.0828 -0.8476
  862MPD2    H212658   1.068   2.995  10.344 -1.4815  0.0157  0.5348
  862MPD2    H312659   1.158   2.889  10.151 -0.5250  0.7149  0.9530
  862MPD2     N12660   0.974   2.487  10.241  0.4737 -0.7669  0.3779
  862MPD2    H512661   1.043   2.441  10.184 -0.8274 -2.0025 -0.1895
  862MPD2    N112662   0.895   2.885  10.513  0.0527  0.9279  0.3747
  862MPD2    H712663   0.818   2.832  10.553  0.6027 -1.7410 -2.0901
  863MPD2     C12664   4.548   0.763  16.925 -0.0109 -0.3683  0.3151
  863MPD2    C112665   4.623   0.848  16.849 -0.2128  0.1141 -0.3622
  863MPD2    C212666   0.029   0.861  16.879 -0.9256 -0.1086 -0.8276
  863MPD2    C312667   0.086   0.786  16.979 -0.1477 -0.0677 -0.1025
  863MPD2    C412668   0.016   0.699  17.056  0.5667  0.1367 -0.3359
  863MPD2    C512669   4.605   0.691  17.033  0.1629  0.0815 -0.6218
  863MPD2     H12670   0.090   0.928  16.819 -0.4381 -1.2682 -1.6212
  863MPD2    H112671   0.069   0.642  17.131 -2.5012  0.1572  1.8308
  863MPD2    H212672   4.444   0.746  16.899  0.0970  0.8920 -0.9183
  863MPD2    H312673   4.538   0.634  17.096  0.3407  1.6773  1.0076
  863MPD2     N12674   0.226   0.792  17.001  0.3556  0.1038  0.1930
  863MPD2    H512675   0.263   0.720  17.062 -0.7885 -1.2743 -0.7456
  863MPD2    N112676   4.559   0.910  16.743 -0.6047 -0.2070 -0.6417
  863MPD2    H712677   4.458   0.902  16.741 -0.7881  2.0594 -0.9704
  864MPD2     C12678   4.420   2.300  16.508 -0.1067  0.5946  0.3277
  864MPD2    C112679   4.484   2.365  16.612 -0.0719 -0.4713  0.1412
  864MPD2    C212680   4.587   2.457  16.581  0.2310  0.5943 -0.0499
  864MPD2    C312681   4.629   2.475  16.451 -1.2319  0.3592  0.1007
  864MPD2    C412682   4.550   2.424  16.348 -0.3325 -0.1726  0.2836
  864MPD2    C512683   4.452   2.336  16.378  0.3040  0.4369 -0.5616
  864MPD2     H12684   4.642   2.502  16.663 -0.3201  3.8955 -1.5219
  864MPD2    H112685   4.565   2.452  16.244  0.2505 -0.3217  0.3309
  864MPD2    H212686   4.344   2.223  16.516  2.4059 -1.9180  0.2979
  864MPD2    H312687   4.385   2.294  16.304 -0.5971 -0.6034  0.8419
  864MPD2     N12688   0.020   2.553  16.417 -0.2021 -0.1472 -0.0035
  864MPD2    H512689   0.021   2.586  16.321 -1.8135 -0.2508 -0.0529
  864MPD2    N112690   4.474   2.321  16.739  0.2200 -0.7629 -0.0045
  864MPD2    H712691   4.416   2.238  16.747  0.2753 -0.8396 -0.4119
  865MPD2     C12692   0.609   2.514  15.913  0.2784  0.0521  1.0600
  865MPD2    C112693   0.518   2.483  16.012 -0.8253  0.1175  0.3507
  865MPD2    C212694   0.419   2.579  16.046  0.5824 -0.2495  0.0655
  865MPD2    C312695   0.413   2.697  15.983 -1.0528  0.2349  0.2953
  865MPD2    C412696   0.511   2.724  15.890 -0.1760  0.0027  0.1405
  865MPD2    C512697   0.613   2.638  15.862  0.7956  0.0659  0.0075
  865MPD2     H12698   0.345   2.561  16.124  0.5434 -0.1467  0.0522
  865MPD2    H112699   0.523   2.819  15.840  0.2291 -0.1852 -0.1266
  865MPD2    H212700   0.679   2.434  15.891 -2.5387 -1.9123 -0.8552
  865MPD2    H312701   0.699   2.659  15.799  1.1849 -0.5421  0.3384
  865MPD2     N12702   0.323   2.797  16.014  0.2718 -0.2300 -0.2722
  865MPD2    H512703   0.313   2.873  15.947 -1.4503  1.1535  1.5675
  865MPD2    N112704   0.531   2.363  16.081 -0.7583 -0.3037  0.2336
  865MPD2    H712705   0.611   2.305  16.058  1.0605  3.3576 -2.7363
  866MPD2     C12706   2.107   3.154  11.220 -0.1320  0.0631  0.6482
  866MPD2    C112707   2.056   3.120  11.100  0.1908  0.1636 -0.0246
  866MPD2    C212708   1.917   3.105  11.089  0.0147  0.5505  0.0608
  866MPD2    C312709   1.837   3.119  11.194 -0.0701 -0.3824 -0.4011
  866MPD2    C412710   1.895   3.146  11.312  0.1675  0.2636 -0.2337
  866MPD2    C512711   2.030   3.170  11.324  0.5149  0.9221  1.3184
  866MPD2     H12712   1.869   3.064  11.000 -0.8466  0.6997  0.4559
  866MPD2    H112713   1.838   3.144  11.404 -0.9692 -0.0705 -0.9403
  866MPD2    H212714   2.215   3.157  11.228 -0.2054 -0.0569  1.6216
  866MPD2    H312715   2.075   3.179  11.422  1.4850 -2.1224  1.1293
  866MPD2     N12716   1.695   3.080  11.185  0.9142 -0.9608 -0.5451
  866MPD2    H512717   1.669   3.044  11.094  1.1702  0.4549 -1.1849
  866MPD2    N112718   2.147   3.103  10.991  0.0230  0.2389 -0.8294
  866MPD2    H712719   2.246   3.093  11.009  0.1269 -0.2401 -1.6684
  867MPD2     C12720   3.841   2.301  17.082 -0.0952 -0.0252  0.5451
  867MPD2    C112721   3.865   2.230  17.196  0.7678 -0.1157  0.4171
  867MPD2    C212722   3.856   2.294  17.318  0.5057 -0.3059  0.5085
  867MPD2    C312723   3.851   2.430  17.326 -1.0781  0.6550  0.3720
  867MPD2    C412724   3.860   2.503  17.207  0.4385 -0.2895 -0.3290
  867MPD2    C512725   3.839   2.438  17.087 -0.3803 -0.0529  1.2572
  867MPD2     H12726   3.858   2.237  17.411  0.3616  0.3574  0.9213
  867MPD2    H112727   3.865   2.611  17.211 -0.7106 -0.2571  0.1048
  867MPD2    H212728   3.851   2.251  16.986 -2.3529 -0.2617  0.4348
  867MPD2    H312729   3.821   2.495  16.997  2.8206 -0.2306  0.5150
  867MPD2     N12730   3.811   2.497  17.445  0.1723 -0.0966  0.5314
  867MPD2    H512731   3.772   2.589  17.428 -0.2714 -0.0604  1.7121
  867MPD2    N112732   3.877   2.090  17.190  0.9002 -0.7235 -0.0808
  867MPD2    H712733   3.882   2.052  17.096  2.1863 -2.0623  0.5328
  868MPD2     C12734   1.359   1.200  13.182 -0.0595 -0.8670 -1.1803
  868MPD2    C112735   1.393   1.147  13.303 -0.5914 -0.2695  0.2793
  868MPD2    C212736   1.324   1.164  13.418 -0.1579 -0.7389 -0.1556
  868MPD2    C312737   1.203   1.233  13.407 -0.4872  0.1581  0.6189
  868MPD2    C412738   1.165   1.286  13.286  0.5234 -0.4551  0.5211
  868MPD2    C512739   1.242   1.274  13.171  1.0438  0.7041  0.2026
  868MPD2     H12740   1.358   1.117  13.510 -0.1645  2.6743  1.5890
  868MPD2    H112741   1.069   1.333  13.268  1.4024  0.4343 -1.8190
  868MPD2    H212742   1.418   1.189  13.092  2.4435 -0.1007  0.3631
  868MPD2    H312743   1.212   1.321  13.078 -0.9571  1.9440  1.4656
  868MPD2     N12744   1.140   1.260  13.529  0.2490  0.3063 -0.6310
  868MPD2    H512745   1.177   1.203  13.605 -4.4288 -1.8340  0.0501
  868MPD2    N112746   1.503   1.057  13.292 -0.6268  0.2520 -0.4449
  868MPD2    H712747   1.553   1.068  13.204  1.3215 -0.0833  0.6064
  869MPD2     C12748   2.729   3.854   2.112  0.0813  0.0392  0.0864
  869MPD2    C112749   2.836   3.921   2.057 -0.5464  0.2188 -0.6647
  869MPD2    C212750   2.818   4.023   1.963 -1.0945 -0.4042 -0.0701
  869MPD2    C312751   2.690   4.077   1.945  0.7485  0.0458 -0.3196
  869MPD2    C412752   2.584   4.009   2.009  0.6907 -0.7293  0.4667
  869MPD2    C512753   2.604   3.893   2.074 -0.6254 -0.4421 -0.0686
  869MPD2     H12754   2.901   4.073   1.913 -2.2294  0.2831 -1.2857
  869MPD2    H112755   2.478   4.034   2.004  0.1921 -2.7520  0.7780
  869MPD2    H212756   2.740   3.763   2.168 -1.9704  0.0370  0.5068
  869MPD2    H312757   2.520   3.828   2.097 -0.2720 -1.7877 -2.6694
  869MPD2     N12758   2.661   4.195   1.868  0.3710 -0.4283  0.3228
  869MPD2    H512759   2.562   4.218   1.867  0.9316  1.9544 -0.1855
  869MPD2    N112760   2.964   3.868   2.082  0.2976  0.2036 -0.1780
  869MPD2    H712761   2.956   3.798   2.155 -0.0182  1.2182  0.7544
  870MPD2     C12762   2.518   2.591   2.442 -0.1470  0.4890 -0.1064
  870MPD2    C112763   2.465   2.500   2.355  0.5243  1.0659 -0.5482
  870MPD2    C212764   2.335   2.524   2.304 -0.5009  0.1939  0.5098
  870MPD2    C312765   2.273   2.642   2.338 -0.1718 -0.3524 -0.2123
  870MPD2    C412766   2.322   2.719   2.432 -0.0053 -0.5336  0.1181
  870MPD2    C512767   2.446   2.695   2.474 -0.5060  0.7030 -0.0879
  870MPD2     H12768   2.294   2.468   2.221  1.7108 -1.5259  0.5742
  870MPD2    H112769   2.280   2.816   2.456  4.6646  1.1702  1.5175
  870MPD2    H212770   2.620   2.589   2.477 -0.4298 -1.1980  0.6521
  870MPD2    H312771   2.501   2.766   2.534 -1.2466  2.1199 -1.0804
  870MPD2     N12772   2.156   2.680   2.261  0.4036  0.1282 -0.4871
  870MPD2    H512773   2.135   2.609   2.191 -1.3557 -0.3705  0.5442
  870MPD2    N112774   2.546   2.385   2.317 -0.0476 -0.4242 -0.2025
  870MPD2    H712775   2.644   2.372   2.339 -0.7457  0.7810  3.5772
  871MPD2     C12776   3.188   2.066  17.059  0.2572  0.0277 -0.4636
  871MPD2    C112777   3.164   2.054  17.189  1.1103 -0.3027  0.4807
  871MPD2    C212778   3.163   1.924  17.249 -0.6962  0.0279  0.7266
  871MPD2    C312779   3.183   1.811  17.177 -0.2101  0.5700 -0.1458
  871MPD2    C412780   3.203   1.821  17.041  0.0765  1.0728  1.0697
  871MPD2    C512781   3.198   1.949  16.988 -0.4481 -0.2587 -0.0478
  871MPD2     H12782   3.139   1.909  17.353 -0.9159  1.0902  0.8327
  871MPD2    H112783   3.209   1.728  16.986 -1.0908  1.2305  0.6797
  871MPD2    H212784   3.174   2.164  17.014 -0.3082 -0.4049 -1.2216
  871MPD2    H312785   3.212   1.938  16.881 -1.4529  1.2671 -0.3375
  871MPD2     N12786   3.185   1.690  17.250 -0.1576 -1.1078  0.6458
  871MPD2    H512787   3.148   1.702  17.344 -1.1269 -0.6177  0.1880
  871MPD2    N112788   3.147   2.169  17.267 -0.2033 -0.0048  0.2675
  871MPD2    H712789   3.169   2.259  17.226 -0.8920 -0.8573 -1.9885
  872MPD2     C12790   4.294   4.670  13.950 -0.5976 -0.1134  0.1217
  872MPD2    C112791   4.241   4.585  13.860  0.7817  0.2653  0.1244
  872MPD2    C212792   4.111   4.542  13.874  0.1693 -0.6661 -0.1236
  872MPD2    C312793   4.040   4.589  13.984  0.0920  0.7135  0.8932
  872MPD2    C412794   4.091   4.689  14.066 -0.3321 -0.3051 -0.0964
  872MPD2    C512795   4.218   0.004  14.055  0.7000 -0.3715 -0.3886
  872MPD2     H12796   4.071   4.469  13.805 -0.6914  1.2042 -1.5785
  872MPD2    H112797   4.038   0.008  14.151  2.7841 -0.0625  1.7509
  872MPD2    H212798   4.393   4.712  13.936  0.1661 -1.4147  1.5630
  872MPD2    H312799   4.264   0.067  14.130  0.9163 -1.9794  0.8382
  872MPD2     N12800   3.920   4.541  14.028  0.6737 -0.0637  0.2574
  872MPD2    H512801   3.901   4.561  14.125 -1.4170 -1.1662  0.0639
  872MPD2    N112802   4.327   4.541  13.761 -0.4878 -0.2054 -0.3059
  872MPD2    H712803   4.424   4.552  13.787 -0.6340 -1.8788  0.9583
  873MPD2     C12804   1.116   0.348   0.812 -0.0862  0.8997  0.0631
  873MPD2    C112805   1.209   0.383   0.907  0.5880  0.2035 -0.4361
  873MPD2    C212806   1.344   0.346   0.875  0.3211 -0.0221  0.1040
  873MPD2    C312807   1.385   0.277   0.761 -0.6085  0.7199  0.2213
  873MPD2    C412808   1.288   0.256   0.664  0.3636  0.1040  0.5431
  873MPD2    C512809   1.156   0.291   0.693  0.1041 -0.2140  0.0139
  873MPD2     H12810   1.414   0.369   0.954  0.6069 -0.6997  0.0431
  873MPD2    H112811   1.297   0.204   0.569 -0.5830  1.8840 -0.5248
  873MPD2    H212812   1.009   0.357   0.831  0.4551  3.9788  1.5933
  873MPD2    H312813   1.081   0.264   0.619  0.5372  0.8503 -0.8098
  873MPD2     N12814   1.513   0.222   0.741 -0.0368  0.1653 -0.2401
  873MPD2    H512815   1.527   0.174   0.653 -1.5710  0.9997 -0.9330
  873MPD2    N112816   1.166   0.439   1.034 -0.3496 -0.6750 -0.1508
  873MPD2    H712817   1.069   0.459   1.054  0.0388 -0.1454  1.2309
  874MPD2     C12818   4.708   4.470  16.289  0.3108 -1.1053 -0.1591
  874MPD2    C112819   0.093   4.411  16.348  0.5638  0.2549  0.7722
  874MPD2    C212820   0.220   4.465  16.316  0.6521 -0.2886  0.3754
  874MPD2    C312821   0.223   4.588  16.253 -0.2322 -0.4888 -0.2118
  874MPD2    C412822   0.110   4.654  16.213  0.0710 -0.2794 -0.9279
  874MPD2    C512823   4.717   4.586  16.217  0.8572 -0.8504 -0.7750
  874MPD2     H12824   0.316   4.417  16.329  0.1942 -2.4570 -4.0733
  874MPD2    H112825   0.106   0.023  16.155  0.9467  0.6137  0.4275
  874MPD2    H212826   4.609   4.428  16.303  0.0193 -0.8066 -1.3542
  874MPD2    H312827   4.626   4.629  16.177 -0.1876 -0.4711  2.0093
  874MPD2     N12828   0.357   4.641  16.234 -0.2153 -0.6081 -0.2609
  874MPD2    H512829   0.434   4.575  16.247  1.4071  1.7695  2.0578
  874MPD2    N112830   0.074   4.284  16.411  0.2495 -0.4250 -0.3328
  874MPD2    H712831   4.701   4.257  16.433  0.0370  0.8212  0.2249
  875MPD2     C12832   1.955   2.900  14.639 -0.4487  0.8444  0.2879
  875MPD2    C112833   1.845   2.952  14.697 -0.2622 -0.5714  0.1225
  875MPD2    C212834   1.845   2.990  14.830  0.1288 -0.2342 -0.4046
  875MPD2    C312835   1.961   3.002  14.903  0.7496 -0.7277 -0.0420
  875MPD2    C412836   2.082   2.971  14.840  0.1128  0.2783 -0.5632
  875MPD2    C512837   2.067   2.903  14.718 -0.3453 -0.0469  0.3226
  875MPD2     H12838   1.751   3.019  14.875 -1.2315 -1.6138 -2.3656
  875MPD2    H112839   2.178   2.981  14.888 -0.6751  1.8459  0.7129
  875MPD2    H212840   1.960   2.872  14.534  0.3935  1.6845  0.1013
  875MPD2    H312841   2.162   2.873  14.675 -2.1974 -1.7518 -2.5769
  875MPD2     N12842   1.971   3.065  15.026  0.1127  0.5007 -0.3480
  875MPD2    H512843   2.052   3.125  15.039  0.2541  0.5195 -1.3572
  875MPD2    N112844   1.729   2.974  14.618  0.4857  0.1728  0.8896
  875MPD2    H712845   1.653   3.017  14.670 -0.1421  1.2362 -0.9019
  876MPD2     C12846   0.278   4.222  16.066  0.2454 -0.6540  0.2437
  876MPD2    C112847   0.407   4.206  16.025 -0.0303 -0.0273 -0.3204
  876MPD2    C212848   0.470   4.082  16.051 -0.0807 -0.2860  0.6208
  876MPD2    C312849   0.404   3.975  16.104 -0.0286 -0.3760 -0.0276
  876MPD2    C412850   0.267   3.992  16.136  0.5861 -0.5927  0.0666
  876MPD2    C512851   0.210   4.118  16.127 -0.1293 -0.2058 -0.0338
  876MPD2     H12852   0.571   4.054  16.021  0.5878  2.9871 -0.1396
  876MPD2    H112853   0.198   3.921  16.181 -1.2838  1.0271 -0.2256
  876MPD2    H212854   0.223   4.314  16.046  2.1244  0.6279  1.0495
  876MPD2    H312855   0.105   4.136  16.149  0.4803  1.2393  1.6343
  876MPD2     N12856   0.469   3.854  16.119  0.4968 -0.7658  0.4259
  876MPD2    H512857   0.566   3.850  16.089  0.4789 -0.6540  0.3533
  876MPD2    N112858   0.464   4.306  15.955  0.2729 -0.3894 -0.1213
  876MPD2    H712859   0.407   4.387  15.933  1.0998  0.3812  0.6196
  877MPD2     C12860   0.544   4.566  15.242 -0.0457 -0.5903  0.3830
  877MPD2    C112861   0.589   4.665  15.319 -0.5686 -0.0314 -0.1188
  877MPD2    C212862   0.664   0.042  15.258 -0.7759 -0.3452  0.2679
  877MPD2    C312863   0.695   0.038  15.123 -0.2300  0.0312 -0.2608
  877MPD2    C412864   0.636   4.673  15.039 -0.2321 -0.1152  0.3274
  877MPD2    C512865   0.567   4.570  15.108  0.2716  0.6215  0.5182
  877MPD2     H12866   0.709   0.119  15.318  0.4126 -0.3718 -0.6047
  877MPD2    H112867   0.647   4.670  14.931 -0.3250  0.9833  0.2934
  877MPD2    H212868   0.492   4.481  15.284  0.9482 -0.3775  2.0262
  877MPD2    H312869   0.522   4.493  15.046  1.6906 -2.2647  3.0834
  877MPD2     N12870   0.790   0.122  15.063  0.3499 -0.4681  0.4912
  877MPD2    H512871   0.804   0.098  14.966  1.4070 -0.4774  0.6509
  877MPD2    N112872   0.569   4.666  15.457 -0.7339  0.0877 -0.3083
  877MPD2    H712873   0.615   0.015  15.512  0.7227 -1.1282  0.0725
  878MPD2     C12874   0.250   3.657  13.278 -0.7825  0.1187 -0.1771
  878MPD2    C112875   0.302   3.789  13.269 -0.0747  0.3954  0.0036
  878MPD2    C212876   0.327   3.855  13.389  0.2845  0.1778 -0.3078
  878MPD2    C312877   0.305   3.795  13.516  0.1682 -0.0607 -0.1061
  878MPD2    C412878   0.252   3.668  13.522  0.5977 -1.1010 -0.5727
  878MPD2    C512879   0.224   3.610  13.401  0.0954 -0.1194  0.3266
  878MPD2     H12880   0.351   3.961  13.379  0.2016  0.3936  1.8861
  878MPD2    H112881   0.235   3.602  13.606  2.1827  0.0675  0.6566
  878MPD2    H212882   0.227   3.593  13.193  0.8656  0.5508 -0.9612
  878MPD2    H312883   0.192   3.507  13.405 -0.0260 -0.0899  0.0920
  878MPD2     N12884   0.328   3.871  13.629  0.6528 -0.0902  0.7171
  878MPD2    H512885   0.409   3.932  13.629  0.0499  0.6998  2.1040
  878MPD2    N112886   0.328   3.828  13.135 -0.2423  0.1618  0.2583
  878MPD2    H712887   0.326   3.757  13.062 -1.2748 -0.0705  0.5171
  879MPD2     C12888   0.839   0.987  16.334  0.0850 -0.9363 -0.1114
  879MPD2    C112889   0.827   0.981  16.471  0.0462  0.1998 -0.0753
  879MPD2    C212890   0.737   0.891  16.528  0.2948  0.4044 -0.4312
  879MPD2    C312891   0.686   0.787  16.453  0.0224 -0.0133  0.5672
  879MPD2    C412892   0.706   0.787  16.324  0.4886 -0.2089  0.1243
  879MPD2    C512893   0.777   0.889  16.264  0.0389  0.3725 -0.4240
  879MPD2     H12894   0.705   0.891  16.631 -1.0597  2.5381 -0.8385
  879MPD2    H112895   0.669   0.704  16.265 -0.1574  0.3996 -0.3370
  879MPD2    H212896   0.903   1.060  16.285  0.5175 -0.8326  0.6039
  879MPD2    H312897   0.807   0.886  16.160 -0.5342  0.7843 -0.6060
  879MPD2     N12898   0.597   0.686  16.501 -0.0311  0.4023  0.2465
  879MPD2    H512899   0.577   0.618  16.428 -3.3113 -1.4255  2.8490
  879MPD2    N112900   0.904   1.071  16.551  0.1667  0.2726  0.0499
  879MPD2    H712901   0.974   1.130  16.509  1.7105 -1.5352  0.0633
  880MPD2     C12902   1.943   2.342   0.795 -0.4073  0.2981 -1.1612
  880MPD2    C112903   1.994   2.393   0.908 -0.3899 -0.0323  0.4219
  880MPD2    C212904   2.062   2.307   0.995  0.3938 -0.0641 -0.0527
  880MPD2    C312905   2.090   2.171   0.954  0.2632  0.1818 -0.0812
  880MPD2    C412906   2.023   2.123   0.839 -0.5313  0.1030  0.3629
  880MPD2    C512907   1.954   2.209   0.764  0.0813 -0.2769 -0.6853
  880MPD2     H12908   2.105   2.343   1.087  0.7632  1.7844 -0.9557
  880MPD2    H112909   2.038   2.020   0.809  0.0500  0.5337 -0.8192
  880MPD2    H212910   1.901   2.410   0.722 -1.3404  1.2931  0.3041
  880MPD2    H312911   1.916   2.175   0.669  0.0859  2.4451 -1.6715
  880MPD2     N12912   2.174   2.093   1.043 -0.2637 -0.3527  0.4905
  880MPD2    H512913   2.210   2.136   1.127 -0.6717 -0.2603  0.6186
  880MPD2    N112914   1.987   2.530   0.929  0.3456 -0.1942  0.2202
  880MPD2    H712915   1.950   2.581   0.850  0.6458  1.5450  1.2118
  881MPD2     C12916   2.171   3.348   0.383  0.2910  0.5089 -0.0740
  881MPD2    C112917   2.135   3.214   0.361  0.4615  0.3409 -0.5032
  881MPD2    C212918   2.125   3.127   0.473 -0.3528 -0.1987  0.2288
  881MPD2    C312919   2.131   3.188   0.600 -0.1354  0.7380  1.3084
  881MPD2    C412920   2.152   3.325   0.616 -0.1898  0.3137 -0.4511
  881MPD2    C512921   2.171   3.402   0.503 -0.0874 -0.7210  0.2398
  881MPD2     H12922   2.116   3.019   0.464 -0.7295 -0.3224  2.0532
  881MPD2    H112923   2.169   3.369   0.714 -0.7314  1.3594 -0.8307
  881MPD2    H212924   2.170   3.424   0.305 -1.0777  3.0993  2.4685
  881MPD2    H312925   2.188   3.509   0.508 -0.3138 -0.5863 -1.7261
  881MPD2     N12926   2.097   3.115   0.717 -0.8242  0.4018 -0.4667
  881MPD2    H512927   2.083   3.166   0.803 -1.1989 -0.0857 -0.2358
  881MPD2    N112928   2.170   3.166   0.231  0.0298  0.5755 -0.3882
  881MPD2    H712929   2.214   3.230   0.165 -0.3794 -0.1317 -1.3567
  882MPD2     C12930   0.988   4.687  14.409 -0.5732 -0.1479  0.3014
  882MPD2    C112931   0.902   0.036  14.488 -0.1239  0.2284  0.1316
  882MPD2    C212932   0.767   0.002  14.481  0.2723 -0.5803 -0.1631
  882MPD2    C312933   0.724   4.620  14.403 -0.3984  0.1230  0.4922
  882MPD2    C412934   0.814   4.544  14.332  0.1177  0.0376 -0.3089
  882MPD2    C512935   0.947   4.577  14.333 -0.1373 -0.0361 -0.7832
  882MPD2     H12936   0.697   0.074  14.523  1.1541 -1.0904  2.2189
  882MPD2    H112937   0.785   4.459  14.271  0.3238 -1.5306  1.7707
  882MPD2    H212938   1.096   4.701  14.414 -0.4017 -1.6296  0.9217
  882MPD2    H312939   1.022   4.515  14.285  0.8758 -1.0728  2.1909
  882MPD2     N12940   0.596   4.565  14.403  0.2168  0.4018 -0.3528
  882MPD2    H512941   0.578   4.479  14.351 -0.8233  0.7533 -0.5838
  882MPD2    N112942   0.947   0.146  14.573  0.3961 -0.2826 -0.6006
  882MPD2    H712943   1.048   0.156  14.572  0.3561  0.2741  1.1315
  883MPD2     C12944   3.177   0.229  16.316  0.7762 -0.1839  0.1496
  883MPD2    C112945   3.152   0.095  16.296 -1.0841  0.1761 -0.3958
  883MPD2    C212946   3.218   0.003  16.371  0.0462 -0.1140 -0.6802
  883MPD2    C312947   3.318   0.042  16.461 -0.1395 -0.0099  0.0932
  883MPD2    C412948   3.341   0.178  16.479 -0.3243 -0.3191 -0.5402
  883MPD2    C512949   3.278   0.271  16.401 -0.1769  0.2284  0.1787
  883MPD2     H12950   3.187   4.622  16.364  0.1439 -0.3903  2.9907
  883MPD2    H112951   3.430   0.214  16.529 -1.8650  0.4953  1.6389
  883MPD2    H212952   3.129   0.310  16.261  1.6454 -0.7355 -1.4255
  883MPD2    H312953   3.303   0.376  16.403  2.1561 -0.3330 -0.0492
  883MPD2     N12954   3.398   4.663  16.529  0.9506  0.1884  0.0787
  883MPD2    H512955   3.371   4.565  16.522  3.1519 -0.5002  0.9703
  883MPD2    N112956   3.058   0.038  16.199  0.2313 -0.0734  0.2596
  883MPD2    H712957   3.045   4.659  16.201 -0.1338  0.0144  2.6572
  884MPD2     C12958   4.525   0.281  15.332 -0.2719  0.2027 -0.4336
  884MPD2    C112959   4.453   0.294  15.219  0.0165 -0.0926 -0.1401
  884MPD2    C212960   4.334   0.363  15.221  0.1957 -0.5582  0.0384
  884MPD2    C312961   4.288   0.416  15.339  0.1696 -0.7771 -0.9755
  884MPD2    C412962   4.359   0.395  15.451 -0.1704  0.1264 -0.6890
  884MPD2    C512963   4.481   0.340  15.444  0.2040 -0.3073  0.1744
  884MPD2     H12964   4.276   0.376  15.130  1.3199 -1.1675 -0.7768
  884MPD2    H112965   4.328   0.430  15.549  0.7262  1.3457 -0.8399
  884MPD2    H212966   4.622   0.233  15.337 -0.8178 -0.9880 -1.1169
  884MPD2    H312967   4.531   0.330  15.540 -1.2469 -0.0447  0.9690
  884MPD2     N12968   4.160   0.469  15.348  0.2092  0.4071 -0.2711
  884MPD2    H512969   4.102   0.471  15.265 -0.0853  1.0618 -0.0490
  884MPD2    N112970   4.498   0.245  15.096  0.3097 -0.4399  0.1814
  884MPD2    H712971   4.439   0.263  15.016 -1.8898 -0.0062  1.8824
  885MPD2     C12972   2.454   0.653   0.164  0.8906  0.6117  0.3776
  885MPD2    C112973   2.581   0.635   0.117 -0.8932  0.3202 -0.4802
  885MPD2    C212974   2.618   0.692  17.689 -0.0925 -0.1627  0.1117
  885MPD2    C312975   2.528   0.780  17.629 -0.3144 -0.0794  0.2836
  885MPD2    C412976   2.399   0.794  17.679  0.5225  0.0924  0.1568
  885MPD2    C512977   2.364   0.730   0.101  0.8697  0.2218 -0.0262
  885MPD2     H12978   2.711   0.668  17.639 -0.6213 -2.6316  0.3099
  885MPD2    H112979   2.319   0.853  17.634  1.1248 -1.0307 -2.4109
  885MPD2    H212980   2.419   0.604   0.254 -2.5268  0.3677 -1.0932
  885MPD2    H312981   2.261   0.733   0.134  0.9230 -1.4653  0.2555
  885MPD2     N12982   2.566   0.839  17.505 -0.0508  0.2043 -0.1900
  885MPD2    H512983   2.659   0.812  17.476 -0.5256 -1.4914 -0.1422
  885MPD2    N112984   2.664   0.547   0.192 -0.4242 -0.1312 -0.1341
  885MPD2    H712985   2.619   0.534   0.282 -1.0306  1.5183 -0.1952
  886MPD2     C12986   3.827   3.719  15.349  0.0891  0.7151  0.0929
  886MPD2    C112987   3.964   3.728  15.380  0.9725 -0.5766  0.2436
  886MPD2    C212988   4.048   3.812  15.312 -0.2794 -0.2352 -0.3047
  886MPD2    C312989   3.997   3.899  15.212 -0.3045 -0.4609  0.4583
  886MPD2    C412990   3.859   3.893  15.187 -0.3681 -0.0454  0.3582
  886MPD2    C512991   3.780   3.805  15.250  0.5812  0.1268 -0.7066
  886MPD2     H12992   4.154   3.810  15.334 -0.4961 -0.0458  0.7344
  886MPD2    H112993   3.809   3.961  15.119 -0.3974 -1.2274 -0.7990
  886MPD2    H212994   3.758   3.644  15.387  0.5067  0.5015  0.4269
  886MPD2    H312995   3.676   3.805  15.220 -0.0102 -2.7462  1.2781
  886MPD2     N12996   4.073   3.991  15.137  0.3015  0.0468 -0.2094
  886MPD2    H512997   4.024   4.033  15.058 -2.8205 -0.3706  1.5153
  886MPD2    N112998   4.031   3.634  15.470  0.3764 -0.5323 -0.1305
  886MPD2    H712999   4.132   3.632  15.477  0.4723 -1.3731 -1.6641
  887MPD2     C13000   4.688   3.590  15.780  0.7479 -0.2064  0.2742
  887MPD2    C113001   4.570   3.660  15.751 -0.3237 -0.3334 -0.5635
  887MPD2    C213002   4.577   3.801  15.761  0.5842 -0.6288 -0.3666
  887MPD2    C313003   4.687   3.868  15.793  0.1472  0.3470 -0.0602
  887MPD2    C413004   0.076   3.801  15.819 -0.0637  0.0252  0.5006
  887MPD2    C513005   0.079   3.666  15.799  0.3144  0.1576 -0.1010
  887MPD2     H13006   4.488   3.860  15.742 -1.0397 -2.7517  0.6438
  887MPD2    H113007   0.160   3.856  15.857 -1.9386  2.9194  0.4452
  887MPD2    H213008   4.706   3.483  15.782 -0.1050 -0.4099 -1.9528
  887MPD2    H313009   0.178   3.624  15.810 -0.1210 -0.7393  0.3777
  887MPD2     N13010   4.690   4.011  15.802  0.2707 -0.1160 -0.5682
  887MPD2    H513011   4.601   4.060  15.797 -0.5496 -1.5729 -0.1363
  887MPD2    N113012   4.435   3.598  15.735  0.8808  0.8962  0.3285
  887MPD2    H713013   4.355   3.657  15.716 -1.6999 -2.2691  1.5262
  888MPD2     C13014   2.621   4.263  15.289 -0.8772 -0.9404  0.2255
  888MPD2    C113015   2.485   4.259  15.321 -0.0794 -0.6021  0.6926
  888MPD2    C213016   2.417   4.376  15.363  0.3580  0.7833  0.0878
  888MPD2    C313017   2.485   4.491  15.380  0.6204  0.1722 -0.4288
  888MPD2    C413018   2.622   4.490  15.372 -0.5159  0.7823  0.4195
  888MPD2    C513019   2.684   4.378  15.322 -0.3648  0.5152  0.7108
  888MPD2     H13020   2.309   4.380  15.379  0.3298 -1.2907  0.3808
  888MPD2    H113021   2.684   4.576  15.397 -1.6100  1.7243 -0.0903
  888MPD2    H213022   2.683   4.176  15.269  1.1184  0.5659 -0.1803
  888MPD2    H313023   2.791   4.367  15.336 -0.3039  1.5894  1.0575
  888MPD2     N13024   2.415   4.610  15.395 -0.6562  0.5466  0.8045
  888MPD2    H513025   2.315   4.608  15.384 -0.4298 -0.6727 -0.9840
  888MPD2    N113026   2.409   4.141  15.311 -0.7309 -0.4082 -0.3650
  888MPD2    H713027   2.318   4.140  15.355 -0.5055 -0.8671  0.0869
  889MPD2     C13028   0.734   3.650  12.803  0.0374 -0.6522  0.0859
  889MPD2    C113029   0.836   3.625  12.895  0.1963 -0.6167 -0.7320
  889MPD2    C213030   0.912   3.723  12.945  0.4523  0.0258 -0.2381
  889MPD2    C313031   0.855   3.856  12.938 -0.0826  0.3959  0.1797
  889MPD2    C413032   0.744   3.878  12.850  0.4666 -0.5410  0.1332
  889MPD2    C513033   0.675   3.775  12.796 -0.1985  0.4919  0.4382
  889MPD2     H13034   0.990   3.710  13.019  1.3458  4.8830 -0.3418
  889MPD2    H113035   0.702   3.978  12.851  1.0643 -0.2848 -2.5426
  889MPD2    H213036   0.673   3.568  12.769 -0.5162 -1.1674  2.3361
  889MPD2    H313037   0.582   3.790  12.743  0.7981 -2.6185 -2.1668
  889MPD2     N13038   0.928   3.958  13.004 -0.2096 -0.3601 -0.8669
  889MPD2    H513039   1.015   3.929  13.046  0.7745  0.3491 -2.4449
  889MPD2    N113040   0.874   3.488  12.907  0.4743  0.3254 -0.1291
  889MPD2    H713041   0.837   3.416  12.846 -0.3619  2.0592 -1.6665
  890MPD2     C13042   0.732   0.686  14.577  0.1021  0.4277  0.1713
  890MPD2    C113043   0.793   0.768  14.663 -0.4334 -0.1379  0.6371
  890MPD2    C213044   0.778   0.741  14.802  0.0106  0.5044  0.3407
  890MPD2    C313045   0.705   0.630  14.841 -0.4567 -0.3594 -0.1534
  890MPD2    C413046   0.640   0.554  14.741 -0.1544  0.2396  0.2166
  890MPD2    C513047   0.647   0.590  14.610 -0.3963  0.6837 -0.1468
  890MPD2     H13048   0.825   0.810  14.872 -0.8657  1.3318  0.1135
  890MPD2    H113049   0.566   0.476  14.758  1.1905 -1.2284 -0.6579
  890MPD2    H213050   0.744   0.704  14.471  2.1246 -1.4461  0.0822
  890MPD2    H313051   0.593   0.529  14.540  0.2619 -1.4709  1.2195
  890MPD2     N13052   0.673   0.615  14.980  0.9291 -0.0189  0.4845
  890MPD2    H513053   0.697   0.699  15.032  1.5773 -0.6919  1.2839
  890MPD2    N113054   0.838   0.886  14.609  0.9157  0.6730  0.5838
  890MPD2    H713055   0.816   0.891  14.510  3.5186  1.6794  0.0571
  891MPD2     C13056   3.456   4.072  16.758  0.1390 -0.3606 -0.4921
  891MPD2    C113057   3.402   4.085  16.882 -0.3064 -0.5322 -0.7653
  891MPD2    C213058   3.468   4.027  16.988 -0.9606 -0.0408  0.0366
  891MPD2    C313059   3.586   3.954  16.982  0.5331  0.3083  0.5898
  891MPD2    C413060   3.641   3.944  16.855 -0.6222  0.2099  0.0482
  891MPD2    C513061   3.572   3.999  16.751  0.0479  0.4065 -0.6195
  891MPD2     H13062   3.417   4.040  17.083  1.0492  1.8131  0.8616
  891MPD2    H113063   3.729   3.884  16.834 -0.9909 -0.1928 -0.3394
  891MPD2    H213064   3.404   4.107  16.670  0.2140 -2.8135 -1.5224
  891MPD2    H313065   3.609   3.985  16.650 -0.9604 -2.6338 -0.5731
  891MPD2     N13066   3.642   3.895  17.098 -0.3972  0.4578 -0.5047
  891MPD2    H513067   3.590   3.910  17.184 -1.2344  1.2413 -1.1451
  891MPD2    N113068   3.268   4.137  16.890 -0.5236 -0.2453 -0.6363
  891MPD2    H713069   3.230   4.174  16.803  1.2924  1.4377 -0.6944
  892MPD2     C13070   4.535   4.580  15.069 -0.1914  0.6425  0.0070
  892MPD2    C113071   4.480   4.621  14.946  0.8210  0.2737 -0.4528
  892MPD2    C213072   4.563   4.642  14.837 -1.0357  0.4079  0.4100
  892MPD2    C313073   4.697   4.616  14.846  0.0345 -0.2310  0.5013
  892MPD2    C413074   0.027   4.579  14.968 -0.0653  0.0877 -0.0195
  892MPD2    C513075   4.669   4.553  15.077 -0.1031 -0.6389 -0.3803
  892MPD2     H13076   4.523   4.686  14.747 -2.6147  1.1638  1.4755
  892MPD2    H113077   0.130   4.546  14.975  0.0620  0.0993 -1.8013
  892MPD2    H213078   4.473   4.554  15.153 -0.3437  1.3552  0.1147
  892MPD2    H313079   4.708   4.496  15.161 -1.8820  1.7401  2.0542
  892MPD2     N13080   0.064   4.628  14.736  0.5136 -0.3765  0.5603
  892MPD2    H513081   0.159   4.616  14.767  0.2866 -0.0004  1.4134
  892MPD2    N113082   4.340   4.643  14.927 -0.1930  0.2458  0.2345
  892MPD2    H713083   4.313   4.701  14.848 -2.7521 -0.1951  0.7905
  893MPD2     C13084   2.533   2.876   2.947  0.8642  0.8579  0.6474
  893MPD2    C113085   2.449   2.905   2.844 -0.1745 -0.4034 -0.4186
  893MPD2    C213086   2.395   2.794   2.777  0.0457 -0.1193 -0.0010
  893MPD2    C313087   2.422   2.666   2.824  0.6837 -1.2361  0.6474
  893MPD2    C413088   2.508   2.638   2.925 -0.6893 -0.0600 -0.0806
  893MPD2    C513089   2.570   2.747   2.977 -0.1781  0.0915 -0.3739
  893MPD2     H13090   2.335   2.810   2.689 -1.6576 -0.9618  1.0160
  893MPD2    H113091   2.528   2.538   2.962  0.2932  0.6209  1.2657
  893MPD2    H213092   2.582   2.956   3.001 -1.2859  3.8670 -1.8477
  893MPD2    H313093   2.636   2.736   3.063 -0.6553 -0.9650 -0.1452
  893MPD2     N13094   2.352   2.559   2.763  0.0195 -0.0550 -0.3069
  893MPD2    H513095   2.279   2.578   2.694 -0.7201  2.0479  1.0636
  893MPD2    N113096   2.437   3.039   2.798  0.0105 -0.1045 -0.4071
  893MPD2    H713097   2.502   3.107   2.838 -3.1137  1.6683  1.6303
  894MPD2     C13098   4.663   1.984   0.551  0.4559  0.2302 -0.3364
  894MPD2    C113099   4.587   1.919   0.649 -0.4271  0.8235 -0.4978
  894MPD2    C213100   4.634   1.914   0.782 -0.3572  0.4109  0.1210
  894MPD2    C313101   0.032   1.976   0.810  0.3404 -0.4926 -0.3864
  894MPD2    C413102   0.107   2.045   0.710  0.0963 -0.5418  0.0382
  894MPD2    C513103   0.061   2.045   0.584 -0.7744  0.4422  0.1183
  894MPD2     H13104   4.571   1.871   0.859 -1.5772 -0.0958 -1.1576
  894MPD2    H113105   0.203   2.090   0.734  0.7532 -2.0257  0.2543
  894MPD2    H213106   4.639   1.983   0.446 -0.1532  1.9276 -0.2225
  894MPD2    H313107   0.121   2.089   0.505  0.7141  0.5223  1.2797
  894MPD2     N13108   0.067   1.990   0.947  0.2556  0.0945 -0.6956
  894MPD2    H513109   0.017   1.928   1.009  0.1330  1.7297  0.8280
  894MPD2    N113110   4.457   1.860   0.628 -0.2888  0.2793 -0.6563
  894MPD2    H713111   4.415   1.833   0.716 -0.8080 -0.2027 -1.0444
  895MPD2     C13112   4.085   3.437  13.567 -0.5159  0.3278 -0.6452
  895MPD2    C113113   3.981   3.431  13.482 -0.3481 -0.4814  0.4186
  895MPD2    C213114   3.935   3.308  13.441 -0.0757  0.2456 -0.0205
  895MPD2    C313115   3.990   3.189  13.487  0.0931 -0.1280  0.3023
  895MPD2    C413116   4.089   3.193  13.581 -0.8757 -0.0003  0.4036
  895MPD2    C513117   4.130   3.320  13.623 -0.0581 -0.5854  0.1731
  895MPD2     H13118   3.848   3.305  13.376  2.1526 -1.1699 -2.9393
  895MPD2    H113119   4.134   3.106  13.627 -0.1613  0.2031  0.0953
  895MPD2    H213120   4.129   3.532  13.597  0.6755  0.2952 -2.2835
  895MPD2    H313121   4.199   3.324  13.706 -0.7600  1.9544  0.6449
  895MPD2     N13122   3.935   3.058  13.444 -0.2655 -0.4511 -0.7309
  895MPD2    H513123   3.942   2.983  13.511  1.5176 -0.2948 -0.7343
  895MPD2    N113124   3.910   3.543  13.434 -0.4084 -0.1027  0.0654
  895MPD2    H713125   3.821   3.524  13.390  0.1795  0.6665 -1.4470
  896MPD2     C13126   1.407   1.870   1.885 -0.0834  0.1608 -0.0046
  896MPD2    C113127   1.415   1.836   1.755 -0.4757  0.6730  0.0082
  896MPD2    C213128   1.302   1.789   1.695 -0.8127 -0.7260 -0.7663
  896MPD2    C313129   1.185   1.788   1.763 -0.3941  0.7329 -0.0168
  896MPD2    C413130   1.176   1.836   1.894  0.1399 -0.6136 -0.3558
  896MPD2    C513131   1.295   1.877   1.952 -0.3772 -0.5700 -0.4684
  896MPD2     H13132   1.296   1.754   1.592 -2.0203 -0.8718 -0.6456
  896MPD2    H113133   1.081   1.844   1.946 -0.7230 -2.5067 -1.6163
  896MPD2    H213134   1.491   1.900   1.946  0.7676  0.2969 -1.2556
  896MPD2    H313135   1.297   1.909   2.056 -2.6993  0.6163 -0.7920
  896MPD2     N13136   1.066   1.751   1.693  0.2519 -0.1283  0.3919
  896MPD2    H513137   1.084   1.703   1.606  1.5952 -1.8840  1.6504
  896MPD2    N113138   1.544   1.838   1.696  0.2465  0.1811 -0.1500
  896MPD2    H713139   1.620   1.866   1.756  1.5390  0.1200 -1.7591
  897MPD2     C13140   2.401   3.444  10.466  0.6022 -0.6545 -0.0182
  897MPD2    C113141   2.323   3.555  10.469 -0.4742  0.2506  0.0990
  897MPD2    C213142   2.223   3.565  10.567  0.0165  0.2440 -0.2811
  897MPD2    C313143   2.230   3.470  10.673 -0.4831 -0.2302 -0.4591
  897MPD2    C413144   2.308   3.358  10.665  0.1329  0.0171  0.1952
  897MPD2    C513145   2.390   3.342  10.556  0.3852  0.2786 -0.9112
  897MPD2     H13146   2.162   3.654  10.574 -1.2850 -0.5486 -1.4448
  897MPD2    H113147   2.323   3.289  10.747  1.3151 -0.0940 -0.1008
  897MPD2    H213148   2.470   3.432  10.384  2.0214 -0.0806  1.0982
  897MPD2    H313149   2.460   3.259  10.557 -0.1566 -0.1708 -0.4244
  897MPD2     N13150   2.150   3.504  10.789  0.0963  0.0898  0.1173
  897MPD2    H513151   2.096   3.590  10.793  0.8190  0.5281  0.4222
  897MPD2    N113152   2.346   3.656  10.369  0.0665 -0.3392  0.5347
  897MPD2    H713153   2.423   3.641  10.305 -0.7543  3.0522 -1.2440
  898MPD2     C13154   4.501   4.294   0.139 -0.0273 -0.4527  0.0186
  898MPD2    C113155   4.521   4.428   0.157 -0.2764 -0.2511  0.3868
  898MPD2    C213156   4.436   4.515   0.093 -0.0262  0.5399 -0.3677
  898MPD2    C313157   4.339   4.472   0.004  0.6602  0.7809 -0.5400
  898MPD2    C413158   4.331   4.342  17.667 -0.2948 -0.7092 -0.4140
  898MPD2    C513159   4.414   4.254   0.045 -0.5348  0.0285  1.2393
  898MPD2     H13160   4.455   4.622   0.105 -0.8202  0.6757 -0.3123
  898MPD2    H113161   4.259   4.296  17.601  0.9279 -1.7848 -0.9953
  898MPD2    H213162   4.568   4.223   0.186 -0.4480 -1.9122 -1.5811
  898MPD2    H313163   4.413   4.151   0.010 -0.3708  1.6541 -3.4786
  898MPD2     N13164   4.259   4.570  17.634 -0.1870 -0.6004  0.5275
  898MPD2    H513165   4.274   4.667  17.660  1.8490 -1.2545  1.8632
  898MPD2    N113166   4.629   4.466   0.238  0.7193 -0.4385  0.2626
  898MPD2    H713167   4.661   4.561   0.248  2.0218 -0.7885 -0.5546
  899MPD2     C13168   0.660   0.290  17.151  0.4427  0.0735 -0.3680
  899MPD2    C113169   0.615   0.396  17.226 -0.2738  0.2167 -0.0554
  899MPD2    C213170   0.552   0.370  17.352 -0.6429 -0.1478  0.5651
  899MPD2    C313171   0.539   0.239  17.394  0.9099  0.2092  0.1959
  899MPD2    C413172   0.594   0.136  17.316  0.3237  0.1827  0.1607
  899MPD2    C513173   0.648   0.163  17.190  0.5483 -0.2607 -0.7523
  899MPD2     H13174   0.500   0.448  17.405  0.5384 -0.1445  1.7110
  899MPD2    H113175   0.581   0.035  17.353  0.1328 -0.2343 -1.0285
  899MPD2    H213176   0.688   0.311  17.048  0.4115 -2.6027 -0.9079
  899MPD2    H313177   0.672   0.083  17.120  1.5699 -0.4288 -0.2029
  899MPD2     N13178   0.478   0.197  17.514 -0.0661  0.0552  0.2685
  899MPD2    H513179   0.486   0.100  17.542 -1.1698 -0.1645 -0.2071
  899MPD2    N113180   0.641   0.524  17.178 -0.3197 -0.5163 -0.5684
  899MPD2    H713181   0.669   0.531  17.081 -1.3761 -2.5847 -1.0405
  900MPD2     C13182   4.722   1.962  12.642 -0.1738  0.0285 -0.5411
  900MPD2    C113183   4.664   1.853  12.587 -0.5268  0.5863  0.2208
  900MPD2    C213184   4.540   1.876  12.533  0.0417 -0.0123  0.3026
  900MPD2    C313185   4.476   1.999  12.540 -0.9407  0.3163  0.7934
  900MPD2    C413186   4.534   2.100  12.609  0.0778  0.2480 -0.5126
  900MPD2    C513187   4.660   2.081  12.655 -0.1727 -0.7514  0.6794
  900MPD2     H13188   4.485   1.794  12.487  0.3387 -1.4710  2.5612
  900MPD2    H113189   4.485   2.194  12.631  1.9231  0.7377  1.4802
  900MPD2    H213190   0.097   1.955  12.688  0.4204  2.5258 -1.4025
  900MPD2    H313191   4.705   2.161  12.712 -1.0746  2.4099 -3.0821
  900MPD2     N13192   4.349   2.011  12.473  0.3394 -0.7296 -0.2109
  900MPD2    H513193   4.310   1.928  12.430 -1.6571 -0.4473  1.0306
  900MPD2    N113194   0.005   1.731  12.583  0.3059  0.3322  0.3242
  900MPD2    H713195   0.105   1.730  12.603  0.2942 -1.5770  0.3141
  901MPD2     C13196   0.271   0.721  12.725  0.8930 -0.5003  1.0508
  901MPD2    C113197   0.236   0.702  12.596  0.0569 -0.1329  0.4519
  901MPD2    C213198   0.180   0.815  12.543 -0.2981 -0.7323 -0.3777
  901MPD2    C313199   0.151   0.935  12.608  0.0626 -0.8283  1.5811
  901MPD2    C413200   0.192   0.944  12.740 -0.8198 -0.8533  0.2561
  901MPD2    C513201   0.249   0.832  12.794  0.8710  1.0950  0.7201
  901MPD2     H13202   0.157   0.829  12.438  1.7367  1.1275 -0.5858
  901MPD2    H113203   0.178   1.024  12.812 -0.9746 -0.3561 -0.3255
  901MPD2    H213204   0.304   0.634  12.782 -2.3769 -1.5185  1.3761
  901MPD2    H313205   0.280   0.833  12.898 -0.6665  0.6381  1.1855
  901MPD2     N13206   0.090   1.038  12.532  0.4161  0.1353  1.0633
  901MPD2    H513207   0.069   1.024  12.434  1.2303 -2.1095  1.2136
  901MPD2    N113208   0.232   0.573  12.535  0.0185 -0.3585 -0.2575
  901MPD2    H713209   0.250   0.496  12.598 -0.3031  0.8848  1.3525
  902MPD2     C13210   3.754   3.791  12.664  0.1783 -0.2078  0.1014
  902MPD2    C113211   3.812   3.884  12.585  0.0349 -0.1140  0.2728
  902MPD2    C213212   3.932   3.866  12.516  0.6111 -0.2355 -0.1964
  902MPD2    C313213   4.003   3.750  12.529  0.7496  0.4089 -0.1302
  902MPD2    C413214   3.948   3.658  12.616  0.5756 -0.2754  0.4356
  902MPD2    C513215   3.824   3.673  12.677  0.2652 -0.7759  0.5725
  902MPD2     H13216   3.977   3.946  12.460 -2.7532  3.4420  2.3074
  902MPD2    H113217   3.991   3.559  12.614  1.7558  0.2307  0.3836
  902MPD2    H213218   3.656   3.804  12.710  1.2958  0.6626  2.2330
  902MPD2    H313219   3.792   3.594  12.743  1.7741 -0.2515  1.9262
  902MPD2     N13220   4.124   3.719  12.459 -0.6312 -0.6989 -0.2777
  902MPD2    H513221   4.151   3.621  12.468 -3.0569 -1.5052 -1.5940
  902MPD2    N113222   3.744   4.010  12.586 -0.5163 -0.2192  0.0271
  902MPD2    H713223   3.660   4.020  12.642 -2.3679 -0.1980 -2.7884
  903MPD2     C13224   4.282   3.956  11.648 -0.4183  0.5747  0.1308
  903MPD2    C113225   4.239   3.945  11.779 -0.1537 -0.3562  0.1779
  903MPD2    C213226   4.116   4.008  11.809 -0.1153 -0.4407 -0.3505
  903MPD2    C313227   4.043   4.088  11.717  0.8543  0.3238  0.4662
  903MPD2    C413228   4.089   4.093  11.587  1.0462  0.5768 -0.7186
  903MPD2    C513229   4.211   4.031  11.558  0.6091 -0.0328  0.8940
  903MPD2     H13230   4.074   3.995  11.908 -1.8702  2.3288 -0.7355
  903MPD2    H113231   4.034   4.149  11.512  1.1865  0.9036 -0.5798
  903MPD2    H213232   4.374   3.907  11.618 -0.9072 -1.8610  2.5724
  903MPD2    H313233   4.244   4.040  11.455 -0.1954  0.0459  0.6421
  903MPD2     N13234   3.917   4.131  11.765  0.1250  0.0089 -0.1202
  903MPD2    H513235   3.904   4.119  11.865  2.7077 -0.7435  0.1374
  903MPD2    N113236   4.301   3.861  11.869 -0.4722  0.7539  0.7143
  903MPD2    H713237   4.396   3.837  11.844 -0.8938 -0.8208  0.5945
  904MPD2     C13238   3.524   3.251  13.674  0.6483  0.4150  0.0035
  904MPD2    C113239   3.494   3.297  13.800 -0.7526  0.6072  0.6953
  904MPD2    C213240   3.575   3.265  13.908 -0.1492 -0.2823 -0.0320
  904MPD2    C313241   3.698   3.199  13.890  0.2097  0.4645  0.7408
  904MPD2    C413242   3.724   3.154  13.760 -0.1484  0.4378  0.7747
  904MPD2    C513243   3.647   3.189  13.657 -0.7423  0.0021 -0.3132
  904MPD2     H13244   3.554   3.300  14.008  2.1668  1.4086 -0.1468
  904MPD2    H113245   3.815   3.099  13.738  0.6556  2.0951 -0.0048
  904MPD2    H213246   3.461   3.271  13.588  0.2089  1.7635  0.6330
  904MPD2    H313247   3.676   3.166  13.555 -0.9551 -0.6588 -0.2212
  904MPD2     N13248   3.789   3.198  13.993 -0.2444 -0.1066  0.1442
  904MPD2    H513249   3.763   3.247  14.078 -0.7750 -1.1313  0.5710
  904MPD2    N113250   3.383   3.382  13.803 -0.0963 -0.0106 -0.3497
  904MPD2    H713251   3.339   3.412  13.717  2.2549 -3.9515 -2.9251
  905MPD2     C13252   2.950   3.258  13.462 -0.2459 -0.2158  0.4973
  905MPD2    C113253   3.071   3.321  13.462  0.0035  0.0629  0.5106
  905MPD2    C213254   3.176   3.240  13.418 -0.3092 -0.2845 -0.0261
  905MPD2    C313255   3.169   3.103  13.386  0.2299  0.1242  0.5817
  905MPD2    C413256   3.044   3.049  13.395  0.0262  0.0209 -0.0920
  905MPD2    C513257   2.940   3.122  13.430  0.3602 -0.2488  0.7255
  905MPD2     H13258   3.274   3.287  13.415 -0.9026  0.9750  0.5211
  905MPD2    H113259   3.033   2.944  13.369 -0.2505 -0.1903  0.8712
  905MPD2    H213260   2.858   3.311  13.488 -0.2395  0.4877 -0.8897
  905MPD2    H313261   2.841   3.079  13.433  1.3076 -2.4117  0.6144
  905MPD2     N13262   3.281   3.024  13.363 -0.4098 -0.4774 -0.3208
  905MPD2    H513263   3.260   2.925  13.354  2.0280 -0.9568 -0.8039
  905MPD2    N113264   3.084   3.454  13.521 -0.0125 -0.1662  0.0501
  905MPD2    H713265   2.998   3.500  13.551  0.8610  1.0643  0.6721
  906MPD2     C13266   0.721   3.438  11.395 -0.5213 -0.0342  0.4940
  906MPD2    C113267   0.713   3.387  11.270 -0.2607  0.5540  1.0267
  906MPD2    C213268   0.666   3.256  11.245  0.2583 -0.0176  0.2454
  906MPD2    C313269   0.631   3.170  11.351  0.0112  0.0235  0.1418
  906MPD2    C413270   0.638   3.221  11.480  0.1754  0.1666  0.5140
  906MPD2    C513271   0.687   3.351  11.494  0.4250 -0.9462 -0.2966
  906MPD2     H13272   0.653   3.230  11.140  0.0242 -0.0590  0.2839
  906MPD2    H113273   0.613   3.156  11.563  0.2849 -0.2912  0.1910
  906MPD2    H213274   0.755   3.539  11.415  0.7417 -0.5266  0.8444
  906MPD2    H313275   0.710   3.398  11.589 -0.7994 -2.2963  0.6581
  906MPD2     N13276   0.585   3.042  11.324  0.3173  1.2441 -0.1990
  906MPD2    H513277   0.574   2.982  11.405  0.5195  0.4558 -0.7605
  906MPD2    N113278   0.745   3.458  11.151  0.0762  0.0393 -0.2809
  906MPD2    H713279   0.738   3.400  11.068  1.5100  1.2927 -1.2757
  907MPD2     C13280   4.268   2.788  15.901 -0.4764  0.2339 -0.1639
  907MPD2    C113281   4.300   2.705  15.793 -0.2805 -0.7059  0.2645
  907MPD2    C213282   4.429   2.651  15.789  0.2186  0.4827  0.2079
  907MPD2    C313283   4.525   2.677  15.889 -0.4465  0.4639  0.6478
  907MPD2    C413284   4.486   2.751  15.997 -0.3254  1.0840 -0.7356
  907MPD2    C513285   4.360   2.805  16.001 -0.5184 -0.3088 -0.3673
  907MPD2     H13286   4.452   2.590  15.702 -1.2900  0.0717  0.0862
  907MPD2    H113287   4.557   2.765  16.078  0.9585 -0.4368 -1.6016
  907MPD2    H213288   4.176   2.843  15.917 -0.3334  0.3839  0.1378
  907MPD2    H313289   4.339   2.870  16.086  0.9144  0.5530 -0.6642
  907MPD2     N13290   4.646   2.603  15.884  0.7627  0.4941  0.7238
  907MPD2    H513291   4.660   2.545  15.803  0.1210  1.5362 -0.1426
  907MPD2    N113292   4.205   2.666  15.694 -0.4619 -0.1897 -0.7330
  907MPD2    H713293   4.242   2.618  15.613  0.1878 -1.0662  0.0811
  908MPD2     C13294   2.813   3.513   9.699 -0.4433  0.3838 -0.5679
  908MPD2    C113295   2.711   3.448   9.766  0.3841  0.2726  0.0699
  908MPD2    C213296   2.621   3.523   9.835  0.7593  0.1098  0.3935
  908MPD2    C313297   2.628   3.658   9.850 -0.6706  0.5359  0.3579
  908MPD2    C413298   2.736   3.717   9.791  0.8483  0.1989  0.3926
  908MPD2    C513299   2.824   3.646   9.711 -0.5603  0.6973  0.1099
  908MPD2     H13300   2.537   3.465   9.872  0.4388  0.1734 -0.2305
  908MPD2    H113301   2.756   3.824   9.796  0.6116  0.3017 -0.7017
  908MPD2    H213302   2.893   3.463   9.647 -0.1261 -0.3910  0.6663
  908MPD2    H313303   2.912   3.699   9.676 -1.3664  1.0026 -1.4620
  908MPD2     N13304   2.528   3.722   9.925 -0.4398  0.1306 -0.6552
  908MPD2    H513305   2.467   3.662   9.979  0.2228  1.2685  1.3660
  908MPD2    N113306   2.696   3.309   9.741 -0.6578 -0.0330  0.5450
  908MPD2    H713307   2.613   3.269   9.784 -1.1696  0.9081  0.4449
  909MPD2     C13308   2.529   1.080  11.835 -0.3456 -0.0465  0.2421
  909MPD2    C113309   2.542   1.211  11.797 -0.8135  0.3635  0.1201
  909MPD2    C213310   2.471   1.311  11.863 -0.0559 -0.3861  0.3080
  909MPD2    C313311   2.385   1.286  11.970  0.0182  0.6451 -0.1005
  909MPD2    C413312   2.384   1.152  12.010 -0.3281  0.0236  0.3121
  909MPD2    C513313   2.453   1.053  11.950  0.0113  0.4600 -0.7690
  909MPD2     H13314   2.478   1.412  11.825 -2.9218 -0.1165  0.5190
  909MPD2    H113315   2.314   1.124  12.088  1.4516 -1.4420  1.3456
  909MPD2    H213316   2.585   0.998  11.791 -0.9918 -1.6440  2.3872
  909MPD2    H313317   2.452   0.954  11.994  0.1284  0.7074 -0.2107
  909MPD2     N13318   2.293   1.376  12.022  0.2920  0.8485 -0.0433
  909MPD2    H513319   2.276   1.463  11.971  0.2615  0.5240 -0.5875
  909MPD2    N113320   2.633   1.256  11.702  0.6093  0.7844  0.7923
  909MPD2    H713321   2.636   1.353  11.672 -2.6440  0.3899 -0.8342
  910MPD2     C13322   3.620   2.825  15.613 -0.5211 -0.0207 -0.1061
  910MPD2    C113323   3.695   2.936  15.658  0.2506  0.2267 -0.5568
  910MPD2    C213324   3.730   3.035  15.571 -0.7993 -0.0193 -0.5810
  910MPD2    C313325   3.674   3.039  15.442  0.3169 -0.6204  0.1592
  910MPD2    C413326   3.591   2.937  15.403  0.4033  0.0133 -0.4026
  910MPD2    C513327   3.564   2.836  15.491 -0.4428  0.3014  0.7290
  910MPD2     H13328   3.791   3.111  15.619 -0.9979  0.0329 -0.4048
  910MPD2    H113329   3.542   2.934  15.307  0.6852 -0.9331 -0.5155
  910MPD2    H213330   3.595   2.734  15.666 -2.6732 -0.9492 -2.7501
  910MPD2    H313331   3.509   2.750  15.454 -0.9124  1.3417 -0.9747
  910MPD2     N13332   3.695   3.155  15.364 -0.3489 -0.7649 -0.4725
  910MPD2    H513333   3.619   3.177  15.301 -1.3379 -2.0306  0.2624
  910MPD2    N113334   3.741   2.950  15.791 -0.2573  0.1857  0.1731
  910MPD2    H713335   3.816   3.015  15.812 -1.0523  0.0989  3.2978
  911MPD2     C13336   1.897   4.386  16.207  0.5009  0.8697 -0.2284
  911MPD2    C113337   1.858   4.254  16.185  0.6816  0.4046 -0.2039
  911MPD2    C213338   1.733   4.232  16.129  0.0528 -0.2262 -0.7156
  911MPD2    C313339   1.655   4.337  16.073  0.2145 -0.3292  0.8254
  911MPD2    C413340   1.691   4.468  16.108  0.0146  0.7990 -0.4847
  911MPD2    C513341   1.804   4.488  16.178  0.3560 -0.7288  0.4734
  911MPD2     H13342   1.702   4.134  16.096  1.4524 -1.3103  1.1664
  911MPD2    H113343   1.635   4.552  16.070 -2.2351  0.2673  1.7130
  911MPD2    H213344   1.989   4.413  16.255  1.0297 -1.0192 -0.1792
  911MPD2    H313345   1.824   4.591  16.202  4.0994 -1.4258  0.2803
  911MPD2     N13346   1.531   4.318  16.001 -0.1215 -0.0008 -0.4255
  911MPD2    H513347   1.492   4.402  15.960 -0.5402 -0.3600 -0.7599
  911MPD2    N113348   1.945   4.150  16.212  0.2793 -0.1084  0.2560
  911MPD2    H713349   2.035   4.171  16.252 -0.1728  0.4763  0.9754
  912MPD2     C13350   1.382   3.547  15.582  0.0045  0.0925 -0.6216
  912MPD2    C113351   1.298   3.623  15.655 -0.8810  0.3129  0.2409
  912MPD2    C213352   1.205   3.560  15.733 -0.1757 -0.3360  0.5097
  912MPD2    C313353   1.215   3.429  15.763 -0.2356  0.3600 -0.0941
  912MPD2    C413354   1.297   3.343  15.694  0.3373 -0.3048 -0.0707
  912MPD2    C513355   1.373   3.409  15.603  0.6324  0.1421 -0.0495
  912MPD2     H13356   1.129   3.610  15.792  0.1079 -0.4925  1.0081
  912MPD2    H113357   1.300   3.235  15.689  0.0627 -0.3860  1.5488
  912MPD2    H213358   1.449   3.594  15.511 -1.3123 -1.3943 -2.8217
  912MPD2    H313359   1.438   3.345  15.544 -0.2734 -1.3230  0.5394
  912MPD2     N13360   1.149   3.380  15.882  0.5438 -0.7983 -0.0419
  912MPD2    H513361   1.105   3.453  15.938  1.3613 -0.1086 -0.2912
  912MPD2    N113362   1.319   3.763  15.656  0.2833  0.1503  0.3636
  912MPD2    H713363   1.399   3.795  15.602 -0.5193  2.3849  0.4932
  913MPD2     C13364   2.457   0.172  10.622  0.0906  1.0799 -0.3603
  913MPD2    C113365   2.567   0.247  10.582  0.1326 -0.2349 -0.7673
  913MPD2    C213366   2.562   0.325  10.466 -0.3916 -0.1751 -0.9620
  913MPD2    C313367   2.439   0.345  10.406  0.2364 -0.5229  0.0683
  913MPD2    C413368   2.325   0.278  10.460  0.8858 -0.6492  0.3545
  913MPD2    C513369   2.340   0.186  10.561 -0.3951  0.1006  0.4869
  913MPD2     H13370   2.657   0.355  10.424  0.5449 -0.7254  0.7672
  913MPD2    H113371   2.227   0.303  10.421  1.8922  0.4971 -1.4105
  913MPD2    H213372   2.466   0.099  10.701  0.6295  0.7721 -0.7003
  913MPD2    H313373   2.255   0.134  10.603 -0.1567  0.4873  1.4515
  913MPD2     N13374   2.419   0.437  10.299  0.3145  0.9261  0.6188
  913MPD2    H513375   2.321   0.454  10.278  0.8551  1.2758 -1.6430
  913MPD2    N113376   2.688   0.220  10.650  0.4227  0.1776  0.0168
  913MPD2    H713377   2.691   0.151  10.724 -0.9153  0.2489  0.1430
  914MPD2     C13378   4.353   0.035  11.919  0.5959  0.6234  0.1635
  914MPD2    C113379   4.392   0.168  11.921 -0.7519  0.6059 -0.4206
  914MPD2    C213380   4.486   0.210  12.015 -0.8069 -0.1599 -0.6423
  914MPD2    C313381   4.552   0.118  12.092 -0.2993 -0.3386 -0.3629
  914MPD2    C413382   4.522   4.707  12.079  0.6518  0.8117  0.1034
  914MPD2    C513383   4.422   4.673  11.997  0.3943  0.8162 -0.2330
  914MPD2     H13384   4.528   0.309  12.031  1.2809 -0.8014 -2.2040
  914MPD2    H113385   4.580   4.625  12.120 -1.2893 -0.1381  0.9612
  914MPD2    H213386   4.269   4.713  11.867  1.8995 -0.3658 -1.0890
  914MPD2    H313387   4.406   4.566  11.986 -0.7325  1.0210 -0.5951
  914MPD2     N13388   4.662   0.167  12.166  0.3467  0.3544 -0.4621
  914MPD2    H513389   4.689   0.261  12.141 -1.7709  0.8093 -1.0879
  914MPD2    N113390   4.340   0.251  11.819 -0.4969  0.2533 -0.0924
  914MPD2    H713391   4.298   0.203  11.740 -1.8423 -0.2153  0.9077
  915MPD2     C13392   3.411   1.032  16.149 -0.7869 -0.0704 -0.0433
  915MPD2    C113393   3.288   1.072  16.102 -0.2436 -0.3042  0.0762
  915MPD2    C213394   3.199   1.127  16.195 -0.2848 -0.1909  0.5008
  915MPD2    C313395   3.237   1.148  16.320 -0.0420 -0.2808  0.8999
  915MPD2    C413396   3.362   1.116  16.364 -0.2928  0.3488  0.1715
  915MPD2    C513397   3.452   1.067  16.276 -0.2673 -0.2704 -0.1525
  915MPD2     H13398   3.105   1.170  16.161 -0.4318 -1.3043 -0.5013
  915MPD2    H113399   3.395   1.139  16.465 -0.6805 -1.0239  0.6023
  915MPD2    H213400   3.486   0.993  16.081  0.2589 -0.0023  1.0875
  915MPD2    H313401   3.550   1.042  16.313 -0.8873 -1.4355  0.6734
  915MPD2     N13402   3.138   1.206  16.402 -0.7712  0.1829  0.5999
  915MPD2    H513403   3.057   1.242  16.351 -1.8925  0.0691  2.3070
  915MPD2    N113404   3.262   1.064  15.967  0.3477  0.2879 -0.5031
  915MPD2    H713405   3.338   1.021  15.914 -0.6790 -1.6626 -0.3602
  916MPD2     C13406   0.852   3.628  15.672  0.2867 -0.3492 -0.5547
  916MPD2    C113407   0.833   3.519  15.757  0.3571  0.1052 -0.0125
  916MPD2    C213408   0.860   3.392  15.715 -0.9409 -0.3296 -0.1505
  916MPD2    C313409   0.919   3.380  15.587  0.0282 -0.3052 -0.0146
  916MPD2    C413410   0.937   3.490  15.508  0.4517  0.1926  0.1829
  916MPD2    C513411   0.899   3.614  15.550  0.1681  0.0528 -0.0568
  916MPD2     H13412   0.836   3.296  15.759 -0.1890  0.5049  2.0663
  916MPD2    H113413   0.974   3.486  15.406  1.8829  0.3904  0.6857
  916MPD2    H213414   0.826   3.726  15.711 -0.1122 -0.7485  0.1887
  916MPD2    H313415   0.906   3.706  15.493 -1.7127 -0.3817 -0.9801
  916MPD2     N13416   0.951   3.252  15.536  0.1006  0.0606 -0.0953
  916MPD2    H513417   0.949   3.171  15.598  3.0884  0.4709  0.5704
  916MPD2    N113418   0.787   3.539  15.893 -0.6665 -0.6881 -0.1830
  916MPD2    H713419   0.765   3.634  15.921  0.6040 -0.7179  0.9027
  917MPD2     C13420   1.571   0.949  11.064 -0.6443  0.0754  0.0605
  917MPD2    C113421   1.521   1.061  11.132 -0.0561  0.0474 -0.2362
  917MPD2    C213422   1.554   1.183  11.078 -0.1064 -0.3517  0.3928
  917MPD2    C313423   1.637   1.201  10.973  0.3947  0.1639  0.4486
  917MPD2    C413424   1.699   1.089  10.915  0.6498 -0.0037 -0.0787
  917MPD2    C513425   1.660   0.962  10.961  0.3163  0.2634 -0.5302
  917MPD2     H13426   1.512   1.277  11.114 -0.4094 -0.3088 -0.0681
  917MPD2    H113427   1.766   1.092  10.830  1.4097 -2.5188  0.4348
  917MPD2    H213428   1.546   0.847  11.092 -0.7364 -0.2629 -1.2602
  917MPD2    H313429   1.698   0.870  10.920  1.1758  0.2123  0.3671
  917MPD2     N13430   1.659   1.334  10.926 -0.3935 -0.6828 -0.0672
  917MPD2    H513431   1.627   1.412  10.982  1.7352 -0.8195  1.3550
  917MPD2    N113432   1.424   1.050  11.234 -0.2606  0.1213  0.0342
  917MPD2    H713433   1.398   0.953  11.254 -0.2485 -0.6183 -3.5346
  918MPD2     C13434   1.510   1.406  12.120  0.9185  0.5867  0.6952
  918MPD2    C113435   1.568   1.290  12.079  0.2400  0.2123  0.0290
  918MPD2    C213436   1.515   1.220  11.968 -0.0008  0.4084  0.5041
  918MPD2    C313437   1.395   1.269  11.913 -0.6406 -0.6565  0.5281
  918MPD2    C413438   1.326   1.372  11.972  0.7809 -0.1538 -0.1145
  918MPD2    C513439   1.385   1.444  12.076  0.5388  0.2583  0.3911
  918MPD2     H13440   1.556   1.131  11.920 -1.3476 -1.3472  2.5976
  918MPD2    H113441   1.228   1.407  11.943  0.8938 -0.4815 -0.8805
  918MPD2    H213442   1.548   1.474  12.196 -0.4098  0.6891  1.2563
  918MPD2    H313443   1.336   1.532  12.115  0.5655 -0.4162  1.9701
  918MPD2     N13444   1.351   1.213  11.793 -0.1515  1.1730  0.2457
  918MPD2    H513445   1.416   1.159  11.738 -0.1726  0.3492  1.0187
  918MPD2    N113446   1.687   1.240  12.121 -0.2457  0.5184  0.3396
  918MPD2    H713447   1.730   1.155  12.086 -2.1448 -0.2294 -0.1559
  919MPD2     C13448   2.128   0.432  11.390 -0.4951  0.2548  0.5159
  919MPD2    C113449   2.067   0.306  11.389 -0.1678 -0.6380  0.1476
  919MPD2    C213450   2.002   0.266  11.276  1.0208  0.1574 -0.3060
  919MPD2    C313451   2.004   0.340  11.164 -0.3464  0.2786 -0.6554
  919MPD2    C413452   2.074   0.462  11.163  0.3204  0.4507  0.6265
  919MPD2    C513453   2.118   0.509  11.280 -0.1862  0.3547 -0.4799
  919MPD2     H13454   1.955   0.168  11.275 -2.2026  1.6809 -1.0481
  919MPD2    H113455   2.083   0.532  11.080  0.5952 -0.1906  0.1204
  919MPD2    H213456   2.176   0.473  11.479  1.5008 -2.5196  0.7011
  919MPD2    H313457   2.172   0.603  11.287  1.3576 -0.6213  0.6777
  919MPD2     N13458   1.941   0.296  11.046  0.4843 -0.1370  0.0513
  919MPD2    H513459   1.962   0.348  10.962  0.1381 -1.2562 -0.7193
  919MPD2    N113460   2.079   0.213  11.494 -0.0696  0.4290 -0.4501
  919MPD2    H713461   2.029   0.125  11.484  1.1667 -0.5283  1.8243
  920MPD2     C13462   1.891   0.302  10.049  0.2497  0.1943 -1.3016
  920MPD2    C113463   1.764   0.264  10.086  0.5234 -0.4106 -0.0102
  920MPD2    C213464   1.741   0.242  10.217 -0.5521  0.8044 -0.7734
  920MPD2    C313465   1.834   0.255  10.311  0.5756  0.2755  0.1808
  920MPD2    C413466   1.958   0.291  10.277 -0.6943  0.2280 -0.1021
  920MPD2    C513467   1.987   0.308  10.142  0.4634 -0.2470 -0.0738
  920MPD2     H13468   1.644   0.198  10.240  0.4716  1.4575  4.6542
  920MPD2    H113469   2.043   0.296  10.344 -1.1800 -1.2260  0.6247
  920MPD2    H213470   1.906   0.318   9.943 -0.1501 -1.0768 -1.5461
  920MPD2    H313471   2.090   0.324  10.114 -0.1908  0.8490 -1.8608
  920MPD2     N13472   1.805   0.230  10.441 -0.3202 -0.1457 -0.2307
  920MPD2    H513473   1.708   0.206  10.461 -0.0623  1.0233  2.3362
  920MPD2    N113474   1.658   0.246  10.004 -0.2900  0.0136  0.3067
  920MPD2    H713475   1.571   0.236  10.055  0.7320 -0.1829  2.0124
  921MPD2     C13476   2.482   3.923  16.921  0.0138 -0.0760  0.0863
  921MPD2    C113477   2.534   3.993  16.816  0.0741 -0.7049 -0.1409
  921MPD2    C213478   2.473   3.988  16.695 -0.3456  0.2730 -0.4429
  921MPD2    C313479   2.367   3.892  16.677  0.1968  0.0304  0.7614
  921MPD2    C413480   2.323   3.814  16.778 -0.9834  0.4508 -0.0877
  921MPD2    C513481   2.385   3.823  16.901  0.0752 -0.0294  0.3291
  921MPD2     H13482   2.516   4.046  16.614  0.2747 -0.8584 -0.9299
  921MPD2    H113483   2.238   3.750  16.760  0.4505 -1.2095 -0.9265
  921MPD2    H213484   2.523   3.929  17.022 -1.1722  0.3695  0.5342
  921MPD2    H313485   2.344   3.761  16.980  0.4485  0.0566  0.5872
  921MPD2     N13486   2.306   3.877  16.555  0.6253  0.4696  0.2137
  921MPD2    H513487   2.249   3.793  16.543 -0.0054  1.3246 -2.7086
  921MPD2    N113488   2.641   4.081  16.840  0.0407  0.0107  0.6901
  921MPD2    H713489   2.666   4.142  16.763  1.1484 -0.7939  0.4033
  922MPD2     C13490   3.359   1.834   1.108  0.4199  0.1308  0.1040
  922MPD2    C113491   3.269   1.931   1.085 -0.0338 -0.4551 -0.2796
  922MPD2    C213492   3.153   1.895   1.012  0.1539 -0.3952  0.6000
  922MPD2    C313493   3.140   1.774   0.947 -1.0058 -0.3151  0.0012
  922MPD2    C413494   3.235   1.677   0.968 -0.2981  0.7407 -0.1427
  922MPD2    C513495   3.348   1.709   1.042 -0.4794 -0.1980 -0.0733
  922MPD2     H13496   3.074   1.967   0.998  0.3796 -0.5031 -1.1390
  922MPD2    H113497   3.227   1.577   0.926  0.8173 -0.2919  2.0834
  922MPD2    H213498   3.457   1.830   1.155  0.1848 -2.2520  0.3846
  922MPD2    H313499   3.424   1.633   1.054  0.4238  1.0737  2.2117
  922MPD2     N13500   3.036   1.754   0.853 -0.1319 -0.7211  0.2592
  922MPD2    H513501   2.967   1.829   0.851 -0.7758 -1.3893 -2.6553
  922MPD2    N113502   3.285   2.065   1.122 -0.0954  0.0724 -0.6200
  922MPD2    H713503   3.212   2.132   1.103 -0.3036 -0.2780 -1.0635
  923MPD2     C13504   0.895   3.226   9.076  0.4819  0.1030 -0.4391
  923MPD2    C113505   0.825   3.313   9.154 -0.0461  0.2564 -0.1080
  923MPD2    C213506   0.877   3.355   9.276 -0.4098 -0.2115  0.0234
  923MPD2    C313507   0.997   3.304   9.319  0.5956  0.3476  0.3868
  923MPD2    C413508   1.061   3.207   9.247  0.1462 -0.0297 -0.1217
  923MPD2    C513509   1.011   3.164   9.129  0.3658 -0.6424 -0.5169
  923MPD2     H13510   0.820   3.418   9.344  3.0131  0.3579  2.3621
  923MPD2    H113511   1.155   3.163   9.281  0.7722 -0.0611 -1.8946
  923MPD2    H213512   0.855   3.174   8.991 -2.8228 -2.4204  2.6651
  923MPD2    H313513   1.079   3.102   9.073 -0.4230 -0.6672 -1.4586
  923MPD2     N13514   1.057   3.344   9.439 -0.0815 -0.0265  0.0240
  923MPD2    H513515   1.132   3.280   9.465 -0.5264 -0.6489 -0.2369
  923MPD2    N113516   0.696   3.358   9.102  0.1475 -0.0698 -0.3400
  923MPD2    H713517   0.664   3.311   9.019  1.3694  0.9507 -1.3899
  924MPD2     C13518   4.205   2.143  15.804  0.8676 -0.0897  0.4278
  924MPD2    C113519   4.283   2.082  15.897  0.7276  0.3363 -0.8473
  924MPD2    C213520   4.420   2.093  15.897  0.1559  0.0890  0.2897
  924MPD2    C313521   4.483   2.170  15.800 -0.1286  0.0612  0.0088
  924MPD2    C413522   4.403   2.228  15.700  0.8801  0.3278 -0.8527
  924MPD2    C513523   4.269   2.215  15.709  0.4863 -0.0868  0.9040
  924MPD2     H13524   4.476   2.051  15.979  1.3665  1.1205  0.0025
  924MPD2    H113525   4.441   2.281  15.613  1.4091 -0.0140 -0.8290
  924MPD2    H213526   4.097   2.133  15.807  0.7555  1.1021  0.3380
  924MPD2    H313527   4.204   2.271  15.642 -1.5518 -0.7570  2.3262
  924MPD2     N13528   4.618   2.198  15.816 -0.1858  0.5808 -0.2564
  924MPD2    H513529   4.668   2.165  15.898 -0.4208 -0.5256 -0.5612
  924MPD2    N113530   4.211   2.019  16.004 -0.4548 -0.0113  0.7773
  924MPD2    H713531   4.112   1.997  15.995 -0.3248 -0.9765  1.7522
  925MPD2     C13532   3.739   4.174  14.629 -0.0043 -0.0836  0.0775
  925MPD2    C113533   3.609   4.197  14.578 -0.2919 -0.7390  0.3083
  925MPD2    C213534   3.491   4.162  14.647 -0.0009 -0.2257  0.5207
  925MPD2    C313535   3.514   4.101  14.772 -0.5834  0.1407 -0.5430
  925MPD2    C413536   3.645   4.078  14.822 -0.0598 -0.2971 -0.3283
  925MPD2    C513537   3.753   4.111  14.748  0.8418 -0.3147 -0.2985
  925MPD2     H13538   3.392   4.177  14.606 -0.5908  0.4730  2.1733
  925MPD2    H113539   3.656   4.031  14.920 -0.3122 -0.2291 -0.2674
  925MPD2    H213540   3.827   4.199  14.570  0.7440  1.8335  2.0196
  925MPD2    H313541   3.854   4.102  14.787  0.9732  1.1936 -0.3167
  925MPD2     N13542   3.409   4.082  14.866  0.3493  0.0914 -0.1020
  925MPD2    H513543   3.421   4.019  14.944 -0.8142 -0.5577 -0.4548
  925MPD2    N113544   3.590   4.260  14.451 -0.0903 -0.6997  0.0208
  925MPD2    H713545   3.496   4.289  14.428  0.8591  1.2087 -1.4453
  926MPD2     C13546   2.237   2.731  13.431  0.0547 -0.8821 -0.3079
  926MPD2    C113547   2.142   2.832  13.451  0.0684 -0.1460 -0.2600
  926MPD2    C213548   2.163   2.956  13.400 -0.1573  0.2891 -0.1088
  926MPD2    C313549   2.279   2.992  13.332 -0.3466 -0.6381  0.4173
  926MPD2    C413550   2.376   2.902  13.329 -0.6560 -0.1428  0.0266
  926MPD2    C513551   2.352   2.775  13.371  0.3294 -0.0120  0.1125
  926MPD2     H13552   2.080   3.023  13.422 -1.3294 -1.1875 -0.0687
  926MPD2    H113553   2.471   2.922  13.280 -0.2027  0.5196  1.1863
  926MPD2    H213554   2.242   2.628  13.463  1.0834 -1.3579 -2.0183
  926MPD2    H313555   2.430   2.700  13.361  0.0864 -0.2610  0.0860
  926MPD2     N13556   2.298   3.123  13.279 -0.1275  0.4547 -0.0420
  926MPD2    H513557   2.393   3.140  13.248  0.8829  1.2742  3.5753
  926MPD2    N113558   2.031   2.811  13.534  0.5158 -0.7474 -0.1502
  926MPD2    H713559   1.961   2.884  13.546  1.0025 -0.8298  3.2512
  927MPD2     C13560   2.475   0.244   0.315  0.0999 -0.4360 -0.0666
  927MPD2    C113561   2.356   0.305   0.266 -0.0035  0.0487 -0.0424
  927MPD2    C213562   2.330   0.305   0.130 -0.3695 -0.2627  0.2733
  927MPD2    C313563   2.415   0.240   0.041 -0.1738  0.2261 -0.0512
  927MPD2    C413564   2.543   0.196   0.086  0.3058  0.7545 -0.1227
  927MPD2    C513565   2.566   0.204   0.221  0.1140  0.8240  0.6435
  927MPD2     H13566   2.239   0.342   0.085 -0.8300 -1.7649 -0.0522
  927MPD2    H113567   2.619   0.162   0.017  0.8029  1.2123  0.1996
  927MPD2    H213568   2.501   0.236   0.420  1.0721 -2.2390 -0.4318
  927MPD2    H313569   2.665   0.176   0.255 -0.1484  1.6021  2.0412
  927MPD2     N13570   2.373   0.231  17.601 -0.5321  0.0160  0.1395
  927MPD2    H513571   2.278   0.260  17.578 -0.3576  0.7396  0.3383
  927MPD2    N113572   2.279   0.375   0.363 -0.0881  0.0215  0.0176
  927MPD2    H713573   2.321   0.379   0.455 -1.2608 -0.8287  0.5995
  928MPD2     C13574   0.542   4.370   1.608  0.2567 -0.0886 -0.2148
  928MPD2    C113575   0.633   4.459   1.550 -1.1766 -0.2163  0.4792
  928MPD2    C213576   0.657   4.458   1.414  0.4154  0.4866 -0.4586
  928MPD2    C313577   0.586   4.375   1.321 -0.1337  0.1548  0.3206
  928MPD2    C413578   0.491   4.293   1.387 -0.1601 -0.0025  0.0968
  928MPD2    C513579   0.471   4.291   1.522  0.3302  0.9583 -0.5239
  928MPD2     H13580   0.736   4.520   1.374  1.5367  0.2533  1.3793
  928MPD2    H113581   0.428   4.217   1.341  1.4833 -0.0009 -2.1678
  928MPD2    H213582   0.531   4.349   1.714 -0.1019 -0.4834 -0.3269
  928MPD2    H313583   0.407   4.215   1.566  0.1368  1.2522 -0.3061
  928MPD2     N13584   0.603   4.382   1.183  0.1874 -0.1498  0.0134
  928MPD2    H513585   0.540   4.324   1.129  0.9012 -1.7159  0.8621
  928MPD2    N113586   0.690   4.545   1.643 -0.2489  1.0549  0.2522
  928MPD2    H713587   0.654   4.539   1.738 -1.6711 -0.8235 -0.3946
  929MPD2     C13588   0.356   3.365  10.196 -0.4306  0.5187 -0.2169
  929MPD2    C113589   0.273   3.269  10.249 -0.5223  0.2289 -0.4882
  929MPD2    C213590   0.152   3.239  10.192 -0.0919  0.1004 -0.4945
  929MPD2    C313591   0.100   3.327  10.096 -0.1611  0.2288 -0.2526
  929MPD2    C413592   0.178   3.427  10.043 -0.1444  0.4235 -0.1344
  929MPD2    C513593   0.306   3.438  10.090  0.4531 -0.0663 -0.0116
  929MPD2     H13594   0.089   3.166  10.241  0.0165 -1.0132 -2.0082
  929MPD2    H113595   0.150   3.494   9.962 -0.9083 -0.1543 -0.3465
  929MPD2    H213596   0.460   3.383  10.220 -0.2836 -0.2522 -0.2615
  929MPD2    H313597   0.373   3.503  10.035  1.1617 -2.0692 -1.5406
  929MPD2     N13598   4.689   3.325  10.053 -0.0859 -0.4362 -0.1150
  929MPD2    H513599   4.653   3.385   9.980  0.4266 -0.2944 -0.2465
  929MPD2    N113600   0.322   3.208  10.363  0.0970 -0.3339  0.1091
  929MPD2    H713601   0.410   3.239  10.404  0.3244  0.5866 -1.0920
  930MPD2     C13602   2.320   0.775  14.281  0.0708 -0.2949 -0.4183
  930MPD2    C113603   2.290   0.903  14.239  0.2141 -0.1019  0.0985
  930MPD2    C213604   2.222   0.923  14.118  0.3064 -0.9097  0.0563
  930MPD2    C313605   2.199   0.812  14.038 -0.2798  0.0779  0.9659
  930MPD2    C413606   2.223   0.682  14.083 -0.1073 -0.1680  0.3520
  930MPD2    C513607   2.272   0.671  14.210 -0.7177  0.2222 -0.0928
  930MPD2     H13608   2.221   1.022  14.075  2.4248  0.2322  2.6189
  930MPD2    H113609   2.199   0.597  14.020  0.4359  0.3505 -0.5446
  930MPD2    H213610   2.371   0.770  14.377 -1.0253  1.4137  0.2614
  930MPD2    H313611   2.288   0.570  14.248 -1.9114  0.1467  0.2341
  930MPD2     N13612   2.145   0.827  13.910 -0.1630 -0.3160 -0.0333
  930MPD2    H513613   2.157   0.744  13.853 -2.6632  0.0576 -1.1145
  930MPD2    N113614   2.329   1.021  14.315 -0.3687  0.1762 -0.2676
  930MPD2    H713615   2.388   1.007  14.396 -0.6424 -0.6229 -0.2077
  931MPD2     C13616   2.479   0.491   0.914 -0.1057  0.0383 -0.1601
  931MPD2    C113617   2.349   0.524   0.923  0.2063 -0.2004 -0.5245
  931MPD2    C213618   2.300   0.546   1.047 -0.4896  0.3723  0.4279
  931MPD2    C313619   2.376   0.546   1.158  0.3969  0.3702 -0.4647
  931MPD2    C413620   2.506   0.520   1.140  0.7514 -0.0677 -0.0025
  931MPD2    C513621   2.557   0.498   1.020  0.5092  1.0024 -0.1904
  931MPD2     H13622   2.197   0.576   1.057 -0.4201  0.4228  0.9984
  931MPD2    H113623   2.571   0.514   1.226 -1.5465 -0.1433  1.7588
  931MPD2    H213624   2.516   0.465   0.816  1.0761  0.3719  0.1910
  931MPD2    H313625   2.662   0.477   1.007  0.2939 -0.1277 -0.1206
  931MPD2     N13626   2.343   0.580   1.286  0.6620 -0.1965 -0.1846
  931MPD2    H513627   2.410   0.563   1.360  1.1718  0.7851 -0.4237
  931MPD2    N113628   2.267   0.525   0.806 -0.1503  0.4884 -0.7054
  931MPD2    H713629   2.302   0.489   0.719  2.5570  0.0783  0.5746
  932MPD2     C13630   3.166   4.340  11.345 -0.0113  0.5918  0.6833
  932MPD2    C113631   3.294   4.320  11.385  0.1074 -0.0883 -0.7923
  932MPD2    C213632   3.329   4.228  11.481  0.3755 -0.3291  0.1803
  932MPD2    C313633   3.228   4.154  11.545 -0.4875  0.0053 -0.2102
  932MPD2    C413634   3.102   4.178  11.506 -0.1761 -0.0982  0.0906
  932MPD2    C513635   3.067   4.264  11.407 -0.4062 -0.0197 -0.0213
  932MPD2     H13636   3.433   4.220  11.510  0.9311  2.2425 -1.1080
  932MPD2    H113637   3.025   4.125  11.561  0.1549 -0.6803 -0.0145
  932MPD2    H213638   3.124   4.419  11.284  0.8299  1.8580  1.7427
  932MPD2    H313639   2.962   4.286  11.388 -0.4341 -0.5710 -0.5047
  932MPD2     N13640   3.260   4.058  11.643  0.3645 -0.1275  0.1593
  932MPD2    H513641   3.178   4.007  11.675 -0.7211  0.6269 -1.3971
  932MPD2    N113642   3.405   4.408  11.338  0.2955  0.1151 -0.3720
  932MPD2    H713643   3.502   4.401  11.365  0.3639 -0.7903 -0.8610
  933MPD2     C13644   0.645   0.254   2.310  0.7688  0.7844 -0.4896
  933MPD2    C113645   0.601   0.259   2.179 -0.8850 -0.1274  0.5926
  933MPD2    C213646   0.476   0.321   2.159  0.1860 -0.2370  0.4932
  933MPD2    C313647   0.407   0.372   2.266 -0.4481 -0.6454 -0.1742
  933MPD2    C413648   0.455   0.368   2.389 -0.1159  0.6311 -0.4018
  933MPD2    C513649   0.577   0.305   2.410  0.0958  0.0049  0.0545
  933MPD2     H13650   0.436   0.313   2.059  2.3663  0.0234 -0.4023
  933MPD2    H113651   0.402   0.415   2.472 -3.3184 -3.2918 -0.2011
  933MPD2    H213652   0.736   0.200   2.332  0.1072  0.1041  0.5809
  933MPD2    H313653   0.622   0.306   2.509  0.3019  2.9997 -0.0863
  933MPD2     N13654   0.278   0.419   2.223 -0.8923  0.4981  0.4953
  933MPD2    H513655   0.251   0.429   2.126  0.3548 -1.2702 -0.0298
  933MPD2    N113656   0.684   0.211   2.075 -0.3135 -0.0478  0.1082
  933MPD2    H713657   0.776   0.174   2.092 -1.4387 -2.8115  0.0641
  934MPD2     C13658   0.814   1.605   2.084  0.0849 -0.1041 -0.2345
  934MPD2    C113659   0.905   1.534   2.014  0.0802 -0.1921  0.1306
  934MPD2    C213660   0.859   1.450   1.916  0.0162  0.6987  0.3875
  934MPD2    C313661   0.725   1.430   1.882 -0.2252 -0.3005 -0.4567
  934MPD2    C413662   0.635   1.520   1.948 -0.3893 -0.6209  1.0452
  934MPD2    C513663   0.683   1.602   2.044  0.1657 -0.6985  0.2958
  934MPD2     H13664   0.932   1.398   1.854 -0.3526  1.1225 -0.4117
  934MPD2    H113665   0.528   1.520   1.932 -0.3476  0.3715  0.7767
  934MPD2    H213666   0.845   1.670   2.164  2.3399 -0.5961 -0.7239
  934MPD2    H313667   0.614   1.665   2.098 -0.2036 -0.6357 -0.2496
  934MPD2     N13668   0.680   1.352   1.771 -0.7441  0.2754 -0.1542
  934MPD2    H513669   0.589   1.385   1.740 -0.9355 -1.2158 -1.2223
  934MPD2    N113670   1.042   1.568   2.042  0.0491 -0.7218 -0.1690
  934MPD2    H713671   1.060   1.629   2.121  0.3972 -1.1365  0.0715
  935MPD2     C13672   1.291   0.860   1.145 -0.1382  0.1327 -0.2597
  935MPD2    C113673   1.169   0.847   1.074 -0.1279 -0.7032 -0.4215
  935MPD2    C213674   1.059   0.905   1.132  0.3215  0.9062 -0.4583
  935MPD2    C313675   1.063   0.971   1.262  0.1523  0.1689  0.0144
  935MPD2    C413676   1.183   0.963   1.336  0.3798  0.4762 -0.0154
  935MPD2    C513677   1.292   0.908   1.273 -1.2019  0.4385  0.6486
  935MPD2     H13678   0.964   0.883   1.084  0.0284 -0.6479  0.8579
  935MPD2    H113679   1.186   0.992   1.441 -1.2705 -0.1370  0.1965
  935MPD2    H213680   1.389   0.823   1.117 -0.1044  2.1882 -2.9856
  935MPD2    H313681   1.384   0.911   1.329 -1.2586  1.6852  0.6791
  935MPD2     N13682   0.956   1.040   1.322  0.1091 -0.4805 -0.4286
  935MPD2    H513683   0.984   1.076   1.413 -3.0078 -1.8912  1.1048
  935MPD2    N113684   1.149   0.783   0.947  0.2292  0.3178  0.5259
  935MPD2    H713685   1.055   0.764   0.914 -0.0733  1.2854  0.8343
  936MPD2     C13686   3.521   2.640  12.754 -0.5733  0.5124  0.6218
  936MPD2    C113687   3.609   2.545  12.794  0.5624  0.0897 -0.2687
  936MPD2    C213688   3.736   2.550  12.739 -0.3053 -0.0358  0.1556
  936MPD2    C313689   3.772   2.650  12.658 -0.5269  0.5432 -0.3254
  936MPD2    C413690   3.681   2.739  12.611 -0.1620  0.8614  0.1047
  936MPD2    C513691   3.549   2.735  12.658 -0.1225  0.0326  0.7806
  936MPD2     H13692   3.807   2.473  12.766 -0.3400  0.0014  0.3531
  936MPD2    H113693   3.719   2.806  12.535  1.1501 -0.9787 -0.8672
  936MPD2    H213694   3.413   2.635  12.766 -0.9415  3.8678 -1.3801
  936MPD2    H313695   3.468   2.802  12.633  0.9076  1.1507  0.4104
  936MPD2     N13696   3.909   2.645  12.628  0.9773  0.0413  0.9109
  936MPD2    H513697   3.962   2.571  12.673 -1.5589 -1.8378  0.8386
  936MPD2    N113698   3.584   2.440  12.894  0.6803  0.4918  0.1633
  936MPD2    H713699   3.649   2.362  12.891 -0.0087 -0.0490 -0.8225
  937MPD2     C13700   2.297   4.302  11.554  0.2988  0.2320  0.0048
  937MPD2    C113701   2.378   4.409  11.583  1.0720  0.3139 -0.7618
  937MPD2    C213702   2.489   4.434  11.498 -0.3324 -0.1390 -0.1324
  937MPD2    C313703   2.509   4.354  11.384 -0.0122 -0.2910  0.5459
  937MPD2    C413704   2.426   4.245  11.366 -0.4618 -0.7094  0.2160
  937MPD2    C513705   2.323   4.216  11.451 -0.6822 -0.1029  0.2196
  937MPD2     H13706   2.546   4.524  11.513 -1.9491  1.3184 -2.7968
  937MPD2    H113707   2.442   4.181  11.280  0.7022  0.7846 -0.6758
  937MPD2    H213708   2.201   4.287  11.601 -0.4868  1.4699 -1.2447
  937MPD2    H313709   2.257   4.132  11.433 -1.8735  0.9221 -0.2173
  937MPD2     N13710   2.612   4.395  11.297  0.1729  0.2080 -0.0271
  937MPD2    H513711   2.648   4.488  11.314  0.9474 -0.0740 -0.1407
  937MPD2    N113712   2.328   4.525  11.651  0.2684  0.4867 -0.1455
  937MPD2    H713713   2.383   4.609  11.637  1.1602 -0.1135 -0.2398
  938MPD2     C13714   4.595   1.524   0.595  0.2168 -0.6403  0.0550
  938MPD2    C113715   4.658   1.575   0.707  0.2385 -0.7476 -0.0614
  938MPD2    C213716   4.603   1.551   0.834 -0.2395 -0.6729 -0.0285
  938MPD2    C313717   4.482   1.484   0.852  0.4657 -0.1708  0.0990
  938MPD2    C413718   4.427   1.428   0.735  0.6989 -0.1140 -0.8313
  938MPD2    C513719   4.486   1.444   0.616  0.2868 -0.1045 -0.3505
  938MPD2     H13720   4.662   1.582   0.919  0.5635 -0.3375 -0.7119
  938MPD2    H113721   4.342   1.363   0.746  0.6120  0.1760  0.2516
  938MPD2    H213722   4.632   1.526   0.493  1.1475 -0.8608  0.3899
  938MPD2    H313723   4.442   1.395   0.530 -2.6642  1.6941  0.1501
  938MPD2     N13724   4.429   1.446   0.973 -0.0492 -0.1468  0.5994
  938MPD2    H513725   4.360   1.371   0.974  0.5582 -0.7166 -1.3010
  938MPD2    N113726   0.067   1.631   0.703  0.3236  0.6048 -0.5749
  938MPD2    H713727   0.114   1.645   0.792 -1.1723  1.3143  0.0985
  939MPD2     C13728   0.892   2.058   1.436  0.2705 -0.2299 -0.3526
  939MPD2    C113729   0.860   2.179   1.379  0.5201  0.4640 -0.0986
  939MPD2    C213730   0.897   2.201   1.246 -0.6757  0.4231  0.4950
  939MPD2    C313731   0.972   2.112   1.181 -1.0804  0.2433  0.5690
  939MPD2    C413732   1.001   1.992   1.241 -0.5610 -0.1090  0.4779
  939MPD2    C513733   0.954   1.962   1.363 -0.1581 -0.7056  0.2356
  939MPD2     H13734   0.875   2.298   1.203  0.8376  1.2399  1.5333
  939MPD2    H113735   1.045   1.908   1.190 -1.2044  1.0496 -1.9601
  939MPD2    H213736   0.854   2.047   1.537 -0.4755 -2.1080 -0.8354
  939MPD2    H313737   0.974   1.861   1.397 -0.3118 -0.7237  0.2687
  939MPD2     N13738   1.004   2.142   1.046  0.6360 -0.0332  0.3723
  939MPD2    H513739   0.970   2.231   1.012 -0.5055 -0.1854  1.0882
  939MPD2    N113740   0.793   2.266   1.465 -0.6110  0.1149  0.0622
  939MPD2    H713741   0.794   2.240   1.563 -0.2356 -1.9753 -0.5092
  940MPD2     C13742   4.347   2.500  13.400  0.0698  0.0023 -0.1229
  940MPD2    C113743   4.467   2.531  13.463  0.0099 -0.2261  0.2033
  940MPD2    C213744   4.577   2.554  13.383  0.2166 -0.4023  0.1060
  940MPD2    C313745   4.566   2.547  13.240 -0.0031  0.8271  0.3890
  940MPD2    C413746   4.440   2.531  13.184  0.5643 -0.2567  0.1149
  940MPD2    C513747   4.329   2.515  13.261 -0.0138 -0.7792  0.0052
  940MPD2     H13748   4.676   2.568  13.425  0.4004 -0.6543 -0.2508
  940MPD2    H113749   4.428   2.545  13.077  0.3399  2.5026  0.5058
  940MPD2    H213750   4.254   2.492  13.455 -0.0556 -0.6761 -0.4304
  940MPD2    H313751   4.238   2.486  13.209 -0.6569 -1.0408  1.2814
  940MPD2     N13752   4.677   2.543  13.155  0.2241 -0.1804 -0.2772
  940MPD2    H513753   4.659   2.508  13.061  1.5894 -0.6925 -0.3339
  940MPD2    N113754   4.484   2.541  13.602 -0.1402 -0.4181 -0.2937
  940MPD2    H713755   4.576   2.567  13.639 -1.1764  2.3753  0.3022
  941MPD2     C13756   4.250   1.997   9.360 -0.1562  0.1335  0.3746
  941MPD2    C113757   4.316   2.014   9.478  0.1947  0.4860 -0.2418
  941MPD2    C213758   4.270   1.947   9.587 -0.2445 -0.0212  0.3498
  941MPD2    C313759   4.162   1.860   9.577 -0.0552 -0.5093  0.5041
  941MPD2    C413760   4.093   1.842   9.463 -0.3801  0.2020 -0.2484
  941MPD2    C513761   4.141   1.908   9.358 -0.3070  0.7042 -0.0932
  941MPD2     H13762   4.324   1.964   9.680 -1.7362  0.4397  1.1288
  941MPD2    H113763   4.000   1.787   9.449 -0.0265  0.0831 -2.0617
  941MPD2    H213764   4.280   2.036   9.263 -1.2805  0.2256  0.0617
  941MPD2    H313765   4.084   1.922   9.266 -0.6550  1.6064  0.2630
  941MPD2     N13766   4.102   1.793   9.687  0.3529 -0.2410  0.1702
  941MPD2    H513767   4.012   1.751   9.666  0.9600 -2.1307  1.4086
  941MPD2    N113768   4.419   2.113   9.501 -0.6630 -0.3287 -0.4459
  941MPD2    H713769   4.455   2.129   9.594  0.4785 -0.9666 -0.7819
  942MPD2     C13770   2.875   3.622   9.181  0.5591 -0.3455  0.2476
  942MPD2    C113771   2.890   3.536   9.288 -0.4345 -0.6103 -0.2212
  942MPD2    C213772   3.009   3.471   9.316  0.4220  0.0713  0.1248
  942MPD2    C313773   3.111   3.473   9.227 -0.6157 -0.0477  0.6040
  942MPD2    C413774   3.098   3.560   9.113 -0.2658 -0.2828 -0.2111
  942MPD2    C513775   2.984   3.626   9.093  0.2536 -0.7605  0.0284
  942MPD2     H13776   3.024   3.422   9.412 -1.0947  0.2857  0.4714
  942MPD2    H113777   3.180   3.594   9.050  0.8616 -1.5016  0.5793
  942MPD2    H213778   2.790   3.690   9.175  0.7358 -0.1644 -0.1743
  942MPD2    H313779   2.963   3.689   9.008 -1.7390  0.3217  1.3085
  942MPD2     N13780   3.238   3.410   9.239  0.1860 -0.5724 -0.2112
  942MPD2    H513781   3.295   3.427   9.157  1.7300 -0.2650  0.9355
  942MPD2    N113782   2.789   3.514   9.380 -0.9414 -0.0993 -0.2345
  942MPD2    H713783   2.805   3.431   9.436 -0.1226 -0.1505 -0.5357
  943MPD2     C13784   2.873   2.206   9.619  0.6374  0.2038  0.6515
  943MPD2    C113785   2.855   2.120   9.720 -0.0641 -0.2021  0.0614
  943MPD2    C213786   2.893   2.159   9.845  0.3636  0.9564  0.1459
  943MPD2    C313787   2.948   2.282   9.872 -0.0336 -0.9037 -0.4539
  943MPD2    C413788   2.964   2.367   9.768 -0.2442  0.2605 -0.8886
  943MPD2    C513789   2.931   2.327   9.646 -0.1352  0.1042  0.7191
  943MPD2     H13790   2.861   2.102   9.932 -1.1178  0.8461 -0.4734
  943MPD2    H113791   2.995   2.471   9.779  1.4951 -0.7913  4.0888
  943MPD2    H213792   2.866   2.173   9.516  1.1679  0.2815  0.5893
  943MPD2    H313793   2.958   2.398   9.569  2.5663 -1.2141  0.4324
  943MPD2     N13794   2.954   2.333  10.005 -0.0896  0.3248 -0.5098
  943MPD2    H513795   2.967   2.433  10.016 -0.5245  0.1380  1.8253
  943MPD2    N113796   2.806   1.991   9.692 -0.3624  0.0811  0.7031
  943MPD2    H713797   2.783   1.963   9.597  0.6905 -0.7336  0.6862
  944MPD2     C13798   2.667   0.547  10.796 -0.4342  0.6789 -0.2039
  944MPD2    C113799   2.777   0.608  10.848  0.1373  0.1115  0.1872
  944MPD2    C213800   2.791   0.605  10.988  0.4319  0.5737  0.4257
  944MPD2    C313801   2.678   0.568  11.059  0.2737  0.1522  0.0451
  944MPD2    C413802   2.569   0.503  11.004  0.0641  0.7115 -1.0389
  944MPD2    C513803   2.565   0.496  10.871 -0.1235 -0.3188  0.4486
  944MPD2     H13804   2.873   0.658  11.034  1.1973 -3.5821  3.7869
  944MPD2    H113805   2.483   0.458  11.051  0.2233  1.2390 -0.2455
  944MPD2    H213806   2.646   0.530  10.691  0.7557 -1.0890 -0.1533
  944MPD2    H313807   2.485   0.441  10.823 -1.2875  0.7888  1.1265
  944MPD2     N13808   2.691   0.589  11.203  0.6058 -0.0127  0.4257
  944MPD2    H513809   2.780   0.626  11.235  0.0581  0.0817  1.8671
  944MPD2    N113810   2.879   0.661  10.762  0.2091  0.1943  0.3402
  944MPD2    H713811   2.866   0.651  10.662  1.8256  0.4228  0.1074
    1TCq1    O113812   1.059   1.456  14.181  0.3351  0.5951  0.2813
    1TCq1    C113813   1.103   1.579  14.157 -0.5047  0.0040 -0.3213
    1TCq1    O213814   1.037   1.676  14.135  0.2006  0.0194 -0.6066
    1TCq1    C213815   1.207   1.593  14.257 -0.1055 -0.4868  0.3027
    1TCq1    C313816   1.300   1.498  14.273  0.1223 -0.3088  0.1116
    1TCq1    C413817   1.360   1.479  14.398  0.4914  0.1279  0.6702
    1TCq1    C513818   1.338   1.563  14.498  0.7482 -0.0094  0.4755
    1TCq1    C613819   1.257   1.667  14.474 -0.2033  0.2413 -0.0489
    1TCq1    C713820   1.189   1.685  14.357  0.2955  0.6028  0.1169
    1TCq1    C813821   1.242   1.769  14.584 -0.4482  0.3939  0.2423
    1TCq1    O413822   1.320   1.765  14.679  0.0935  0.5612  0.3244
    1TCq1    C913823   1.443   1.366  14.424 -0.5541  0.3243 -0.5441
    1TCq1    O513824   1.454   1.286  14.326 -0.1459  0.1011  0.0122
    1TCq1    O613825   1.477   1.349  14.547  0.2953  0.6783  0.5753
    1TCq1    H113826   1.119   1.400  14.235 -0.4314 -2.5518 -2.1702
    1TCq1    H213827   1.323   1.435  14.187 -1.7759 -0.9275  0.0640
    1TCq1    H313828   1.381   1.560  14.598  0.9575  0.4382  0.4025
    1TCq1    H413829   1.136   1.778  14.337 -0.0713  0.7740  1.8322
    2MPD2     C13830   1.031   2.195  14.785  0.4456 -0.5330  0.1309
    2MPD2    C113831   0.962   2.160  14.668 -0.0274  0.2025  0.2061
    2MPD2    C213832   0.998   2.045  14.608 -0.2100  0.1264  0.6515
    2MPD2    C313833   1.093   1.960  14.664  0.6107 -0.0614 -0.3659
    2MPD2    C413834   1.158   1.996  14.780 -0.5548 -0.1057  0.8851
    2MPD2    C513835   1.124   2.112  14.842  0.2444  0.2018 -0.2729
    2MPD2     H13836   0.962   2.006  14.514 -1.7955  0.7759  0.9771
    2MPD2    H113837   1.228   1.927  14.825  1.2657  1.9412  1.1930
    2MPD2    H213838   1.001   2.287  14.835  0.0260 -1.2713  1.2145
    2MPD2    H313839   1.170   2.133  14.938  1.1140 -0.9406 -0.4352
    2MPD2     N13840   1.122   1.843  14.583  0.1646  0.0384  0.5570
    2MPD2    H513841   1.055   1.800  14.520 -0.6020  3.2549 -0.8277
    2MPD2    N113842   0.880   2.251  14.611  0.8874 -0.1586  0.1594
    2MPD2    H713843   0.892   2.339  14.660  0.1249 -1.0875  2.0093
    3TMC2    C113844   0.786   2.369  14.435  0.8769  0.1205 -0.3922
    3TMC2    C213845   0.848   2.487  14.480  0.2118 -0.1210 -0.9029
    3TMC2    C313846   0.865   2.596  14.393  0.4059  0.0498  0.0288
    3TMC2    C413847   0.740   2.367  14.308  0.0489  0.4006 -0.4654
    3TMC2    C513848   0.746   2.475  14.222 -0.1639  0.1545 -0.1406
    3TMC2    C613849   0.806   2.588  14.270 -0.4600 -0.4156  0.2519
    3TMC2     C13850   0.827   2.240  14.490  0.7366 -0.7775 -0.0697
    3TMC2     O13851   0.791   2.139  14.429  0.0671  0.1631 -0.5599
    3TMC2     H13852   0.897   2.494  14.576  1.3673  0.2466 -1.5204
    3TMC2    H113853   0.686   2.281  14.271 -1.3727  0.7606  0.7927
    3TMC2    H213854   0.820   2.673  14.204 -2.1624 -2.5651 -2.9251
    3TMC2    C713855   0.653   2.481  14.113  0.3279 -0.2449 -0.8522
    3TMC2    C813856   0.904   2.730  14.441  0.8754  0.2679 -0.4905
    3TMC2    O113857   0.563   2.396  14.108 -0.5185 -0.4429 -0.0394
    3TMC2    O213858   0.859   2.826  14.385  0.2323  0.3711  0.8518
    3TMC2    O513859   1.024   2.724  14.493  0.2971  0.2846  0.3779
    3TMC2    H513860   1.046   2.634  14.525 -0.3968  0.0953  0.3277
    4MPD2     C13861   4.562   3.315  13.683  0.1565  0.0506 -0.0419
    4MPD2    C113862   4.601   3.279  13.563  0.4527  0.5552  0.4180
    4MPD2    C213863   0.013   3.246  13.546  0.3512  0.1611 -0.3675
    4MPD2    C313864   0.106   3.267  13.646 -0.4926  0.5798 -0.2817
    4MPD2    C413865   0.060   3.299  13.771 -0.1659  0.3427 -0.4800
    4MPD2    C513866   4.646   3.320  13.794  0.7110  0.2050  0.0572
    4MPD2     H13867   0.047   3.214  13.449  1.8242  0.4171  0.0543
    4MPD2    H113868   0.131   3.289  13.852 -2.3208  0.4746  1.4027
    4MPD2    H213869   4.459   3.326  13.713  0.0071 -1.4379  0.0266
    4MPD2    H313870   4.606   3.341  13.892 -1.2477  0.6467 -0.8245
    4MPD2     N13871   0.245   3.250  13.608 -0.3602 -0.8978 -0.5762
    4MPD2    H513872   0.257   3.209  13.516  0.1436 -1.4069 -0.2853
    4MPD2    N113873   4.507   3.272  13.462  0.0037 -0.0891 -0.1965
    4MPD2    H713874   4.416   3.312  13.482  0.1915  0.0288  0.4261
    5TCq2    C113875   0.346   3.299  13.685  0.1534  0.2592 -0.7062
    5TCq2    O213876   0.346   3.353  13.792  0.1711  0.4752  0.0246
    5TCq2    C213877   0.476   3.272  13.626  0.5167  0.7255 -0.7098
    5TCq2    C313878   0.565   3.376  13.637  0.3949  0.7501  0.4100
    5TCq2    C413879   0.698   3.350  13.665 -0.2514 -0.2695  0.1599
    5TCq2    C513880   0.746   3.220  13.670 -0.3777  0.5055 -0.6131
    5TCq2    C613881   0.657   3.122  13.636 -0.7824  0.7826  0.1326
    5TCq2    C713882   0.524   3.144  13.618 -0.3225  0.3339 -0.6623
    5TCq2    C813883   0.674   3.008  13.726  0.8570 -0.5220 -0.0074
    5TCq2    O413884   0.749   3.025  13.819  0.1949 -0.6236  0.7371
    5TCq2    C913885   0.779   3.468  13.693  0.0673 -0.4657 -0.0167
    5TCq2    O513886   0.887   3.445  13.758 -0.3430 -0.1152  0.4021
    5TCq2    O613887   0.746   3.582  13.644 -0.6055 -0.7408 -0.1749
    5TCq2    H213888   0.529   3.478  13.649  0.2387  0.5984  1.2669
    5TCq2    H313889   0.850   3.203  13.698 -1.3554 -4.8419 -0.2337
    5TCq2    H413890   0.455   3.062  13.600 -1.2818  0.8393  0.6761
    6MPD1     C13891   3.935   0.012  13.286  0.3990 -0.0451  0.3148
    6MPD1    C113892   3.932   0.013  13.149  0.2265 -0.8681 -0.0487
    6MPD1    C213893   3.957   4.619  13.076  0.7425  0.1725 -1.0173
    6MPD1    C313894   3.997   4.501  13.143  0.2568 -0.0500  0.5283
    6MPD1    C413895   4.001   4.499  13.281 -0.1060  0.1859  0.5131
    6MPD1    C513896   3.968   4.616  13.354 -0.4253 -0.6861  0.8655
    6MPD1     H13897   3.956   4.619  12.968  1.6482 -1.7088 -1.0191
    6MPD1    H113898   4.015   4.408  13.339 -0.3943 -0.4006 -0.3347
    6MPD1    H213899   3.898   0.090  13.351 -2.8249  0.1554 -1.7522
    6MPD1    H313900   3.967   4.614  13.463  2.0244  2.2730  0.9441
    6MPD1     N13901   4.009   4.381  13.072 -0.4466  0.3251 -0.8483
    6MPD1    H513902   4.007   4.296  13.128  0.1525 -0.2026 -1.6240
    6MPD1    N113903   3.919   0.132  13.084 -0.6600  0.7359 -0.4676
    6MPD1    H613904   3.921   0.137  12.982 -1.4860  0.5816 -0.4896
    6MPD1    H713905   3.854   0.198  13.127 -1.3450  1.5106 -2.6432
    7MPD2     C13906   3.719   3.652  13.041 -0.6099  0.3712  0.1941
    7MPD2    C113907   3.851   3.694  13.046 -0.3578 -0.4701  0.0026
    7MPD2    C213908   3.950   3.596  13.070 -0.3274 -0.5982 -0.8465
    7MPD2    C313909   3.906   3.463  13.105  0.3966  0.0201  0.0003
    7MPD2    C413910   3.767   3.431  13.099 -0.7539  0.2356  0.1226
    7MPD2    C513911   3.680   3.524  13.056 -0.2894  0.8250 -1.2366
    7MPD2     H13912   4.053   3.628  13.083 -1.3048  1.1406  2.7284
    7MPD2    H113913   3.736   3.330  13.120  1.2619 -0.8607 -2.1437
    7MPD2    H213914   3.635   3.717  13.019 -1.7002 -1.0679  0.0998
    7MPD2    H313915   3.575   3.498  13.053 -0.2216  0.9355 -3.9717
    7MPD2     N13916   3.993   3.364  13.144 -0.1516  0.1431  0.2667
    7MPD2    H513917   3.946   3.275  13.163  1.8209 -0.6156  1.5851
    7MPD2    N113918   3.891   3.831  13.033  0.5416  0.5807  0.0660
    7MPD2    H713919   3.989   3.858  13.034  0.9787 -1.0933  1.8297
    8TMC3    C113920   4.203   3.251  13.183  1.0598  0.0446 -0.4906
    8TMC3    C213921   4.301   3.270  13.277  0.2538 -0.1063 -0.5067
    8TMC3    C313922   4.426   3.235  13.236 -0.2366  0.1788 -0.4698
    8TMC3    C413923   4.230   3.208  13.054 -0.3716  0.0788 -0.0993
    8TMC3    C513924   4.362   3.206  13.008 -0.4958 -0.3352 -0.2353
    8TMC3    C613925   4.456   3.204  13.108  0.0953  0.0178 -0.2225
    8TMC3     C13926   4.122   3.378  13.188 -0.1810 -1.0761  0.7435
    8TMC3     O13927   4.180   3.483  13.196 -0.6004  0.2527 -0.2650
    8TMC3     H13928   4.281   3.321  13.371 -3.8957  0.6108 -1.7664
    8TMC3    H113929   4.151   3.208  12.981 -0.1618  0.8736 -0.3286
    8TMC3    H213930   4.561   3.199  13.085 -0.2886 -1.9104 -1.5195
    8TMC3    C713931   4.409   3.282  12.895 -0.2724  0.5629 -0.5182
    8TMC3    C813932   4.523   3.209  13.338  0.2689  0.7732 -0.4872
    8TMC3    O113933   4.513   3.246  12.843  0.5834  0.4488  0.2205
    8TMC3    O213934   4.617   3.134  13.310 -0.3443 -0.0927 -0.1273
    9TMC3    C113935   4.013   4.232  12.896 -0.3859  0.1271 -0.1535
    9TMC3    C213936   4.107   4.178  12.810 -0.1918  0.4507  0.1219
    9TMC3    C313937   4.112   4.044  12.803  0.0409  0.4050  0.1591
    9TMC3    C413938   3.911   4.157  12.948  0.6886 -0.0304 -0.3409
    9TMC3    C513939   3.895   4.029  12.906 -0.1574  0.4497 -0.0591
    9TMC3    C613940   4.009   3.964  12.853 -0.8751  0.4147 -0.4631
    9TMC3     C13941   4.029   4.368  12.938  0.2632 -1.0302 -0.3581
    9TMC3     O13942   4.073   4.452  12.854 -0.3627  0.6481  0.1192
    9TMC3     H13943   4.183   4.244  12.769 -0.0313  1.2932  1.8028
    9TMC3    H113944   3.831   4.193  13.011  0.3933 -0.2095 -0.6154
    9TMC3    H213945   4.004   3.862  12.815  1.3601 -0.5578  1.9141
    9TMC3    C713946   3.811   3.934  12.986  0.4797  0.2721  0.4551
    9TMC3    C813947   4.231   3.975  12.750 -0.2300 -0.1842  0.1445
    9TMC3    O113948   3.692   3.936  12.977 -0.5678  0.1531  0.4937
    9TMC3    O213949   4.299   4.034  12.666  0.5493  0.8142  0.2742
   10MPD2     C13950   4.436   3.511  12.696  0.4809  0.3840  0.0090
   10MPD2    C113951   4.351   3.506  12.806 -0.5845 -0.1970 -0.2652
   10MPD2    C213952   4.279   3.622  12.834  0.6443 -0.0725  0.1201
   10MPD2    C313953   4.308   3.742  12.770  0.3506 -1.0984 -0.1061
   10MPD2    C413954   4.408   3.750  12.674  0.6694 -0.6359 -0.1869
   10MPD2    C513955   4.468   3.631  12.630 -0.8329  0.1170  0.1962
   10MPD2     H13956   4.204   3.612  12.913  0.1961  0.6131 -0.2170
   10MPD2    H113957   4.445   3.846  12.641  1.1028 -0.3785  1.0494
   10MPD2    H213958   4.497   3.426  12.668  0.7916  1.1021 -1.5276
   10MPD2    H313959   4.551   3.648  12.564 -0.4086  0.8641  0.9218
   10MPD2     N13960   4.241   3.855  12.811 -0.1177 -0.0566  0.6571
   10MPD2    H513961   4.200   3.857  12.904 -0.8216  2.0573  0.3068
   10MPD2    N113962   4.336   3.396  12.894  0.0945 -0.2271 -0.8261
   10MPD2    H713963   4.272   3.413  12.971  0.2783  0.1066 -0.7463
   11MPD2     C13964   0.527   2.534  13.846 -0.1152  0.3704 -0.2905
   11MPD2    C113965   0.605   2.624  13.915 -0.0972 -0.1230 -0.3601
   11MPD2    C213966   0.644   2.746  13.858  0.3656  0.6476 -0.2908
   11MPD2    C313967   0.597   2.778  13.734  0.3124 -0.6813 -0.2018
   11MPD2    C413968   0.515   2.688  13.663  0.2300  0.3049 -0.4373
   11MPD2    C513969   0.487   2.566  13.717 -0.3586  0.0601 -0.2195
   11MPD2     H13970   0.711   2.811  13.913 -1.2133  2.1803 -0.1933
   11MPD2    H113971   0.468   2.711  13.568 -1.5305  1.0414  0.5952
   11MPD2    H213972   0.506   2.432  13.875  1.6999 -0.5015 -2.0157
   11MPD2    H313973   0.425   2.494  13.663  0.2726 -1.2342  0.7840
   11MPD2     N13974   0.628   2.901  13.671  0.9031 -0.1827 -0.2259
   11MPD2    H513975   0.596   2.910  13.575  0.6411 -2.3146 -0.3415
   11MPD2    N113976   0.677   2.593  14.035  0.0006 -0.1833  0.3241
   11MPD2    H713977   0.746   2.663  14.062  0.8648  0.1740 -2.7743
    1MPD1     C13978   2.357   0.480  16.714 -0.4141  0.5092 -0.2527
    1MPD1    C113979   2.407   0.360  16.662 -0.7731 -0.0994 -0.0136
    1MPD1    C213980   2.510   0.293  16.726 -1.2495 -0.3046  0.6170
    1MPD1    C313981   2.581   0.351  16.832 -0.7157 -0.6947 -0.7841
    1MPD1    C413982   2.535   0.474  16.870 -0.3842  0.0357 -0.0326
    1MPD1    C513983   2.428   0.537  16.813 -0.1379 -0.1807  0.6189
    1MPD1     H13984   2.546   0.200  16.682 -0.6439  0.1846  0.0655
    1MPD1    H113985   2.585   0.531  16.947  0.2863  1.1404 -1.2895
    1MPD1    H213986   2.268   0.527  16.673 -1.6715 -0.2857  1.5854
    1MPD1    H313987   2.394   0.633  16.850 -0.3413  0.1927 -0.5244
    1MPD1     N13988   2.686   0.288  16.900  0.2460  0.0305  0.0189
    1MPD1    H513989   2.749   0.347  16.953 -0.4956  1.5364 -0.7407
    1MPD1    N113990   2.333   0.299  16.560  0.0427  0.4774  0.3970
    1MPD1    H613991   2.310   0.367  16.488 -0.3311  1.7611  1.7215
    1MPD1    H713992   2.386   0.226  16.513  0.9725  1.7717 -0.5814
    2MPD1     C13993   3.191   4.214  17.425  0.2702 -0.2827  0.3211
    2MPD1    C113994   3.287   4.308  17.396  0.8698 -0.1832  0.5916
    2MPD1    C213995   3.261   4.409  17.311  0.7423  0.0509  0.5020
    2MPD1    C313996   3.131   4.431  17.255 -0.7942  0.5054  0.4731
    2MPD1    C413997   3.031   4.336  17.289  0.6264 -0.1254 -0.4247
    2MPD1    C513998   3.060   4.233  17.372  0.5796  0.1166  0.4076
    2MPD1     H13999   3.336   4.479  17.277  0.6033  0.2806  0.6692
    2MPD1    H114000   2.932   4.344  17.246  0.5733 -2.0041 -0.6544
    2MPD1    H214001   3.217   4.140  17.499  1.7796  1.7836  1.8301
    2MPD1    H314002   2.985   4.163  17.409 -1.2553  1.6750 -0.3526
    2MPD1     N14003   3.104   4.541  17.173  0.2346  0.3363 -0.2031
    2MPD1    H514004   3.181   4.599  17.140  1.6971 -0.2624  2.1752
    2MPD1    N114005   3.418   4.297  17.453 -0.6853  0.4104 -0.1370
    2MPD1    H614006   3.471   4.384  17.448 -2.7280  1.7113  0.2331
    2MPD1    H714007   3.419   4.257  17.547  1.3874  0.7783 -0.0200
    3TMC3    C114008   2.970   4.692  17.048  0.5232  0.5172  0.3986
    3TMC3    C214009   3.081   0.031  16.999  0.5731  0.0419 -0.9019
    3TMC3    C314010   3.074   0.139  16.912 -0.3841 -0.5837 -0.5349
    3TMC3    C414011   2.843   0.003  17.003 -0.0727  0.1111  0.0312
    3TMC3    C514012   2.842   0.119  16.923  0.4620  0.0052 -0.3850
    3TMC3    C614013   2.951   0.189  16.876  0.0617  0.0930  0.1494
    3TMC3     C14014   2.978   4.581  17.139  0.3129 -0.1535 -0.4244
    3TMC3     O14015   2.870   4.535  17.162  0.2531 -0.4475  0.4469
    3TMC3     H14016   3.176   0.003  17.041  0.8755 -0.2537 -1.7881
    3TMC3    H114017   2.748   4.685  17.037  0.4844 -0.2039  1.2032
    3TMC3    H214018   2.931   0.284  16.829  0.5789  0.2098  0.1660
    3TMC3    C714019   2.708   0.155  16.881 -0.0924  0.3821 -0.0394
    3TMC3    C814020   3.188   0.224  16.874  0.4740 -0.2266 -0.0847
    3TMC3    O114021   2.630   0.067  16.856 -0.0624  0.1633  0.3809
    3TMC3    O214022   3.154   0.324  16.810 -0.4806  0.1447 -0.0286
    4MPD1     C14023   3.658   0.415  16.835 -0.3437  0.2743 -0.6259
    4MPD1    C114024   3.661   0.315  16.934 -0.4894  0.6168 -0.7018
    4MPD1    C214025   3.546   0.241  16.950 -0.2984 -0.2258 -0.2666
    4MPD1    C314026   3.430   0.268  16.883  0.1548 -0.4763  0.0452
    4MPD1    C414027   3.441   0.365  16.781  0.0418  0.1781  0.6512
    4MPD1    C514028   3.553   0.437  16.759  0.7933  0.5905 -0.7315
    4MPD1     H14029   3.546   0.177  17.037 -0.8770  1.1571  0.7428
    4MPD1    H114030   3.357   0.389  16.717 -0.3074 -1.0046  0.6696
    4MPD1    H214031   3.742   0.484  16.825 -0.3427  0.2753 -0.6107
    4MPD1    H314032   3.549   0.517  16.686  0.8593  0.5050 -0.8286
    4MPD1     N14033   3.310   0.197  16.919 -0.7519  0.2588  0.0400
    4MPD1    H514034   3.315   0.112  16.975  0.4019  1.8549  2.3358
    4MPD1    N114035   3.786   0.270  16.980 -0.1049 -0.0846 -0.9197
    4MPD1    H614036   3.839   0.356  16.994 -0.0138 -0.1509 -0.8626
    4MPD1    H714037   3.773   0.231  17.073 -0.2138  0.6667 -0.6170
    1TCq1    O114038   0.518   4.101  10.886  0.5614  0.1333 -0.1674
    1TCq1    C114039   0.460   4.216  10.848  0.8472 -0.7000 -0.4905
    1TCq1    O214040   0.343   4.243  10.852 -0.1972 -0.2970 -0.1828
    1TCq1    C214041   0.550   4.303  10.774 -0.3667  0.1404 -0.1488
    1TCq1    C314042   0.677   4.267  10.757  0.0511 -0.4497  0.3310
    1TCq1    C414043   0.769   4.363  10.719 -0.5734 -0.1940 -0.4038
    1TCq1    C514044   0.726   4.492  10.679 -0.1941 -0.5441  0.5147
    1TCq1    C614045   0.595   4.529  10.717  0.8022 -0.5715  0.1960
    1TCq1    C714046   0.511   4.432  10.763 -0.0841  0.3184  0.0333
    1TCq1    C814047   0.582   4.658  10.778  0.2891  0.1890 -0.5180
    1TCq1    O414048   0.681   0.005  10.763 -0.2905  0.0321  0.5405
    1TCq1    C914049   0.898   4.322  10.654 -0.2491 -0.3788  0.2327
    1TCq1    O514050   0.948   4.403  10.570 -0.2557 -0.4194 -0.1502
    1TCq1    O614051   0.940   4.205  10.685 -0.6241 -0.3352 -0.7193
    1TCq1    H114052   0.611   4.106  10.916 -0.0529 -0.1703  1.7529
    1TCq1    H214053   0.700   4.161  10.754 -1.3502 -0.7878  2.2522
    1TCq1    H314054   0.792   4.563  10.630  0.5224 -1.3324  0.3492
    1TCq1    H414055   0.406   4.457  10.771 -0.0484  1.0644 -1.7279
    2MPD1     C14056   0.432   0.204  11.178  0.3175  0.1525  0.1309
    2MPD1    C114057   0.327   0.120  11.149  0.2580 -0.0703  0.7774
    2MPD1    C214058   0.346   0.038  11.034  0.1849  0.2343  0.0930
    2MPD1    C314059   0.456   0.048  10.955 -0.2379 -0.7730 -0.6505
    2MPD1    C414060   0.552   0.143  10.976 -0.5526  0.5130  1.1159
    2MPD1    C514061   0.541   0.221  11.091  0.6104  0.6249 -0.6564
    2MPD1     H14062   0.263   4.692  11.019 -0.4574  1.4451 -1.8973
    2MPD1    H114063   0.643   0.147  10.917 -1.1666  1.0630  0.2112
    2MPD1    H214064   0.437   0.257  11.272  1.8627  2.1060 -1.0481
    2MPD1    H314065   0.619   0.292  11.119  2.4474 -0.8647 -2.0154
    2MPD1     N14066   0.471   4.671  10.854  0.8134 -0.6695 -0.0799
    2MPD1    H514067   0.393   4.606  10.845  0.6953 -0.1180 -3.1703
    2MPD1    N114068   0.228   0.094  11.248 -0.1082  0.3181  0.0919
    2MPD1    H614069   0.205   0.170  11.312  1.3912  1.4311 -0.6820
    2MPD1    H714070   0.142   0.065  11.202  0.0605  0.1017 -0.0900
    1TCq1    O114071   2.705   3.300   1.255 -0.0466 -0.6041  0.3622
    1TCq1    C114072   2.666   3.406   1.173 -0.2685 -0.2063 -0.6666
    1TCq1    O214073   2.586   3.491   1.209 -0.5746 -0.5327  0.8947
    1TCq1    C214074   2.730   3.380   1.049  0.3304  0.1415  0.3438
    1TCq1    C314075   2.752   3.253   1.013  0.2902  0.2382 -0.2312
    1TCq1    C414076   2.825   3.238   0.902  0.1188 -0.4951 -0.2405
    1TCq1    C514077   2.899   3.344   0.848 -0.4362  0.1030  0.3580
    1TCq1    C614078   2.869   3.474   0.890 -0.2759 -0.0424  0.0498
    1TCq1    C714079   2.779   3.494   0.993  0.1555  0.5731  0.2731
    1TCq1    C814080   2.956   3.589   0.859 -0.1392  0.6761  0.0777
    1TCq1    O414081   2.952   3.681   0.935 -0.3034  0.1223  0.6804
    1TCq1    C914082   2.874   3.110   0.877  0.1660  0.0164 -0.5172
    1TCq1    O514083   2.947   3.105   0.773 -0.1255 -0.7139  0.0013
    1TCq1    O614084   2.848   3.018   0.960  0.4099 -0.0497  0.8935
    1TCq1    H114085   2.794   3.265   1.231  0.9576  2.7813 -0.7988
    1TCq1    H214086   2.703   3.172   1.066 -0.8293  0.4763 -0.9025
    1TCq1    H314087   2.971   3.325   0.769 -1.4069  0.2594 -0.5630
    1TCq1    H414088   2.738   3.586   1.032 -0.7113  0.6938 -0.9550
    2MPD1     C14089   3.270   3.860   0.556  1.2264  0.1955 -0.1347
    2MPD1    C114090   3.243   3.733   0.491 -0.5334 -0.5646  0.0476
    2MPD1    C214091   3.163   3.643   0.555  0.2735  0.1391  0.1897
    2MPD1    C314092   3.099   3.676   0.674  0.1981 -0.7118 -0.0076
    2MPD1    C414093   3.118   3.801   0.726 -0.3357  0.0065 -0.0864
    2MPD1    C514094   3.207   3.886   0.680 -0.3213  0.1987 -0.2370
    2MPD1     H14095   3.128   3.555   0.502  1.4751 -0.6562  0.6980
    2MPD1    H114096   3.082   3.829   0.824 -0.9934 -1.9629  0.2345
    2MPD1    H214097   3.344   3.927   0.513 -2.2878  2.6212 -2.4185
    2MPD1    H314098   3.240   3.974   0.735 -2.6128  2.5426 -2.5781
    2MPD1     N14099   3.008   3.587   0.733  0.7358  0.0286 -0.1173
    2MPD1    H514100   2.996   3.491   0.703 -0.0469  0.1605 -0.2374
    2MPD1    N114101   3.317   3.702   0.377 -0.1198 -0.2379  0.0536
    2MPD1    H614102   3.276   3.623   0.328  0.5576 -0.5817  0.0375
    2MPD1    H714103   3.316   3.787   0.321  1.3429 -1.3490 -1.6864
    1MPD1     C14104   0.667   4.495  11.230  0.1482  0.0259 -0.4676
    1MPD1    C114105   0.699   4.620  11.277  0.0321  0.5040 -0.7355
    1MPD1    C214106   0.831   4.663  11.271 -0.7002 -0.2092  0.3474
    1MPD1    C314107   0.935   4.586  11.212 -0.4583 -0.1041 -1.3106
    1MPD1    C414108   0.899   4.458  11.164 -0.4405 -0.3847 -0.4925
    1MPD1    C514109   0.765   4.417  11.164 -0.5962 -0.4784  0.3340
    1MPD1     H14110   0.860   0.035  11.313  0.0957  0.0349 -0.7590
    1MPD1    H114111   0.970   4.385  11.127 -0.1299 -0.3194 -0.0145
    1MPD1    H214112   0.566   4.458  11.216  0.3764 -1.0529  0.8639
    1MPD1    H314113   0.744   4.317  11.129  1.0002 -0.4911 -0.6011
    1MPD1     N14114   1.068   4.642  11.222  0.4125 -0.4309 -0.4443
    1MPD1    H514115   1.072   0.012  11.263 -0.4039 -0.4775 -0.2702
    1MPD1    N114116   0.600   4.695  11.340 -0.0103 -0.2465 -0.1374
    1MPD1    H614117   0.609   0.074  11.335  1.9720 -0.3419  1.2312
    1MPD1    H714118   0.502   4.666  11.339 -0.0063 -0.0864 -3.5948
    2MPD1     C14119   0.835   3.295  12.063  0.3954 -0.3974  0.1251
    2MPD1    C114120   0.717   3.348  12.012 -0.2402 -0.0111  0.2159
    2MPD1    C214121   0.722   3.446  11.913 -0.0296  0.1004  0.2651
    2MPD1    C314122   0.848   3.489  11.875  0.4652  0.3574  0.0553
    2MPD1    C414123   0.957   3.441  11.929  0.3978  0.0782  0.2865
    2MPD1    C514124   0.954   3.342  12.026  0.4240 -0.5654 -0.0963
    2MPD1     H14125   0.631   3.499  11.888  1.3754  1.7190 -1.4729
    2MPD1    H114126   1.054   3.480  11.899  0.3399  0.3280  0.4267
    2MPD1    H214127   0.824   3.215  12.136  3.1146  0.5412  1.6074
    2MPD1    H314128   1.047   3.314  12.075  0.4712  0.0544  0.1670
    2MPD1     N14129   0.874   3.593  11.779 -0.0835 -0.5448  0.1280
    2MPD1    H514130   0.973   3.616  11.770 -0.4140  0.0924 -1.7941
    2MPD1    N114131   0.598   3.284  12.041  0.6660 -0.1358  0.3816
    2MPD1    H614132   0.516   3.342  12.027 -0.0775 -1.4693 -0.8107
    2MPD1    H714133   0.587   3.251  12.137 -1.1180  3.2797  1.3378
    3MPD1     C14134   0.375   4.385  11.694  0.0781  0.9714  0.5794
    3MPD1    C114135   0.362   4.263  11.758  0.5821 -0.4669  0.5106
    3MPD1    C214136   0.441   4.163  11.705 -0.5944 -0.4108  0.2378
    3MPD1    C314137   0.539   4.178  11.611  0.4819 -0.0283  0.0661
    3MPD1    C414138   0.560   4.303  11.559  0.0615  0.2072 -0.5468
    3MPD1    C514139   0.462   4.393  11.590  0.1863 -0.0903  0.0077
    3MPD1     H14140   0.421   4.063  11.740 -2.4618  0.2707  1.1192
    3MPD1    H114141   0.621   4.330  11.473  2.1350  1.2166  1.2429
    3MPD1    H214142   0.306   4.467  11.707 -0.5322  0.4192  0.8161
    3MPD1    H314143   0.475   4.493  11.550  0.9267 -0.1492  0.1131
    3MPD1     N14144   0.609   4.064  11.567 -0.0090 -0.6304 -0.5055
    3MPD1    H514145   0.581   3.977  11.611  0.8563 -0.4974  0.2977
    3MPD1    N114146   0.261   4.232  11.852  0.0315  0.3253 -0.0548
    3MPD1    H614147   0.224   4.306  11.912 -1.6827 -1.5644  1.2258
    3MPD1    H714148   0.288   4.151  11.907  0.3495  1.3042  1.2333
    4MPD2     C14149   1.829   4.349  11.146  1.0819 -0.3819 -0.1775
    4MPD2    C114150   1.756   4.415  11.248 -0.3590  0.3685  0.4448
    4MPD2    C214151   1.787   4.368  11.379 -0.3443  0.6586  0.0033
    4MPD2    C314152   1.893   4.280  11.405  0.3712 -0.0511  0.4369
    4MPD2    C414153   1.952   4.223  11.294  0.1311 -0.3207  0.6002
    4MPD2    C514154   1.922   4.252  11.161 -0.7835  0.1436  0.1982
    4MPD2     H14155   1.736   4.412  11.464 -1.2502 -1.1360  0.3801
    4MPD2    H114156   2.034   4.154  11.306  1.9709  1.5247 -1.3957
    4MPD2    H214157   1.802   4.373  11.043 -0.3756 -0.6760  0.1390
    4MPD2    H314158   1.973   4.198  11.082 -1.5697  2.7010 -2.0211
    4MPD2     N14159   1.935   4.240  11.534 -0.2232 -0.4087  0.0159
    4MPD2    H514160   1.985   4.153  11.552  2.4109  1.0104 -0.4849
    4MPD2    N114161   1.665   4.526  11.234 -0.0502 -0.2394 -0.0350
    4MPD2    H714162   1.634   4.569  11.321  3.3996 -0.5945  1.3762
    5TMC3    C114163   1.524   4.680  11.149  0.0562  0.0838 -0.0243
    5TMC3    C214164   1.396   4.649  11.117  0.3002 -0.3910 -0.6949
    5TMC3    C314165   1.296   4.671  11.202  0.4841 -0.1164 -0.1736
    5TMC3    C414166   1.547   0.029  11.261 -0.2308 -0.5147 -0.0331
    5TMC3    C514167   1.451   0.051  11.352 -0.7337  0.3096 -0.1844
    5TMC3    C614168   1.326   4.718  11.325  0.0917 -0.3985 -0.5911
    5TMC3     C14169   1.616   4.573  11.117  0.7147  0.1634  0.6247
    5TMC3     O14170   1.607   4.522  11.008  0.3851  0.0516  0.4006
    5TMC3     H14171   1.373   4.601  11.022  0.8709 -1.2112 -0.4137
    5TMC3    H114172   1.650   0.059  11.273 -0.1551 -1.0906  0.7742
    5TMC3    H214173   1.250   0.021  11.399  3.2099  1.7106  1.8899
    5TMC3    C714174   1.504   4.716  11.469  0.3193 -0.0940 -0.2234
    5TMC3    C814175   1.185   4.581  11.175 -0.2649  0.8888 -0.1852
    5TMC3    O114176   1.612   4.663  11.464 -0.2153 -0.3937  0.1835
    5TMC3    O214177   1.207   4.471  11.120  0.1837 -0.3381  0.5365
    6TMC3    C114178   0.824   3.748  11.602  0.5531  1.0762 -0.0902
    6TMC3    C214179   0.730   3.831  11.539  1.0522 -0.2087 -0.8905
    6TMC3    C314180   0.779   3.939  11.466 -0.4645 -0.3671  0.6884
    6TMC3    C414181   0.951   3.776  11.603 -0.9366 -0.1671  0.5180
    6TMC3    C514182   0.998   3.883  11.539 -0.0335 -0.5672 -0.4030
    6TMC3    C614183   0.916   3.966  11.461 -0.0574 -0.7099 -0.1040
    6TMC3     C14184   0.773   3.655  11.703  0.4464  0.5612 -0.3002
    6TMC3     O14185   0.653   3.638  11.698 -0.1283  0.0414  0.1473
    6TMC3     H14186   0.625   3.820  11.562  2.1933 -2.9263  2.8569
    6TMC3    H114187   1.020   3.697  11.628 -1.9779 -1.6661 -1.3966
    6TMC3    H214188   0.947   4.060  11.417  1.8623 -2.6243 -2.8849
    6TMC3    C714189   1.136   3.904  11.560  0.0588  0.6196 -0.6043
    6TMC3    C814190   0.697   4.063  11.461  0.1466  0.0805 -0.4369
    6TMC3    O114191   1.179   4.016  11.595 -0.1129  0.5217 -0.0279
    6TMC3    O214192   0.730   4.146  11.377  0.1185  0.0802  0.1232
    7MPD2     C14193   1.489   4.593  11.953 -0.3236 -0.8873 -0.3639
    7MPD2    C114194   1.567   4.547  11.847  0.2924 -0.2020 -0.4180
    7MPD2    C214195   1.556   4.603  11.730 -0.1929  0.2798 -0.2610
    7MPD2    C314196   1.453   4.694  11.708  0.8933  0.7517  0.3286
    7MPD2    C414197   1.363   0.001  11.807  0.4568 -0.3842 -0.2963
    7MPD2    C514198   1.389   4.686  11.933 -0.5039 -0.4186 -0.0214
    7MPD2     H14199   1.627   4.567  11.656 -1.9847 -1.5922 -1.0762
    7MPD2    H114200   1.275   0.063  11.790 -0.2342 -1.1481  0.5425
    7MPD2    H214201   1.514   4.552  12.050  1.5451  1.5736  0.2010
    7MPD2    H314202   1.324   4.714  12.015 -1.3900 -1.4534 -0.3699
    7MPD2     N14203   1.430   0.024  11.579 -0.3700  0.1376 -0.9170
    7MPD2    H514204   1.347   0.081  11.565 -1.3943 -1.0914  0.2067
    7MPD2    N114205   1.670   4.456  11.871  0.2864  0.9152  0.0562
    7MPD2    H714206   1.733   4.441  11.793  0.8689 -0.3076  0.7660
    8TMC3    C114207   1.767   4.267  11.959  0.4272 -0.1447 -0.1383
    8TMC3    C214208   1.710   4.142  11.947  0.3604  0.0837  0.5652
    8TMC3    C314209   1.734   4.066  11.838 -0.1620  0.3139 -0.0878
    8TMC3    C414210   1.866   4.303  11.870 -0.2170  0.8438  0.1351
    8TMC3    C514211   1.895   4.225  11.763 -0.7051 -0.5728  0.5618
    8TMC3    C614212   1.829   4.101  11.745 -0.1886  0.3902  0.1461
    8TMC3     C14213   1.663   4.366  11.977  0.0877  0.5015  0.4325
    8TMC3     O14214   1.577   4.347  12.066 -0.3348 -0.2902 -0.2923
    8TMC3     H14215   1.628   4.112  12.011 -0.0447 -0.5017 -0.2359
    8TMC3    H114216   1.920   4.397  11.872 -2.3934  2.0558  2.2561
    8TMC3    H214217   1.830   4.050  11.649 -1.3222 -0.4648  0.5924
    8TMC3    C714218   1.905   4.312  11.646 -0.5307  0.8910 -0.2934
    8TMC3    C814219   1.616   4.003  11.788  0.0991  0.1559 -0.9941
    8TMC3    O114220   1.864   4.429  11.655  0.2010 -0.5096 -0.2079
    8TMC3    O214221   1.508   4.043  11.838 -1.0046  0.2479 -0.2243
    9MPD2     C14222   1.608   3.715  11.554 -0.5025 -0.0075  0.2074
    9MPD2    C114223   1.556   3.815  11.631 -0.1244 -0.6647  0.1275
    9MPD2    C214224   1.423   3.839  11.622  0.2677 -0.4366 -0.6280
    9MPD2    C314225   1.337   3.769  11.539  0.5030 -0.3707  0.6345
    9MPD2    C414226   1.394   3.657  11.472  0.1196  0.4387  0.3371
    9MPD2    C514227   1.523   3.638  11.470  0.1776 -0.0182  0.3853
    9MPD2     H14228   1.376   3.912  11.688  0.2786 -2.8345  2.0103
    9MPD2    H114229   1.329   3.602  11.405 -0.5982  1.4956  0.1721
    9MPD2    H214230   1.714   3.697  11.552 -0.0261  3.0014 -2.6429
    9MPD2    H314231   1.558   3.555  11.410  0.0407  1.9502 -2.4361
    9MPD2     N14232   1.203   3.798  11.518  0.9168  0.0914 -0.3773
    9MPD2    H514233   1.158   3.725  11.463  2.8196 -0.6306 -0.9789
    9MPD2    N114234   1.644   3.893  11.708 -0.0012  0.6080 -0.4378
    9MPD2    H714235   1.742   3.879  11.686  0.0614  0.8442 -0.3046
    1MPD1     C14236   0.798   2.887  16.681 -0.0782 -0.1151  0.4933
    1MPD1    C114237   0.736   2.990  16.610  0.4484 -0.2462 -0.5649
    1MPD1    C214238   0.591   2.987  16.604 -0.2648 -0.3573 -0.0810
    1MPD1    C314239   0.513   2.899  16.676  0.0503 -0.2799  0.1734
    1MPD1    C414240   0.579   2.815  16.760 -0.1637 -0.1532  0.4629
    1MPD1    C514241   0.716   2.809  16.758  0.4295 -0.5266  0.0156
    1MPD1     H14242   0.541   3.071  16.556  0.9947  0.2446 -0.3604
    1MPD1    H114243   0.529   2.739  16.819 -1.2293  0.0573 -0.1727
    1MPD1    H214244   0.903   2.859  16.680 -0.0829 -0.1498  0.9377
    1MPD1    H314245   0.764   2.730  16.814  0.3648 -0.6590 -0.1153
    1MPD1     N14246   0.372   2.904  16.683 -0.3088 -0.5263  0.4348
    1MPD1    H514247   0.331   2.842  16.752  1.4997 -1.1939  0.9115
    1MPD1    N114248   0.815   3.068  16.524  0.1198  0.0683 -0.7220
    1MPD1    H614249   0.763   3.154  16.512  2.3673  1.8751  2.4997
    1MPD1    H714250   0.910   3.088  16.554 -0.2860  2.0305 -0.7792
    2MPD1     C14251   4.138   2.558  16.340 -0.4829  0.6214 -0.3971
    2MPD1    C114252   4.144   2.563  16.476  0.3596 -0.4456 -0.4503
    2MPD1    C214253   4.244   2.634  16.536  0.0851 -0.5970 -0.3509
    2MPD1    C314254   4.338   2.701  16.463  1.0195  0.7344  0.8246
    2MPD1    C414255   4.330   2.695  16.325  0.3221  0.1787 -0.3538
    2MPD1    C514256   4.234   2.623  16.264  0.2132 -0.5157  0.0636
    2MPD1     H14257   4.237   2.643  16.644 -1.1338  0.0631 -0.4773
    2MPD1    H114258   4.414   2.722  16.262  2.4844 -2.8161  1.2223
    2MPD1    H214259   4.072   2.487  16.291  0.0051 -0.5246  0.6121
    2MPD1    H314260   4.242   2.597  16.159 -0.8389 -0.2281 -0.0936
    2MPD1     N14261   4.440   2.759  16.543  0.3443  0.0095  0.6441
    2MPD1    H514262   4.433   2.731  16.640  0.0164 -0.1941  0.5588
    2MPD1    N114263   4.048   2.488  16.551  0.0423 -0.7149  0.6350
    2MPD1    H614264   4.030   2.529  16.642  1.3021 -1.5665  1.2675
    2MPD1    H714265   3.956   2.482  16.507  0.7588 -0.5939 -0.8833
    3TCq2    C114266   4.556   2.817  16.491 -0.5150 -0.6799 -0.3187
    3TCq2    O214267   4.584   2.837  16.373  0.1486  0.1174 -0.2800
    3TCq2    C214268   4.667   2.862  16.588 -1.3906 -0.8808  0.6667
    3TCq2    C314269   4.658   2.819  16.717 -0.1862 -0.2695 -0.6392
    3TCq2    C414270   0.033   2.854  16.808 -0.6480  0.2085  0.0123
    3TCq2    C514271   0.138   2.927  16.770 -0.2295  0.4715  1.1337
    3TCq2    C614272   0.144   2.964  16.638 -0.2402 -0.0938 -1.1555
    3TCq2    C714273   0.053   2.936  16.541  0.1996 -0.3297  0.1248
    3TCq2    C814274   0.288   2.980  16.603 -0.1480 -0.3656  0.0378
    3TCq2    O414275   0.310   3.019  16.486 -0.4850 -0.1189 -0.2978
    3TCq2    C914276   0.022   2.818  16.948  0.1541  0.6034 -0.0727
    3TCq2    O514277   4.638   2.764  16.982 -0.2808 -0.2313 -0.1366
    3TCq2    O614278   0.116   2.861  17.025  0.1669  0.1530  0.6563
    3TCq2    H214279   4.584   2.744  16.742  1.1178 -1.2875  0.2276
    3TCq2    H314280   0.205   2.979  16.837 -2.2592  1.2672  2.5333
    3TCq2    H414281   0.062   2.938  16.433 -0.5251 -0.2930  0.0658
    1TCq1    O114282   3.560   1.850  12.987 -0.1296  0.3531 -0.1697
    1TCq1    C114283   3.693   1.851  12.987  0.0522 -1.0246  0.3384
    1TCq1    O214284   3.763   1.946  12.949  0.4341  0.4857  0.2789
    1TCq1    C214285   3.748   1.713  12.999  0.3927 -0.2856 -0.3624
    1TCq1    C314286   3.669   1.600  12.979  0.5568 -0.3946 -0.0391
    1TCq1    C414287   3.720   1.476  12.996  0.2609  0.2881 -0.4481
    1TCq1    C514288   3.856   1.461  13.013  0.3140  0.1456  0.8183
    1TCq1    C614289   3.933   1.573  13.031  1.0452  0.3933 -0.5283
    1TCq1    C714290   3.881   1.697  13.036 -0.5340 -0.2814 -0.9316
    1TCq1    C814291   4.077   1.559  13.068  0.7054 -0.1272 -0.2204
    1TCq1    O414292   4.132   1.463  13.019 -0.4687  0.0331  0.5783
    1TCq1    C914293   3.628   1.366  12.972 -0.8298  0.1648  0.5581
    1TCq1    O514294   3.662   1.251  13.005  0.1104  0.6638  0.0464
    1TCq1    O614295   3.506   1.398  12.958  0.6210  0.6214  0.1331
    1TCq1    H114296   3.526   1.777  13.043  0.2787 -0.6009 -1.1622
    1TCq1    H214297   3.563   1.613  12.958  0.0141 -2.4235  1.4209
    1TCq1    H314298   3.898   1.361  13.019  2.5843  0.9777 -1.2615
    1TCq1    H414299   3.945   1.784  13.043  1.7200 -2.0113  0.0109
    2MPD2     C14300   4.365   1.573  13.157 -0.5273  0.1335  0.0363
    2MPD2    C114301   4.262   1.663  13.203  0.1964 -0.5780 -0.2562
    2MPD2    C214302   4.300   1.750  13.302 -0.2412 -0.7752 -0.3226
    2MPD2    C314303   4.433   1.762  13.349 -0.0605  0.0080  0.7595
    2MPD2    C414304   4.528   1.681  13.289 -0.4615 -0.4094 -0.3970
    2MPD2    C514305   4.497   1.582  13.199  0.4418  0.3336 -0.2564
    2MPD2     H14306   4.223   1.800  13.359  0.5052 -0.8163  0.7063
    2MPD2    H114307   4.632   1.702  13.310 -0.2361 -1.2714 -0.6374
    2MPD2    H214308   4.339   1.487  13.097 -0.9144  0.9424 -0.9533
    2MPD2    H314309   4.568   1.526  13.139  1.1465 -1.7417  2.4989
    2MPD2     N14310   4.467   1.854  13.451  0.5040  0.2759 -0.3485
    2MPD2    H514311   4.404   1.930  13.477 -0.7667 -0.6716 -0.6216
    2MPD2    N114312   4.129   1.657  13.160 -0.8065  1.0941  0.0135
    2MPD2    H714313   4.059   1.718  13.201 -2.8388 -1.9315  0.9926
    3TCq1    O114314   4.720   1.902  14.046 -0.0864 -0.0403 -0.3696
    3TCq1    C114315   0.060   1.960  13.940 -0.1815 -0.5623  0.1956
    3TCq1    O214316   0.175   1.942  13.908 -0.0736  0.1497  0.5478
    3TCq1    C214317   4.684   1.992  13.846  1.2907 -0.3580  0.0675
    3TCq1    C314318   4.575   2.054  13.897  0.1752 -0.0316  0.1634
    3TCq1    C414319   4.458   2.054  13.824 -0.2271 -0.1804 -0.7819
    3TCq1    C514320   4.453   2.005  13.700  0.1546 -1.0739  0.7144
    3TCq1    C614321   4.567   1.933  13.656  0.5708  0.3689 -0.8474
    3TCq1    C714322   4.684   1.923  13.727  0.0888 -0.4379 -0.2142
    3TCq1    C814323   4.572   1.836  13.544  0.0982  0.5200 -0.2825
    3TCq1    O414324   4.662   1.754  13.536 -0.4893  0.2598 -0.3535
    3TCq1    C914325   4.350   2.130  13.881 -0.4754  0.3334 -1.4859
    3TCq1    O514326   4.379   2.202  13.984  0.5268 -0.5014  0.2793
    3TCq1    O614327   4.233   2.102  13.851 -0.2206 -0.1069 -0.0680
    3TCq1    H114328   4.623   1.916  14.052 -0.4654 -2.4048 -1.1828
    3TCq1    H214329   4.582   2.097  13.996  2.0993 -1.8078  0.7842
    3TCq1    H314330   4.359   2.003  13.644  1.5412 -1.3928 -1.6159
    3TCq1    H414331   0.045   1.881  13.672  0.3532 -1.9132  1.3465
    1MPD2     C14332   3.597   3.127  14.939 -0.3443 -0.0135 -0.0779
    1MPD2    C114333   3.507   3.135  14.837  0.3671 -0.2474 -0.8923
    1MPD2    C214334   3.412   3.039  14.834 -0.0147 -0.3277  0.1295
    1MPD2    C314335   3.404   2.935  14.925  0.2094 -0.9687 -0.7164
    1MPD2    C414336   3.491   2.924  15.033  0.6721 -0.9915 -0.1626
    1MPD2    C514337   3.589   3.026  15.033  0.4861 -0.0700 -0.5761
    1MPD2     H14338   3.335   3.032  14.758  1.9392 -0.8323 -1.8015
    1MPD2    H114339   3.503   2.840  15.101  2.2853 -0.9131 -0.3353
    1MPD2    H214340   3.681   3.195  14.931 -0.8907  0.6605 -0.1086
    1MPD2    H314341   3.666   3.018  15.109  0.3870  0.3510 -0.4315
    1MPD2     N14342   3.329   2.823  14.885 -0.6464 -0.2514 -0.2894
    1MPD2    H514343   3.291   2.813  14.792  1.5225  1.5436 -1.3578
    1MPD2    N114344   3.512   3.246  14.746 -0.1305 -0.2048  0.9149
    1MPD2    H714345   3.576   3.322  14.766  1.4652 -0.9480 -1.3197
    2TMC3    C114346   3.405   3.383  14.573  0.1974  0.7605 -0.1036
    2TMC3    C214347   3.274   3.399  14.578  0.0367 -0.0103  0.1036
    2TMC3    C314348   3.217   3.460  14.469  0.1998  0.6688 -0.3174
    2TMC3    C414349   3.483   3.452  14.486  0.7290 -0.1825  0.0115
    2TMC3    C514350   3.422   3.519  14.377  0.7686 -0.3776  0.5691
    2TMC3    C614351   3.285   3.522  14.371  0.7737  0.3969  0.7617
    2TMC3     C14352   3.444   3.252  14.621 -0.1152 -0.5923  0.0399
    2TMC3     O14353   3.381   3.162  14.561  0.0477  0.3817  0.6893
    2TMC3     H14354   3.219   3.357  14.661  0.2395 -1.8845 -0.7328
    2TMC3    H114355   3.590   3.441  14.500  0.5261 -1.6984  0.3639
    2TMC3    H214356   3.228   3.568  14.291  1.8408 -1.4603 -1.0422
    2TMC3    C714357   3.480   3.629  14.302 -0.0311  0.2365 -0.2527
    2TMC3    C814358   3.103   3.385  14.420  0.5411 -0.6731 -0.3456
    2TMC3    O114359   3.403   3.703  14.238  0.6991 -0.5091 -0.8872
    2TMC3    O214360   3.028   3.438  14.343  0.0505  0.3136 -0.2125
    3TCq1    O114361   4.604   4.104  14.532 -0.4419 -0.4608 -0.2535
    3TCq1    C114362   4.501   4.189  14.554  0.2374  0.7678  0.3595
    3TCq1    O214363   4.508   4.298  14.612 -0.6920 -0.0882 -0.2332
    3TCq1    C214364   4.398   4.094  14.576 -0.3294  1.1190  0.4346
    3TCq1    C314365   4.410   4.008  14.679  0.0976 -0.0786 -0.2459
    3TCq1    C414366   4.304   3.928  14.708 -0.1672  0.4013  0.3983
    3TCq1    C514367   4.189   3.949  14.633 -0.0571  0.0891  0.8751
    3TCq1    C614368   4.181   4.041  14.535  0.3610 -0.3895 -0.5811
    3TCq1    C714369   4.287   4.118  14.501  0.7179 -0.3093 -0.0079
    3TCq1    C814370   4.067   4.038  14.447 -0.7200 -0.9548 -0.9553
    3TCq1    O414371   4.084   4.085  14.336  0.2929 -0.3541  0.3181
    3TCq1    C914372   4.311   3.841  14.828  0.1333  0.3271 -0.4949
    3TCq1    O514373   4.428   3.816  14.876  0.4587  0.3746 -0.6475
    3TCq1    O614374   4.203   3.809  14.886 -0.0977 -0.4128 -0.2397
    3TCq1    H114375   4.563   4.022  14.497  2.8085 -1.9828 -0.5334
    3TCq1    H214376   4.499   4.012  14.741  0.8191 -2.9437 -1.0963
    3TCq1    H314377   4.099   3.899  14.667 -1.8677  1.9467 -1.1533
    3TCq1    H414378   4.292   4.192  14.422  2.5937 -1.2689 -0.8008
    4MPD2     C14379   3.814   4.018  14.284  0.1988  0.2826  0.5650
    4MPD2    C114380   3.849   3.937  14.392 -0.3107 -0.6285 -0.2533
    4MPD2    C214381   3.777   3.820  14.409 -0.4015 -0.5495 -0.0267
    4MPD2    C314382   3.672   3.788  14.323 -0.2989  0.5410  0.5322
    4MPD2    C414383   3.628   3.874  14.224 -0.5907 -0.6303  0.5571
    4MPD2    C514384   3.712   3.983  14.199 -0.9498 -0.4441  0.0520
    4MPD2     H14385   3.816   3.762  14.491  1.9032  0.2418 -0.5693
    4MPD2    H114386   3.548   3.857  14.153  1.2679  1.9462 -2.1161
    4MPD2    H214387   3.869   4.105  14.251  0.8294 -0.0365  0.7843
    4MPD2    H314388   3.693   4.038  14.108 -0.8049  3.3380  2.3069
    4MPD2     N14389   3.602   3.667  14.354 -0.2466 -0.2117 -0.5354
    4MPD2    H514390   3.637   3.602  14.424 -2.3120 -0.8623 -0.1023
    4MPD2    N114391   3.961   3.962  14.480  0.4178  0.2520 -0.1543
    4MPD2    H714392   3.958   3.911  14.568  0.6397  1.7403  0.7116
    5TMC2    C114393   3.084   2.646  14.724 -0.4715 -0.5670  0.0426
    5TMC2    C214394   2.966   2.629  14.798 -0.5379  0.0119  0.0369
    5TMC2    C314395   2.980   2.594  14.928  0.1040  0.2565  0.0569
    5TMC2    C414396   3.200   2.634  14.790 -0.1541 -0.1240  0.2716
    5TMC2    C514397   3.205   2.627  14.928  0.0777  0.1325  0.5670
    5TMC2    C614398   3.096   2.610  14.998 -0.7994  0.5138 -0.2112
    5TMC2     C14399   3.092   2.764  14.639  0.1319  0.7771 -0.2867
    5TMC2     O14400   3.200   2.822  14.631  0.2697 -0.0352 -0.3444
    5TMC2     H14401   2.870   2.619  14.749 -0.1834  1.3363 -0.9142
    5TMC2    H114402   3.285   2.620  14.725 -0.6591 -0.4445 -0.3124
    5TMC2    H214403   3.090   2.597  15.105 -1.4672 -0.9952 -0.4356
    5TMC2    C714404   3.277   2.739  14.980 -0.5069  0.3918 -0.5664
    5TMC2    C814405   2.858   2.568  15.002 -0.1822  0.1002  0.0113
    5TMC2    O114406   3.268   2.747  15.101 -0.1084 -0.5633  0.4190
    5TMC2    O214407   2.748   2.613  14.968 -0.4669  0.5541  0.5913
    5TMC2    O514408   2.881   2.465  15.086  0.2822 -0.1252  0.5229
    5TMC2    H514409   2.960   2.418  15.051  0.0883 -0.5663  0.6821
    6MPD2     C14410   2.880   3.190  14.434  0.3371  0.8255 -0.3629
    6MPD2    C114411   3.005   3.162  14.469  0.6289 -0.3688 -0.7523
    6MPD2    C214412   3.035   3.035  14.528 -0.1166 -0.3139 -0.4633
    6MPD2    C314413   2.940   2.938  14.543 -0.4150 -0.6656  0.7030
    6MPD2    C414414   2.808   2.966  14.507 -0.2401  0.5527 -0.1273
    6MPD2    C514415   2.784   3.093  14.450  0.6133 -0.2519 -0.3476
    6MPD2     H14416   3.138   3.027  14.562  0.3538  2.0867 -1.2666
    6MPD2    H114417   2.724   2.897  14.503 -0.5880  0.9420  0.5983
    6MPD2    H214418   2.847   3.288  14.402  0.8530  1.1757  0.1699
    6MPD2    H314419   2.681   3.115  14.428  0.7380 -0.0185 -0.7029
    6MPD2     N14420   2.968   2.805  14.590 -0.2504  0.8022 -0.4952
    6MPD2    H514421   2.888   2.749  14.620  1.2841 -0.3021  1.4954
    6MPD2    N114422   3.111   3.255  14.461  0.9474  0.4552  0.5390
    6MPD2    H714423   3.202   3.233  14.502  1.4276 -1.3586 -1.4991
  945NH3     N114424   4.191   1.003  16.100  0.0169 -0.9142  0.4936
  945NH3     H214425   4.270   1.035  16.045 -1.1671  0.4546 -0.4264
  945NH3     H314426   4.136   0.969  16.021 -0.1835  0.1580  0.1737
  945NH3     H414427   4.142   1.087  16.128  0.3053  0.3962 -2.9716
  946SOD     NA14428   2.492   1.451  15.526 -0.1070 -0.4173  0.6072
  947SOD     NA14429   4.316   3.757  15.067  0.3867  0.0336 -0.0563
  948SOD     NA14430   2.317   1.230   9.417  0.1428 -0.1687  0.3261
  949SOD     NA14431   3.301   0.682  11.342  0.1221 -0.3073  0.4972
  950SOD     NA14432   2.387   2.685  10.398 -0.1464  0.6644 -0.3403
  951SOD     NA14433   3.522   4.207  15.882  0.1080 -0.3181  0.7328
  952SOD     NA14434   2.510   2.856  10.177 -0.2454 -0.2667  0.2912
  953SOD     NA14435   0.252   2.279   9.925  0.3796 -0.0958  0.2771
  954SOD     NA14436   4.651   1.927  11.156 -0.0973  0.3711 -0.0170
  955SOD     NA14437   1.127   2.510  15.019  0.4307  0.1568 -0.2244
  956SOD     NA14438   1.382   1.160   1.287 -0.1653  0.0517 -0.5885
  957SOD     NA14439   2.854   2.870  10.145  0.4379  0.3455  0.3699
  958SOD     NA14440   0.654   1.975  14.391  0.4613 -0.4355  0.0063
  959SOD     NA14441   0.558   1.033  12.612  0.0350 -0.5029  0.2365
  960SOD     NA14442   0.465   3.233  12.802  0.0383 -0.1067 -0.1689
  961SOD     NA14443   2.247   1.642   9.299 -0.1202 -0.3966  0.3403
  962SOD     NA14444   1.093   4.565  10.605 -0.2468  0.3426 -0.6471
  963SOD     NA14445   1.779   1.822   8.614 -0.4563  0.3549 -0.1524
  964SOD     NA14446   1.983   1.681  11.261  0.2132  0.5156 -0.1109
  965SOD     NA14447   4.655   2.834  14.560  0.2771  0.0602  0.2542
  966SOD     NA14448   4.217   3.196   2.851  0.3575  0.4347 -0.1665
  967SOD     NA14449   2.996   4.285   8.744 -0.0684  0.4342 -0.6872
  968SOD     NA14450   0.549   3.064   2.394 -0.5399 -0.0795 -0.0213
  969SOD     NA14451   0.588   3.245   3.801 -0.0822  0.0119  0.3543
  970SOD     NA14452   3.938   2.185  11.759 -0.3794  0.2525  0.1994
  971SOD     NA14453   1.996   1.528  13.128 -0.1256  0.1826  0.5944
  972SOD     NA14454   2.982   1.242  13.293 -0.4063 -0.2537  0.1244
  973SOD     NA14455   2.729   0.550   4.412 -0.2648 -0.1625  0.2587
  974SOD     NA14456   4.188   1.678  11.862  0.4120 -0.0221 -0.4148
  975SOD     NA14457   0.424   1.599   0.167 -0.4701  0.5008  0.2876
  976SOD     NA14458   2.823   2.705   7.997  0.1837 -0.1398  0.5644
  977SOD     NA14459   3.898   2.443  11.932  0.0386  0.0454  0.3120
  978SOD     NA14460   2.339   4.380   0.576  0.5542 -0.1946  0.1020
  979SOD     NA14461   4.618   3.733  14.893 -0.1433 -0.1396 -0.6466
  980SOD     NA14462   1.013   1.310  12.855  0.0555  0.5070  0.4078
  981SOD     NA14463   1.015   3.723   0.875  0.2366 -0.3038 -0.6736
  982SOD     NA14464   3.895   2.639   5.475 -0.2546  0.4495  0.1611
  983SOD     NA14465   2.582   2.024   9.348  0.1874  0.5386 -0.1867
  984SOD     NA14466   1.572   1.977   3.124 -0.4578 -0.2557 -0.3651
  985SOD     NA14467   4.350   1.530  12.681 -0.4034 -0.0366  0.1420
  986SOD     NA14468   0.058   3.139  16.129  0.6941 -0.4352 -0.2544
  987SOD     NA14469   3.974   4.713   4.428  0.4273  0.4147 -0.1258
  988SOD     NA14470   0.057   2.033  10.866 -0.4576 -0.3656 -0.7585
  989SOD     NA14471   1.237   1.765   0.953  0.3312 -0.4508  0.0801
  990SOD     NA14472   3.080   0.259   2.573 -0.0897  0.4531  0.6579
  991SOD     NA14473   0.907   3.408  13.984  0.0775  0.2751 -0.0060
  992SOD     NA14474   3.418   3.022  14.007 -0.0107 -0.3041  0.6099
  993SOD     NA14475   3.569   1.183  10.585 -0.6049 -0.4982 -0.4936
  994SOD     NA14476   3.394   0.745  13.001  0.4120 -0.5429 -0.2561
  995SOD     NA14477   1.941   1.054  14.158  0.1266 -0.2432  0.3314
  996SOD     NA14478   0.967   3.499  17.430  0.3389  0.2229  0.2650
  997SOD     NA14479   0.344   1.914   0.133  0.5639 -0.0463  0.1035
  998SOD     NA14480   4.320   1.787   3.100  0.6039 -0.0627 -0.0940
  999SOD     NA14481   1.605   0.722   0.900 -0.0078 -0.2001 -0.2899
 1000SOD     NA14482   3.343   1.658  10.311 -0.1789  0.3326  0.4961
 1001SOD     NA14483   4.548   1.502  17.049 -0.1373 -0.1792 -0.0599
 1002SOD     NA14484   1.155   2.689  12.725  0.0696 -1.1378 -0.3042
 1003SOD     NA14485   3.576   1.039  10.889  0.1310 -0.1916  0.3178
 1004SOD     NA14486   0.202   0.768  14.392 -0.1303  0.0384  0.0715
 1005SOD     NA14487   4.017   1.470  12.005 -0.7657 -0.6698 -0.0886
 1006SOD     NA14488   0.625   3.750  12.265  0.2521  0.0551 -0.3620
 1007SOD     NA14489   3.804   2.819   7.849  0.1923 -0.4935 -0.0693
 1008SOD     NA14490   3.252   3.533  15.072 -0.0018 -0.8887 -0.7534
 1009SOD     NA14491   0.251   0.342  16.111  0.3138 -0.3817  0.0519
 1010SOD     NA14492   3.676   4.319   1.210  0.0649 -0.0610  0.7050
 1011SOD     NA14493   2.380   4.662   2.742  0.3360  0.3833 -0.2288
 1012SOL     OW14494   0.157   3.347   3.871  0.1472 -0.2113 -0.0985
 1012SOL    HW114495   0.066   3.325   3.853  0.2247 -1.7554  1.3770
 1012SOL    HW214496   0.201   3.286   3.812 -0.3989  0.2250 -0.9570
 1013SOL     OW14497   4.120   0.855   8.238 -0.3702  0.5744  0.2169
 1013SOL    HW114498   4.081   0.772   8.265 -1.3152  1.2972  1.0298
 1013SOL    HW214499   4.135   0.838   8.144  0.9323  1.3822  0.2756
 1014SOL     OW14500   1.326   0.240   6.344 -0.1299  0.2107 -0.0606
 1014SOL    HW114501   1.298   0.184   6.417  3.0098 -3.0083 -1.2785
 1014SOL    HW214502   1.255   0.304   6.343 -0.4840 -0.1455  1.7493
 1015SOL     OW14503   0.400   3.815  11.643  0.0131  0.0989  0.4172
 1015SOL    HW114504   0.304   3.816  11.643 -0.0141 -1.9660  1.2154
 1015SOL    HW214505   0.423   3.828  11.735  0.7559  1.0550  0.0990
 1016SOL     OW14506   3.499   1.417  13.594  0.1691  0.0716  0.9316
 1016SOL    HW114507   3.423   1.362  13.575  0.0949  0.1213  1.0800
 1016SOL    HW214508   3.473   1.492  13.542  0.9423  0.5905  1.2879
 1017SOL     OW14509   1.225   3.145   4.817 -0.0024  0.2374 -0.3360
 1017SOL    HW114510   1.223   3.105   4.730  1.2383 -0.1255 -0.2080
 1017SOL    HW214511   1.143   3.193   4.820 -0.8046 -1.2265  1.3730
 1018SOL     OW14512   1.756   4.666  17.272  0.4121  0.4947 -0.0743
 1018SOL    HW114513   1.770   4.720  17.350  0.4320  0.6630 -0.1958
 1018SOL    HW214514   1.842   4.686  17.237 -0.2664  1.5333 -1.1571
 1019SOL     OW14515   0.769   0.290  12.534  0.1877 -0.4254  0.2613
 1019SOL    HW114516   0.776   0.307  12.628  0.3415 -0.0378  0.1808
 1019SOL    HW214517   0.675   0.280  12.523  0.6059 -0.4887 -3.3478
 1020SOL     OW14518   2.784   3.401  17.188 -0.0890 -0.6285 -0.1962
 1020SOL    HW114519   2.862   3.424  17.238 -2.0717  0.7913  2.2479
 1020SOL    HW214520   2.731   3.469  17.228  0.2930 -0.4173 -0.0509
 1021SOL     OW14521   2.386   4.662   0.914  0.1114  0.3915  0.1736
 1021SOL    HW114522   2.306   4.715   0.912 -1.0737 -1.4261 -0.7029
 1021SOL    HW214523   2.438   4.681   0.836  0.8536  2.0661  1.0621
 1022SOL     OW14524   1.179   4.176  10.579  0.0188  0.6886  0.0053
 1022SOL    HW114525   1.182   4.104  10.516  1.7891  0.4725  0.3367
 1022SOL    HW214526   1.086   4.174  10.598  0.2169 -2.2620  0.7012
 1023SOL     OW14527   1.730   1.816   4.270  0.1568 -0.0792 -0.0897
 1023SOL    HW114528   1.716   1.822   4.364  0.3235  0.6389 -0.1101
 1023SOL    HW214529   1.639   1.827   4.242 -0.5347  0.6131  2.4373
 1024SOL     OW14530   2.615   4.672   7.529  0.0559 -0.1934 -0.6888
 1024SOL    HW114531   2.539   4.622   7.558  2.6317 -2.8587  1.5631
 1024SOL    HW214532   2.682   4.607   7.510  0.5278  0.1967 -0.3702
 1025SOL     OW14533   2.201   3.860  11.982  0.0334  0.1493 -0.7132
 1025SOL    HW114534   2.185   3.781  12.033  1.0527  0.6280  0.3466
 1025SOL    HW214535   2.115   3.897  12.001 -0.1105 -0.1051 -0.8812
 1026SOL     OW14536   0.185   1.744   5.438  0.5635 -0.0994  0.2701
 1026SOL    HW114537   0.200   1.790   5.356  0.6019 -0.9038 -0.1775
 1026SOL    HW214538   0.239   1.793   5.499  0.2855  1.6028 -0.8568
 1027SOL     OW14539   3.818   2.423   8.788 -0.0859  0.6538 -0.0766
 1027SOL    HW114540   3.894   2.367   8.804 -1.5920 -1.6584 -1.0692
 1027SOL    HW214541   3.747   2.367   8.817  0.3611 -0.3414 -0.9015
 1028SOL     OW14542   1.323   3.779   8.525 -0.6907  0.6271 -0.4457
 1028SOL    HW114543   1.400   3.722   8.528 -1.5978 -0.5476  0.2920
 1028SOL    HW214544   1.261   3.730   8.579 -1.7552  2.6983  0.2593
 1029SOL     OW14545   2.239   3.440   7.816  0.2085  0.3998 -0.2310
 1029SOL    HW114546   2.270   3.455   7.727 -4.1452  0.1036 -1.7663
 1029SOL    HW214547   2.177   3.371   7.793 -0.6333  1.0994 -0.0673
 1030SOL     OW14548   0.122   0.281   2.696  0.1840  0.1602  0.3529
 1030SOL    HW114549   0.038   0.290   2.740 -0.7935  0.6307 -1.5807
 1030SOL    HW214550   0.149   0.372   2.706  1.3774  0.0251 -1.6394
 1031SOL     OW14551   0.534   1.155  16.455 -0.3130  0.0900 -0.2698
 1031SOL    HW114552   0.456   1.113  16.493  0.3915  2.0077  3.3260
 1031SOL    HW214553   0.596   1.082  16.454 -0.8195 -0.3577  0.5803
 1032SOL     OW14554   2.449   3.159  12.270 -0.1351  0.4791  0.3727
 1032SOL    HW114555   2.499   3.151  12.188  0.8568 -2.1426  1.2378
 1032SOL    HW214556   2.481   3.242  12.306 -0.0009 -0.9212  3.4392
 1033SOL     OW14557   4.594   0.594   8.828  0.3418 -0.5100 -0.3593
 1033SOL    HW114558   4.669   0.575   8.884  1.6723  2.3320 -1.1773
 1033SOL    HW214559   4.640   0.620   8.748 -2.5871 -0.2320 -1.9249
 1034SOL     OW14560   4.424   4.595  16.999  0.2147  0.1545  0.4809
 1034SOL    HW114561   4.354   4.627  17.056 -0.9527  3.2924 -2.7374
 1034SOL    HW214562   4.387   4.588  16.910 -1.3440 -0.3325  1.1675
 1035SOL     OW14563   3.481   2.607   4.677  0.4104 -0.2734 -0.1637
 1035SOL    HW114564   3.477   2.697   4.646  0.4924  0.5853  2.3249
 1035SOL    HW214565   3.512   2.558   4.601  0.8003  0.0148 -0.1862
 1036SOL     OW14566   2.620   0.819   9.305 -0.6701  0.2213 -0.3114
 1036SOL    HW114567   2.650   0.731   9.330  0.4040  0.2319 -1.5274
 1036SOL    HW214568   2.542   0.817   9.359 -0.6622 -1.1677 -0.3430
 1037SOL     OW14569   2.568   4.117  14.258  0.0170  0.4417 -0.5304
 1037SOL    HW114570   2.528   4.139  14.174  1.5708 -1.9431 -1.8855
 1037SOL    HW214571   2.663   4.113  14.246 -0.2297 -1.8963 -1.5916
 1038SOL     OW14572   1.381   0.135  15.897  0.5630  0.5445 -0.3898
 1038SOL    HW114573   1.477   0.129  15.894  0.4339 -1.5511 -0.1247
 1038SOL    HW214574   1.361   0.166  15.985 -1.2192 -1.9004  0.0668
 1039SOL     OW14575   1.397   3.846   4.544 -0.8261  0.1399  0.0875
 1039SOL    HW114576   1.445   3.877   4.468  0.3228  0.8102  1.0900
 1039SOL    HW214577   1.316   3.898   4.547 -0.1599  1.1835 -0.0903
 1040SOL     OW14578   2.890   3.117   4.953  0.0062  0.2499  0.4378
 1040SOL    HW114579   2.929   3.199   4.924 -1.5901  0.0730 -2.2078
 1040SOL    HW214580   2.799   3.137   4.931  0.5524 -1.0812 -3.0629
 1041SOL     OW14581   0.789   2.293   7.027  0.2840  0.0189 -0.3422
 1041SOL    HW114582   0.775   2.237   7.103  3.0707  0.8199  0.7234
 1041SOL    HW214583   0.765   2.378   7.064 -2.3399  0.2483 -2.4958
 1042SOL     OW14584   0.954   4.428   3.782 -0.1998  0.9904 -0.1205
 1042SOL    HW114585   1.031   4.438   3.838  1.5289  1.7589 -2.5956
 1042SOL    HW214586   0.970   4.492   3.712  1.9640  0.7590  0.1487
 1043SOL     OW14587   4.278   3.796  15.624  0.1388 -0.2416  0.0052
 1043SOL    HW114588   4.276   3.849  15.545  1.0740  0.2981  0.3449
 1043SOL    HW214589   4.276   3.863  15.692 -0.6309 -1.5333  1.2670
 1044SOL     OW14590   3.910   4.263  15.657 -0.8710  0.6926  0.3682
 1044SOL    HW114591   3.896   4.326  15.587 -2.3942  0.8080  0.7835
 1044SOL    HW214592   3.987   4.300  15.702 -0.9615  0.4433  0.7223
 1045SOL     OW14593   3.596   4.196   3.121 -0.1932  0.0185  0.3315
 1045SOL    HW114594   3.520   4.201   3.180  1.0937  0.7368  1.9055
 1045SOL    HW214595   3.665   4.213   3.184 -0.2363 -0.1004  0.4105
 1046SOL     OW14596   4.201   2.148   8.621 -0.0615 -0.2426 -0.7602
 1046SOL    HW114597   4.163   2.064   8.646  0.0687  0.2859  1.1937
 1046SOL    HW214598   4.177   2.211   8.689 -2.4678 -1.8163 -0.1881
 1047SOL     OW14599   0.850   0.179   0.952  0.4259  0.3094 -0.1953
 1047SOL    HW114600   0.803   0.194   0.870 -1.7089 -0.8528  0.8082
 1047SOL    HW214601   0.819   0.250   1.008 -0.2092 -1.8311  2.1608
 1048SOL     OW14602   0.118   4.458   7.965 -0.0454 -0.2996 -0.4308
 1048SOL    HW114603   0.109   4.363   7.966  0.4744 -0.2790  4.0907
 1048SOL    HW214604   0.025   4.475   7.951  0.1871  0.1451 -1.4371
 1049SOL     OW14605   0.141   3.194  14.987 -0.0077 -0.0709  0.0743
 1049SOL    HW114606   0.207   3.259  14.964 -0.5171 -0.3210 -2.0408
 1049SOL    HW214607   0.159   3.201  15.081  0.3839  0.4919 -0.0386
 1050SOL     OW14608   3.622   3.547  16.229  0.0953  0.0584  0.5514
 1050SOL    HW114609   3.631   3.636  16.194  3.1368 -0.5614 -0.2324
 1050SOL    HW214610   3.595   3.496  16.154 -1.3296  1.6093  0.0141
 1051SOL     OW14611   3.386   3.814   0.929  0.2403 -0.2013  0.5298
 1051SOL    HW114612   3.392   3.894   0.981 -0.8156  0.9439 -1.1243
 1051SOL    HW214613   3.293   3.794   0.943 -0.2310  1.0907 -0.8263
 1052SOL     OW14614   3.628   0.498   9.864  0.1980 -0.1287 -0.2987
 1052SOL    HW114615   3.603   0.571   9.806  1.5681  1.6161  1.2989
 1052SOL    HW214616   3.640   0.551   9.943 -3.0508  0.7903 -0.4176
 1053SOL     OW14617   0.841   4.060   9.394 -0.0824 -0.1852 -0.0218
 1053SOL    HW114618   0.773   4.116   9.356 -1.9518 -1.7461  1.0198
 1053SOL    HW214619   0.819   4.033   9.483 -0.6935 -0.6809 -0.3229
 1054SOL     OW14620   0.668   3.450  12.450 -0.6890  0.0889 -1.2038
 1054SOL    HW114621   0.596   3.506  12.479 -0.3487  0.9058 -1.9217
 1054SOL    HW214622   0.705   3.496  12.374  0.5698 -0.0467 -0.6841
 1055SOL     OW14623   0.688   3.786  10.796 -0.6175  0.5513 -0.3757
 1055SOL    HW114624   0.628   3.842  10.747 -0.3778 -1.2473 -2.6926
 1055SOL    HW214625   0.762   3.845  10.783 -0.0701  0.7812  3.6828
 1056SOL     OW14626   3.146   2.462   2.363  0.8056 -0.0974 -0.3262
 1056SOL    HW114627   3.119   2.381   2.406  0.9085 -0.0328 -0.1412
 1056SOL    HW214628   3.154   2.432   2.273 -3.6925 -0.4816 -0.5624
 1057SOL     OW14629   0.294   2.679  14.353  0.4013 -0.0927  0.0575
 1057SOL    HW114630   0.248   2.749  14.307 -1.8154 -1.3927  0.3000
 1057SOL    HW214631   0.300   2.611  14.286  0.1679 -2.1526  2.1444
 1058SOL     OW14632   0.142   1.745  13.357 -0.2390  0.1091  0.4750
 1058SOL    HW114633   0.091   1.743  13.438  0.3115  1.9243  0.8700
 1058SOL    HW214634   0.149   1.652  13.334 -0.5217  0.8745 -2.6980
 1059SOL     OW14635   3.574   3.422   1.418  0.1413 -0.1921  0.0381
 1059SOL    HW114636   3.628   3.345   1.437 -0.9432 -0.6548  1.1747
 1059SOL    HW214637   3.502   3.423   1.481 -1.4661 -0.2032 -1.7793
 1060SOL     OW14638   1.216   2.441   0.298 -0.4585  0.0453 -0.4691
 1060SOL    HW114639   1.176   2.385   0.231  0.6743  0.0910 -1.1823
 1060SOL    HW214640   1.144   2.471   0.354  0.8469  0.6185  0.9024
 1061SOL     OW14641   1.675   2.716   0.055  0.9178  0.3224  0.8151
 1061SOL    HW114642   1.626   2.798   0.047  0.3695 -0.1283 -0.3241
 1061SOL    HW214643   1.625   2.669   0.122  0.2009 -2.8953 -2.0076
 1062SOL     OW14644   3.904   2.027   0.373 -0.0748  0.4940 -0.3466
 1062SOL    HW114645   3.991   2.047   0.340  0.3744 -0.5051  0.2210
 1062SOL    HW214646   3.896   2.079   0.452  0.1056  0.5940 -0.3954
 1063SOL     OW14647   3.780   1.329  17.246  0.5893 -0.0472 -0.6598
 1063SOL    HW114648   3.728   1.409  17.245 -1.3242 -1.3115 -1.1456
 1063SOL    HW214649   3.712   1.263  17.258 -0.4229  0.8517 -1.4955
 1064SOL     OW14650   0.729   0.196   7.375  0.5196 -0.2526  0.3402
 1064SOL    HW114651   0.820   0.220   7.360  0.4567  0.5246  1.1639
 1064SOL    HW214652   0.700   0.260   7.440  0.7748 -0.7222  0.9187
 1065SOL     OW14653   3.891   4.191   8.663  0.1088 -0.3537 -0.2001
 1065SOL    HW114654   3.887   4.133   8.587 -0.2019  0.6626 -0.9725
 1065SOL    HW214655   3.835   4.144   8.725  0.4763  0.0976  0.4755
 1066SOL     OW14656   2.161   0.934   8.709 -0.5192 -0.4133 -0.0345
 1066SOL    HW114657   2.074   0.968   8.690  0.5158  1.8063 -0.8865
 1066SOL    HW214658   2.215   1.013   8.706 -0.5831 -0.3118  1.2994
 1067SOL     OW14659   3.243   3.954   7.012 -0.1876  0.1206  0.0177
 1067SOL    HW114660   3.336   3.971   6.994 -0.6156  3.4066  0.7571
 1067SOL    HW214661   3.242   3.874   7.064  0.1716  0.4338  0.5110
 1068SOL     OW14662   0.278   3.268   4.501  0.5779 -0.0441 -0.5140
 1068SOL    HW114663   0.260   3.361   4.517  3.5446  0.5944 -0.7684
 1068SOL    HW214664   0.344   3.280   4.432 -0.0676 -0.1288 -1.1407
 1069SOL     OW14665   3.338   0.614   4.475  0.4658 -0.0603 -0.1516
 1069SOL    HW114666   3.273   0.547   4.496 -0.4262  0.7070 -0.4777
 1069SOL    HW214667   3.417   0.561   4.485  1.5743  1.4021 -1.1154
 1070SOL     OW14668   0.648   2.180   5.247  1.0002  0.7040 -0.3938
 1070SOL    HW114669   0.639   2.222   5.332  2.3192  2.1188 -0.9402
 1070SOL    HW214670   0.658   2.255   5.188  0.6926  1.1062  0.0675
 1071SOL     OW14671   0.508   1.248  10.108 -0.0818  0.2330 -0.1122
 1071SOL    HW114672   0.508   1.326  10.054 -1.4186  1.0231  1.0298
 1071SOL    HW214673   0.432   1.260  10.166 -0.9020  1.0500 -1.3647
 1072SOL     OW14674   1.724   0.987  17.094 -0.2466  0.3975 -0.0292
 1072SOL    HW114675   1.769   1.011  17.175  1.1815 -1.5410 -0.2475
 1072SOL    HW214676   1.632   1.011  17.107 -0.6706 -0.9563 -0.5524
 1073SOL     OW14677   3.280   3.224  14.143  0.1685  0.3305 -0.1127
 1073SOL    HW114678   3.333   3.157  14.185 -1.2465 -0.6872  0.0400
 1073SOL    HW214679   3.344   3.290  14.115  0.3151  0.7332  1.1724
 1074SOL     OW14680   4.059   2.134   1.382 -0.4897 -0.3514 -0.0091
 1074SOL    HW114681   4.062   2.228   1.401 -1.3655 -0.0746 -1.2187
 1074SOL    HW214682   4.031   2.129   1.290  0.4733  0.8812 -0.3692
 1075SOL     OW14683   3.115   1.095   4.222  0.1053 -0.2405  0.0831
 1075SOL    HW114684   3.189   1.118   4.166 -1.4827  2.1212 -1.0522
 1075SOL    HW214685   3.043   1.142   4.180 -1.2302 -0.9273  1.5655
 1076SOL     OW14686   1.529   0.985  12.205  0.3103  0.1615 -0.4532
 1076SOL    HW114687   1.574   0.999  12.288  1.1368  1.7352 -1.1662
 1076SOL    HW214688   1.463   1.054  12.206 -0.4693 -0.5768 -0.3621
 1077SOL     OW14689   3.010   2.532  13.365 -0.3432  0.0674  0.0324
 1077SOL    HW114690   3.067   2.455  13.368 -0.0462  0.2683 -0.4251
 1077SOL    HW214691   2.953   2.506  13.293 -0.6501  0.5250  0.1120
 1078SOL     OW14692   0.369   2.019   6.219 -0.6564  0.4546  0.2302
 1078SOL    HW114693   0.373   2.079   6.144  2.6323 -0.9361 -0.7286
 1078SOL    HW214694   0.295   2.065   6.258  0.0051  2.4088 -0.8082
 1079SOL     OW14695   4.693   4.316  15.436 -0.1880 -0.2049 -0.3140
 1079SOL    HW114696   0.006   4.400  15.465  2.3064 -1.3163 -0.1332
 1079SOL    HW214697   0.009   4.302  15.350  0.4398 -0.9328  0.0868
 1080SOL     OW14698   1.549   3.220   4.302 -0.5291  0.6140  0.3230
 1080SOL    HW114699   1.579   3.259   4.384 -0.0357  0.2931  0.2964
 1080SOL    HW214700   1.540   3.127   4.321 -0.8527  0.3125 -1.2827
 1081SOL     OW14701   4.358   2.579  11.411 -0.2439  0.1296 -0.1174
 1081SOL    HW114702   4.313   2.647  11.361 -1.0944  0.9162  1.7036
 1081SOL    HW214703   4.277   2.545  11.449  1.4528  0.0731  3.5198
 1082SOL     OW14704   1.924   2.846  10.815  0.2939  0.0002 -0.3378
 1082SOL    HW114705   1.978   2.827  10.738  0.4101 -0.7072 -0.0790
 1082SOL    HW214706   1.928   2.942  10.811 -5.1159  0.1479 -2.0363
 1083SOL     OW14707   1.074   3.075   0.099  0.1300  0.1586  0.3287
 1083SOL    HW114708   1.027   3.081   0.016  0.9929 -1.8215 -0.3060
 1083SOL    HW214709   1.099   3.165   0.117 -1.0090  0.6508 -0.5589
 1084SOL     OW14710   1.805   3.124   0.598  0.3717  0.0442 -0.4126
 1084SOL    HW114711   1.889   3.150   0.558 -0.9018  3.2239 -0.9837
 1084SOL    HW214712   1.793   3.039   0.554 -2.2466 -0.2815  0.9419
 1085SOL     OW14713   3.612   4.669   4.092  0.1551 -0.3406  0.3536
 1085SOL    HW114714   3.687   4.625   4.052 -1.6246 -0.7464 -2.5442
 1085SOL    HW214715   3.557   4.681   4.015 -0.4522  1.3046  1.0427
 1086SOL     OW14716   2.037   1.609   4.651 -0.2437  0.7341 -0.0122
 1086SOL    HW114717   2.098   1.649   4.713 -0.6211  0.0005  0.8272
 1086SOL    HW214718   1.981   1.686   4.643 -1.8844 -0.6177 -1.5433
 1087SOL     OW14719   4.578   2.259   0.272 -0.2717 -0.5236 -0.3368
 1087SOL    HW114720   4.566   2.166   0.252  1.1768 -0.6207 -0.7820
 1087SOL    HW214721   4.670   2.271   0.249 -0.2984 -0.4942 -0.4279
 1088SOL     OW14722   0.442   3.025   9.098  0.4155 -0.4602  0.1603
 1088SOL    HW114723   0.405   2.944   9.132  0.3705 -0.3693  0.3264
 1088SOL    HW214724   0.482   2.986   9.020  0.0085 -1.4209  0.4323
 1089SOL     OW14725   1.796   3.472  12.647  0.1187 -0.6074 -0.4470
 1089SOL    HW114726   1.822   3.546  12.702  0.7154 -1.7146  0.7602
 1089SOL    HW214727   1.772   3.408  12.714 -0.4296 -1.5032 -1.5055
 1090SOL     OW14728   3.941   4.139   2.942 -0.3394 -0.0498  0.0939
 1090SOL    HW114729   3.981   4.142   2.855  0.1686 -1.2578  0.2896
 1090SOL    HW214730   3.938   4.232   2.963  0.0833  0.1273 -0.6282
 1091SOL     OW14731   4.492   2.832  10.353 -0.0029 -0.1840  0.0416
 1091SOL    HW114732   4.492   2.872  10.266  1.4573  1.1277  0.6494
 1091SOL    HW214733   4.539   2.900  10.401  1.1490 -1.0597  0.1494
 1092SOL     OW14734   3.917   0.440  10.516  0.1148 -0.4656  0.0934
 1092SOL    HW114735   3.905   0.533  10.539 -0.1531  0.0074 -1.8890
 1092SOL    HW214736   3.908   0.415  10.608 -1.2806  2.6610  0.8311
 1093SOL     OW14737   4.368   4.149   6.728 -0.0155  0.0519 -0.0190
 1093SOL    HW114738   4.358   4.057   6.754  1.6702  0.3597  1.7306
 1093SOL    HW214739   4.402   4.146   6.638  1.7339 -0.7814  0.6685
 1094SOL     OW14740   0.397   1.689   5.117  0.0846  0.0478  0.4220
 1094SOL    HW114741   0.455   1.759   5.146 -0.9849  1.2215 -0.3040
 1094SOL    HW214742   0.320   1.711   5.170  0.6817 -0.2655  1.4246
 1095SOL     OW14743   3.418   0.846   6.561  0.6744  0.4447 -0.2613
 1095SOL    HW114744   3.352   0.858   6.630 -0.8619 -0.6530 -1.5331
 1095SOL    HW214745   3.468   0.766   6.577  1.2041  1.6431  3.9792
 1096SOL     OW14746   4.177   0.012   4.293 -0.0686 -0.0251 -0.1009
 1096SOL    HW114747   4.244   4.682   4.336  1.2029  0.9676 -0.8889
 1096SOL    HW214748   4.213   0.100   4.303  2.9451 -1.3449  0.5263
 1097SOL     OW14749   3.636   0.062   8.053 -0.0828 -0.1052  0.3809
 1097SOL    HW114750   3.660   0.143   8.009  0.2095 -0.8736 -0.8911
 1097SOL    HW214751   3.711   0.030   8.103  1.0922 -0.1843 -1.4244
 1098SOL     OW14752   0.133   0.465   6.136  0.6453 -0.2744  0.2750
 1098SOL    HW114753   0.198   0.529   6.105  0.6134  0.5943  2.0273
 1098SOL    HW214754   0.052   0.514   6.119  0.1550 -0.8766  0.9149
 1099SOL     OW14755   4.196   2.159   6.532 -0.6459  0.1522  0.2750
 1099SOL    HW114756   4.175   2.184   6.442  1.9195 -3.5997 -1.4019
 1099SOL    HW214757   4.148   2.223   6.585  0.1385  0.4088  0.6605
 1100SOL     OW14758   1.672   4.395  17.278  0.5744  0.2873 -0.3481
 1100SOL    HW114759   1.698   4.486  17.264 -0.0716  1.0888  3.5234
 1100SOL    HW214760   1.706   4.346  17.203 -1.7311 -1.3304 -0.3125
 1101SOL     OW14761   2.273   1.881  12.932  0.2765  0.0310  0.7344
 1101SOL    HW114762   2.202   1.850  12.877  0.8423  1.4333 -0.8034
 1101SOL    HW214763   2.250   1.974  12.935 -1.0805 -0.4062  4.4014
 1102SOL     OW14764   2.485   2.526   3.985  0.0137  0.1228 -0.1218
 1102SOL    HW114765   2.455   2.609   3.949  2.4401  0.8966 -0.3530
 1102SOL    HW214766   2.579   2.521   3.966 -0.3952 -0.9616 -1.8938
 1103SOL     OW14767   2.001   3.376   4.426  0.0370 -0.1853  0.5764
 1103SOL    HW114768   1.996   3.284   4.400  0.2225  0.4877 -1.7717
 1103SOL    HW214769   1.978   3.376   4.519 -0.7468 -1.5364  0.3819
 1104SOL     OW14770   3.312   2.616  15.783 -0.5367 -0.0378  0.1809
 1104SOL    HW114771   3.240   2.557  15.759  0.8370 -1.7948  0.3532
 1104SOL    HW214772   3.293   2.699  15.740 -1.4068 -0.3613 -0.0626
 1105SOL     OW14773   1.618   3.386  11.866 -0.3451 -0.1738 -0.2142
 1105SOL    HW114774   1.695   3.442  11.856 -1.1312  0.8066 -0.7783
 1105SOL    HW214775   1.638   3.326  11.938  2.1438 -0.1425 -0.8865
 1106SOL     OW14776   2.314   3.448   4.189  0.3006 -0.0719 -0.1025
 1106SOL    HW114777   2.324   3.354   4.207 -1.4863  0.0631  1.5781
 1106SOL    HW214778   2.237   3.458   4.132 -1.8590 -0.3773  2.7725
 1107SOL     OW14779   2.565   2.752  15.113  0.2763 -0.6624 -0.2556
 1107SOL    HW114780   2.595   2.665  15.089  2.5919  0.2941 -0.8749
 1107SOL    HW214781   2.596   2.758  15.204 -2.0632  1.7727  0.3738
 1108SOL     OW14782   0.989   0.107  12.608 -0.4369  0.4194  0.3291
 1108SOL    HW114783   0.911   0.149  12.571  0.1326  0.1141 -1.1961
 1108SOL    HW214784   0.953   0.080  12.693  2.2863  1.3249  1.7552
 1109SOL     OW14785   2.583   3.369   7.981 -0.3726 -0.2198  0.4756
 1109SOL    HW114786   2.542   3.346   8.065 -1.7422  2.6818  0.5986
 1109SOL    HW214787   2.545   3.456   7.967  0.5109  0.2566  1.0803
 1110SOL     OW14788   3.490   2.987   8.601  0.1348 -0.1419  0.2622
 1110SOL    HW114789   3.439   2.937   8.538  2.0682 -3.3495  1.2558
 1110SOL    HW214790   3.425   3.057   8.600  1.0872  0.6868 -1.7202
 1111SOL     OW14791   2.846   0.531  10.055  0.6143  0.1197  0.0914
 1111SOL    HW114792   2.845   0.545  10.150 -1.8122  0.0928  0.0829
 1111SOL    HW214793   2.762   0.487  10.038  1.3472 -1.2807  0.0698
 1112SOL     OW14794   1.424   3.936  17.056 -0.5969  0.0332  0.3847
 1112SOL    HW114795   1.431   3.955  16.963  0.4971 -1.6497  0.1259
 1112SOL    HW214796   1.340   3.976  17.079 -0.6236  1.1951 -1.7847
 1113SOL     OW14797   3.394   4.689   5.901  0.2599  0.0146  0.2745
 1113SOL    HW114798   3.482   4.680   5.863 -0.3028 -0.9074 -0.8181
 1113SOL    HW214799   3.355   4.601   5.900  1.1462 -0.3676 -0.7994
 1114SOL     OW14800   4.092   1.854   5.549 -0.8254 -0.7310  0.2227
 1114SOL    HW114801   4.131   1.891   5.628 -0.6366  0.6754 -0.5256
 1114SOL    HW214802   4.163   1.867   5.486 -1.5880 -0.0892 -0.5070
 1115SOL     OW14803   2.984   4.177   8.343  0.7016 -0.3435 -0.5622
 1115SOL    HW114804   2.891   4.167   8.361  0.2883  1.0426 -1.9105
 1115SOL    HW214805   2.977   4.197   8.250 -0.1359 -1.0459 -0.6446
 1116SOL     OW14806   3.746   1.527   2.843 -0.2232  0.2793 -0.3946
 1116SOL    HW114807   3.753   1.549   2.936 -2.4536  0.0049 -0.1491
 1116SOL    HW214808   3.737   1.431   2.839 -2.7249  0.5064 -0.3220
 1117SOL     OW14809   3.781   0.388   4.477  0.1803  0.3187  0.1835
 1117SOL    HW114810   3.866   0.382   4.433  0.4358 -0.5442  0.7823
 1117SOL    HW214811   3.799   0.436   4.558  2.2854 -2.4140  1.3405
 1118SOL     OW14812   2.449   1.216   7.580  0.3953 -0.0825 -0.0554
 1118SOL    HW114813   2.484   1.249   7.497  2.2385 -0.3460  0.6047
 1118SOL    HW214814   2.496   1.268   7.645  1.4181  0.1244 -0.9596
 1119SOL     OW14815   0.302   3.792   4.899 -0.1879 -0.0332 -0.2719
 1119SOL    HW114816   0.216   3.784   4.858 -0.9831  0.3096  1.3477
 1119SOL    HW214817   0.365   3.771   4.829  1.5396  1.9080  0.7085
 1120SOL     OW14818   2.981   0.567   0.807 -0.4750 -0.7078  0.1314
 1120SOL    HW114819   3.065   0.589   0.847 -1.4249  2.9099  0.1233
 1120SOL    HW214820   2.924   0.640   0.831  1.2248  0.9874 -0.9130
 1121SOL     OW14821   1.203   0.005   7.069  0.5242 -0.2133 -0.6101
 1121SOL    HW114822   1.182   0.083   7.018  2.5282  0.8494  0.1978
 1121SOL    HW214823   1.299   0.010   7.067  0.4876  0.4515 -0.6691
 1122SOL     OW14824   1.655   3.349  11.515 -0.1625  0.7023 -0.5419
 1122SOL    HW114825   1.562   3.358  11.534 -0.2854 -2.4428  0.2791
 1122SOL    HW214826   1.653   3.267  11.467  1.2263  0.1793  0.2755
 1123SOL     OW14827   0.110   2.927   4.971  0.2911  0.3685 -0.0439
 1123SOL    HW114828   0.196   2.970   4.975  0.8611 -0.8575  0.7524
 1123SOL    HW214829   0.148   2.845   5.003 -1.7513  0.2242  1.9862
 1124SOL     OW14830   2.023   4.104   2.110  0.4622  0.1047 -0.7051
 1124SOL    HW114831   1.986   4.019   2.084  0.6239 -0.0383 -0.4783
 1124SOL    HW214832   2.112   4.086   2.142 -0.5152  1.0207  2.5024
 1125SOL     OW14833   0.517   1.313   5.673  0.6783  0.3474 -0.1998
 1125SOL    HW114834   0.444   1.286   5.728  0.3894 -1.4048 -1.4411
 1125SOL    HW214835   0.489   1.394   5.631  0.5923  0.7376  0.6254
 1126SOL     OW14836   3.274   4.107  10.773 -0.2104 -0.0491  0.2175
 1126SOL    HW114837   3.361   4.114  10.734 -0.9547  0.6616 -1.2811
 1126SOL    HW214838   3.294   4.134  10.863 -0.4317  0.0776  0.2281
 1127SOL     OW14839   0.823   1.902   3.449 -0.0584 -0.0261 -0.0939
 1127SOL    HW114840   0.796   1.847   3.376 -2.2694  0.2798  0.4857
 1127SOL    HW214841   0.902   1.853   3.472  0.7367  1.3911  0.1579
 1128SOL     OW14842   1.958   4.272  14.804 -0.4040  0.5573  0.3300
 1128SOL    HW114843   1.942   4.266  14.898  1.3106 -0.3584  0.5689
 1128SOL    HW214844   1.873   4.302  14.771  0.6735 -0.7777 -3.6244
 1129SOL     OW14845   3.438   0.528  16.250  1.0510  0.1183 -0.0516
 1129SOL    HW114846   3.527   0.514  16.219  2.0030  1.0843  2.2274
 1129SOL    HW214847   3.449   0.599  16.313 -3.0399 -1.3066  2.3240
 1130SOL     OW14848   3.297   2.580   2.564  0.2134 -0.0129 -0.2390
 1130SOL    HW114849   3.378   2.580   2.514  0.1573  0.5191 -0.3277
 1130SOL    HW214850   3.236   2.538   2.502  2.2299 -1.3892 -1.2885
 1131SOL     OW14851   1.375   3.609   5.169  0.0108 -0.3348 -0.6035
 1131SOL    HW114852   1.401   3.700   5.181 -1.7489  0.2556 -1.2878
 1131SOL    HW214853   1.336   3.620   5.082  2.2885 -0.8727 -1.6802
 1132SOL     OW14854   0.343   1.101  15.186  0.5305 -0.1701 -0.2566
 1132SOL    HW114855   0.333   1.170  15.252 -0.5400 -1.0031  0.4519
 1132SOL    HW214856   0.251   1.102  15.160  0.1736  2.5796  1.0732
 1133SOL     OW14857   1.205   3.963  12.683  0.3816  0.1804  0.2197
 1133SOL    HW114858   1.246   3.915  12.756 -0.5573 -1.0721 -0.0734
 1133SOL    HW214859   1.190   3.894  12.618 -0.2051  0.6845 -0.1705
 1134SOL     OW14860   2.998   4.466   6.421  0.8937 -0.3774 -0.6268
 1134SOL    HW114861   3.056   4.537   6.447  1.2892 -0.2862 -1.7308
 1134SOL    HW214862   2.928   4.519   6.382  0.6463 -2.3075 -2.8209
 1135SOL     OW14863   0.742   1.068   6.104  0.5137 -0.3966 -0.2098
 1135SOL    HW114864   0.666   1.055   6.049  0.4796 -1.3324  0.0681
 1135SOL    HW214865   0.719   1.130   6.174  2.4429  0.4216 -0.2852
 1136SOL     OW14866   1.062   0.413   8.777  0.2281 -0.2134  0.1221
 1136SOL    HW114867   1.009   0.438   8.853 -1.3143  0.9008 -1.3010
 1136SOL    HW214868   1.103   0.498   8.761 -0.6353  0.2517  0.3429
 1137SOL     OW14869   0.520   0.965  11.735  0.3813 -0.1566  0.0165
 1137SOL    HW114870   0.450   1.029  11.723  0.0352  0.0029  2.8650
 1137SOL    HW214871   0.541   0.986  11.826  0.5370 -3.4474  0.7391
 1138SOL     OW14872   2.811   1.591   6.052 -0.6709  0.4247  0.7173
 1138SOL    HW114873   2.902   1.605   6.028 -0.2418 -1.0626  1.4798
 1138SOL    HW214874   2.804   1.502   6.018  0.1665  0.1577  1.2499
 1139SOL     OW14875   0.829   0.558  14.290  0.1425 -0.3160 -0.4692
 1139SOL    HW114876   0.865   0.500  14.223  2.3227  0.7620 -0.2386
 1139SOL    HW214877   0.798   0.492  14.351  1.5673 -0.5980 -0.0429
 1140SOL     OW14878   1.407   2.621   8.342 -0.0827  0.4473  0.3545
 1140SOL    HW114879   1.393   2.612   8.248 -1.6084 -1.1685  0.7230
 1140SOL    HW214880   1.415   2.716   8.350  0.0603  0.4797 -0.1970
 1141SOL     OW14881   3.462   1.009   6.793 -0.1534 -0.3100  0.5673
 1141SOL    HW114882   3.412   1.067   6.736  1.3828 -0.0720 -0.5385
 1141SOL    HW214883   3.517   0.958   6.733 -2.7023 -1.8265 -0.5025
 1142SOL     OW14884   0.181   2.290  12.099 -0.0652  0.4423 -0.0120
 1142SOL    HW114885   0.223   2.204  12.110  2.2322  1.5012 -0.4784
 1142SOL    HW214886   0.122   2.273  12.025  0.6686  1.4939 -0.8422
 1143SOL     OW14887   2.800   4.119  15.594  0.0003  0.0574  0.0799
 1143SOL    HW114888   2.804   4.161  15.508  0.1343  2.4437  1.2630
 1143SOL    HW214889   2.887   4.123  15.632  0.3465  2.6331 -1.0136
 1144SOL     OW14890   0.206   1.840  14.384 -0.0398  0.4159  0.0463
 1144SOL    HW114891   0.287   1.813  14.427 -1.2777 -0.4370  1.8272
 1144SOL    HW214892   0.234   1.836  14.292  1.5771  4.3459  0.3344
 1145SOL     OW14893   3.378   2.604   9.590  0.2467  0.3070  0.1767
 1145SOL    HW114894   3.470   2.600   9.615  0.3695 -0.4802 -0.4099
 1145SOL    HW214895   3.339   2.590   9.677  0.0700 -0.6856 -0.0615
 1146SOL     OW14896   4.103   3.216   4.304  0.2357 -0.1707  0.4492
 1146SOL    HW114897   4.067   3.282   4.245  0.9816  0.9379  1.2349
 1146SOL    HW214898   4.034   3.150   4.299 -0.9987  1.2890 -1.5893
 1147SOL     OW14899   2.195   1.363   7.207  0.0240 -0.2075 -0.8135
 1147SOL    HW114900   2.279   1.407   7.191  0.3037 -0.7957 -0.9477
 1147SOL    HW214901   2.209   1.276   7.170 -0.3691 -0.9115  0.6680
 1148SOL     OW14902   3.991   3.533   2.852 -0.7921 -0.2082 -0.6803
 1148SOL    HW114903   3.909   3.484   2.852 -0.9838  0.0921  3.1060
 1148SOL    HW214904   4.052   3.462   2.873 -0.6243  0.0774 -0.1829
 1149SOL     OW14905   4.520   0.797   0.818  0.3286 -0.6778  0.1200
 1149SOL    HW114906   4.434   0.836   0.805  0.5788 -0.5510 -1.2086
 1149SOL    HW214907   4.532   0.749   0.736  1.3033  0.1980 -0.2591
 1150SOL     OW14908   2.056   1.395   2.678 -0.2041  0.2025  0.2642
 1150SOL    HW114909   2.039   1.481   2.639  0.4681 -0.0333 -0.5393
 1150SOL    HW214910   2.010   1.401   2.761  0.8280 -0.1045  0.8548
 1151SOL     OW14911   0.400   0.616   5.627 -0.1857 -0.9184 -0.3420
 1151SOL    HW114912   0.424   0.527   5.603  1.0654 -1.1435  1.6717
 1151SOL    HW214913   0.396   0.616   5.723  0.4773 -0.3684 -0.3115
 1152SOL     OW14914   4.344   3.822  13.865  0.0522  0.5014  0.1829
 1152SOL    HW114915   4.262   3.795  13.824  0.5691  1.2642 -1.3614
 1152SOL    HW214916   4.380   3.737  13.891  0.2187 -0.0293 -1.8416
 1153SOL     OW14917   2.427   2.498   8.486 -0.0202  0.4376 -0.2258
 1153SOL    HW114918   2.370   2.488   8.409 -0.0077 -1.5669  0.0345
 1153SOL    HW214919   2.462   2.586   8.474 -1.2470  0.8167 -1.0681
 1154SOL     OW14920   4.205   2.759  11.714  0.2717 -0.1462 -0.4828
 1154SOL    HW114921   4.256   2.836  11.692  1.0573 -0.3849  0.5469
 1154SOL    HW214922   4.268   2.688  11.700 -2.0098 -1.8248 -2.4511
 1155SOL     OW14923   0.946   3.363   6.341 -0.0168 -0.6208 -0.0679
 1155SOL    HW114924   1.036   3.395   6.336 -1.5740  3.8012  0.2941
 1155SOL    HW214925   0.933   3.342   6.434  0.0174  1.2506  0.3543
 1156SOL     OW14926   0.743   4.598   3.947 -0.0549 -0.5978  0.0867
 1156SOL    HW114927   0.772   4.534   3.882 -1.4592 -1.5518  0.4022
 1156SOL    HW214928   0.818   4.607   4.006  0.2126 -1.6549 -0.0909
 1157SOL     OW14929   1.856   3.791   4.095  0.1388  0.0577 -0.9283
 1157SOL    HW114930   1.898   3.720   4.144 -0.0453 -0.7476 -1.9424
 1157SOL    HW214931   1.788   3.732   4.062  2.2478 -1.7875 -1.9638
 1158SOL     OW14932   0.766   4.478   9.142 -0.0465 -0.4516  0.3912
 1158SOL    HW114933   0.752   4.512   9.054  1.5828 -1.8312 -0.4062
 1158SOL    HW214934   0.769   4.561   9.189  1.6570 -0.2429 -0.0614
 1159SOL     OW14935   2.675   0.347   4.061  0.2062 -0.4064  0.2180
 1159SOL    HW114936   2.691   0.328   4.153  0.0245 -1.8280 -0.0408
 1159SOL    HW214937   2.640   0.261   4.036 -0.0053  0.2399 -1.6792
 1160SOL     OW14938   1.078   0.228   5.104  0.4017 -0.0296 -0.0096
 1160SOL    HW114939   1.102   0.321   5.115  3.4573 -0.7819 -0.2325
 1160SOL    HW214940   1.008   0.247   5.042  0.3820  1.1157  0.3590
 1161SOL     OW14941   0.710   3.136   2.960  0.2788 -0.1958 -0.2809
 1161SOL    HW114942   0.703   3.144   3.055 -1.8124  0.5343 -0.5010
 1161SOL    HW214943   0.805   3.149   2.959  0.0605  1.4360  0.4731
 1162SOL     OW14944   1.537   3.144  14.775  0.7227 -0.0855 -0.2246
 1162SOL    HW114945   1.504   3.113  14.859  0.8900  0.6756  0.1141
 1162SOL    HW214946   1.459   3.194  14.751  0.4462 -0.1160  0.6264
 1163SOL     OW14947   3.733   2.762  17.394  0.3667 -0.3406  0.6684
 1163SOL    HW114948   3.808   2.819  17.377  0.0661  0.1012  0.8325
 1163SOL    HW214949   3.682   2.811  17.459  2.9694 -0.1263  2.5474
 1164SOL     OW14950   1.475   3.744   9.711  0.0505 -0.3322 -0.7604
 1164SOL    HW114951   1.462   3.746   9.806 -1.9135  1.3428 -1.0619
 1164SOL    HW214952   1.532   3.666   9.714  1.6008  0.7126 -3.3416
 1165SOL     OW14953   3.249   3.426   0.262 -0.3082 -0.0855 -0.2539
 1165SOL    HW114954   3.265   3.380   0.345 -3.1280 -0.2194  0.2407
 1165SOL    HW214955   3.189   3.366   0.219  1.2972 -2.4718  0.8340
 1166SOL     OW14956   0.814   0.059   2.677 -0.3182 -0.3480  0.0052
 1166SOL    HW114957   0.788   0.147   2.705  1.2117  0.2643 -0.5446
 1166SOL    HW214958   0.854   0.022   2.755 -1.0789 -0.0315  0.5494
 1167SOL     OW14959   3.696   1.583   3.174 -0.2914  0.0589 -0.2493
 1167SOL    HW114960   3.643   1.662   3.182 -1.0358 -0.5441  0.8917
 1167SOL    HW214961   3.661   1.525   3.242 -0.1199  0.6277  0.3255
 1168SOL     OW14962   3.079   0.319   9.670  0.1995  1.1137 -0.4610
 1168SOL    HW114963   3.053   0.287   9.756  0.3291  1.8651 -0.1404
 1168SOL    HW214964   2.999   0.325   9.618 -1.0946  1.0432  1.5405
 1169SOL     OW14965   2.758   1.065  13.626  0.6742  0.6288 -0.2135
 1169SOL    HW114966   2.716   1.112  13.698 -0.4001 -2.3272  1.0693
 1169SOL    HW214967   2.767   0.976  13.661  0.7286  0.1844 -1.3368
 1170SOL     OW14968   3.561   3.265   3.785  0.0470 -0.4985 -0.2579
 1170SOL    HW114969   3.645   3.253   3.740 -0.8301  0.9398 -2.2982
 1170SOL    HW214970   3.527   3.182   3.753  0.4538 -1.1697  1.0817
 1171SOL     OW14971   1.005   3.001  11.567 -0.9450  0.6384  0.6842
 1171SOL    HW114972   0.978   2.973  11.654 -0.7027 -3.0983 -0.4642
 1171SOL    HW214973   0.960   2.942  11.507  3.6093  0.1894 -2.3633
 1172SOL     OW14974   0.859   3.712  16.412 -0.0192 -0.5354 -0.4315
 1172SOL    HW114975   0.927   3.698  16.345 -0.8190 -0.1924 -1.3116
 1172SOL    HW214976   0.816   3.791  16.379  0.9962 -0.7451 -2.2558
 1173SOL     OW14977   1.085   1.845  12.691 -0.2592  0.5553  0.2644
 1173SOL    HW114978   1.001   1.819  12.727  0.1504 -2.1055 -0.7104
 1173SOL    HW214979   1.146   1.792  12.744 -0.8860 -0.1175  0.3080
 1174SOL     OW14980   1.999   2.836   5.714  0.2699  0.4119  0.4437
 1174SOL    HW114981   2.056   2.832   5.637 -1.9034  2.7815 -1.2885
 1174SOL    HW214982   2.055   2.791   5.777  0.2684 -1.2429 -0.7375
 1175SOL     OW14983   4.370   0.915   1.882  0.2718  0.5585 -0.0207
 1175SOL    HW114984   4.396   0.865   1.960 -0.6417  0.8166  0.4586
 1175SOL    HW214985   4.407   0.999   1.909 -1.3553  1.8820 -2.0117
 1176SOL     OW14986   4.132   0.595   5.709 -0.0844  0.6007  0.2991
 1176SOL    HW114987   4.207   0.603   5.649 -0.4326 -3.1577 -0.6526
 1176SOL    HW214988   4.091   0.518   5.670 -0.7600  0.2284  1.7498
 1177SOL     OW14989   2.419   4.614   5.683 -0.2480 -0.2275 -0.2806
 1177SOL    HW114990   2.509   4.645   5.688 -0.3194  0.0254 -0.5880
 1177SOL    HW214991   2.420   4.540   5.744 -0.1154 -0.5791 -0.7088
 1178SOL     OW14992   0.798   1.518  16.172  0.0066 -0.0044  0.1508
 1178SOL    HW114993   0.719   1.569  16.189  1.3431  2.1783 -0.2361
 1178SOL    HW214994   0.799   1.463  16.251 -0.2505  0.7001  0.6489
 1179SOL     OW14995   3.498   1.508  14.209 -0.1403  0.4561 -0.0675
 1179SOL    HW114996   3.589   1.536  14.204  0.4645 -1.6258 -0.6021
 1179SOL    HW214997   3.478   1.471  14.123  0.3027 -2.2593  0.9923
 1180SOL     OW14998   3.188   0.709   0.911  0.4103  0.3579 -0.2855
 1180SOL    HW114999   3.146   0.788   0.876 -1.3505  0.1620  1.3981
 1180SOL    HW215000   3.272   0.746   0.938  1.2455 -0.0769 -2.2960
 1181SOL     OW15001   1.112   1.105   5.239  0.6294 -0.7874 -0.4384
 1181SOL    HW115002   1.052   1.033   5.220 -1.1678  0.7306 -0.5127
 1181SOL    HW215003   1.105   1.161   5.162  3.0972  0.2386  0.0783
 1182SOL     OW15004   4.439   1.573   3.990 -0.4413 -0.4374  0.0092
 1182SOL    HW115005   4.420   1.622   3.910 -1.5532 -1.0059 -0.0794
 1182SOL    HW215006   4.535   1.572   3.984 -0.4924 -0.4878 -0.8399
 1183SOL     OW15007   1.174   1.705   9.057  0.1824 -0.3026  0.6770
 1183SOL    HW115008   1.087   1.695   9.020  0.4462  0.4502 -0.1423
 1183SOL    HW215009   1.214   1.632   9.011 -0.7404  0.6681 -1.6575
 1184SOL     OW15010   1.105   2.002   9.339 -0.0958 -0.4141  0.3055
 1184SOL    HW115011   1.195   1.996   9.370  0.1417 -0.3609 -0.3616
 1184SOL    HW215012   1.084   2.090   9.369  0.7243  0.0203 -0.3784
 1185SOL     OW15013   1.616   1.823   2.585 -0.5301  0.3457  0.1555
 1185SOL    HW115014   1.611   1.897   2.524 -1.8585  1.9820  2.2650
 1185SOL    HW215015   1.581   1.754   2.529  1.1723  1.6654 -2.5700
 1186SOL     OW15016   0.491   0.276   3.273 -0.2092  0.0393  0.3339
 1186SOL    HW115017   0.511   0.328   3.351  1.3568  0.5359 -0.3905
 1186SOL    HW215018   0.511   0.333   3.199 -1.3865 -0.3986 -0.3216
 1187SOL     OW15019   1.126   4.068   3.902  0.2901 -0.4689  0.2905
 1187SOL    HW115020   1.045   4.093   3.856 -0.0297 -0.9081  0.6143
 1187SOL    HW215021   1.156   4.000   3.843  0.2340  0.6224 -1.0042
 1188SOL     OW15022   1.120   2.994   2.395  0.4148  0.0537  0.2817
 1188SOL    HW115023   1.115   2.967   2.486 -0.6657 -0.9607 -0.0773
 1188SOL    HW215024   1.212   3.019   2.387  0.1609  1.2609  1.1178
 1189SOL     OW15025   2.734   0.049   3.914  0.5181 -0.8108 -0.1583
 1189SOL    HW115026   2.672   0.002   3.859  0.5767 -0.7997 -0.2326
 1189SOL    HW215027   2.719   4.722   3.995  0.6778  1.4499  1.2910
 1190SOL     OW15028   0.941   2.840   3.310  0.3055 -0.2158 -0.1008
 1190SOL    HW115029   0.983   2.754   3.322 -1.5325 -1.1064 -0.0316
 1190SOL    HW215030   0.952   2.860   3.218  1.1950 -0.2152  0.0023
 1191SOL     OW15031   2.489   3.209   4.238  0.3914  0.6810 -0.0608
 1191SOL    HW115032   2.522   3.262   4.165 -1.8497  1.1525 -0.7348
 1191SOL    HW215033   2.395   3.200   4.221  0.2163  1.0505  0.7266
 1192SOL     OW15034   3.468   0.888   1.474  0.0911  0.2354 -0.2072
 1192SOL    HW115035   3.420   0.817   1.433 -3.9896  2.1140  1.2926
 1192SOL    HW215036   3.500   0.935   1.397 -2.0980 -2.3684 -2.6659
 1193SOL     OW15037   1.174   1.982   4.730  0.3183 -0.1189 -0.8086
 1193SOL    HW115038   1.150   1.892   4.755 -1.4589  0.6522  0.2378
 1193SOL    HW215039   1.252   2.000   4.783  0.1571 -0.7852 -0.3391
 1194SOL     OW15040   2.133   1.325   8.147  0.2730 -0.0814 -0.6540
 1194SOL    HW115041   2.181   1.299   8.067  1.0715 -0.9379  0.0976
 1194SOL    HW215042   2.140   1.419   8.132 -1.9618  0.0035 -1.1717
 1195SOL     OW15043   2.119   2.760  10.990 -0.0490 -0.6032  0.2578
 1195SOL    HW115044   2.076   2.765  11.075 -1.4236 -2.5178 -0.3136
 1195SOL    HW215045   2.055   2.816  10.945  1.2304  0.9004  0.2949
 1196SOL     OW15046   1.009   3.999  12.427  0.4428  0.4675 -0.2717
 1196SOL    HW115047   1.035   4.005  12.519 -0.3341 -1.4624  0.0899
 1196SOL    HW215048   1.077   4.044  12.378  1.4220 -0.9856 -0.2558
 1197SOL     OW15049   3.667   2.887  12.933  1.0629  0.3686  0.4757
 1197SOL    HW115050   3.724   2.814  12.910 -1.8025 -2.0140  0.8845
 1197SOL    HW215051   3.603   2.840  12.986  1.0390 -0.5317 -0.3456
 1198SOL     OW15052   3.322   3.841   9.163 -0.4693 -0.2591  0.1941
 1198SOL    HW115053   3.343   3.814   9.253 -0.7162 -0.6777  0.1231
 1198SOL    HW215054   3.403   3.816   9.119  0.2570 -1.7568  2.3961
 1199SOL     OW15055   1.080   0.740  10.528  0.1935  0.2385  0.3456
 1199SOL    HW115056   1.094   0.647  10.546 -0.8716 -0.4036 -2.1042
 1199SOL    HW215057   1.092   0.728  10.434 -3.1706  0.6048 -0.1277
 1200SOL     OW15058   0.694   3.789   5.761  0.4743 -0.0107  0.1257
 1200SOL    HW115059   0.773   3.811   5.810  0.4978 -0.1152  0.1343
 1200SOL    HW215060   0.642   3.740   5.825  0.0672 -1.2347 -1.1402
 1201SOL     OW15061   0.791   1.628   4.559 -0.4486  0.3270  0.3253
 1201SOL    HW115062   0.760   1.645   4.648  0.4550  0.2121  0.6632
 1201SOL    HW215063   0.726   1.682   4.514 -1.5485 -2.1151 -1.0391
 1202SOL     OW15064   1.739   1.682   6.036  0.3481 -0.5009  0.2274
 1202SOL    HW115065   1.647   1.709   6.043  0.8128  0.6558  1.8276
 1202SOL    HW215066   1.731   1.588   6.052  0.1474 -0.1981  1.8371
 1203SOL     OW15067   0.151   3.424   2.458  0.1749 -0.0636 -0.6980
 1203SOL    HW115068   0.140   3.517   2.475  2.3699  0.0317  0.1412
 1203SOL    HW215069   0.110   3.389   2.537 -3.8145  0.5871 -2.4659
 1204SOL     OW15070   3.946   3.203   1.503 -0.3630 -0.4747 -0.8432
 1204SOL    HW115071   3.910   3.288   1.524  0.8933  0.3581 -2.0338
 1204SOL    HW215072   4.036   3.230   1.484  0.1402 -0.2806  1.9250
 1205SOL     OW15073   4.366   0.353   2.350 -0.3148 -0.8345  0.4256
 1205SOL    HW115074   4.389   0.281   2.291  1.8736  0.5311 -0.3968
 1205SOL    HW215075   4.313   0.410   2.293 -2.1838 -1.7383  1.2729
 1206SOL     OW15076   4.491   1.146   7.455  0.2556  0.3447 -0.2291
 1206SOL    HW115077   4.488   1.177   7.545  2.5149  4.3144 -1.5524
 1206SOL    HW215078   4.571   1.094   7.456  0.0035 -0.1089 -2.4214
 1207SOL     OW15079   2.481   3.471   7.044 -0.9666  0.2756  0.4320
 1207SOL    HW115080   2.481   3.394   6.988  2.0313  1.2064 -0.8457
 1207SOL    HW215081   2.509   3.441   7.131  1.6009 -0.7109 -0.7275
 1208SOL     OW15082   1.685   0.069   9.420 -0.1400 -0.1511 -0.0153
 1208SOL    HW115083   1.742   0.092   9.346 -0.3418  1.1315  0.2385
 1208SOL    HW215084   1.694   4.696   9.410 -1.4371  0.1960 -4.5503
 1209SOL     OW15085   4.479   1.400  12.880  0.4153 -0.3633 -0.3865
 1209SOL    HW115086   4.434   1.394  12.964 -1.2005 -0.7137 -1.2723
 1209SOL    HW215087   4.565   1.367  12.906  1.4443  0.7868 -2.3269
 1210SOL     OW15088   1.436   3.360   3.355  0.5821  0.1926 -0.2508
 1210SOL    HW115089   1.387   3.282   3.328 -1.8884  1.2686  1.1370
 1210SOL    HW215090   1.474   3.398   3.275  0.2117  0.1617 -0.4412
 1211SOL     OW15091   3.922   1.052   7.598 -0.2902  0.3187 -0.1455
 1211SOL    HW115092   3.895   1.019   7.513 -0.8137 -1.2290  0.6347
 1211SOL    HW215093   4.002   1.094   7.566  0.4967 -1.1778 -0.1310
 1212SOL     OW15094   4.098   1.636  14.938 -0.0229 -0.2820 -0.2910
 1212SOL    HW115095   4.040   1.689  14.884 -0.4846  2.3539  2.8481
 1212SOL    HW215096   4.157   1.593  14.875 -0.4985 -1.7054  0.2426
 1213SOL     OW15097   2.616   0.294   8.189  0.2835 -0.6256 -0.6797
 1213SOL    HW115098   2.549   0.236   8.154  2.1806 -2.3521 -1.4054
 1213SOL    HW215099   2.594   0.282   8.282 -0.2111  0.9362 -0.5869
 1214SOL     OW15100   0.348   3.237   7.440  0.0792 -0.4589  0.4079
 1214SOL    HW115101   0.443   3.248   7.449  0.0782 -0.6246  0.6111
 1214SOL    HW215102   0.315   3.321   7.471  0.2524 -0.5315  0.7889
 1215SOL     OW15103   1.216   0.174  16.505 -0.4965 -0.1976  0.1196
 1215SOL    HW115104   1.204   0.153  16.598 -1.7212 -2.3140 -0.4894
 1215SOL    HW215105   1.282   0.108  16.484 -0.9235 -0.5033 -0.2646
 1216SOL     OW15106   2.640   2.310  11.957 -0.0430 -0.1204 -0.2494
 1216SOL    HW115107   2.593   2.287  11.876 -1.3535 -0.4011  0.5815
 1216SOL    HW215108   2.571   2.340  12.016 -0.6170 -0.6876 -0.6268
 1217SOL     OW15109   0.520   3.734   8.398 -0.2863  0.3711 -0.3634
 1217SOL    HW115110   0.504   3.640   8.389  0.9786  0.3073 -1.9472
 1217SOL    HW215111   0.581   3.738   8.472 -1.6058  0.2442  0.7348
 1218SOL     OW15112   0.171   3.378   5.206 -0.6225  0.3999  0.7051
 1218SOL    HW115113   0.096   3.431   5.234 -1.3427 -0.3326  0.1674
 1218SOL    HW215114   0.216   3.363   5.289  0.7724  2.3419  0.2939
 1219SOL     OW15115   0.772   0.094   9.982  0.2302 -1.2020  0.3916
 1219SOL    HW115116   0.752   0.157  10.052 -3.7595  0.1539 -1.9605
 1219SOL    HW215117   0.840   0.046  10.028  1.9117  1.5151  0.7073
 1220SOL     OW15118   3.544   0.942   7.920  0.0904  0.4702 -0.5430
 1220SOL    HW115119   3.540   0.880   7.992  1.8786  2.4389  1.2599
 1220SOL    HW215120   3.622   0.905   7.879 -1.2509 -2.6413 -0.2503
 1221SOL     OW15121   1.027   2.667   1.728  0.2097 -0.1059  0.0111
 1221SOL    HW115122   0.996   2.588   1.772 -1.1906  0.5766  0.2621
 1221SOL    HW215123   1.061   2.635   1.645 -0.5366 -0.0697 -0.3029
 1222SOL     OW15124   1.239   3.745   8.028  0.0405  0.1579  0.5271
 1222SOL    HW115125   1.176   3.689   8.074 -2.8063  3.4997  0.6353
 1222SOL    HW215126   1.285   3.779   8.105 -0.5076  3.5879 -0.6712
 1223SOL     OW15127   1.988   1.670   2.651 -0.5905 -0.1614 -0.3573
 1223SOL    HW115128   1.919   1.675   2.718  0.5486  2.1099  0.6398
 1223SOL    HW215129   1.933   1.697   2.578 -2.4320 -0.5739  0.8576
 1224SOL     OW15130   0.956   2.374  15.085 -0.1783  0.5177  0.1236
 1224SOL    HW115131   0.955   2.305  15.152  0.4079  1.1550  0.7964
 1224SOL    HW215132   0.862   2.380  15.071 -0.7227 -1.0511  3.0576
 1225SOL     OW15133   4.084   3.774   8.355 -0.5583 -0.4082 -0.0722
 1225SOL    HW115134   4.090   3.859   8.396 -1.5135 -0.9252  1.1294
 1225SOL    HW215135   4.072   3.796   8.262 -0.1992 -0.4728 -0.1322
 1226SOL     OW15136   3.048   4.077   8.706  0.0606 -0.2417 -0.0179
 1226SOL    HW115137   3.087   4.020   8.773  1.0141  2.7464  1.9803
 1226SOL    HW215138   3.034   4.013   8.636  0.1805 -0.4545  0.1512
 1227SOL     OW15139   1.919   3.875  11.083 -0.5314  0.0399 -0.7327
 1227SOL    HW115140   1.845   3.873  11.023 -2.1833  0.7036  1.2683
 1227SOL    HW215141   1.984   3.927  11.035  0.7297 -0.0915  0.8184
 1228SOL     OW15142   4.312   0.919   6.386  0.4780 -0.0232  0.1990
 1228SOL    HW115143   4.232   0.911   6.334 -0.9558  0.7223  2.3168
 1228SOL    HW215144   4.294   0.853   6.452  1.9186  2.8945  3.5378
 1229SOL     OW15145   2.362   0.026   3.567 -0.0992  0.6287  0.7503
 1229SOL    HW115146   2.435   0.014   3.629  0.4224  0.8727  0.1779
 1229SOL    HW215147   2.397   0.091   3.506 -0.9833 -0.0030 -0.4252
 1230SOL     OW15148   3.490   1.743   6.209  0.2279  1.0823  0.2849
 1230SOL    HW115149   3.460   1.748   6.299 -2.1229 -2.2460 -0.3485
 1230SOL    HW215150   3.554   1.814   6.199  1.5924 -0.0382  1.0828
 1231SOL     OW15151   0.627   0.500   7.340  0.3230  0.2002 -0.3273
 1231SOL    HW115152   0.533   0.508   7.325  0.0644 -0.1385  1.1152
 1231SOL    HW215153   0.634   0.470   7.431  1.2971  0.6365 -0.2513
 1232SOL     OW15154   2.731   3.111   5.510  0.2791  0.3967 -0.5514
 1232SOL    HW115155   2.748   3.134   5.419  0.9951 -3.1687 -1.2945
 1232SOL    HW215156   2.648   3.065   5.505 -0.0196  0.6674  1.8021
 1233SOL     OW15157   4.533   4.535   3.717 -0.0903 -0.5557  0.2911
 1233SOL    HW115158   4.524   4.442   3.698  0.0400 -0.1962 -1.5065
 1233SOL    HW215159   4.494   4.574   3.639  0.4217  0.7699  0.6889
 1234SOL     OW15160   3.026   0.205   8.819  0.0516 -0.1298  0.6004
 1234SOL    HW115161   3.037   0.290   8.777 -1.7383  0.9063  2.2595
 1234SOL    HW215162   3.087   0.137   8.789  0.2818  0.5234 -0.4125
 1235SOL     OW15163   1.641   1.978   8.543 -0.0970  0.2571 -0.8767
 1235SOL    HW115164   1.558   2.024   8.558 -0.4099  0.0563 -2.0059
 1235SOL    HW215165   1.693   2.046   8.500  0.5772  0.3732  0.1149
 1236SOL     OW15166   2.042   3.448   8.021 -0.4359  0.1445 -0.3311
 1236SOL    HW115167   2.122   3.446   7.969  0.8928 -1.8809  1.7670
 1236SOL    HW215168   2.004   3.525   7.979  0.8784  1.2015  0.3948
 1237SOL     OW15169   4.385   2.177   4.409  0.5616 -0.3609 -0.1299
 1237SOL    HW115170   4.318   2.124   4.365  0.5433  0.2078 -0.7883
 1237SOL    HW215171   4.455   2.176   4.344  1.0680 -0.2426  0.4169
 1238SOL     OW15172   0.583   3.849   1.616  0.1683  0.6627 -0.7600
 1238SOL    HW115173   0.549   3.770   1.574  0.7562 -0.8158  1.5207
 1238SOL    HW215174   0.500   3.890   1.639  0.1481  0.5081 -0.5545
 1239SOL     OW15175   2.510   4.159   1.294 -0.0831  0.0388  0.1117
 1239SOL    HW115176   2.571   4.221   1.253 -0.5058 -0.0492 -0.6594
 1239SOL    HW215177   2.484   4.209   1.371 -0.2846 -0.8500  0.6085
 1240SOL     OW15178   0.458   1.748   7.616 -0.0113 -0.4089  0.0530
 1240SOL    HW115179   0.428   1.821   7.670  0.5011 -0.2465  0.1138
 1240SOL    HW215180   0.530   1.784   7.564  1.6812 -0.6843  2.2095
 1241SOL     OW15181   0.125   2.403  14.404  0.0081  0.1067  0.9467
 1241SOL    HW115182   0.187   2.417  14.332 -0.2446  0.1426  0.7366
 1241SOL    HW215183   0.086   2.320  14.375 -2.1080  1.4361  0.0641
 1242SOL     OW15184   3.940   2.158   2.044 -0.1879  0.9694  0.2856
 1242SOL    HW115185   3.923   2.113   1.961  0.6171  0.0800  0.6132
 1242SOL    HW215186   3.940   2.081   2.100 -0.7514  1.2288  0.6457
 1243SOL     OW15187   0.206   2.432   8.687  0.2717  0.3485  0.2499
 1243SOL    HW115188   0.255   2.453   8.608  0.7943  0.8862  0.7259
 1243SOL    HW215189   0.121   2.461   8.653  0.4485  0.3553 -0.1808
 1244SOL     OW15190   1.648   0.589  13.810  0.1884  0.3922 -0.0314
 1244SOL    HW115191   1.591   0.665  13.794 -0.3589  0.3307  1.6452
 1244SOL    HW215192   1.705   0.597  13.733  2.0786 -1.1085  1.2347
 1245SOL     OW15193   3.091   3.555   8.231  0.0140 -0.2645 -0.3897
 1245SOL    HW115194   3.110   3.465   8.258 -0.0662  0.1890  1.1474
 1245SOL    HW215195   3.181   3.578   8.207 -0.3142  1.5795  0.1595
 1246SOL     OW15196   1.178   3.538   0.864 -0.1676  0.2632  0.0551
 1246SOL    HW115197   1.154   3.519   0.773 -0.3596 -0.8320  0.3340
 1246SOL    HW215198   1.177   3.451   0.905  2.5582 -0.4221 -1.3423
 1247SOL     OW15199   1.231   0.331   4.649  0.6853  0.0340 -0.0742
 1247SOL    HW115200   1.288   0.279   4.592 -0.1471  0.5088 -1.3354
 1247SOL    HW215201   1.276   0.338   4.733 -0.7418 -1.9942  0.8351
 1248SOL     OW15202   1.462   3.518   0.809 -0.0778 -0.7769  0.0749
 1248SOL    HW115203   1.488   3.494   0.898 -0.9387  0.4486  0.6723
 1248SOL    HW215204   1.369   3.495   0.812  0.6145 -3.7015 -1.0148
 1249SOL     OW15205   0.306   0.087   6.458 -0.1725 -0.5061 -0.0793
 1249SOL    HW115206   0.296   0.048   6.372 -0.3053 -1.6756  0.4684
 1249SOL    HW215207   0.260   0.015   6.502 -3.9698  0.6752 -2.1639
 1250SOL     OW15208   3.922   4.060   0.795 -0.4074  0.2434 -0.2175
 1250SOL    HW115209   4.013   4.040   0.772 -0.4952  0.1886 -0.5226
 1250SOL    HW215210   3.874   3.987   0.755 -0.2668 -0.2259  0.4779
 1251SOL     OW15211   1.146   0.703  13.390  0.2682  0.2463 -0.5226
 1251SOL    HW115212   1.121   0.636  13.327 -0.2118  1.3045 -1.4489
 1251SOL    HW215213   1.192   0.760  13.328 -1.0794  1.0388 -0.8079
 1252SOL     OW15214   4.099   2.232   6.264  0.4752  0.4991 -0.0306
 1252SOL    HW115215   4.017   2.240   6.312  0.0008 -1.5194 -0.5268
 1252SOL    HW215216   4.071   2.261   6.177 -0.3317 -1.9819 -0.5781
 1253SOL     OW15217   4.609   3.309   2.922 -0.0812  0.2556 -0.0681
 1253SOL    HW115218   4.659   3.354   2.854 -2.1442  0.6241 -1.3717
 1253SOL    HW215219   4.645   3.351   3.000  0.0933 -2.7168  1.4457
 1254SOL     OW15220   1.776   1.617  13.151 -0.6624  0.5236 -0.3031
 1254SOL    HW115221   1.750   1.685  13.213 -2.3782  0.8750 -1.3665
 1254SOL    HW215222   1.692   1.574  13.134 -0.3074 -0.2835  0.0203
 1255SOL     OW15223   0.471   2.670   6.869  0.0189  0.2804 -0.9144
 1255SOL    HW115224   0.454   2.582   6.833  0.1349  0.4213 -1.3180
 1255SOL    HW215225   0.493   2.642   6.958  1.0062  1.2253 -0.8657
 1256SOL     OW15226   2.316   1.101   6.497  0.0671  0.7638  0.1496
 1256SOL    HW115227   2.408   1.124   6.503  0.0117  1.4252 -1.5272
 1256SOL    HW215228   2.332   1.026   6.440  2.4608  1.8141 -0.5494
 1257SOL     OW15229   3.819   3.812   8.655 -0.4231 -0.3081 -0.5049
 1257SOL    HW115230   3.905   3.850   8.670 -1.4428  1.7421  0.2769
 1257SOL    HW215231   3.753   3.869   8.695  1.8486  1.1634  1.0958
 1258SOL     OW15232   3.169   1.761  16.368  0.3046 -0.6680  0.4634
 1258SOL    HW115233   3.149   1.837  16.423 -0.3906 -0.6309  0.1507
 1258SOL    HW215234   3.091   1.707  16.382  1.3011 -1.8007  1.7182
 1259SOL     OW15235   0.084   1.532  13.579 -0.3699  0.6997  0.2640
 1259SOL    HW115236   0.014   1.596  13.565  0.5459  2.2402  2.6634
 1259SOL    HW215237   0.038   1.460  13.623 -0.8065  0.2587 -0.9281
 1260SOL     OW15238   4.101   2.735   3.838 -0.0114  0.1152 -0.0908
 1260SOL    HW115239   4.034   2.718   3.904 -1.7077  0.2463 -1.7561
 1260SOL    HW215240   4.143   2.812   3.876 -0.7661  0.4567  0.0578
 1261SOL     OW15241   0.655   3.535   5.142  0.1830  0.4943 -0.2405
 1261SOL    HW115242   0.565   3.517   5.115 -0.7598  0.4667  2.9158
 1261SOL    HW215243   0.699   3.562   5.062 -0.8347  0.9924 -0.6384
 1262SOL     OW15244   0.292   1.088  17.250 -0.9954 -0.2118  0.0561
 1262SOL    HW115245   0.204   1.057  17.229 -0.8703  0.7193 -1.7518
 1262SOL    HW215246   0.325   1.119  17.166  1.2311  1.0714  1.4037
 1263SOL     OW15247   1.081   0.546   3.870 -0.2482 -0.0368  0.8023
 1263SOL    HW115248   1.025   0.480   3.828 -0.6914  1.8427 -1.5544
 1263SOL    HW215249   1.106   0.596   3.792  0.1650 -1.8980 -0.2619
 1264SOL     OW15250   2.671   3.879  15.486  0.0457  0.6220  0.0592
 1264SOL    HW115251   2.686   3.967  15.522  1.5850  0.0561  0.7789
 1264SOL    HW215252   2.624   3.840  15.560 -1.6728  0.7276 -0.9687
 1265SOL     OW15253   1.599   3.031   8.675 -0.3749 -0.0928  0.3028
 1265SOL    HW115254   1.645   3.065   8.752 -1.7293  0.4415  0.8637
 1265SOL    HW215255   1.585   2.944   8.712 -0.5465 -0.0315  0.3818
 1266SOL     OW15256   1.565   1.065  14.229  0.2550  0.4269 -0.1536
 1266SOL    HW115257   1.651   1.064  14.272 -1.2572  0.9087  2.9046
 1266SOL    HW215258   1.533   1.151  14.256  0.3472  0.0351  1.1994
 1267SOL     OW15259   2.237   4.630   8.577 -0.3206 -0.1695  0.1589
 1267SOL    HW115260   2.170   4.698   8.581  1.0566  1.1759  0.1581
 1267SOL    HW215261   2.235   4.598   8.668  2.5699  0.6675  0.5222
 1268SOL     OW15262   4.012   0.796   9.191  0.2709  0.2724 -0.0338
 1268SOL    HW115263   3.943   0.858   9.217 -0.0613 -0.0925 -0.0501
 1268SOL    HW215264   3.959   0.717   9.201  1.6057 -0.7213 -1.0348
 1269SOL     OW15265   3.685   1.393   2.250 -0.1250 -0.2452  0.0322
 1269SOL    HW115266   3.731   1.314   2.277  0.3533  0.7701  2.1559
 1269SOL    HW215267   3.694   1.403   2.155  1.4974  2.5351  0.4793
 1270SOL     OW15268   1.119   4.163   1.509 -0.1413 -0.6315 -0.6022
 1270SOL    HW115269   1.186   4.154   1.441  0.8327  1.8689  0.0467
 1270SOL    HW215270   1.041   4.202   1.470  0.3901  0.4509 -0.5676
 1271SOL     OW15271   2.413   1.249   5.487  0.1627  0.0459 -0.3061
 1271SOL    HW115272   2.423   1.344   5.498 -0.6197 -0.0755  1.5487
 1271SOL    HW215273   2.393   1.256   5.394  0.2108 -1.3993 -0.4255
 1272SOL     OW15274   0.436   2.069  17.445  0.5640  0.0609 -0.2795
 1272SOL    HW115275   0.516   2.017  17.438  0.5303 -0.4088  2.8809
 1272SOL    HW215276   0.398   2.042  17.361  0.5586 -4.0281  1.0443
 1273SOL     OW15277   3.589   1.147   3.992 -0.2194 -0.8060  0.4817
 1273SOL    HW115278   3.607   1.054   4.009 -0.7760 -0.8586  0.7959
 1273SOL    HW215279   3.605   1.169   3.901 -0.1402 -0.2734  0.6212
 1274SOL     OW15280   1.507   0.701  14.059 -0.4835  0.0369  0.5761
 1274SOL    HW115281   1.514   0.685  13.965  0.1964 -0.8668  0.7725
 1274SOL    HW215282   1.582   0.647  14.085 -0.4136  0.2248  0.7627
 1275SOL     OW15283   2.951   1.193   3.510  0.0044  0.0550 -0.0487
 1275SOL    HW115284   2.961   1.174   3.417  0.7260 -1.3093  0.3019
 1275SOL    HW215285   3.015   1.129   3.542  1.9546  2.2324  0.3746
 1276SOL     OW15286   0.235   3.591   4.445 -0.1405  0.6987 -0.0613
 1276SOL    HW115287   0.210   3.600   4.537 -1.1194  0.8476 -0.3393
 1276SOL    HW215288   0.153   3.556   4.410 -0.2059  0.6334  0.1583
 1277SOL     OW15289   2.831   4.389   2.121 -0.3983 -0.6647 -0.3224
 1277SOL    HW115290   2.885   4.312   2.137  2.2184  1.1727 -0.3913
 1277SOL    HW215291   2.881   4.445   2.062 -0.1095  1.8163  2.2385
 1278SOL     OW15292   1.314   2.400   2.486 -0.0468  0.4017 -0.2662
 1278SOL    HW115293   1.272   2.424   2.403  0.6036  0.7550 -0.4985
 1278SOL    HW215294   1.407   2.397   2.463 -0.0449 -0.5371 -0.1483
 1279SOL     OW15295   4.572   1.927  10.915  0.8572 -0.5035 -0.5111
 1279SOL    HW115296   4.507   1.997  10.907 -2.6490 -4.0566 -2.8359
 1279SOL    HW215297   4.525   1.860  10.866  0.6056 -0.2816 -0.5726
 1280SOL     OW15298   4.238   2.442   4.784  0.1123  0.3785 -0.0445
 1280SOL    HW115299   4.276   2.434   4.697 -0.0151 -0.0410 -0.0612
 1280SOL    HW215300   4.285   2.369   4.824  1.9731  1.2579 -0.6161
 1281SOL     OW15301   1.446   4.172  14.691 -0.0229 -0.0805  0.3632
 1281SOL    HW115302   1.428   4.078  14.694 -1.4700  0.2499  1.8375
 1281SOL    HW215303   1.512   4.168  14.622  1.1465 -0.3573  1.5057
 1282SOL     OW15304   0.221   1.474   3.925  0.4591 -0.2343  0.1501
 1282SOL    HW115305   0.288   1.454   3.991  0.1453  1.5211  0.9931
 1282SOL    HW215306   0.241   1.411   3.855 -0.8823 -0.7185  0.2066
 1283SOL     OW15307   3.438   3.817   8.067  0.5080  0.1425 -0.8035
 1283SOL    HW115308   3.428   3.755   7.995 -1.1183 -0.2822 -0.2095
 1283SOL    HW215309   3.377   3.886   8.042 -0.8543 -0.7974 -0.0511
 1284SOL     OW15310   1.648   1.435   0.121 -0.0208  0.5599 -0.0551
 1284SOL    HW115311   1.624   1.519   0.081 -0.3661  0.4068 -0.1706
 1284SOL    HW215312   1.679   1.461   0.208 -2.6419  0.4502  0.9104
 1285SOL     OW15313   0.897   1.823   0.880  0.0427 -0.7548  0.2867
 1285SOL    HW115314   0.949   1.757   0.927  0.1243 -0.2484  0.9141
 1285SOL    HW215315   0.874   1.888   0.946  1.0159 -0.5370  0.4224
 1286SOL     OW15316   1.015   0.030   3.234  0.0718  0.0977  0.7047
 1286SOL    HW115317   0.971   0.109   3.201  0.2013  0.1932  0.7582
 1286SOL    HW215318   0.938   4.714   3.275  0.3161 -0.9658  0.1515
 1287SOL     OW15319   1.169   0.619   9.389  0.0921 -0.2234  0.3839
 1287SOL    HW115320   1.089   0.665   9.416  0.5948  0.6614  0.3547
 1287SOL    HW215321   1.135   0.532   9.371 -1.1411  1.0210 -3.1973
 1288SOL     OW15322   1.327   1.554  11.276 -0.1903  0.0763 -0.8797
 1288SOL    HW115323   1.393   1.541  11.207 -0.1159 -4.4524  0.0679
 1288SOL    HW215324   1.331   1.472  11.326 -1.9807  0.2297 -0.5039
 1289SOL     OW15325   3.895   2.993  12.755  0.1598 -0.2925  0.5579
 1289SOL    HW115326   3.858   2.949  12.679 -1.7708 -0.8421  1.8176
 1289SOL    HW215327   3.913   2.917  12.812 -0.1323  1.0842  2.4808
 1290SOL     OW15328   3.947   4.056  16.564  0.2911  0.1068  0.5019
 1290SOL    HW115329   3.952   3.979  16.507  2.2464  1.4688 -1.1712
 1290SOL    HW215330   3.892   4.110  16.507  1.9303  0.8739 -0.3542
 1291SOL     OW15331   1.231   2.276   5.690  0.4852  0.6009  0.0430
 1291SOL    HW115332   1.299   2.212   5.712 -0.0656  0.2749  0.8402
 1291SOL    HW215333   1.156   2.240   5.738 -0.8858  3.1527 -0.1941
 1292SOL     OW15334   3.310   4.421   5.223  0.5105  0.0235 -0.3730
 1292SOL    HW115335   3.272   4.480   5.287 -0.4423 -0.6633 -0.2978
 1292SOL    HW215336   3.266   4.435   5.139  1.4914  2.1826 -0.5193
 1293SOL     OW15337   1.095   1.221  15.053 -0.1889 -0.2064  0.2504
 1293SOL    HW115338   1.116   1.134  15.020 -1.2731 -1.4400  2.8458
 1293SOL    HW215339   1.185   1.253  15.057 -0.2167 -0.3205  1.6960
 1294SOL     OW15340   3.459   4.332  15.177  0.3060  0.1520  0.1423
 1294SOL    HW115341   3.504   4.248  15.173 -0.9150 -0.5456  0.8108
 1294SOL    HW215342   3.526   4.399  15.180  1.2620 -0.8829  2.0097
 1295SOL     OW15343   3.939   1.031   3.379  0.4612  0.4116  0.0575
 1295SOL    HW115344   4.007   0.990   3.325  0.4604 -0.1379  0.4823
 1295SOL    HW215345   3.886   1.066   3.308 -2.5443  1.7710  3.0052
 1296SOL     OW15346   2.921   2.758  14.243  0.0502 -0.1433 -0.1072
 1296SOL    HW115347   2.913   2.814  14.166 -1.3564 -0.5773 -0.2674
 1296SOL    HW215348   2.982   2.808  14.297 -2.1406  1.4117  0.9079
 1297SOL     OW15349   0.236   0.091  10.067  0.3865 -0.0797  0.4364
 1297SOL    HW115350   0.316   0.125  10.107  0.4647  1.5037 -1.0372
 1297SOL    HW215351   0.252   4.720  10.051  0.5137  0.0551 -0.2456
 1298SOL     OW15352   2.110   0.856   1.100  0.2009 -0.0473 -0.3614
 1298SOL    HW115353   2.113   0.766   1.131 -1.4475  0.0505  0.0815
 1298SOL    HW215354   2.028   0.886   1.137 -0.5951 -1.8151 -0.7082
 1299SOL     OW15355   2.396   3.110   7.955 -0.4383 -0.2364  0.1472
 1299SOL    HW115356   2.305   3.091   7.980 -0.8402  2.5703  0.7678
 1299SOL    HW215357   2.441   3.041   8.004  0.3292  0.5183  0.4846
 1300SOL     OW15358   1.266   3.420  13.290 -0.3685 -0.6390 -0.2747
 1300SOL    HW115359   1.183   3.453  13.323  0.2689 -0.4253  1.1249
 1300SOL    HW215360   1.314   3.450  13.367  0.8399  2.0185 -2.0460
 1301SOL     OW15361   2.235   2.642  10.781  0.1071  0.1210 -0.0755
 1301SOL    HW115362   2.219   2.556  10.821 -0.0453 -0.3793 -1.2184
 1301SOL    HW215363   2.196   2.694  10.851 -0.5576 -0.2245 -0.1953
 1302SOL     OW15364   2.544   1.045   2.737  0.3305 -0.2734 -0.4510
 1302SOL    HW115365   2.639   1.047   2.738  0.3374 -1.0631  1.9392
 1302SOL    HW215366   2.525   1.134   2.707  1.0145  0.3066  0.8161
 1303SOL     OW15367   3.668   4.411  17.562 -0.4907  0.3971 -0.0412
 1303SOL    HW115368   3.681   4.400  17.656  0.3453  1.3111 -0.0449
 1303SOL    HW215369   3.661   4.321  17.530  1.2161  0.6314 -1.1108
 1304SOL     OW15370   0.402   4.048   5.418 -0.3185 -0.2590  0.0949
 1304SOL    HW115371   0.356   4.033   5.335 -0.5677 -3.6892  0.8621
 1304SOL    HW215372   0.395   4.144   5.419  0.3843 -0.2036  0.1540
 1305SOL     OW15373   0.112   0.723  15.895 -0.3319 -0.1786  0.4075
 1305SOL    HW115374   0.109   0.769  15.811 -0.3925 -1.3251 -0.2060
 1305SOL    HW215375   0.092   0.790  15.961 -0.6085 -0.3386  0.4872
 1306SOL     OW15376   2.189   2.176   5.443 -1.1025 -0.5051  0.2590
 1306SOL    HW115377   2.228   2.243   5.386 -1.1656 -0.4144  0.3224
 1306SOL    HW215378   2.257   2.110   5.455 -1.1833 -0.8004 -0.9061
 1307SOL     OW15379   2.014   1.772  11.845  0.2548  0.3907  0.1560
 1307SOL    HW115380   2.091   1.715  11.850 -1.2171 -1.6722 -0.8066
 1307SOL    HW215381   1.943   1.709  11.857  0.8700 -0.0212  1.6209
 1308SOL     OW15382   0.052   3.146   3.164  0.5290  0.1337  0.4477
 1308SOL    HW115383   4.712   3.132   3.234  0.8107  0.8831  0.8457
 1308SOL    HW215384   0.035   3.237   3.142 -1.4467 -0.5694 -0.9243
 1309SOL     OW15385   3.994   3.552   3.258  0.1288 -0.2630 -0.4257
 1309SOL    HW115386   3.935   3.549   3.183  0.1997 -0.1941 -0.4845
 1309SOL    HW215387   3.926   3.572   3.322 -0.4630 -0.3625 -1.0221
 1310SOL     OW15388   4.250   1.641   7.257  0.1997 -0.3082 -0.0120
 1310SOL    HW115389   4.223   1.550   7.266 -0.7323 -0.0410 -0.0407
 1310SOL    HW215390   4.184   1.669   7.193  1.7712 -1.3756 -2.1048
 1311SOL     OW15391   0.511   3.906   0.809  0.1445 -0.7324 -0.5620
 1311SOL    HW115392   0.440   3.967   0.787  0.0319 -0.6185  0.1413
 1311SOL    HW215393   0.581   3.950   0.761 -1.2738  0.6555 -1.3625
 1312SOL     OW15394   3.614   4.029   7.818 -0.2987 -0.4120  0.1627
 1312SOL    HW115395   3.700   4.040   7.779 -0.9698  1.9097 -0.6643
 1312SOL    HW215396   3.596   3.935   7.826  1.5312 -0.8016 -0.4751
 1313SOL     OW15397   2.334   3.379   3.792  0.0597  0.2033 -0.5541
 1313SOL    HW115398   2.276   3.315   3.751  1.1784 -0.9622 -0.3441
 1313SOL    HW215399   2.282   3.455   3.816  0.9472  1.5719 -3.0243
 1314SOL     OW15400   3.355   2.252   2.861 -0.2631  0.2864  0.0469
 1314SOL    HW115401   3.386   2.188   2.797 -3.6522  0.2662 -1.5858
 1314SOL    HW215402   3.383   2.235   2.951  0.4587  1.0095 -0.0340
 1315SOL     OW15403   3.775   0.505   1.623 -0.2377  0.1064  0.8489
 1315SOL    HW115404   3.849   0.524   1.566  0.2828  0.5737  1.6753
 1315SOL    HW215405   3.739   0.594   1.626 -0.7597 -0.0540 -0.6654
 1316SOL     OW15406   0.677   1.446   8.984  0.2851 -0.0528  0.4869
 1316SOL    HW115407   0.667   1.470   9.076 -0.5858 -1.0438  0.6512
 1316SOL    HW215408   0.586   1.446   8.953  0.9319 -1.9258 -1.4596
 1317SOL     OW15409   2.797   0.384  15.152  0.6340 -0.3627 -0.0605
 1317SOL    HW115410   2.768   0.314  15.093 -1.2773  0.7092 -0.3926
 1317SOL    HW215411   2.853   0.431  15.090  2.0785  1.2641  2.4808
 1318SOL     OW15412   1.485   1.402   8.506  0.1210  0.1161  0.1611
 1318SOL    HW115413   1.543   1.334   8.540  0.4046  0.6923  0.8315
 1318SOL    HW215414   1.406   1.379   8.556 -0.2649 -1.4457 -1.1828
 1319SOL     OW15415   0.606   4.546  16.708  0.4524  0.3441 -0.0954
 1319SOL    HW115416   0.568   4.491  16.640 -0.7697 -0.0957  0.9311
 1319SOL    HW215417   0.623   4.483  16.778  1.4833  1.8185  0.9653
 1320SOL     OW15418   2.415   0.905   5.832  0.2517  0.1671 -0.5407
 1320SOL    HW115419   2.376   0.832   5.785 -0.4073  0.5554 -0.5954
 1320SOL    HW215420   2.342   0.928   5.889 -1.6848 -1.4393 -2.4093
 1321SOL     OW15421   2.031   2.695   1.464  0.1806 -0.1631  0.0039
 1321SOL    HW115422   2.030   2.607   1.428  0.7347 -1.0421  2.1312
 1321SOL    HW215423   2.120   2.723   1.443  0.0779  0.8335  0.8799
 1322SOL     OW15424   0.887   2.499  14.807 -0.4433  0.8074  0.2890
 1322SOL    HW115425   0.971   2.509  14.761 -0.2653 -0.0777  0.4318
 1322SOL    HW215426   0.901   2.562  14.877 -0.6619  0.2505  0.8277
 1323SOL     OW15427   3.289   3.006  16.448 -0.1828  0.0132  1.1316
 1323SOL    HW115428   3.274   3.096  16.477 -1.2668 -0.1712  1.1455
 1323SOL    HW215429   3.351   3.034  16.380 -0.2435  1.4397  1.6662
 1324SOL     OW15430   0.311   4.394   8.367  0.6236 -0.2650  0.4917
 1324SOL    HW115431   0.310   4.315   8.312  0.0680 -1.0092  1.5913
 1324SOL    HW215432   0.324   4.369   8.458  2.9700 -1.3428 -0.1349
 1325SOL     OW15433   2.203   2.360   6.485  0.0528  0.3374 -0.3155
 1325SOL    HW115434   2.108   2.373   6.493 -0.0153 -0.6235  0.5189
 1325SOL    HW215435   2.205   2.293   6.554 -1.6439  1.0226  0.4208
 1326SOL     OW15436   3.830   4.417  15.404 -0.4374 -0.2418  0.2179
 1326SOL    HW115437   3.794   4.473  15.472 -1.4826 -0.8913  0.1909
 1326SOL    HW215438   3.787   4.459  15.330  0.2219 -0.7646 -0.4746
 1327SOL     OW15439   0.347   2.420  13.413 -0.0189 -0.1193 -0.4241
 1327SOL    HW115440   0.419   2.387  13.468 -0.1617 -1.4001 -1.0091
 1327SOL    HW215441   0.317   2.494  13.465  1.1133  1.8821 -2.5991
 1328SOL     OW15442   1.362   0.219   8.251 -0.0247  0.5775 -1.0661
 1328SOL    HW115443   1.266   0.222   8.253 -0.0108 -0.3068  1.5405
 1328SOL    HW215444   1.374   0.162   8.327  1.5768  2.3378 -0.0284
 1329SOL     OW15445   1.766   0.843   7.349 -0.3296  0.0854 -0.0936
 1329SOL    HW115446   1.808   0.809   7.270  0.9732  0.9361  0.2387
 1329SOL    HW215447   1.829   0.902   7.390 -0.4083  0.9657 -1.2423
 1330SOL     OW15448   1.430   0.016  16.454  0.4220  0.3707 -0.1452
 1330SOL    HW115449   1.392   4.651  16.442  2.3205 -0.7372  1.7113
 1330SOL    HW215450   1.515   4.721  16.496  0.8047  1.4620 -0.4843
 1331SOL     OW15451   1.664   2.036   2.935 -0.1646 -0.2445  0.0180
 1331SOL    HW115452   1.613   2.058   2.857  1.7779  2.2119 -0.5536
 1331SOL    HW215453   1.744   2.086   2.918 -1.5209  1.0220 -2.5661
 1332SOL     OW15454   3.925   4.289   0.162  0.1671  0.1597  0.1886
 1332SOL    HW115455   3.946   4.240   0.242 -3.3647  2.2756  2.3523
 1332SOL    HW215456   3.896   4.221   0.101  0.2917 -0.8213  1.2144
 1333SOL     OW15457   0.239   2.520  15.050 -0.1582 -0.4408  0.6675
 1333SOL    HW115458   0.307   2.525  15.117  1.8395  2.1917 -1.5277
 1333SOL    HW215459   0.291   2.532  14.970 -2.9890  0.3632 -1.0479
 1334SOL     OW15460   3.789   0.839  11.233 -0.4999 -0.2527  0.1652
 1334SOL    HW115461   3.727   0.817  11.302  2.1483  1.1154  2.9504
 1334SOL    HW215462   3.828   0.752  11.221  1.6083  0.4566  1.8720
 1335SOL     OW15463   1.527   2.990   6.975 -0.7828 -0.2987 -0.1794
 1335SOL    HW115464   1.584   2.934   6.921  0.7854  0.8415  0.2989
 1335SOL    HW215465   1.450   3.001   6.918 -0.1803  0.8636 -0.7588
 1336SOL     OW15466   2.025   3.064   9.214 -0.3104  0.2545  0.4934
 1336SOL    HW115467   2.053   3.077   9.304  0.8424  1.4480 -0.0243
 1336SOL    HW215468   1.930   3.057   9.223 -0.6002  0.7602 -2.0778
 1337SOL     OW15469   3.839   1.078  12.936  0.1822  0.0156  0.2798
 1337SOL    HW115470   3.775   1.144  12.964  2.2543  1.1391  2.3695
 1337SOL    HW215471   3.849   1.096  12.843 -1.0432 -0.5769  0.0387
 1338SOL     OW15472   0.476   3.256  12.329  0.0999  0.1702  0.1070
 1338SOL    HW115473   0.469   3.173  12.377 -1.9132 -0.6694 -1.6237
 1338SOL    HW215474   0.533   3.302  12.391  0.2908 -0.3485  0.3172
 1339SOL     OW15475   4.227   3.012  17.157  0.4874  0.3790 -0.5033
 1339SOL    HW115476   4.319   3.005  17.129  0.4462 -0.9755 -0.3001
 1339SOL    HW215477   4.198   3.082  17.099 -1.4385  1.3613  1.6608
 1340SOL     OW15478   2.723   3.588   5.656 -0.1295 -0.2832 -0.6859
 1340SOL    HW115479   2.772   3.591   5.738 -1.8169  1.2787  0.2627
 1340SOL    HW215480   2.667   3.663   5.677 -1.4041 -2.0195  2.1496
 1341SOL     OW15481   0.519   1.738   3.954  0.1248 -0.3708  0.0669
 1341SOL    HW115482   0.474   1.681   3.893  2.0656  2.1087 -3.7222
 1341SOL    HW215483   0.456   1.741   4.026  0.1969  1.8702  0.0349
 1342SOL     OW15484   4.215   0.499   2.112  0.4121  0.5473  0.0957
 1342SOL    HW115485   4.240   0.555   2.038 -0.2988  3.1204  1.7826
 1342SOL    HW215486   4.228   0.411   2.077 -1.3079 -0.2907  1.5475
 1343SOL     OW15487   3.806   3.120   8.593  0.1563  0.1549 -0.0611
 1343SOL    HW115488   3.862   3.197   8.606  1.8870 -0.7248 -2.3306
 1343SOL    HW215489   3.725   3.161   8.562  0.3029  1.1660  0.8987
 1344SOL     OW15490   1.509   3.281   7.411  0.1856  0.4643  0.3826
 1344SOL    HW115491   1.441   3.348   7.417  0.5275  0.5553  3.3775
 1344SOL    HW215492   1.501   3.264   7.317  0.0269 -1.7616  0.7981
 1345SOL     OW15493   1.366   3.533  17.045 -0.9467  0.0921  0.1179
 1345SOL    HW115494   1.356   3.463  16.980 -3.5877 -1.5907  2.3127
 1345SOL    HW215495   1.285   3.581  17.030 -2.2915 -2.5895 -1.2565
 1346SOL     OW15496   0.530   1.268  17.581 -0.3842 -0.4438 -0.0280
 1346SOL    HW115497   0.580   1.195  17.546 -1.3850 -0.0017 -2.3454
 1346SOL    HW215498   0.596   1.336  17.597 -1.2436 -0.3098  3.0578
 1347SOL     OW15499   3.343   0.674  10.985  0.1753 -0.5993  0.3617
 1347SOL    HW115500   3.270   0.681  11.047 -0.2772 -0.8509 -0.1418
 1347SOL    HW215501   3.313   0.599  10.934  0.1925 -0.4200  0.0863
 1348SOL     OW15502   0.477   2.388   9.793 -0.3121 -0.4116 -0.1506
 1348SOL    HW115503   0.434   2.430   9.867  1.7332  1.4205  0.0142
 1348SOL    HW215504   0.536   2.322   9.828  1.2515  0.4329 -1.1658
 1349SOL     OW15505   0.628   4.607   2.317 -0.4747 -0.3807  0.1363
 1349SOL    HW115506   0.713   4.641   2.290  1.4450 -3.2262  2.6737
 1349SOL    HW215507   0.574   4.614   2.238 -0.0371  0.0554 -0.1258
 1350SOL     OW15508   1.371   3.688   7.782 -0.4241 -0.3828  0.6089
 1350SOL    HW115509   1.442   3.656   7.837 -0.2027  2.5517  2.0464
 1350SOL    HW215510   1.306   3.703   7.852  0.9177 -0.8375  1.9532
 1351SOL     OW15511   0.664   4.677   7.562 -0.0434 -0.5618  0.5518
 1351SOL    HW115512   0.660   4.658   7.656  0.4372  2.1661  1.1295
 1351SOL    HW215513   0.670   0.050   7.569 -0.6640 -0.4397 -0.6249
 1352SOL     OW15514   0.500   2.976   1.987  0.3349  1.1736 -0.1724
 1352SOL    HW115515   0.415   2.933   1.999 -0.1377  1.7801 -1.3329
 1352SOL    HW215516   0.531   2.928   1.911 -1.8244  0.9680 -0.9249
 1353SOL     OW15517   2.074   2.282   6.995  0.1140  0.2137 -0.3254
 1353SOL    HW115518   2.032   2.281   7.081 -0.0051  0.8753 -0.3762
 1353SOL    HW215519   2.055   2.192   6.971 -0.3763  0.6961 -1.7659
 1354SOL     OW15520   2.327   4.283  11.014 -0.1273 -0.4651  0.1534
 1354SOL    HW115521   2.419   4.277  11.038 -0.2309 -1.3985  0.3047
 1354SOL    HW215522   2.330   4.259  10.922  0.8130  0.4404 -0.0512
 1355SOL     OW15523   4.322   3.655   0.541 -0.7052 -0.5483  0.4109
 1355SOL    HW115524   4.376   3.635   0.464 -0.8148 -1.8581  0.6728
 1355SOL    HW215525   4.256   3.711   0.501  0.2995  0.3620  0.0079
 1356SOL     OW15526   4.607   3.136   2.699 -0.3281  0.5214  0.1239
 1356SOL    HW115527   4.610   3.170   2.789  0.8716  3.3028 -1.0004
 1356SOL    HW215528   4.516   3.105   2.701 -0.4606  0.9222  0.2885
 1357SOL     OW15529   2.561   1.085  12.551  0.0079  0.3193 -0.1255
 1357SOL    HW115530   2.486   1.095  12.492 -0.4692  1.0707  0.6139
 1357SOL    HW215531   2.625   1.130  12.496  1.7648  0.1947  1.8456
 1358SOL     OW15532   1.140   3.679   6.516 -0.2428 -0.1863 -0.0781
 1358SOL    HW115533   1.118   3.611   6.579 -0.6006  0.9347  1.0039
 1358SOL    HW215534   1.058   3.727   6.503  0.1868  0.2714 -1.0567
 1359SOL     OW15535   4.610   1.808  15.862  0.0608  0.6023 -1.1468
 1359SOL    HW115536   4.592   1.721  15.827 -0.3954 -0.7810  2.5168
 1359SOL    HW215537   4.563   1.866  15.802  0.2884  1.6158 -0.3634
 1360SOL     OW15538   2.920   4.452  13.845 -0.5385 -0.1521 -0.3439
 1360SOL    HW115539   2.990   4.388  13.840  0.2463  0.6460  0.3988
 1360SOL    HW215540   2.895   4.457  13.937 -1.0591  0.5978 -0.5291
 1361SOL     OW15541   0.459   2.267   6.445  0.3162 -0.2091  0.3043
 1361SOL    HW115542   0.410   2.276   6.363 -1.4789  0.0266  1.3951
 1361SOL    HW215543   0.394   2.294   6.510  0.0523  0.5350 -0.2668
 1362SOL     OW15544   1.113   4.274   7.749 -0.2106  0.6519  0.3381
 1362SOL    HW115545   1.050   4.327   7.699 -1.6194 -1.0034  0.3388
 1362SOL    HW215546   1.176   4.342   7.773 -1.3789  1.7057  0.4484
 1363SOL     OW15547   4.094   2.768   5.970 -0.4203 -0.5293  0.0918
 1363SOL    HW115548   4.011   2.798   5.933  1.3427  1.6048 -2.1724
 1363SOL    HW215549   4.074   2.675   5.981  0.0375 -0.8811 -2.0960
 1364SOL     OW15550   3.450   4.287   3.365 -0.0210  0.3542 -0.1022
 1364SOL    HW115551   3.391   4.311   3.437 -0.5645 -2.3466  0.3671
 1364SOL    HW215552   3.529   4.264   3.414 -0.3957 -0.2437  0.2324
 1365SOL     OW15553   4.445   1.638   2.250  0.0804 -0.2306  0.0698
 1365SOL    HW115554   4.453   1.584   2.171  0.3659 -0.1838  0.0700
 1365SOL    HW215555   4.511   1.706   2.240  0.6695 -0.9976 -1.2925
 1366SOL     OW15556   3.231   1.049   8.964 -0.1589  0.0203  0.1253
 1366SOL    HW115557   3.244   1.083   9.053 -0.2326 -0.9532  0.5139
 1366SOL    HW215558   3.270   1.118   8.911 -0.1493 -0.6272 -0.7022
 1367SOL     OW15559   3.843   3.465   1.999  0.1887  0.3492 -0.3711
 1367SOL    HW115560   3.754   3.473   2.034 -0.6668  0.2659 -2.5848
 1367SOL    HW215561   3.888   3.438   2.080  0.1178 -0.3286 -0.5607
 1368SOL     OW15562   4.166   2.548   2.711  0.5741  0.8632  0.1445
 1368SOL    HW115563   4.179   2.617   2.776  0.4439  0.0361  1.0530
 1368SOL    HW215564   4.121   2.598   2.644  0.4155  0.2225 -0.2256
 1369SOL     OW15565   3.669   1.892   9.074  0.6877 -0.2018  0.0824
 1369SOL    HW115566   3.669   1.831   9.148 -1.4188 -0.1981  0.0968
 1369SOL    HW215567   3.723   1.831   9.024 -1.4065 -0.9139 -1.3363
 1370SOL     OW15568   4.372   2.394   4.555  0.5744 -0.3137 -0.3918
 1370SOL    HW115569   4.463   2.382   4.584  0.6225  1.4675  0.1678
 1370SOL    HW215570   4.365   2.315   4.502  0.4803 -0.3678 -0.2980
 1371SOL     OW15571   0.073   0.994   9.883 -0.8313  0.7856  0.3524
 1371SOL    HW115572   0.052   0.902   9.874 -1.1099  0.8719  0.1142
 1371SOL    HW215573   0.056   1.024   9.793  0.8951 -1.3694 -0.6956
 1372SOL     OW15574   2.204   1.675   5.043 -0.4921  0.0261 -0.2296
 1372SOL    HW115575   2.215   1.766   5.015  1.7752 -0.6278 -1.4303
 1372SOL    HW215576   2.226   1.689   5.135 -1.0120  1.9817 -0.3916
 1373SOL     OW15577   1.088   0.523   7.800 -0.2686 -0.0311  0.3684
 1373SOL    HW115578   1.182   0.504   7.800 -0.8134 -2.6464  0.4568
 1373SOL    HW215579   1.066   0.494   7.711  2.1230  1.7387 -0.8085
 1374SOL     OW15580   2.500   3.790   4.929  0.2090  0.2414  0.0514
 1374SOL    HW115581   2.503   3.849   4.854 -1.3634  1.8830  1.2801
 1374SOL    HW215582   2.548   3.854   4.981  0.2328 -2.0140  2.8338
 1375SOL     OW15583   3.746   3.881   5.746 -0.0230 -0.4323  0.8299
 1375SOL    HW115584   3.759   3.928   5.828 -0.4809  0.9846  0.0865
 1375SOL    HW215585   3.756   3.794   5.784  1.4844  0.1812  1.8121
 1376SOL     OW15586   3.296   1.273  13.516 -0.4184  0.8254  0.0142
 1376SOL    HW115587   3.275   1.224  13.436  0.3185 -2.5246  1.8799
 1376SOL    HW215588   3.249   1.221  13.581  0.2706  2.0244  1.4615
 1377SOL     OW15589   0.688   4.523  11.836  0.5306  0.2185 -0.3170
 1377SOL    HW115590   0.673   4.551  11.746 -0.2603  0.9391  0.0371
 1377SOL    HW215591   0.733   4.439  11.824  1.5832  0.8145 -0.5613
 1378SOL     OW15592   0.768   3.257   9.919  0.3337 -0.2036 -0.0433
 1378SOL    HW115593   0.792   3.228   9.830  1.8608  1.5458 -0.1901
 1378SOL    HW215594   0.755   3.350   9.901  2.8465  0.1636  0.0770
 1379SOL     OW15595   2.047   1.756  13.097  0.0740  0.1973  0.3659
 1379SOL    HW115596   2.087   1.810  13.029 -0.0583 -1.3880 -0.9909
 1379SOL    HW215597   2.021   1.827  13.156 -1.7119 -2.8389  3.1876
 1380SOL     OW15598   3.027   3.067  16.292  0.5399  0.0721  0.3361
 1380SOL    HW115599   3.084   3.005  16.246 -0.4297  1.0390 -2.2021
 1380SOL    HW215600   2.979   3.109  16.220  0.2081 -1.4096 -0.3097
 1381SOL     OW15601   2.974   2.683   3.118  0.6857  0.2037 -0.2462
 1381SOL    HW115602   2.925   2.622   3.063 -1.0713  1.3212  0.0836
 1381SOL    HW215603   3.065   2.652   3.113  0.3769 -1.0030  1.7168
 1382SOL     OW15604   4.415   3.444   5.546  0.0333 -0.3085 -0.2455
 1382SOL    HW115605   4.492   3.420   5.496  0.3260 -0.7780  0.4306
 1382SOL    HW215606   4.394   3.533   5.518 -1.1529 -0.0340  1.4845
 1383SOL     OW15607   2.110   3.654   6.216 -0.0639 -0.5561  0.2690
 1383SOL    HW115608   2.179   3.588   6.211  1.8498  1.4735  0.0335
 1383SOL    HW215609   2.099   3.670   6.310 -1.4991  1.3149 -0.1936
 1384SOL     OW15610   1.623   3.438  14.745  0.1011 -0.0136  0.0601
 1384SOL    HW115611   1.572   3.365  14.780  1.6620 -1.4693 -0.6755
 1384SOL    HW215612   1.712   3.404  14.735 -0.1086 -0.1819 -1.2313
 1385SOL     OW15613   2.637   2.064   2.969  0.1645  0.2395 -0.0964
 1385SOL    HW115614   2.615   1.997   3.035 -0.7042 -1.1563 -1.7788
 1385SOL    HW215615   2.589   2.035   2.891  0.3247  1.1989 -0.5446
 1386SOL     OW15616   2.237   1.618  11.857  0.6131  0.7048 -0.5151
 1386SOL    HW115617   2.309   1.680  11.864  0.5932  0.8252 -1.3602
 1386SOL    HW215618   2.258   1.575  11.774  1.9333  0.6622 -0.1705
 1387SOL     OW15619   0.914   2.082   1.953  0.2125 -0.1055  0.4587
 1387SOL    HW115620   0.820   2.072   1.969  0.4282 -1.5903  0.7640
 1387SOL    HW215621   0.927   2.002   1.902  0.8829  0.4492 -0.2409
 1388SOL     OW15622   2.512   2.362   5.561 -0.3804  0.4612 -0.6350
 1388SOL    HW115623   2.476   2.435   5.611  2.4877  0.9267  0.8031
 1388SOL    HW215624   2.487   2.288   5.617  1.9024  0.5363  0.5068
 1389SOL     OW15625   1.261   3.732  12.547 -0.2185  0.2138 -0.3989
 1389SOL    HW115626   1.348   3.741  12.583 -0.1730 -0.4550 -0.3378
 1389SOL    HW215627   1.228   3.663  12.605 -1.9845  1.1554 -0.2612
 1390SOL     OW15628   3.674   2.500   8.034 -0.0965  0.2633 -0.3172
 1390SOL    HW115629   3.750   2.529   7.984  0.0964 -0.2837 -0.3412
 1390SOL    HW215630   3.699   2.510   8.126  1.6227 -1.1499 -0.6380
 1391SOL     OW15631   2.168   0.848   2.005  0.2258  0.0293  0.2170
 1391SOL    HW115632   2.246   0.865   1.952  0.6529  1.0953  1.1846
 1391SOL    HW215633   2.107   0.801   1.948 -1.0601  1.3948  0.4909
 1392SOL     OW15634   3.812   3.059   0.657 -0.3431  0.4203 -0.4113
 1392SOL    HW115635   3.757   3.112   0.600  1.0951 -0.3666 -2.5133
 1392SOL    HW215636   3.890   3.111   0.674 -0.9599  0.3856  2.5725
 1393SOL     OW15637   2.774   0.198   5.853 -0.4159 -0.2309  0.2351
 1393SOL    HW115638   2.785   0.280   5.901  1.5401 -0.1303 -0.3859
 1393SOL    HW215639   2.729   0.155   5.925 -1.4418 -1.2719 -1.0267
 1394SOL     OW15640   0.503   0.606   9.379  0.3585 -0.6719 -0.2760
 1394SOL    HW115641   0.546   0.673   9.326 -1.3561 -0.5633 -1.5136
 1394SOL    HW215642   0.575   0.600   9.442 -0.0893 -1.6985  0.1364
 1395SOL     OW15643   4.093   3.345   6.589  0.0733 -0.1321 -0.5643
 1395SOL    HW115644   4.014   3.383   6.628 -0.0560 -0.9537 -0.0143
 1395SOL    HW215645   4.130   3.415   6.536 -1.5614  0.2211 -1.2456
 1396SOL     OW15646   0.350   4.009   5.039 -0.7371  0.2462  0.1685
 1396SOL    HW115647   0.261   4.015   5.075 -1.1912 -1.4413 -0.6404
 1396SOL    HW215648   0.332   3.933   4.983 -1.3864  0.4086  0.1624
 1397SOL     OW15649   4.206   1.241   9.747  0.8101  0.1540  0.0899
 1397SOL    HW115650   4.241   1.197   9.824  2.1350  1.0321 -0.0017
 1397SOL    HW215651   4.112   1.235   9.765  0.7716 -1.9735 -0.8399
 1398SOL     OW15652   4.593   3.502  15.210 -0.3958  0.0274 -0.1766
 1398SOL    HW115653   4.536   3.425  15.198  0.2925 -0.6645  0.9706
 1398SOL    HW215654   4.596   3.508  15.306 -0.7482  0.6749 -0.2090
 1399SOL     OW15655   3.439   4.160   1.928  0.6263  0.3262  0.0412
 1399SOL    HW115656   3.473   4.128   2.011  1.0704  0.5303 -0.0663
 1399SOL    HW215657   3.511   4.209   1.889 -0.1854  0.3202 -1.4728
 1400SOL     OW15658   2.751   2.261   0.908 -0.7177 -0.4172 -0.4544
 1400SOL    HW115659   2.699   2.329   0.865  1.2429  0.4952 -1.3913
 1400SOL    HW215660   2.790   2.306   0.983 -2.1886  1.2705 -0.6982
 1401SOL     OW15661   0.442   1.496   1.693  0.1502 -0.1675  0.4811
 1401SOL    HW115662   0.402   1.567   1.742  0.6182  0.6960 -0.3969
 1401SOL    HW215663   0.379   1.494   1.622 -0.9207 -0.1578  1.4409
 1402SOL     OW15664   3.936   0.484   7.423  0.1116  0.4535 -0.0354
 1402SOL    HW115665   3.979   0.564   7.454 -1.2922  1.4561 -0.6950
 1402SOL    HW215666   4.015   0.431   7.408 -1.3705 -1.8938  0.3833
 1403SOL     OW15667   0.857   0.533  16.204  0.2593  0.1479  0.6703
 1403SOL    HW115668   0.812   0.508  16.123 -1.3910 -1.8024  2.1709
 1403SOL    HW215669   0.790   0.497  16.263  1.1938  0.6583  2.0477
 1404SOL     OW15670   4.202   0.498   1.005  0.0910  0.6941  1.1687
 1404SOL    HW115671   4.121   0.524   0.962  0.2305  0.7626  0.9510
 1404SOL    HW215672   4.182   0.514   1.098 -0.0445  0.9858  1.0890
 1405SOL     OW15673   3.971   3.762  11.754  0.1925 -0.0770  0.0933
 1405SOL    HW115674   4.026   3.781  11.830  0.3288 -0.3884  0.0691
 1405SOL    HW215675   3.887   3.777  11.798  0.1671 -0.6973  0.2496
 1406SOL     OW15676   0.941   3.991  13.477 -0.1744 -0.2056 -0.4938
 1406SOL    HW115677   1.033   4.004  13.454 -0.7555 -0.1231 -2.7832
 1406SOL    HW215678   0.921   3.904  13.442  2.4996 -0.4443 -1.4200
 1407SOL     OW15679   2.338   0.585   2.750  0.1276 -0.3435  0.2063
 1407SOL    HW115680   2.320   0.670   2.711  0.3249 -0.6918 -0.6495
 1407SOL    HW215681   2.322   0.525   2.676 -1.4320  0.2616  0.0365
 1408SOL     OW15682   0.723   1.441   0.024 -0.0026 -0.5189  0.3356
 1408SOL    HW115683   0.707   1.534   0.044  0.3365 -0.6784  1.3328
 1408SOL    HW215684   0.809   1.454  17.674 -2.4766  0.5001 -4.4790
 1409SOL     OW15685   4.333   4.208   7.136 -0.0866 -0.1308 -0.5589
 1409SOL    HW115686   4.382   4.261   7.072 -0.9467  1.2855 -0.0560
 1409SOL    HW215687   4.267   4.273   7.162  0.9485  0.3913  0.7848
 1410SOL     OW15688   2.214   2.824   7.908 -0.5566  0.0209  0.3270
 1410SOL    HW115689   2.163   2.812   7.988  0.6014  0.3985  1.1206
 1410SOL    HW215690   2.152   2.871   7.853 -0.3413 -1.6445 -1.3435
 1411SOL     OW15691   1.491   0.580   9.162 -0.2200  0.9466  0.0661
 1411SOL    HW115692   1.516   0.489   9.174  0.8379  1.1052 -0.9658
 1411SOL    HW215693   1.458   0.580   9.072  1.9569  0.1245 -0.7252
 1412SOL     OW15694   3.928   4.144   4.769  0.5669  0.0016  0.0388
 1412SOL    HW115695   3.952   4.216   4.827 -0.0500  1.9739 -2.1158
 1412SOL    HW215696   3.849   4.173   4.722 -0.5950 -0.0283  1.9705
 1413SOL     OW15697   0.792   4.665   3.396  0.5460 -0.6037  0.2744
 1413SOL    HW115698   0.713   4.719   3.396  1.2466  0.3989 -2.9201
 1413SOL    HW215699   0.755   4.594   3.345  1.9818 -0.3905 -1.0809
 1414SOL     OW15700   0.335   2.408   0.915  0.1085 -0.7801 -0.0228
 1414SOL    HW115701   0.279   2.332   0.930  0.9354 -1.3928 -0.0618
 1414SOL    HW215702   0.310   2.452   0.996 -1.8990 -0.4114 -0.8392
 1415SOL     OW15703   2.604   4.422   4.829 -0.0790  0.6374 -0.1728
 1415SOL    HW115704   2.633   4.490   4.890 -1.1104  1.5908 -0.7306
 1415SOL    HW215705   2.550   4.473   4.768  0.6551  2.3228  0.5796
 1416SOL     OW15706   1.488   2.368  10.568 -0.5961  0.8389 -0.3575
 1416SOL    HW115707   1.415   2.346  10.510 -0.2751 -0.0593 -0.4302
 1416SOL    HW215708   1.494   2.285  10.616  1.8873  0.5854 -1.1075
 1417SOL     OW15709   0.541   4.391  16.489 -0.4417 -0.5912 -0.0630
 1417SOL    HW115710   0.590   4.335  16.428 -0.4923 -0.8468  0.1307
 1417SOL    HW215711   0.454   4.352  16.494 -0.2467 -0.6905  2.5643
 1418SOL     OW15712   4.585   3.522   8.321  0.0128  0.0572 -0.1346
 1418SOL    HW115713   4.583   3.557   8.410 -3.0094  0.0354 -0.2067
 1418SOL    HW215714   4.674   3.547   8.293  0.0251 -0.6179 -0.6891
 1419SOL     OW15715   4.149   1.008   9.034  0.0790 -0.4824 -0.3112
 1419SOL    HW115716   4.232   1.054   9.045 -0.2167  0.1789 -0.8422
 1419SOL    HW215717   4.123   0.968   9.117  0.3697 -1.8722 -0.9050
 1420SOL     OW15718   2.619   2.909  11.231 -0.1172 -0.2086 -0.6059
 1420SOL    HW115719   2.628   2.824  11.274  0.3415  0.5584  0.8440
 1420SOL    HW215720   2.702   2.909  11.183 -0.4972  0.7532 -1.2592
 1421SOL     OW15721   0.534   0.544   9.050 -0.3232 -0.0923  0.4308
 1421SOL    HW115722   0.464   0.600   9.016  1.1184  0.6011 -1.3476
 1421SOL    HW215723   0.569   0.600   9.119  1.2899 -0.2109 -0.2996
 1422SOL     OW15724   0.800   4.461   5.618 -0.5648  0.6921  0.1259
 1422SOL    HW115725   0.729   4.446   5.555  0.9099 -3.0478 -0.6244
 1422SOL    HW215726   0.876   4.468   5.561 -0.2771 -0.5153  0.3566
 1423SOL     OW15727   2.644   0.976   0.571 -0.0003  0.8919  0.3305
 1423SOL    HW115728   2.592   0.926   0.635 -1.4711  0.6171 -1.0896
 1423SOL    HW215729   2.591   0.963   0.493  1.1900  1.7740 -0.6142
 1424SOL     OW15730   1.094   3.223  14.461 -0.3602  0.2464 -0.2364
 1424SOL    HW115731   1.164   3.276  14.423 -1.3167  0.1569 -2.1028
 1424SOL    HW215732   1.144   3.141  14.469  2.5959  2.1311  0.7808
 1425SOL     OW15733   2.854   2.864   4.868  0.5112 -0.3142 -0.2850
 1425SOL    HW115734   2.857   2.945   4.919  2.1416 -0.2840 -0.4163
 1425SOL    HW215735   2.762   2.846   4.887  0.7232 -0.3957  0.6846
 1426SOL     OW15736   2.585   4.397   4.428  0.0078 -0.5420  0.1037
 1426SOL    HW115737   2.521   4.426   4.492  1.0688  0.8392  0.5347
 1426SOL    HW215738   2.591   4.477   4.376 -0.1242 -0.2606  0.5264
 1427SOL     OW15739   3.730   3.221   3.371 -0.5334  0.5172  0.6265
 1427SOL    HW115740   3.683   3.239   3.452  0.4145 -1.0561  1.5211
 1427SOL    HW215741   3.698   3.136   3.342  1.0616  0.6211 -1.5078
 1428SOL     OW15742   2.570   0.906   1.809  0.3216  0.6125  0.7974
 1428SOL    HW115743   2.643   0.968   1.820 -0.6594  2.0642 -1.0113
 1428SOL    HW215744   2.497   0.965   1.795 -0.0413 -0.3526 -1.3959
 1429SOL     OW15745   3.490   4.093   1.454  0.4068  0.4878 -0.6524
 1429SOL    HW115746   3.568   4.140   1.424  1.5549 -1.4971 -0.8223
 1429SOL    HW215747   3.434   4.170   1.455  0.7218  0.6691  2.3503
 1430SOL     OW15748   0.379   3.501   5.060 -0.0211 -0.4933 -0.1444
 1430SOL    HW115749   0.342   3.581   5.024  0.9807  0.4618  0.9580
 1430SOL    HW215750   0.307   3.451   5.098 -0.0478 -1.2951 -1.2535
 1431SOL     OW15751   3.595   4.209   2.497 -0.2186  0.1844 -0.8466
 1431SOL    HW115752   3.669   4.151   2.514  2.0101  2.5756 -2.4327
 1431SOL    HW215753   3.594   4.270   2.571  0.1085 -0.9450  0.0967
 1432SOL     OW15754   0.322   1.043  16.614  0.4697 -0.6140 -0.4086
 1432SOL    HW115755   0.228   1.055  16.607  0.5839 -0.1483 -1.0990
 1432SOL    HW215756   0.329   1.021  16.707 -3.6206 -1.9218 -0.4172
 1433SOL     OW15757   4.120   3.689   2.523  0.0401  0.2867 -0.3286
 1433SOL    HW115758   4.065   3.737   2.586 -1.5630  1.4341 -2.6182
 1433SOL    HW215759   4.058   3.649   2.462  0.9012  0.5635 -1.3879
 1434SOL     OW15760   0.213   2.991   6.517 -0.1186 -0.0783  0.1707
 1434SOL    HW115761   0.285   3.028   6.568 -0.0366  1.2074 -0.8915
 1434SOL    HW215762   0.212   3.053   6.445  0.6438 -0.0585  0.1791
 1435SOL     OW15763   1.093   2.788   4.856  0.4362  0.4350 -0.2482
 1435SOL    HW115764   1.178   2.811   4.893  0.3667 -0.6250  0.5518
 1435SOL    HW215765   1.115   2.778   4.763  1.4550  0.2814  0.0101
 1436SOL     OW15766   2.968   4.296   8.090 -0.0004  0.3055  0.1500
 1436SOL    HW115767   3.054   4.292   8.047  0.3666 -0.3960  0.9483
 1436SOL    HW215768   2.911   4.249   8.030 -1.3212  1.7694  0.2513
 1437SOL     OW15769   1.513   1.368   1.347 -0.0984  0.0222  0.6704
 1437SOL    HW115770   1.590   1.323   1.313 -1.8736 -3.0059  0.7005
 1437SOL    HW215771   1.446   1.374   1.280 -0.8205  1.8663  1.5559
 1438SOL     OW15772   2.225   2.344  15.640 -0.0447 -0.2201  0.6277
 1438SOL    HW115773   2.320   2.330  15.642  0.3746  2.4092 -1.4238
 1438SOL    HW215774   2.191   2.285  15.573 -1.8500  0.7686  0.6695
 1439SOL     OW15775   1.514   0.672   6.660  0.2480  0.3429  0.1304
 1439SOL    HW115776   1.432   0.630   6.684 -0.3185  1.0326 -0.5867
 1439SOL    HW215777   1.546   0.602   6.603  0.4223 -0.8412  1.6857
 1440SOL     OW15778   1.047   4.568   2.005  0.8715 -0.0495 -0.0155
 1440SOL    HW115779   1.132   4.544   1.969  0.0976  1.0810 -2.5316
 1440SOL    HW215780   1.010   4.480   2.009 -0.5008  0.6477  2.7974
 1441SOL     OW15781   4.127   2.830   6.300 -0.1045  0.5725 -0.0898
 1441SOL    HW115782   4.105   2.823   6.393  1.9453  2.3797  0.5157
 1441SOL    HW215783   4.218   2.804   6.288 -0.1188 -0.0292  1.1233
 1442SOL     OW15784   1.595   0.096   6.567 -0.3215 -0.3033 -0.2634
 1442SOL    HW115785   1.544   0.030   6.521 -0.1369 -1.1047  0.6867
 1442SOL    HW215786   1.529   0.165   6.567  1.9559  1.8714  0.1575
 1443SOL     OW15787   2.737   2.003   5.421  0.0313  0.5273  0.2986
 1443SOL    HW115788   2.675   2.006   5.494  3.1291 -0.4153  2.9386
 1443SOL    HW215789   2.728   2.091   5.384  2.1876  0.7435  0.3196
 1444SOL     OW15790   0.795   4.527   6.553 -0.1409  0.1153 -0.0574
 1444SOL    HW115791   0.706   4.494   6.545 -0.4443  1.3917 -1.9992
 1444SOL    HW215792   0.778   4.614   6.517 -1.3029 -0.9925 -2.1835
 1445SOL     OW15793   2.465   0.465   8.812 -0.0177  0.1398 -0.6611
 1445SOL    HW115794   2.408   0.527   8.766  1.0586  1.2487 -0.4899
 1445SOL    HW215795   2.549   0.511   8.816 -0.2935  0.4267  1.9765
 1446SOL     OW15796   1.075   2.928   1.836  0.1446 -0.1502  0.0084
 1446SOL    HW115797   1.153   2.913   1.889  0.2200  0.3823  0.0523
 1446SOL    HW215798   1.061   2.839   1.802 -2.9752 -0.4159  1.9465
 1447SOL     OW15799   4.190   0.135  16.734  0.2823  0.4373  0.6156
 1447SOL    HW115800   4.154   0.210  16.782  0.7248  1.3062 -0.4062
 1447SOL    HW215801   4.224   0.171  16.652  1.1739 -0.1115  0.7474
 1448SOL     OW15802   0.598   2.029   4.913  0.1438  0.7844 -0.3149
 1448SOL    HW115803   0.622   2.122   4.915  0.8702  0.6114 -0.8944
 1448SOL    HW215804   0.547   2.019   4.992  2.4418 -1.9670  0.8167
 1449SOL     OW15805   0.167   3.752   0.129 -0.3307 -0.2841  0.1607
 1449SOL    HW115806   0.101   3.760   0.198 -1.7709 -2.6507 -0.9471
 1449SOL    HW215807   0.131   3.798   0.054  2.0811  2.6460  0.7988
 1450SOL     OW15808   1.432   1.651   5.594  0.3795  0.0388  0.2385
 1450SOL    HW115809   1.485   1.590   5.646  1.6290  0.2101 -0.8330
 1450SOL    HW215810   1.350   1.606   5.611 -0.8640  1.9148 -0.7784
 1451SOL     OW15811   3.020   3.716  10.478  0.3355 -0.0553 -0.5757
 1451SOL    HW115812   3.016   3.674  10.563  0.5706  1.0959  0.0064
 1451SOL    HW215813   3.040   3.804  10.510  1.4503 -0.8161  0.8190
 1452SOL     OW15814   2.228   0.130  14.575  0.3114  0.2796 -0.5883
 1452SOL    HW115815   2.145   0.138  14.528 -0.6032 -0.3619  0.9371
 1452SOL    HW215816   2.209   0.109  14.666  0.4589  1.8749 -0.1963
 1453SOL     OW15817   1.392   2.371   9.020  0.7087  0.6431 -0.0127
 1453SOL    HW115818   1.318   2.364   8.960  0.8840  2.2403 -0.3977
 1453SOL    HW215819   1.360   2.343   9.106  1.6880 -1.6521 -0.3974
 1454SOL     OW15820   2.664   4.543  15.053  0.0443  0.6392 -0.2310
 1454SOL    HW115821   2.571   4.569  15.052 -1.1062 -3.4832 -0.1721
 1454SOL    HW215822   2.659   4.489  15.132 -0.5315  0.1246 -0.6106
 1455SOL     OW15823   2.022   0.296   5.973  0.1300 -0.2139 -0.2932
 1455SOL    HW115824   2.087   0.236   6.008 -1.3370 -2.2166 -0.9765
 1455SOL    HW215825   2.002   0.252   5.890 -1.2563 -1.0942  0.5025
 1456SOL     OW15826   2.005   4.189   6.051  0.0095 -0.2370  0.1343
 1456SOL    HW115827   1.991   4.222   6.139  1.6657  1.2517 -0.1686
 1456SOL    HW215828   1.957   4.107   6.065 -1.3761  1.1402  3.4361
 1457SOL     OW15829   1.713   0.915   6.414  0.0139  0.0960  0.7445
 1457SOL    HW115830   1.666   0.839   6.380 -0.3058  1.0656 -1.0170
 1457SOL    HW215831   1.652   0.966   6.467 -2.7147  0.2069 -2.4505
 1458SOL     OW15832   2.846   0.829   3.202  0.4113  0.9701  0.4001
 1458SOL    HW115833   2.866   0.922   3.211  0.2884  1.1456 -1.1805
 1458SOL    HW215834   2.932   0.793   3.183  0.1835  0.6726 -0.0628
 1459SOL     OW15835   0.064   1.933   4.584 -0.3081 -0.2517 -0.5251
 1459SOL    HW115836   0.147   1.889   4.568 -0.8651 -2.3280  2.3097
 1459SOL    HW215837   0.028   1.862   4.637 -0.8911 -1.1901 -2.1602
 1460SOL     OW15838   2.953   1.345   8.864  0.3271 -0.1383  0.0729
 1460SOL    HW115839   2.975   1.352   8.957  1.5115 -0.6159 -0.1659
 1460SOL    HW215840   2.863   1.317   8.882  0.6625 -1.0364  0.3801
 1461SOL     OW15841   2.610   1.406   7.718 -0.0617 -0.4321 -0.3444
 1461SOL    HW115842   2.626   1.488   7.765  3.7603 -0.7218 -1.1101
 1461SOL    HW215843   2.688   1.352   7.730  0.5638  0.7448  0.8281
 1462SOL     OW15844   0.287   0.797   6.605  0.2825 -0.2097 -0.2126
 1462SOL    HW115845   0.314   0.878   6.561  1.2674 -0.3806  0.0695
 1462SOL    HW215846   0.197   0.796   6.572 -0.0905 -1.0575  0.8467
 1463SOL     OW15847   1.803   1.649   9.074 -0.3350 -0.1790 -0.5543
 1463SOL    HW115848   1.814   1.743   9.083 -1.1582 -0.2186  0.7580
 1463SOL    HW215849   1.716   1.635   9.111 -0.3302  1.3142 -0.0025
 1464SOL     OW15850   2.729   2.156   7.560  0.1126  0.0562  0.4811
 1464SOL    HW115851   2.714   2.206   7.480  0.4083  0.2249  0.5336
 1464SOL    HW215852   2.741   2.214   7.635  1.0685 -0.6247  0.8482
 1465SOL     OW15853   0.641   1.016  17.534  0.0901 -0.4806  0.1080
 1465SOL    HW115854   0.711   0.955  17.510  0.6397  0.0394  0.3751
 1465SOL    HW215855   0.572   0.956  17.563  0.1570 -0.3037  0.6472
 1466SOL     OW15856   0.794   1.615   5.665  0.4283  0.4093  0.5503
 1466SOL    HW115857   0.850   1.641   5.592  1.5714 -0.2288  1.2033
 1466SOL    HW215858   0.855   1.632   5.737  0.8771  0.6591  0.1065
 1467SOL     OW15859   0.878   0.965  11.091 -0.0393 -0.2072 -0.1235
 1467SOL    HW115860   0.939   1.033  11.121 -0.8302  0.7931 -0.7852
 1467SOL    HW215861   0.817   0.963  11.165 -0.5213  0.8960 -0.4940
 1468SOL     OW15862   1.373   4.097  15.038 -1.0359  0.5309 -0.2753
 1468SOL    HW115863   1.320   4.024  15.004 -0.9521 -0.6919  2.2153
 1468SOL    HW215864   1.336   4.164  14.979 -0.5992  0.1954 -0.9321
 1469SOL     OW15865   1.610   3.843  15.249 -0.3414 -0.0727  0.5254
 1469SOL    HW115866   1.664   3.779  15.203  0.6883  0.6460  0.7498
 1469SOL    HW215867   1.530   3.835  15.197 -1.0234 -0.4127  1.6120
 1470SOL     OW15868   0.567   2.967   8.493  0.4682 -0.0317  0.7290
 1470SOL    HW115869   0.609   3.053   8.497 -1.2390  0.8014  0.8950
 1470SOL    HW215870   0.639   2.920   8.452 -1.2041 -1.2983 -0.7532
 1471SOL     OW15871   0.937   0.418  10.592 -0.1509  0.0204  0.2825
 1471SOL    HW115872   0.888   0.338  10.573  1.2864 -1.1146  1.3817
 1471SOL    HW215873   0.894   0.441  10.674 -0.4772  1.8001 -0.3857
 1472SOL     OW15874   1.936   1.225   7.874 -0.1003  0.1450  0.0590
 1472SOL    HW115875   1.926   1.304   7.820  0.9501  1.3579  1.6375
 1472SOL    HW215876   1.871   1.251   7.940 -1.9444 -1.6076 -1.0656
 1473SOL     OW15877   4.654   4.094   7.478  0.0161  0.6314  0.3332
 1473SOL    HW115878   4.611   4.020   7.521 -0.2112  1.0235  0.7726
 1473SOL    HW215879   4.709   4.125   7.549 -0.9354  3.1124 -0.0304
 1474SOL     OW15880   3.499   4.509   3.593 -0.4375 -0.2694 -0.1475
 1474SOL    HW115881   3.586   4.484   3.623 -0.4904  0.9676  1.0724
 1474SOL    HW215882   3.449   4.432   3.619  1.9418 -0.9063  2.5359
 1475SOL     OW15883   1.013   0.148   7.765  0.5403 -0.1515 -0.2900
 1475SOL    HW115884   0.946   0.216   7.763  0.4521 -0.2161  0.3940
 1475SOL    HW215885   0.999   0.119   7.855 -0.4741 -1.5176 -0.8730
 1476SOL     OW15886   1.805   0.972   5.118 -0.4808 -0.0927  0.2965
 1476SOL    HW115887   1.727   1.020   5.088  0.3428  0.4587 -1.0058
 1476SOL    HW215888   1.815   1.016   5.202  0.4059 -0.8638  0.5790
 1477SOL     OW15889   1.031   0.923   8.430 -0.3124  0.4528  0.0963
 1477SOL    HW115890   1.020   1.018   8.423  0.0095  0.5669  1.2336
 1477SOL    HW215891   1.028   0.900   8.523 -1.4420 -0.1303 -0.0884
 1478SOL     OW15892   0.062   2.498  17.016  0.4536  0.3446 -0.5860
 1478SOL    HW115893   4.711   2.541  16.971  0.0663 -0.3521 -0.6133
 1478SOL    HW215894   0.055   2.520  17.109 -0.7121  2.4754 -1.1681
 1479SOL     OW15895   2.187   1.203   7.462  0.4692 -0.4909  0.5383
 1479SOL    HW115896   2.269   1.174   7.502  1.6909 -1.8662 -2.9823
 1479SOL    HW215897   2.218   1.267   7.398  1.3049  0.1493  1.5825
 1480SOL     OW15898   3.717   4.472   5.722 -0.4016 -0.0022  0.2350
 1480SOL    HW115899   3.765   4.438   5.647  0.9688 -0.6912  1.4168
 1480SOL    HW215900   3.747   4.403   5.782  0.4243 -1.1758 -1.5287
 1481SOL     OW15901   2.841   3.816   8.839  0.6159  0.3225  0.3865
 1481SOL    HW115902   2.920   3.773   8.870  2.1582  1.1838 -2.3520
 1481SOL    HW215903   2.869   3.900   8.802 -2.6944  1.2138 -0.1377
 1482SOL     OW15904   1.720   1.913   6.546 -0.6664 -0.0529  0.1594
 1482SOL    HW115905   1.694   1.847   6.482  2.6733  1.5662 -2.8992
 1482SOL    HW215906   1.803   1.940   6.507 -0.7148  0.0601  0.1354
 1483SOL     OW15907   1.520   3.093  15.034 -0.7830  0.2061 -0.1120
 1483SOL    HW115908   1.600   3.044  15.057 -0.0893  1.2504 -0.2890
 1483SOL    HW215909   1.477   3.052  15.109  3.8816 -1.6206  1.6136
 1484SOL     OW15910   3.738   1.629   6.623  0.0560  0.5780  0.8031
 1484SOL    HW115911   3.719   1.546   6.666  2.4508 -0.8270 -0.8847
 1484SOL    HW215912   3.799   1.607   6.553 -0.4131 -2.5545  1.3989
 1485SOL     OW15913   1.789   2.605   8.758  0.3694  0.3550  0.8390
 1485SOL    HW115914   1.711   2.659   8.745 -0.8607 -1.6173 -0.0086
 1485SOL    HW215915   1.751   2.529   8.802 -2.0892  0.6808 -0.6971
 1486SOL     OW15916   1.770   3.291   7.483 -0.0883 -0.0636  0.2073
 1486SOL    HW115917   1.687   3.288   7.435  1.0931 -0.9821 -1.7906
 1486SOL    HW215918   1.768   3.378   7.522  0.2874 -0.2456  0.6281
 1487SOL     OW15919   1.897   1.874   7.527  0.1008 -0.1989 -0.6830
 1487SOL    HW115920   1.809   1.847   7.500 -0.0767 -1.0038  0.7365
 1487SOL    HW215921   1.942   1.790   7.535  2.0670  0.8554 -0.8313
 1488SOL     OW15922   1.012   2.319   8.881 -0.3686  0.1254  0.7791
 1488SOL    HW115923   1.084   2.266   8.846 -2.3204 -1.6114 -0.6396
 1488SOL    HW215924   0.943   2.253   8.884 -0.3049 -0.0221 -1.1434
 1489SOL     OW15925   4.369   4.657   8.248  0.5710 -0.2868  0.0492
 1489SOL    HW115926   4.393   0.022   8.277  0.8952  0.2531 -1.8244
 1489SOL    HW215927   4.417   4.604   8.311  0.9933 -0.5312 -0.4736
 1490SOL     OW15928   0.150   4.100  12.224 -0.2442 -0.6122  0.0872
 1490SOL    HW115929   0.197   4.053  12.155  1.0048  0.1533  0.4239
 1490SOL    HW215930   0.063   4.062  12.214 -1.4186  1.1239  4.0043
 1491SOL     OW15931   3.988   2.896  13.717  0.4913  1.0615 -0.2124
 1491SOL    HW115932   3.993   2.828  13.784 -0.7682 -0.3685 -1.5459
 1491SOL    HW215933   3.984   2.974  13.771  1.2451  0.8560  0.1443
 1492SOL     OW15934   4.149   4.605  16.685  0.5152  0.3358 -0.6342
 1492SOL    HW115935   4.207   4.674  16.718  3.3071 -1.8779 -0.8993
 1492SOL    HW215936   4.087   4.664  16.642 -1.5657 -0.4942  1.2239
 1493SOL     OW15937   0.647   2.347   6.063 -0.6525  0.0097 -0.3382
 1493SOL    HW115938   0.710   2.279   6.082 -2.0911 -1.9487 -2.5028
 1493SOL    HW215939   0.657   2.359   5.968  0.4858  0.3703 -0.1635
 1494SOL     OW15940   0.992   4.599   4.090  0.4193 -0.4060  0.3158
 1494SOL    HW115941   1.073   4.561   4.054  0.9743  1.7929 -0.7657
 1494SOL    HW215942   1.011   4.583   4.182 -2.1733 -2.9833  0.3915
 1495SOL     OW15943   2.145   3.634   8.528  0.0756 -0.1223 -0.6029
 1495SOL    HW115944   2.197   3.690   8.471  0.4041  0.6779  0.4720
 1495SOL    HW215945   2.146   3.693   8.604 -0.5139 -0.9013  0.0031
 1496SOL     OW15946   2.344   2.855   8.346  0.0777 -0.9188  0.0451
 1496SOL    HW115947   2.311   2.842   8.435 -1.0919 -1.5090 -0.4759
 1496SOL    HW215948   2.279   2.806   8.295 -1.9453  3.5109 -1.6449
 1497SOL     OW15949   3.334   1.332   7.835 -0.0166 -0.1601  0.2085
 1497SOL    HW115950   3.314   1.402   7.772  3.6360  0.8749  0.2394
 1497SOL    HW215951   3.268   1.344   7.904 -0.8875 -2.4862 -0.2081
 1498SOL     OW15952   0.994   2.628   0.320  0.4954 -0.3546 -0.3343
 1498SOL    HW115953   0.938   2.701   0.345 -0.2523 -0.7832 -0.7547
 1498SOL    HW215954   0.974   2.559   0.384 -1.9016  1.4982  0.8894
 1499SOL     OW15955   1.741   1.803   4.956  0.0632  0.3139  0.0744
 1499SOL    HW115956   1.709   1.816   5.045  0.2233 -1.1708  0.3480
 1499SOL    HW215957   1.720   1.710   4.946  1.2071  0.0350  0.2548
 1500SOL     OW15958   1.882   1.962  11.276 -0.0256  0.3338  0.3182
 1500SOL    HW115959   1.837   1.931  11.198  0.3673 -0.0395  0.2388
 1500SOL    HW215960   1.967   1.977  11.235 -0.1550  0.3318  0.0530
 1501SOL     OW15961   3.817   1.269   8.812 -0.1241 -0.1618  0.2806
 1501SOL    HW115962   3.772   1.192   8.848 -0.3993  1.0846  2.5417
 1501SOL    HW215963   3.753   1.291   8.745  0.2978 -0.7264 -0.3155
 1502SOL     OW15964   0.109   1.017   9.264  0.6113  0.0993 -0.3619
 1502SOL    HW115965   0.061   1.099   9.278 -1.8954 -1.2064 -1.4477
 1502SOL    HW215966   0.160   1.055   9.192  1.4176 -2.0271 -0.8960
 1503SOL     OW15967   3.781   4.469   3.226  0.0708  0.5483  0.6798
 1503SOL    HW115968   3.730   4.468   3.145 -2.2513 -1.1557  2.1499
 1503SOL    HW215969   3.783   4.382   3.267  0.4793  1.2447  2.1577
 1504SOL     OW15970   1.361   3.011   3.570 -0.5467 -0.3325  0.2684
 1504SOL    HW115971   1.404   3.092   3.542  0.0708 -0.4806  0.7871
 1504SOL    HW215972   1.366   2.955   3.492 -0.9069 -1.6970  1.2255
 1505SOL     OW15973   3.821   3.602  16.403  0.8163 -0.1799  0.0285
 1505SOL    HW115974   3.756   3.569  16.341  1.3466  0.8523 -1.0767
 1505SOL    HW215975   3.766   3.631  16.476  0.7959 -3.1786  1.1997
 1506SOL     OW15976   1.304   1.592   8.497  0.2651  0.0081 -0.1461
 1506SOL    HW115977   1.371   1.526   8.479 -0.4364 -0.5279 -0.7980
 1506SOL    HW215978   1.260   1.594   8.412 -0.3100 -1.2489  0.1248
 1507SOL     OW15979   4.390   1.621  15.596  0.0190  0.2709  0.0273
 1507SOL    HW115980   4.394   1.715  15.581 -2.0926  0.1842 -1.1071
 1507SOL    HW215981   4.476   1.594  15.628  0.1241  0.8042  0.1927
 1508SOL     OW15982   1.753   2.792   3.440  0.1335  0.0073  0.7443
 1508SOL    HW115983   1.757   2.760   3.350  0.4918 -0.2991  0.8676
 1508SOL    HW215984   1.666   2.832   3.438 -0.4485 -1.3921 -2.0193
 1509SOL     OW15985   4.431   2.468   5.328 -0.5234 -0.0593  0.6390
 1509SOL    HW115986   4.513   2.503   5.292 -0.9728  0.9374  0.5889
 1509SOL    HW215987   4.406   2.550   5.371 -0.3510 -0.8746  2.2839
 1510SOL     OW15988   3.615   4.681   2.474  0.1936  0.2769 -0.1275
 1510SOL    HW115989   3.648   0.011   2.548 -0.5047  1.0788 -0.3909
 1510SOL    HW215990   3.528   4.668   2.512 -0.1210 -1.3950 -1.4318
 1511SOL     OW15991   1.522   1.174  17.119  0.3894  0.2619  0.3253
 1511SOL    HW115992   1.587   1.209  17.057 -2.8938  2.5057 -1.8682
 1511SOL    HW215993   1.509   1.251  17.175  0.9548  1.3032 -0.9876
 1512SOL     OW15994   0.902   0.490  15.306 -0.3107 -0.1484 -0.1773
 1512SOL    HW115995   0.897   0.397  15.284 -0.2473 -0.4695  1.1768
 1512SOL    HW215996   0.943   0.476  15.391 -0.9612  1.5848  0.4197
 1513SOL     OW15997   1.819   2.496   5.727  0.2045  0.2442 -0.3302
 1513SOL    HW115998   1.782   2.551   5.658 -3.0251 -1.3374  0.1607
 1513SOL    HW215999   1.864   2.434   5.671 -0.3852  0.9778 -1.6089
 1514SOL     OW16000   0.337   4.677   7.073  0.1290 -0.2276  0.3317
 1514SOL    HW116001   0.421   4.698   7.115  1.6887 -0.8265 -2.5002
 1514SOL    HW216002   0.279   4.664   7.148  0.2000 -1.1483  0.2253
 1515SOL     OW16003   1.311   1.614  12.919 -0.0580  0.1790 -0.1551
 1515SOL    HW116004   1.394   1.585  12.955 -0.2283  0.0368  0.1216
 1515SOL    HW216005   1.333   1.706  12.902 -0.1310  0.3724  0.8087
 1516SOL     OW16006   3.579   2.094   8.543  0.6660 -0.2079 -0.2238
 1516SOL    HW116007   3.611   2.175   8.503  1.9264 -0.4371  0.3276
 1516SOL    HW216008   3.642   2.096   8.614  0.6364 -0.6117 -0.1883
 1517SOL     OW16009   1.415   1.603  13.928  0.1360  1.0398 -0.3304
 1517SOL    HW116010   1.444   1.553  14.004 -1.5639 -1.7986 -1.5390
 1517SOL    HW216011   1.467   1.683  13.938  1.6474 -0.2254  1.7210
 1518SOL     OW16012   4.245   0.393   8.083 -0.4461 -0.1538  0.2140
 1518SOL    HW116013   4.313   0.421   8.022 -3.0641 -1.2806 -3.2783
 1518SOL    HW216014   4.284   0.427   8.163 -0.3167  1.6195 -0.6012
 1519SOL     OW16015   0.270   1.877   9.424 -0.1896  0.2660 -1.2292
 1519SOL    HW116016   0.259   1.946   9.489 -0.8190 -1.4223  0.4549
 1519SOL    HW216017   0.241   1.921   9.344  0.3566 -0.3393 -1.7617
 1520SOL     OW16018   1.937   0.131  16.570  0.1790  0.0788  0.2765
 1520SOL    HW116019   1.988   0.095  16.643  1.0112 -1.0725 -0.8508
 1520SOL    HW216020   1.962   0.223  16.572 -0.8440  0.3778 -0.7958
 1521SOL     OW16021   2.432   3.333   5.267 -0.5544 -0.0686  0.3940
 1521SOL    HW116022   2.340   3.345   5.244 -0.8977 -1.9823  0.7853
 1521SOL    HW216023   2.456   3.371   5.352 -1.1690 -0.7207  0.8626
 1522SOL     OW16024   0.933   2.921   7.916 -0.2903 -0.2003  0.0441
 1522SOL    HW116025   0.894   3.008   7.919 -1.9229 -0.9070 -0.3898
 1522SOL    HW216026   0.852   2.873   7.896 -1.3951  1.3078  0.8776
 1523SOL     OW16027   2.236   4.600   7.567  0.0155  0.4928  0.2340
 1523SOL    HW116028   2.178   4.652   7.623 -0.9978 -0.4649  0.0547
 1523SOL    HW216029   2.180   4.530   7.535  0.1195  0.3451  0.3747
 1524SOL     OW16030   2.648   1.851   8.245  0.6879  0.0503  0.4414
 1524SOL    HW116031   2.620   1.771   8.200  1.5105 -0.5968  1.0893
 1524SOL    HW216032   2.586   1.911   8.205  0.1878 -1.5662 -1.2198
 1525SOL     OW16033   2.559   0.420   4.324 -0.2086 -0.1401  0.4002
 1525SOL    HW116034   2.535   0.489   4.263 -0.5430 -1.6086 -1.1261
 1525SOL    HW216035   2.481   0.388   4.369 -0.1515 -0.5191  0.2360
 1526SOL     OW16036   0.974   3.499   1.741  0.0120  0.3058  0.5838
 1526SOL    HW116037   1.032   3.425   1.723  0.0823  0.7355 -0.9950
 1526SOL    HW216038   0.887   3.461   1.734 -0.7237  1.6122  2.7453
 1527SOL     OW16039   0.326   1.523   6.485  0.1130 -0.0066 -0.0325
 1527SOL    HW116040   0.357   1.574   6.410 -0.1467  0.6430  0.2965
 1527SOL    HW216041   0.236   1.556   6.494  0.7763  1.5820  0.8622
 1528SOL     OW16042   0.999   0.728   2.438 -0.1697 -0.1764 -0.2806
 1528SOL    HW116043   0.942   0.655   2.459  0.5157 -0.9051 -0.9803
 1528SOL    HW216044   1.081   0.685   2.464 -2.1117 -3.9680 -0.4576
 1529SOL     OW16045   3.296   4.086  13.466 -0.0770  0.0016  0.0480
 1529SOL    HW116046   3.341   4.023  13.411  1.5094  0.3074  0.9975
 1529SOL    HW216047   3.324   4.077  13.557  0.7913 -1.2400 -0.3460
 1530SOL     OW16048   0.895   2.450   3.890 -0.1853  0.3607 -0.0278
 1530SOL    HW116049   0.812   2.456   3.842 -1.3578  0.3471  2.0015
 1530SOL    HW216050   0.942   2.527   3.857  0.8159 -0.2654 -0.0604
 1531SOL     OW16051   4.234   2.092  17.171  0.4796 -0.0129 -0.1479
 1531SOL    HW116052   4.199   2.098  17.082  0.0027  3.3965  0.2918
 1531SOL    HW216053   4.225   2.186  17.185 -1.2312 -0.6377  2.8914
 1532SOL     OW16054   3.950   0.678  13.347  0.4011 -0.0722 -0.3451
 1532SOL    HW116055   4.027   0.624  13.367 -0.7261 -1.4632  0.2277
 1532SOL    HW216056   3.990   0.761  13.322  2.4282 -1.9868 -3.4396
 1533SOL     OW16057   0.746   0.072   4.509 -0.0907 -0.5530 -0.2266
 1533SOL    HW116058   0.731   0.097   4.418 -1.5636  2.4747  0.8467
 1533SOL    HW216059   0.723   4.702   4.508  1.3951 -0.9124 -1.0937
 1534SOL     OW16060   3.806   2.891   3.414  0.0750  0.2139 -0.1945
 1534SOL    HW116061   3.758   2.862   3.491 -2.3276 -0.5810 -1.9711
 1534SOL    HW216062   3.895   2.857   3.425  0.2811  0.3178 -1.5516
 1535SOL     OW16063   3.733   3.944   7.032 -0.8078 -0.2447  0.3931
 1535SOL    HW116064   3.745   3.871   7.092 -2.2527 -1.9255 -1.3708
 1535SOL    HW216065   3.824   3.960   7.007 -0.9269  0.8158  0.6238
 1536SOL     OW16066   2.482   4.462   3.071 -0.3490  0.3425 -0.1319
 1536SOL    HW116067   2.560   4.492   3.117 -0.4232  0.6369 -0.1980
 1536SOL    HW216068   2.464   4.533   3.010 -0.9764 -0.0299 -0.3936
 1537SOL     OW16069   1.352   1.924  15.422 -0.8171 -0.6185 -0.1621
 1537SOL    HW116070   1.405   1.871  15.361 -1.8319 -0.8242 -0.8532
 1537SOL    HW216071   1.411   1.997  15.441 -1.9301  0.2859 -0.2346
 1538SOL     OW16072   4.549   2.229   1.843  0.5556  0.3173  0.0851
 1538SOL    HW116073   4.622   2.287   1.820  3.5215 -3.2419  0.3853
 1538SOL    HW216074   4.577   2.148   1.800 -2.2006 -0.9841  0.7637
 1539SOL     OW16075   3.507   1.179   8.831  0.0329  0.4757 -0.7165
 1539SOL    HW116076   3.435   1.207   8.773  1.2033  2.7137 -1.0773
 1539SOL    HW216077   3.539   1.098   8.791 -0.5451 -0.0008 -0.2232
 1540SOL     OW16078   2.860   0.964   1.552 -0.0315 -0.3706 -0.3430
 1540SOL    HW116079   2.816   0.980   1.636 -0.1443  0.1714 -0.5074
 1540SOL    HW216080   2.924   1.034   1.557 -2.1671  1.4452  1.5599
 1541SOL     OW16081   1.869   3.850   1.194 -0.0650  0.4945  0.0195
 1541SOL    HW116082   1.896   3.795   1.267  2.7321  0.4476 -1.0649
 1541SOL    HW216083   1.895   3.939   1.217  2.0950  0.8614 -3.7766
 1542SOL     OW16084   0.132   3.088   0.293 -0.1775  0.3885 -0.2474
 1542SOL    HW116085   0.042   3.068   0.267  0.1803 -0.4667 -0.8450
 1542SOL    HW216086   0.171   3.002   0.307 -2.3950 -0.7917 -1.3676
 1543SOL     OW16087   3.463   2.287   6.582  0.1407  0.0528  0.4666
 1543SOL    HW116088   3.413   2.321   6.508  1.6443  1.3091  0.0503
 1543SOL    HW216089   3.460   2.194   6.557  0.3711  0.5729 -1.4294
 1544SOL     OW16090   4.706   1.998  17.681  0.2848 -0.1338 -0.0664
 1544SOL    HW116091   4.683   1.914  17.639  0.8565 -0.2995 -0.0455
 1544SOL    HW216092   4.626   2.006   0.041  0.2390 -1.2581  0.0545
 1545SOL     OW16093   0.139   3.823  17.487  0.0837  0.1024 -0.2908
 1545SOL    HW116094   0.219   3.773  17.504  1.2275  2.5412  1.3731
 1545SOL    HW216095   0.086   3.759  17.439  0.8308 -1.1025  0.4667
 1546SOL     OW16096   0.764   4.011   6.070  0.2271  0.1065 -0.0602
 1546SOL    HW116097   0.753   4.105   6.081  0.2799  0.3450 -2.1826
 1546SOL    HW216098   0.715   3.984   6.148 -0.5086  2.3598  0.2339
 1547SOL     OW16099   4.288   3.046  14.396  0.4582  1.2123  0.5153
 1547SOL    HW116100   4.348   3.120  14.394 -0.0331  1.5833 -0.2444
 1547SOL    HW216101   4.221   3.084  14.452 -1.8987  0.7945 -2.0219
 1548SOL     OW16102   2.053   2.850  15.839  0.2198  0.5212 -0.5930
 1548SOL    HW116103   2.019   2.939  15.851  0.6867  0.7620 -1.0812
 1548SOL    HW216104   1.994   2.804  15.899  0.4219  0.5554 -0.3697
 1549SOL     OW16105   3.989   0.119   0.546 -0.1223  0.1612  0.1213
 1549SOL    HW116106   3.988   0.027   0.574 -1.6073  0.2230  0.2797
 1549SOL    HW216107   4.040   0.128   0.465 -1.4494  1.6364 -0.5514
 1550SOL     OW16108   3.516   0.404   4.457  0.4096  0.1238 -0.3912
 1550SOL    HW116109   3.612   0.405   4.467  0.3609  2.5425 -0.1186
 1550SOL    HW216110   3.508   0.311   4.476 -0.5201  0.8512  2.7778
 1551SOL     OW16111   4.313   4.307   9.507  0.0980 -0.0522  0.4569
 1551SOL    HW116112   4.330   4.313   9.413  0.3950 -1.3983  0.4344
 1551SOL    HW216113   4.344   4.217   9.514 -2.5009 -0.9417  0.8034
 1552SOL     OW16114   0.517   4.379   6.846 -0.6577 -0.0522 -0.1432
 1552SOL    HW116115   0.425   4.387   6.871 -0.4431 -0.5724  0.8141
 1552SOL    HW216116   0.566   4.386   6.928 -2.8086 -0.4721  1.1951
 1553SOL     OW16117   3.164   4.032   9.838 -0.5769  0.9999 -0.2301
 1553SOL    HW116118   3.134   3.979   9.911  1.8635 -0.0967 -0.0033
 1553SOL    HW216119   3.183   4.111   9.889 -0.6987  0.7138  0.2511
 1554SOL     OW16120   2.032   3.295  12.810  0.1017  0.0796  0.4875
 1554SOL    HW116121   2.079   3.227  12.859  2.3678  0.6802 -0.8506
 1554SOL    HW216122   2.091   3.320  12.739  0.4784  0.8254  1.0757
 1555SOL     OW16123   0.178   4.152   2.246 -0.0822  0.7262  0.0267
 1555SOL    HW116124   0.150   4.221   2.306  0.0778  0.9345 -0.1376
 1555SOL    HW216125   0.101   4.095   2.245  0.2443  0.2922 -1.2349
 1556SOL     OW16126   1.979   3.870   4.534  0.1276  0.0482 -0.1362
 1556SOL    HW116127   2.042   3.816   4.487  0.4012  0.0778  0.1931
 1556SOL    HW216128   1.965   3.818   4.613  0.6866 -0.1128 -0.1449
 1557SOL     OW16129   1.595   2.998   7.341  0.0976  0.1413  1.0455
 1557SOL    HW116130   1.575   3.066   7.276 -0.0428 -1.1421 -0.2535
 1557SOL    HW216131   1.678   2.975   7.300  1.4722  3.3958  1.9739
 1558SOL     OW16132   4.457   2.715   3.938  0.1747  0.1425  0.1670
 1558SOL    HW116133   4.401   2.760   4.001 -0.9472  1.0706 -1.5039
 1558SOL    HW216134   4.404   2.642   3.906  1.7786 -1.1247  0.4017
 1559SOL     OW16135   0.557   3.916  12.547  0.3980 -0.6344 -0.0759
 1559SOL    HW116136   0.624   3.951  12.488  0.9544 -2.4584 -0.5266
 1559SOL    HW216137   0.606   3.918  12.629 -0.2038  0.4673  0.2641
 1560SOL     OW16138   3.706   0.019   3.309 -0.2963 -0.3862  0.1781
 1560SOL    HW116139   3.751   4.657   3.303  0.2359 -0.0057 -1.2151
 1560SOL    HW216140   3.620   4.723   3.347 -0.7213  2.1133  0.4392
 1561SOL     OW16141   2.039   3.079  13.768  0.1580 -0.2032  0.0036
 1561SOL    HW116142   2.001   3.141  13.830  0.4872 -1.5436  1.5415
 1561SOL    HW216143   2.059   3.004  13.824  0.1162  0.1295  0.4614
 1562SOL     OW16144   0.895   3.697   9.286 -0.0914  0.2195  0.1180
 1562SOL    HW116145   0.805   3.665   9.270  0.3293 -0.7813 -0.2772
 1562SOL    HW216146   0.918   3.657   9.369  0.1512 -0.1066 -0.1057
 1563SOL     OW16147   1.881   4.216  10.410  0.1793  0.4888  0.6569
 1563SOL    HW116148   1.936   4.161  10.465 -0.3086 -1.7633 -1.1060
 1563SOL    HW216149   1.801   4.164  10.405  0.3210  0.4877 -1.4567
 1564SOL     OW16150   3.727   0.056  13.525  1.0963  0.1716 -0.0126
 1564SOL    HW116151   3.683   0.136  13.497  0.9330  0.8170  2.1559
 1564SOL    HW216152   3.690   4.713  13.466  1.0715  0.9549 -0.8781
 1565SOL     OW16153   1.594   3.801   2.383  0.4843  0.1163 -0.4321
 1565SOL    HW116154   1.635   3.718   2.408 -1.4801 -0.4898  0.8026
 1565SOL    HW216155   1.549   3.825   2.464 -1.1237 -1.4736 -0.8356
 1566SOL     OW16156   3.157   3.257   6.154  0.1904  0.0444  0.2348
 1566SOL    HW116157   3.246   3.244   6.120 -0.7387 -0.8655 -1.7976
 1566SOL    HW216158   3.159   3.309   6.235 -1.6737 -0.6917  0.7488
 1567SOL     OW16159   0.811   2.204   5.711 -0.3931  0.2254  0.0899
 1567SOL    HW116160   0.897   2.187   5.749 -0.0511  1.0982 -0.2896
 1567SOL    HW216161   0.842   2.290   5.682  1.5097 -1.2731 -2.3585
 1568SOL     OW16162   2.197   4.414   0.193  0.3136 -0.5415 -0.4698
 1568SOL    HW116163   2.274   4.428   0.247 -0.1711  1.4720 -0.3205
 1568SOL    HW216164   2.223   4.327   0.163 -1.4680 -1.2623  0.0799
 1569SOL     OW16165   4.545   2.865   0.563 -0.1352 -0.0671  0.2656
 1569SOL    HW116166   4.485   2.932   0.597  0.1539 -0.1220  0.8829
 1569SOL    HW216167   4.490   2.792   0.589 -0.1227 -0.6553 -1.4026
 1570SOL     OW16168   0.555   1.928   0.025  0.3841 -0.3074  0.7106
 1570SOL    HW116169   0.571   1.886  17.633  0.9123 -0.4559  0.8865
 1570SOL    HW216170   0.625   1.994   0.025 -1.8803  2.1104  0.9556
 1571SOL     OW16171   2.633   3.963  11.514 -0.7246  0.1840  0.2684
 1571SOL    HW116172   2.691   4.038  11.530 -2.4641  0.8574  3.3256
 1571SOL    HW216173   2.577   3.956  11.591 -0.7393  0.1826  0.2578
 1572SOL     OW16174   3.884   2.570  10.077 -0.1573 -0.0014  0.5953
 1572SOL    HW116175   3.835   2.590  10.156 -0.0192  1.1850  0.3718
 1572SOL    HW216176   3.940   2.647  10.072  2.4474 -2.0113 -1.1779
 1573SOL     OW16177   2.406   1.482   7.088 -0.2626 -0.0520  0.0769
 1573SOL    HW116178   2.487   1.524   7.118  0.3677 -1.5376  0.4645
 1573SOL    HW216179   2.409   1.497   6.994 -2.5348  0.9557  0.1812
 1574SOL     OW16180   0.206   1.263  15.640  0.2089 -0.3440  0.1375
 1574SOL    HW116181   0.209   1.329  15.709  1.0574 -1.8533  1.5354
 1574SOL    HW216182   0.267   1.292  15.572 -0.1867 -1.7837 -0.8367
 1575SOL     OW16183   3.412   3.227  12.950 -0.3075  0.3848 -0.1144
 1575SOL    HW116184   3.441   3.171  13.023 -2.0311  0.1424  0.3791
 1575SOL    HW216185   3.457   3.189  12.874 -0.8701 -0.9283  0.2062
 1576SOL     OW16186   4.298   2.853   9.984  0.0784 -0.0671 -0.6950
 1576SOL    HW116187   4.216   2.811   9.959  2.1033 -3.0762 -2.2168
 1576SOL    HW216188   4.362   2.794   9.944 -0.4425 -2.0191  1.3569
 1577SOL     OW16189   0.360   3.018  15.001  0.6644  0.1005 -0.8168
 1577SOL    HW116190   0.284   3.065  14.966  0.5638 -0.3712 -1.2285
 1577SOL    HW216191   0.410   3.048  14.925  2.6437  0.0294  0.4624
 1578SOL     OW16192   3.705   2.557   5.367  0.3605  0.0097 -0.0999
 1578SOL    HW116193   3.614   2.546   5.395  0.6630 -0.4108  0.7110
 1578SOL    HW216194   3.683   2.608   5.289  0.9808 -0.2619 -0.4546
 1579SOL     OW16195   3.227   4.168   6.576  0.1897 -0.3431  0.9590
 1579SOL    HW116196   3.159   4.167   6.644 -1.4814 -2.7027 -0.7273
 1579SOL    HW216197   3.243   4.261   6.567 -1.6219 -0.0827  0.5332
 1580SOL     OW16198   3.760   3.753   9.712 -0.1976 -0.4758 -0.0248
 1580SOL    HW116199   3.847   3.746   9.750 -0.4175 -0.6892  0.4444
 1580SOL    HW216200   3.770   3.787   9.623  2.2279  0.8930  0.7952
 1581SOL     OW16201   3.655   3.137  11.162  0.2912 -0.3346 -0.3607
 1581SOL    HW116202   3.678   3.180  11.244 -2.3571  0.2875  0.0501
 1581SOL    HW216203   3.619   3.052  11.189  0.2686  0.1300  1.0738
 1582SOL     OW16204   1.721   2.894   5.439  0.7491 -0.3542 -0.0632
 1582SOL    HW116205   1.645   2.932   5.485  1.9720  1.5404  0.3705
 1582SOL    HW216206   1.779   2.967   5.420  0.6676  0.1321  1.5077
 1583SOL     OW16207   4.068   2.722   9.913  0.2992  0.6042 -0.0738
 1583SOL    HW116208   4.046   2.719   9.820 -0.1441  1.8550 -0.0161
 1583SOL    HW216209   4.013   2.800   9.925  0.4894  1.0133 -1.8434
 1584SOL     OW16210   2.509   4.495   7.937 -0.1413  0.0787  0.3630
 1584SOL    HW116211   2.464   4.568   7.894 -0.8231 -0.3623  0.3328
 1584SOL    HW216212   2.600   4.507   7.911 -0.6987  2.2435 -0.5544
 1585SOL     OW16213   2.442   4.239   1.538  0.4784  0.0781  0.9339
 1585SOL    HW116214   2.416   4.240   1.630  0.4964 -0.9331  0.9513
 1585SOL    HW216215   2.438   4.331   1.510 -0.1920  0.2275  1.5275
 1586SOL     OW16216   0.860   3.979   4.124 -0.0673 -0.5607 -0.3563
 1586SOL    HW116217   0.936   3.925   4.103 -0.7927 -1.3523 -0.9572
 1586SOL    HW216218   0.828   3.914   4.187 -0.3402 -0.4749 -0.4077
 1587SOL     OW16219   1.666   3.315   6.135  0.5507 -0.1253  0.0690
 1587SOL    HW116220   1.639   3.255   6.065  1.6348 -2.4175  1.6153
 1587SOL    HW216221   1.691   3.244   6.194 -0.3458 -2.1510 -1.9847
 1588SOL     OW16222   0.411   4.281   3.038 -0.5901 -0.1329  0.3563
 1588SOL    HW116223   0.439   4.211   2.979 -0.1368  1.8180 -1.7360
 1588SOL    HW216224   0.381   4.233   3.116  2.5792  0.9755  2.2671
 1589SOL     OW16225   0.324   3.803  10.150 -0.0105  0.2614  0.1640
 1589SOL    HW116226   0.360   3.793  10.238 -0.7190 -0.5011  0.3722
 1589SOL    HW216227   0.237   3.764  10.162  0.1635  0.0941  0.8651
 1590SOL     OW16228   1.929   3.853   8.574 -0.1172 -0.2153 -0.0322
 1590SOL    HW116229   1.908   3.937   8.614 -0.0590  1.1496 -2.8106
 1590SOL    HW216230   2.003   3.832   8.631  1.8444  1.3097 -2.0036
 1591SOL     OW16231   2.073   2.434   3.651  0.3056  0.2093  0.5037
 1591SOL    HW116232   2.048   2.526   3.659 -1.2692 -0.1064 -0.6655
 1591SOL    HW216233   2.168   2.437   3.650  0.4129 -2.3595  0.7954
 1592SOL     OW16234   4.279   2.761  15.289  0.5248 -0.0839 -0.6966
 1592SOL    HW116235   4.290   2.815  15.211  0.2291  1.0809  0.0789
 1592SOL    HW216236   4.184   2.771  15.293  0.5452 -0.3870  0.5185
 1593SOL     OW16237   2.081   0.067  12.878 -0.7842  0.0380 -0.4636
 1593SOL    HW116238   2.142   0.089  12.807  1.4368 -0.0335  1.4212
 1593SOL    HW216239   2.011   0.017  12.837 -0.6669 -0.6819  0.2114
 1594SOL     OW16240   2.542   0.895   8.577 -0.5866  0.3612 -0.2256
 1594SOL    HW116241   2.592   0.818   8.549 -0.7657  0.6644 -1.3659
 1594SOL    HW216242   2.533   0.875   8.670 -0.0123 -1.2682 -0.5174
 1595SOL     OW16243   0.017   4.130   8.468  0.2529  0.4893 -0.5718
 1595SOL    HW116244   0.004   4.219   8.436 -0.1739  0.8236  0.5326
 1595SOL    HW216245   4.677   4.129   8.541  0.4064 -0.7428 -0.4549
 1596SOL     OW16246   1.959   2.667  12.497 -0.3372  0.0559  0.0345
 1596SOL    HW116247   1.953   2.755  12.534  1.2544  0.1331  0.1058
 1596SOL    HW216248   1.941   2.684  12.404 -0.4734  0.5423  0.1478
 1597SOL     OW16249   3.954   0.809   4.627  0.4802 -0.4789  0.2086
 1597SOL    HW116250   3.875   0.756   4.634  0.3839 -0.3362  0.2229
 1597SOL    HW216251   3.922   0.869   4.559  0.8728 -1.0511 -0.4819
 1598SOL     OW16252   3.748   0.533  16.458 -0.0230 -0.1377  0.5632
 1598SOL    HW116253   3.811   0.594  16.418  0.7039 -0.3043  1.4573
 1598SOL    HW216254   3.681   0.601  16.468  1.0561  0.9560  0.4830
 1599SOL     OW16255   4.220   3.527   5.890  0.1043  0.0785  0.3972
 1599SOL    HW116256   4.186   3.489   5.971  1.5862  0.1031  1.0315
 1599SOL    HW216257   4.135   3.514   5.847  0.7348  0.1036 -0.8545
 1600SOL     OW16258   4.709   0.768   4.684 -0.0045  0.3692 -0.2913
 1600SOL    HW116259   4.709   0.857   4.648  0.7321  0.7580  0.6491
 1600SOL    HW216260   0.025   0.722   4.609  0.6177 -0.0872  0.2990
 1601SOL     OW16261   3.127   2.185  13.827 -0.3606  0.2756  0.2019
 1601SOL    HW116262   3.109   2.150  13.914  0.4306 -2.2515 -0.6192
 1601SOL    HW216263   3.082   2.268  13.812 -2.1770 -0.7613 -0.1132
 1602SOL     OW16264   2.908   3.989   3.939  0.2548 -0.5144 -0.1267
 1602SOL    HW116265   2.993   3.996   3.982  1.6042 -0.0654 -2.8875
 1602SOL    HW216266   2.920   3.915   3.880  2.1533  0.4301 -0.8890
 1603SOL     OW16267   2.742   4.161  15.949 -0.3087  0.6025  0.1423
 1603SOL    HW116268   2.728   4.117  15.865 -1.0545  0.0937  0.5247
 1603SOL    HW216269   2.659   4.209  15.961 -1.3463 -1.4453  1.1586
 1604SOL     OW16270   3.575   3.300   8.808 -0.2656 -0.1323 -0.2024
 1604SOL    HW116271   3.619   3.309   8.723  1.5903  1.6680  0.9532
 1604SOL    HW216272   3.576   3.206   8.828  0.3849  0.3536  2.0938
 1605SOL     OW16273   0.890   3.722   2.454 -0.1202 -0.2719 -0.6592
 1605SOL    HW116274   0.892   3.629   2.431 -0.6730 -0.4328 -0.0670
 1605SOL    HW216275   0.935   3.750   2.374  0.0013 -1.5963 -1.0564
 1606SOL     OW16276   0.779   0.497  16.920 -0.1815 -0.2807  0.0390
 1606SOL    HW116277   0.776   0.420  16.864 -0.5943 -0.3559  0.1675
 1606SOL    HW216278   0.806   0.567  16.860 -1.7337  0.0531 -0.2710
 1607SOL     OW16279   1.096   4.148  10.895 -0.4591  0.2363  0.1352
 1607SOL    HW116280   1.170   4.207  10.911 -0.6378 -0.0483  1.9658
 1607SOL    HW216281   1.072   4.173  10.805 -1.4607  1.3873  0.7143
 1608SOL     OW16282   2.179   0.108  16.733  0.3510 -0.3424 -0.8777
 1608SOL    HW116283   2.188   0.162  16.812  0.4249 -1.8596  0.1566
 1608SOL    HW216284   2.211   0.180  16.678  1.6892  0.1278  0.5196
 1609SOL     OW16285   1.827   1.034   6.224 -0.0122 -0.0421  0.4106
 1609SOL    HW116286   1.905   1.038   6.279 -0.2172 -2.5266  0.8546
 1609SOL    HW216287   1.777   0.984   6.288  0.1628 -1.3000 -0.4371
 1610SOL     OW16288   0.309   3.042  15.826 -0.3896 -0.1906 -0.6409
 1610SOL    HW116289   0.325   2.995  15.745 -0.6284 -0.6871 -0.3953
 1610SOL    HW216290   0.214   3.037  15.831 -0.3774  2.8541  2.9132
 1611SOL     OW16291   1.907   1.246  10.129  0.1961 -0.0598  0.1633
 1611SOL    HW116292   1.902   1.341  10.134  0.1353 -0.0135 -0.7469
 1611SOL    HW216293   2.000   1.244  10.148  0.3013  2.0800 -0.1516
 1612SOL     OW16294   2.001   0.065  17.264  0.1741  0.4069 -0.3543
 1612SOL    HW116295   2.058   4.713  17.286 -0.3698  0.0058 -0.3182
 1612SOL    HW216296   2.017   0.114  17.345  0.1737  1.2573 -0.8692
 1613SOL     OW16297   3.717   0.008  15.651 -0.2323  0.6173 -0.0235
 1613SOL    HW116298   3.707   0.063  15.729  0.3883 -1.0821  1.2725
 1613SOL    HW216299   3.811   0.022  15.644  0.1621 -1.0955  1.6307
 1614SOL     OW16300   1.952   0.661   2.119  0.1037 -0.6150  0.0806
 1614SOL    HW116301   1.924   0.748   2.090 -1.0503 -1.7031 -2.0051
 1614SOL    HW216302   1.879   0.611   2.083  0.6343 -1.0452 -0.3985
 1615SOL     OW16303   0.112   3.206  16.350 -0.1414 -0.1531 -0.3375
 1615SOL    HW116304   0.176   3.146  16.388  0.6181  1.5879  1.0936
 1615SOL    HW216305   0.152   3.292  16.362 -1.2438  0.0792  1.6730
 1616SOL     OW16306   3.272   3.283  16.563 -0.0471 -0.6283  0.4891
 1616SOL    HW116307   3.326   3.355  16.531 -0.7324  0.9819  2.9692
 1616SOL    HW216308   3.321   3.279  16.645  0.9504 -1.6083 -0.1569
 1617SOL     OW16309   2.403   4.648   5.347 -0.7855  0.0999  0.2037
 1617SOL    HW116310   2.452   4.575   5.311  1.5659  0.5038  2.5989
 1617SOL    HW216311   2.445   4.648   5.433 -1.5897  0.0910  0.5991
 1618SOL     OW16312   3.989   0.142   6.658 -0.3686 -0.4629  0.7307
 1618SOL    HW116313   3.998   0.228   6.699 -2.3845 -0.0124  0.2446
 1618SOL    HW216314   4.055   0.138   6.589 -2.3918  1.4754 -1.3058
 1619SOL     OW16315   0.480   4.054   1.757 -0.0248 -0.5445  0.6371
 1619SOL    HW116316   0.458   4.111   1.831 -0.7636 -2.9093  2.2009
 1619SOL    HW216317   0.569   4.084   1.741 -0.2240  1.4023  3.1447
 1620SOL     OW16318   0.793   4.641  13.300 -0.8812 -0.1571 -0.5203
 1620SOL    HW116319   0.822   4.587  13.374  0.9315 -0.1753 -1.2328
 1620SOL    HW216320   0.737   4.710  13.336  1.9543  2.3936 -0.9520
 1621SOL     OW16321   1.826   1.981   2.222 -0.4324 -0.5473  0.0918
 1621SOL    HW116322   1.892   1.959   2.287  0.0589 -1.0178 -0.5677
 1621SOL    HW216323   1.843   1.916   2.154 -0.9000 -0.4216 -0.1471
 1622SOL     OW16324   1.425   2.114   3.607  0.5566 -0.2040 -0.9711
 1622SOL    HW116325   1.436   2.027   3.646 -1.5113  0.8746  2.0382
 1622SOL    HW216326   1.489   2.170   3.650 -1.0739  0.3862  0.6916
 1623SOL     OW16327   4.023   2.755   5.625 -0.5055  0.4803  0.9157
 1623SOL    HW116328   4.017   2.831   5.683  1.4083  1.0028  0.4394
 1623SOL    HW216329   4.090   2.712   5.678  1.5801  0.4561 -1.7255
 1624SOL     OW16330   1.065   1.735   8.142 -0.3476  0.5272 -0.1412
 1624SOL    HW116331   1.026   1.672   8.082  1.0248  0.9696 -1.5206
 1624SOL    HW216332   1.154   1.744   8.106  1.1763  0.0981  3.4876
 1625SOL     OW16333   1.121   1.167  16.375 -0.4418 -0.5166 -0.7806
 1625SOL    HW116334   1.186   1.191  16.309 -0.3087 -1.0942 -0.8622
 1625SOL    HW216335   1.104   1.252  16.416 -0.0678 -0.7556 -0.1440
 1626SOL     OW16336   3.673   2.577   8.297  0.0416  0.3019 -0.7687
 1626SOL    HW116337   3.651   2.615   8.382  2.8911  0.4924 -0.1052
 1626SOL    HW216338   3.765   2.553   8.308 -0.5682 -1.5841  0.2081
 1627SOL     OW16339   4.475   0.112   2.213  0.2507 -0.0776  0.8497
 1627SOL    HW116340   4.448   0.034   2.262 -0.8928 -0.6576 -0.7039
 1627SOL    HW216341   4.566   0.089   2.193  0.1066  0.1324 -0.0364
 1628SOL     OW16342   2.433   1.640   6.561  0.4659  0.4006 -0.1575
 1628SOL    HW116343   2.450   1.727   6.597  0.2096  0.2708  0.2784
 1628SOL    HW216344   2.363   1.606   6.616 -1.2992  3.8176 -0.2875
 1629SOL     OW16345   3.716   2.759   6.956 -0.3205  0.1964  0.2596
 1629SOL    HW116346   3.630   2.757   6.913 -0.3819  1.5869  0.3319
 1629SOL    HW216347   3.711   2.839   7.008 -0.6715  0.7959 -0.7051
 1630SOL     OW16348   1.099   0.953  14.279 -0.0872 -0.6681  0.3763
 1630SOL    HW116349   1.190   0.930  14.263  0.4748 -0.3515  3.1087
 1630SOL    HW216350   1.106   1.048  14.272  0.4772 -0.7310  0.0858
 1631SOL     OW16351   4.154   3.427   5.587 -0.6376  0.1342  0.4804
 1631SOL    HW116352   4.247   3.436   5.567 -0.4052 -0.9107  1.0776
 1631SOL    HW216353   4.132   3.518   5.568  0.5837  0.6650  1.7218
 1632SOL     OW16354   1.670   2.789   6.820  0.5363  0.1677  0.0001
 1632SOL    HW116355   1.609   2.721   6.850  2.4922 -0.2863  3.0016
 1632SOL    HW216356   1.745   2.732   6.804 -0.2887 -0.7613 -0.5786
 1633SOL     OW16357   2.623   1.666   7.235 -0.3700 -0.2768  0.0049
 1633SOL    HW116358   2.628   1.761   7.226 -0.1113 -0.3291 -0.4361
 1633SOL    HW216359   2.619   1.636   7.326 -0.0635  0.5618  0.2864
 1634SOL     OW16360   4.584   0.010   7.089  1.4573  0.4240  0.0617
 1634SOL    HW116361   4.636   4.659   7.122 -1.4865 -0.6248  2.3538
 1634SOL    HW216362   4.584   4.705   6.997 -0.2043 -1.5340  0.6572
 1635SOL     OW16363   0.975   1.228   7.982 -0.0313 -0.0164 -0.0351
 1635SOL    HW116364   0.984   1.323   7.972 -0.0095 -0.1185 -0.9489
 1635SOL    HW216365   1.065   1.198   7.993  0.4354  0.6286 -2.1219
 1636SOL     OW16366   0.557   4.265   8.573 -0.1747  0.2764 -0.1046
 1636SOL    HW116367   0.570   4.223   8.488 -0.5829  2.2067 -1.1050
 1636SOL    HW216368   0.463   4.253   8.577 -0.1321 -0.1023 -0.1992
 1637SOL     OW16369   1.784   1.552   8.804 -0.8427 -0.8292 -0.3648
 1637SOL    HW116370   1.735   1.532   8.884  0.4788  0.6776  0.8372
 1637SOL    HW216371   1.810   1.639   8.836  0.5473 -1.7883  1.1273
 1638SOL     OW16372   3.137   0.386  13.296  0.3523  0.1171 -0.0759
 1638SOL    HW116373   3.087   0.424  13.368  1.2302  0.6494  0.2500
 1638SOL    HW216374   3.067   0.383  13.230  1.9720  0.1890 -1.8092
 1639SOL     OW16375   1.597   0.646   0.253 -0.2030 -0.2965  0.8039
 1639SOL    HW116376   1.660   0.717   0.265 -0.4624 -0.1464  1.2808
 1639SOL    HW216377   1.568   0.619   0.340 -1.7397  0.8320  0.6525
 1640SOL     OW16378   1.044   4.711   4.408 -0.5198 -0.4322 -0.3711
 1640SOL    HW116379   1.024   0.020   4.496  5.7124  1.7537  0.2131
 1640SOL    HW216380   1.014   4.620   4.411 -2.7300  0.2924 -0.3087
 1641SOL     OW16381   0.115   0.361   3.614  0.6259 -0.2912  0.3094
 1641SOL    HW116382   0.137   0.273   3.584  0.0712 -0.9462  1.8395
 1641SOL    HW216383   0.153   0.362   3.703 -0.3430  1.5175  0.7019
 1642SOL     OW16384   2.017   0.178   6.459 -0.3214 -0.1059  0.0711
 1642SOL    HW116385   1.952   0.157   6.392  0.4646  0.0563 -0.7478
 1642SOL    HW216386   1.959   0.209   6.529  1.8015 -1.5371  2.4678
 1643SOL     OW16387   4.315   1.201  13.913 -0.4240 -0.0997  0.2162
 1643SOL    HW116388   4.254   1.136  13.880 -1.3524  0.8463  0.0576
 1643SOL    HW216389   4.248   1.269  13.920  0.4108  0.6316  1.2139
 1644SOL     OW16390   4.164   2.390   7.380 -0.0116 -0.5300 -0.1505
 1644SOL    HW116391   4.210   2.316   7.419  0.4250 -1.0291 -1.5824
 1644SOL    HW216392   4.091   2.336   7.351  0.7884 -0.7900 -1.6808
 1645SOL     OW16393   1.495   4.213   0.466  0.9323 -0.3792  0.1974
 1645SOL    HW116394   1.508   4.298   0.423  0.4733 -0.2729  0.2717
 1645SOL    HW216395   1.420   4.229   0.523  1.5856  0.7621  0.7324
 1646SOL     OW16396   1.844   1.748   8.405  0.5154  0.1478 -0.2166
 1646SOL    HW116397   1.877   1.671   8.358  1.4626  0.6770 -0.4276
 1646SOL    HW216398   1.919   1.802   8.381  2.8323 -0.4844  5.7783
 1647SOL     OW16399   1.562   1.398   7.809 -0.2464 -0.2707 -0.2465
 1647SOL    HW116400   1.577   1.372   7.719 -0.3644  1.4372 -0.7509
 1647SOL    HW216401   1.505   1.474   7.804 -0.4675 -0.3140  1.5592
 1648SOL     OW16402   1.101   3.946   9.340 -0.3825 -0.1063 -0.1088
 1648SOL    HW116403   1.018   3.986   9.314 -0.4704 -0.2194 -0.0044
 1648SOL    HW216404   1.155   4.005   9.287 -1.0012  1.7727  1.3552
 1649SOL     OW16405   0.863   1.699   9.216  0.3117  0.6382  0.5936
 1649SOL    HW116406   0.924   1.703   9.290 -0.8312  1.0191  1.5160
 1649SOL    HW216407   0.915   1.755   9.159 -0.1031  1.6785  1.2526
 1650SOL     OW16408   0.827   2.320  17.485 -0.3259  0.5307 -0.0700
 1650SOL    HW116409   0.854   2.260  17.554  0.5358  0.3328 -0.5828
 1650SOL    HW216410   0.744   2.355  17.516 -1.5969 -1.1954 -1.4605
 1651SOL     OW16411   3.156   1.274   2.372  0.6024 -0.0672  1.1732
 1651SOL    HW116412   3.237   1.226   2.390  0.2132 -0.3651  2.1370
 1651SOL    HW216413   3.177   1.325   2.294 -1.0262  1.6223  1.8299
 1652SOL     OW16414   4.673   2.847  15.558  0.0180 -0.2981 -0.4293
 1652SOL    HW116415   4.687   2.848  15.463  0.2397  0.9526 -0.3819
 1652SOL    HW216416   4.578   2.832  15.555  0.3623 -2.4022 -0.6439
 1653SOL     OW16417   0.359   3.885   1.927 -0.3304  0.2209  0.6201
 1653SOL    HW116418   0.282   3.876   1.870 -2.0373 -0.3109  3.0049
 1653SOL    HW216419   0.411   3.936   1.865  0.4023  1.8009  2.5434
 1654SOL     OW16420   2.768   1.595  12.519 -0.0135  0.1446  0.2146
 1654SOL    HW116421   2.806   1.656  12.583 -1.4602  2.3037 -0.9740
 1654SOL    HW216422   2.759   1.522  12.581 -1.5330 -0.1916 -0.4043
 1655SOL     OW16423   2.370   4.160   6.981  0.0014 -0.3021 -0.1665
 1655SOL    HW116424   2.454   4.178   7.023 -0.0587 -1.0578  0.2796
 1655SOL    HW216425   2.323   4.243   6.987  0.8379  0.1403  0.2719
 1656SOL     OW16426   1.792   0.408  12.793 -0.1466 -0.2286 -0.1182
 1656SOL    HW116427   1.879   0.443  12.777 -0.1771  0.2613  0.7282
 1656SOL    HW216428   1.816   0.329  12.840  2.0979 -0.1203 -1.0984
 1657SOL     OW16429   4.557   3.403   5.194 -0.2794  0.5677 -0.0100
 1657SOL    HW116430   4.488   3.338   5.179  0.8901 -1.3702  2.7795
 1657SOL    HW216431   4.565   3.391   5.289 -1.6698 -0.8569 -0.0574
 1658SOL     OW16432   4.143   0.157   3.452  0.1236  0.3998  0.2201
 1658SOL    HW116433   4.135   0.198   3.365  0.2746 -1.8436 -0.8429
 1658SOL    HW216434   4.208   0.089   3.435 -0.9827 -0.2141 -1.6061
 1659SOL     OW16435   3.891   1.279   5.268  0.2506  0.1340  0.1623
 1659SOL    HW116436   3.942   1.349   5.310  2.1758 -0.6891 -0.8000
 1659SOL    HW216437   3.955   1.209   5.278 -1.2019 -1.4321 -1.6075
 1660SOL     OW16438   3.146   0.931   6.716 -0.2698  0.3359  0.4239
 1660SOL    HW116439   3.183   0.885   6.792 -1.3155  1.4422  1.5868
 1660SOL    HW216440   3.057   0.952   6.742  0.7738  3.1602  1.6430
 1661SOL     OW16441   2.806   1.221   7.696  0.0574 -0.1088  0.2154
 1661SOL    HW116442   2.887   1.183   7.662 -0.4927 -3.3319  2.5116
 1661SOL    HW216443   2.773   1.145   7.743 -0.5937 -0.9512 -1.5870
 1662SOL     OW16444   0.405   0.855   9.500  0.4304 -0.0595  0.4251
 1662SOL    HW116445   0.314   0.854   9.473  0.6087  0.6191 -0.2219
 1662SOL    HW216446   0.417   0.764   9.527  0.5603  0.1531  1.0994
 1663SOL     OW16447   4.043   4.013   6.651 -0.1403 -0.3669  0.3878
 1663SOL    HW116448   4.115   3.982   6.705 -0.7541 -0.2322  1.2816
 1663SOL    HW216449   4.084   3.992   6.567 -1.6338  1.5226 -0.8348
 1664SOL     OW16450   1.632   0.514  14.414 -0.1667  0.2602 -0.2941
 1664SOL    HW116451   1.547   0.551  14.434 -1.0941 -0.7511 -2.3102
 1664SOL    HW216452   1.649   0.478  14.501 -3.0689  0.4441  0.3185
 1665SOL     OW16453   4.666   3.585   1.116  0.2221 -0.1921 -0.0809
 1665SOL    HW116454   4.648   3.679   1.123  0.0806 -0.3945  2.2304
 1665SOL    HW216455   4.676   3.565   1.209  1.1305  2.1104  0.3375
 1666SOL     OW16456   2.775   4.106   7.922  0.4410 -0.0751 -0.0940
 1666SOL    HW116457   2.794   4.144   7.836  0.9783 -0.9678 -0.3704
 1666SOL    HW216458   2.686   4.135   7.937  1.0813  0.3579  2.8549
 1667SOL     OW16459   0.456   0.258   5.013 -1.2053 -0.5824 -0.0171
 1667SOL    HW116460   0.494   0.345   5.021 -4.1909  0.6268  1.2278
 1667SOL    HW216461   0.472   0.241   4.921  2.0064 -0.3166  0.5145
 1668SOL     OW16462   0.017   1.858   4.254 -0.0947 -0.1335  0.2220
 1668SOL    HW116463   0.079   1.901   4.196  0.3408  0.1847  0.9331
 1668SOL    HW216464   4.670   1.923   4.259 -1.3509 -1.3319 -1.4430
 1669SOL     OW16465   4.192   4.088  15.492 -0.5190 -0.0140  0.4103
 1669SOL    HW116466   4.224   4.148  15.559 -2.1105 -0.6412  1.7332
 1669SOL    HW216467   4.137   4.152  15.447  0.3394  0.0636 -0.5311
 1670SOL     OW16468   3.452   3.484   7.103  0.2496  0.0048  0.0563
 1670SOL    HW116469   3.488   3.543   7.037 -2.2980  0.5402 -0.8872
 1670SOL    HW216470   3.418   3.555   7.158  0.9276 -0.7734  1.4589
 1671SOL     OW16471   3.881   3.257   7.060  0.1439  0.0118 -0.3982
 1671SOL    HW116472   3.890   3.210   7.142 -0.0628 -0.1028 -0.4423
 1671SOL    HW216473   3.789   3.284   7.063  0.2583  0.1652  1.4434
 1672SOL     OW16474   2.860   2.419   4.819 -0.1405  0.2642  0.3656
 1672SOL    HW116475   2.871   2.397   4.727 -0.5179  2.8266 -0.3045
 1672SOL    HW216476   2.791   2.485   4.807  0.8127  1.1516 -0.2610
 1673SOL     OW16477   1.129   3.615   9.089 -0.0975 -0.0959  0.4345
 1673SOL    HW116478   1.135   3.685   9.154  0.5390  2.6215 -2.5721
 1673SOL    HW216479   1.214   3.571   9.094  0.4557  0.9835  0.5240
 1674SOL     OW16480   1.373   4.250  11.913 -0.1150  0.1884  0.4400
 1674SOL    HW116481   1.426   4.171  11.906  3.7714  2.9346 -0.9694
 1674SOL    HW216482   1.437   4.308  11.954 -0.1023  0.7076 -0.3150
 1675SOL     OW16483   0.126   0.080   0.948 -0.2362  0.1995  0.1210
 1675SOL    HW116484   0.147   0.017   0.879  0.8833  0.4390  0.2450
 1675SOL    HW216485   0.215   0.107   0.969  0.1215 -0.6270 -0.3351
 1676SOL     OW16486   1.236   1.846  10.208  0.1927  0.1827 -0.7834
 1676SOL    HW116487   1.208   1.789  10.279 -0.2987  1.5732  0.1346
 1676SOL    HW216488   1.323   1.808  10.195 -0.5478 -1.2589 -1.5083
 1677SOL     OW16489   3.528   0.638   6.170 -0.8114  0.9450 -0.2135
 1677SOL    HW116490   3.499   0.674   6.085  1.4208  3.9609  0.3059
 1677SOL    HW216491   3.444   0.625   6.215 -0.2260  0.6280  0.7670
 1678SOL     OW16492   3.305   1.545   7.632  0.4288  0.0336 -0.0800
 1678SOL    HW116493   3.227   1.597   7.650  0.3755  0.5325 -1.7427
 1678SOL    HW216494   3.267   1.503   7.555  1.8443  0.4938 -1.0298
 1679SOL     OW16495   2.453   3.557  12.478 -1.0808  0.3434 -0.7582
 1679SOL    HW116496   2.448   3.639  12.427 -1.6181 -0.5890 -2.2227
 1679SOL    HW216497   2.483   3.500  12.407 -0.9926  0.9407 -1.2104
 1680SOL     OW16498   2.787   0.056  13.021 -0.1801 -0.2339 -0.3505
 1680SOL    HW116499   2.763   0.081  12.931  0.1927 -1.4619 -0.7867
 1680SOL    HW216500   2.789   0.142  13.061  1.1894 -0.4697  0.0859
 1681SOL     OW16501   0.147   2.120   5.105 -0.0683 -0.3541 -0.2028
 1681SOL    HW116502   0.111   2.100   5.018 -1.6296 -0.1815  0.4021
 1681SOL    HW216503   0.196   2.200   5.086 -1.3368  0.5078  0.1426
 1682SOL     OW16504   3.746   4.018   5.967 -0.3981  0.3462  0.3160
 1682SOL    HW116505   3.684   3.957   6.007  1.1227 -0.6553  1.1282
 1682SOL    HW216506   3.773   4.069   6.044 -0.1431 -0.3975  0.7228
 1683SOL     OW16507   4.327   3.060   1.355  0.6967  0.4427 -0.7730
 1683SOL    HW116508   4.281   3.139   1.383  0.1890 -0.2646  0.3896
 1683SOL    HW216509   4.344   3.026   1.443  0.6241 -0.3423 -1.0590
 1684SOL     OW16510   2.218   2.690  15.634 -1.0902  0.0733  0.2277
 1684SOL    HW116511   2.158   2.759  15.662 -2.8632 -1.2891 -0.2215
 1684SOL    HW216512   2.251   2.671  15.721 -1.3094 -1.5867 -0.0531
 1685SOL     OW16513   4.109   2.193  10.902 -0.2662  0.0888  0.0839
 1685SOL    HW116514   4.065   2.278  10.905  0.0939  0.3531 -2.1278
 1685SOL    HW216515   4.040   2.135  10.932  0.2962  0.0720  1.3564
 1686SOL     OW16516   2.998   4.305   5.351  0.0779  0.2625  0.1471
 1686SOL    HW116517   3.073   4.361   5.331  0.1031  0.1315 -0.1255
 1686SOL    HW216518   2.964   4.292   5.263 -1.7020  0.9595  0.7244
 1687SOL     OW16519   1.391   0.079   1.597  0.2609 -0.0734 -0.1341
 1687SOL    HW116520   1.347   0.026   1.663  2.0494  1.3481  2.1933
 1687SOL    HW216521   1.322   0.145   1.584  0.1259 -0.3443 -0.7730
 1688SOL     OW16522   1.538   4.408   8.672 -0.0483 -0.2757 -0.4344
 1688SOL    HW116523   1.552   4.333   8.615  0.5967 -0.8015  0.4139
 1688SOL    HW216524   1.450   4.387   8.703 -0.7101  0.5757 -1.7352
 1689SOL     OW16525   0.039   4.284   3.087  0.4365 -0.0038 -0.6326
 1689SOL    HW116526   0.126   4.283   3.127 -0.3694  0.2552  1.0898
 1689SOL    HW216527   4.704   4.296   3.162  0.3164  2.7671 -1.1576
 1690SOL     OW16528   1.951   4.604  10.697 -0.7082 -0.1922 -0.1075
 1690SOL    HW116529   1.866   4.561  10.688 -0.5721 -0.9447  2.1544
 1690SOL    HW216530   2.008   4.533  10.726 -0.3698  0.4577  0.8036
 1691SOL     OW16531   1.313   3.597  13.078 -0.0739 -0.5379  0.5199
 1691SOL    HW116532   1.341   3.530  13.141  3.1612  1.2774  1.0090
 1691SOL    HW216533   1.221   3.574  13.067 -0.8872  4.4985 -3.1833
 1692SOL     OW16534   0.178   0.010  13.738 -0.2104 -0.0185 -0.2066
 1692SOL    HW116535   0.161   4.671  13.809 -1.7038 -0.5905 -1.0512
 1692SOL    HW216536   0.087   0.028  13.714  0.2213  1.5041 -0.6837
 1693SOL     OW16537   1.978   1.482   5.142  0.0150  0.2938  0.2962
 1693SOL    HW116538   2.063   1.521   5.123  2.6844 -5.3962  0.4084
 1693SOL    HW216539   2.013   1.393   5.138 -1.0297 -0.1090  0.2096
 1694SOL     OW16540   4.680   1.152   5.307 -0.0196  0.1852 -0.1843
 1694SOL    HW116541   4.661   1.184   5.219  0.5069 -0.8400 -0.6702
 1694SOL    HW216542   0.043   1.112   5.288  0.2366  0.9654 -0.6507
 1695SOL     OW16543   4.623   3.485  15.477 -0.0733  0.7273 -0.1802
 1695SOL    HW116544   4.675   3.521  15.549  0.6846  1.1010 -0.9253
 1695SOL    HW216545   4.645   3.393  15.491  1.1771  1.2804  1.5939
 1696SOL     OW16546   3.924   1.429   8.541 -0.1855 -0.0956  0.0609
 1696SOL    HW116547   3.872   1.457   8.617 -2.1508  0.6474 -1.5519
 1696SOL    HW216548   3.968   1.348   8.567  2.9141  0.7303 -2.6660
 1697SOL     OW16549   1.596   3.809   1.112  0.4822  0.6040 -0.1441
 1697SOL    HW116550   1.558   3.761   1.186  1.8329  0.3123  0.3441
 1697SOL    HW216551   1.683   3.838   1.139 -0.4635  1.7551  1.6524
 1698SOL     OW16552   3.954   2.325   4.139  0.5054  0.0168 -0.4683
 1698SOL    HW116553   3.967   2.366   4.053 -0.0597 -0.7577 -0.9211
 1698SOL    HW216554   4.046   2.303   4.154 -0.1568 -2.9933 -0.8337
 1699SOL     OW16555   2.224   3.808   5.974  0.2566 -0.0207 -0.1537
 1699SOL    HW116556   2.239   3.896   6.007  3.9497 -0.2891 -1.1833
 1699SOL    HW216557   2.191   3.769   6.055 -1.1791 -1.9112 -1.6483
 1700SOL     OW16558   0.115   0.090   3.549  0.4508  0.2926 -0.3648
 1700SOL    HW116559   0.103   0.030   3.475  1.4196 -1.0101  0.5238
 1700SOL    HW216560   0.100   0.023   3.616  0.0474  0.3277 -0.4213
 1701SOL     OW16561   2.456   2.019   4.638 -0.4209 -0.8511 -0.0891
 1701SOL    HW116562   2.534   2.002   4.691 -0.4543 -2.3373 -0.5072
 1701SOL    HW216563   2.448   1.937   4.588 -0.4854  2.3807 -5.4218
 1702SOL     OW16564   0.322   1.368  12.747  0.1750  0.2144  0.7601
 1702SOL    HW116565   0.393   1.332  12.694  1.0530 -0.0531  2.1244
 1702SOL    HW216566   0.251   1.358  12.683 -1.0965  0.0683  2.1812
 1703SOL     OW16567   4.491   2.161   2.109 -0.4586  0.1635 -0.1183
 1703SOL    HW116568   4.455   2.079   2.074  1.6413 -0.5375 -0.6772
 1703SOL    HW216569   4.555   2.186   2.042 -0.2458 -0.7238 -0.2549
 1704SOL     OW16570   1.079   2.422   8.632 -0.2158  0.3113 -0.1040
 1704SOL    HW116571   1.061   2.345   8.578 -1.0078 -0.5041  1.3081
 1704SOL    HW216572   1.033   2.394   8.712 -1.3421 -1.5332 -1.3872
 1705SOL     OW16573   3.272   1.354  12.161 -0.2887 -0.0062  0.3360
 1705SOL    HW116574   3.232   1.406  12.231  1.3944  2.2036 -0.3399
 1705SOL    HW216575   3.332   1.297  12.208  1.5069 -0.3814 -2.3692
 1706SOL     OW16576   0.285   1.447   4.968 -0.1231 -0.0497 -0.5250
 1706SOL    HW116577   0.298   1.528   4.919  0.5006  0.1199 -0.0840
 1706SOL    HW216578   0.374   1.416   4.986  0.9692  1.8539 -2.7165
 1707SOL     OW16579   2.552   4.241   8.776  0.5325 -0.2079 -0.4036
 1707SOL    HW116580   2.472   4.230   8.725 -0.7468  1.4039  1.2275
 1707SOL    HW216581   2.525   4.277   8.861 -0.3813  0.1940 -0.8643
 1708SOL     OW16582   2.460   3.073   5.500  0.6864 -0.1972  0.4997
 1708SOL    HW116583   2.392   3.141   5.502  1.4057  0.5593 -0.4359
 1708SOL    HW216584   2.433   3.023   5.423  2.0484  0.2157 -0.2617
 1709SOL     OW16585   3.669   3.519  11.047  0.1950  0.0919 -0.1466
 1709SOL    HW116586   3.605   3.484  11.109 -0.7203 -1.6397 -2.0778
 1709SOL    HW216587   3.654   3.614  11.050 -2.2021 -0.1921 -3.1021
 1710SOL     OW16588   4.560   1.700   7.744  0.5848  0.6941  0.0015
 1710SOL    HW116589   4.559   1.732   7.654  0.0835 -0.7340 -0.5030
 1710SOL    HW216590   4.465   1.688   7.748  0.6924  0.6780  2.4485
 1711SOL     OW16591   4.194   3.530   6.416 -0.0070 -0.3529  0.1970
 1711SOL    HW116592   4.241   3.596   6.468  0.7019 -0.5559 -0.1844
 1711SOL    HW216593   4.172   3.580   6.337 -1.3573 -0.6647  0.3816
 1712SOL     OW16594   4.513   0.876   3.043 -0.2141  0.3333  0.0136
 1712SOL    HW116595   4.519   0.827   2.962 -0.2127  0.6691 -0.1914
 1712SOL    HW216596   4.507   0.963   3.003 -0.2337 -0.6556 -2.1266
 1713SOL     OW16597   3.971   3.636   0.329 -0.7322  0.1503  0.3539
 1713SOL    HW116598   3.881   3.615   0.304 -0.9708  1.6487 -0.0582
 1713SOL    HW216599   4.022   3.632   0.248  0.3151  0.5913  0.9898
 1714SOL     OW16600   2.576   2.739   1.937 -0.3556  0.0392  0.5205
 1714SOL    HW116601   2.621   2.804   1.884 -1.3402  0.9545  0.8083
 1714SOL    HW216602   2.485   2.763   1.924  0.0656  1.0376 -0.6193
 1715SOL     OW16603   1.384   3.585  12.078 -0.4140  0.0261  0.8142
 1715SOL    HW116604   1.360   3.553  11.990 -1.7178  0.8186  0.8860
 1715SOL    HW216605   1.362   3.675  12.053 -1.4872 -0.2215  0.8680
 1716SOL     OW16606   3.648   2.716   2.721  0.7512  0.1050  0.2699
 1716SOL    HW116607   3.612   2.631   2.751 -0.2227  0.9095  1.4196
 1716SOL    HW216608   3.619   2.709   2.630 -0.8839 -1.6567  0.9170
 1717SOL     OW16609   4.144   4.221  13.457  0.2737 -0.1483 -0.1344
 1717SOL    HW116610   4.048   4.222  13.464  0.4222  1.3151  1.9746
 1717SOL    HW216611   4.157   4.309  13.493 -0.7093 -0.2979  0.5878
 1718SOL     OW16612   1.620   2.020   3.947  0.0954 -0.2353  0.0507
 1718SOL    HW116613   1.694   2.036   3.888  0.7373 -3.3607  0.0410
 1718SOL    HW216614   1.576   1.949   3.900 -1.4237 -1.2951  3.0969
 1719SOL     OW16615   2.024   0.414   5.059 -0.3411 -0.5970  0.3852
 1719SOL    HW116616   1.973   0.461   4.992  1.1238  0.4223 -0.0162
 1719SOL    HW216617   2.024   0.489   5.118  0.1662  0.2852 -0.7379
 1720SOL     OW16618   1.410   2.447   0.009  0.2193  0.2382 -0.2566
 1720SOL    HW116619   1.386   2.526   0.058  0.7266  0.0753  0.2430
 1720SOL    HW216620   1.332   2.434  17.647  0.4099  0.0666 -0.4905
 1721SOL     OW16621   4.443   0.760   8.349  0.1167 -0.1969 -0.1761
 1721SOL    HW116622   4.454   0.781   8.256 -2.6164 -1.4526 -0.7759
 1721SOL    HW216623   4.383   0.685   8.342 -0.9884  0.5298  1.5698
 1722SOL     OW16624   1.464   2.853   7.643 -0.1624 -0.0682  0.4711
 1722SOL    HW116625   1.430   2.785   7.701 -4.3612  1.4869 -0.0962
 1722SOL    HW216626   1.554   2.824   7.630 -0.3368  0.2924 -1.5586
 1723SOL     OW16627   2.790   0.680  16.846  0.0160  0.1304  0.5712
 1723SOL    HW116628   2.841   0.761  16.853 -1.4981  0.9802  1.9713
 1723SOL    HW216629   2.750   0.676  16.760  0.5938  0.4927  0.2884
 1724SOL     OW16630   2.995   2.724   5.239  0.0183  0.5535  0.5839
 1724SOL    HW116631   2.907   2.688   5.254 -0.6045  1.2136 -1.4460
 1724SOL    HW216632   3.000   2.778   5.318 -1.3161 -0.6623  1.5051
 1725SOL     OW16633   0.957   3.590   0.684 -0.4780 -0.4002  0.2365
 1725SOL    HW116634   0.997   3.642   0.614 -0.1390 -1.4351 -0.3397
 1725SOL    HW216635   0.862   3.599   0.676 -0.4275  1.2768  1.4215
 1726SOL     OW16636   3.895   3.468   0.573  0.1743  0.2174 -0.1052
 1726SOL    HW116637   3.908   3.552   0.529 -2.7643 -0.4549 -2.2605
 1726SOL    HW216638   3.871   3.494   0.662  0.1609 -2.7809  0.7645
 1727SOL     OW16639   2.171   2.723   8.215  0.4183 -0.1287 -0.0393
 1727SOL    HW116640   2.128   2.647   8.255 -2.0885  1.2795 -0.0735
 1727SOL    HW216641   2.094   2.777   8.198  0.7453 -0.1041 -1.4259
 1728SOL     OW16642   2.405   1.990   6.692  0.6416 -0.0020  0.0378
 1728SOL    HW116643   2.319   1.953   6.713  0.1951 -0.1616 -2.0682
 1728SOL    HW216644   2.446   1.980   6.778  0.4618 -2.1789 -0.1340
 1729SOL     OW16645   3.952   2.934  17.432  0.0908  0.1225 -0.1683
 1729SOL    HW116646   3.934   2.939  17.526 -0.5471  0.5853 -0.3176
 1729SOL    HW216647   3.969   3.026  17.415  1.7444 -0.5408 -2.0856
 1730SOL     OW16648   0.795   1.673   3.661 -0.0439 -0.7455  0.1083
 1730SOL    HW116649   0.767   1.765   3.664 -0.1345 -0.8056  0.9675
 1730SOL    HW216650   0.845   1.659   3.740  1.2614 -2.7472 -1.0907
 1731SOL     OW16651   4.501   2.293   5.110 -0.2574  0.1182  0.0133
 1731SOL    HW116652   4.497   2.350   5.186  2.0739 -0.2537  0.4266
 1731SOL    HW216653   4.415   2.253   5.117  0.5218 -1.5218  0.2157
 1732SOL     OW16654   0.312   2.570   3.822 -0.1456 -0.3206  0.0948
 1732SOL    HW116655   0.360   2.610   3.749  0.5013 -0.2170  0.5858
 1732SOL    HW216656   0.308   2.485   3.778 -1.6943 -1.1937  1.9632
 1733SOL     OW16657   1.355   0.548  10.087  0.3043 -0.1073 -0.0548
 1733SOL    HW116658   1.393   0.559  10.000  2.9425 -0.6594  1.0217
 1733SOL    HW216659   1.410   0.618  10.121 -0.5946 -0.6251  2.4453
 1734SOL     OW16660   0.323   1.659   9.881  0.7235 -0.1346  0.6232
 1734SOL    HW116661   0.394   1.722   9.866 -0.0144 -0.1959 -3.1181
 1734SOL    HW216662   0.259   1.692   9.818 -0.1747  0.3240  1.7690
 1735SOL     OW16663   2.202   1.667   6.072 -0.7093  0.1463  0.4706
 1735SOL    HW116664   2.242   1.649   6.157 -1.7816  1.1947  1.2106
 1735SOL    HW216665   2.119   1.701   6.107 -0.9662  0.1683 -0.1528
 1736SOL     OW16666   2.770   1.880   1.005 -0.3135  0.1702 -0.9185
 1736SOL    HW116667   2.780   1.785   0.994  0.5694  0.0494  0.9788
 1736SOL    HW216668   2.778   1.893   1.099  1.9131 -4.2517 -0.4636
 1737SOL     OW16669   0.785   1.718   4.140 -0.4169  0.0910 -0.3603
 1737SOL    HW116670   0.785   1.716   4.044  0.8247 -1.2454 -0.3238
 1737SOL    HW216671   0.851   1.786   4.151 -0.4247  0.3929 -2.1408
 1738SOL     OW16672   0.806   1.972   4.573  0.4464  0.4707 -0.5432
 1738SOL    HW116673   0.719   2.011   4.574  0.2428 -0.0617  1.1080
 1738SOL    HW216674   0.796   1.899   4.512  0.9356  1.1363 -1.4370
 1739SOL     OW16675   3.130   1.210  11.022 -1.0932 -0.2199  0.3664
 1739SOL    HW116676   3.178   1.175  10.947 -0.4883 -0.0338  0.6624
 1739SOL    HW216677   3.099   1.129  11.063 -0.3389 -3.1431 -4.8727
 1740SOL     OW16678   0.652   2.987   2.206  0.1164 -0.4971  0.3095
 1740SOL    HW116679   0.744   2.986   2.182  0.1397  1.2550  0.3644
 1740SOL    HW216680   0.599   2.988   2.126  0.7705  2.6524 -0.0878
 1741SOL     OW16681   0.051   2.052   4.853  0.0290 -0.3985  0.2664
 1741SOL    HW116682   0.083   2.049   4.763 -0.4826 -0.0653  0.0753
 1741SOL    HW216683   0.025   1.960   4.863  0.7483 -0.8444 -2.0289
 1742SOL     OW16684   1.815   3.424  12.968 -0.3253 -0.3433 -0.2797
 1742SOL    HW116685   1.901   3.405  12.930  0.2061 -2.1997  1.8210
 1742SOL    HW216686   1.851   3.491  13.025  0.6029 -1.4301  0.4137
 1743SOL     OW16687   0.409   2.396   2.322  0.5896 -0.4512  0.1590
 1743SOL    HW116688   0.388   2.331   2.390  1.7682 -0.7032  0.2767
 1743SOL    HW216689   0.445   2.342   2.251  1.4321  0.2218  0.0798
 1744SOL     OW16690   2.821   4.434  14.130 -0.1763 -0.0457 -0.6828
 1744SOL    HW116691   2.757   4.366  14.107 -0.3602  0.4558 -1.6784
 1744SOL    HW216692   2.818   4.437  14.225 -1.8037  1.0749 -0.7561
 1745SOL     OW16693   4.384   3.714  16.400  0.4817 -0.1167  0.5627
 1745SOL    HW116694   4.347   3.625  16.396 -1.2944  0.6577 -0.2891
 1745SOL    HW216695   4.317   3.757  16.452 -0.5412  0.7310 -1.4372
 1746SOL     OW16696   0.146   3.668   2.858 -0.2688 -0.0961 -0.0002
 1746SOL    HW116697   0.204   3.739   2.886  0.6240 -0.8536  0.1033
 1746SOL    HW216698   0.093   3.646   2.934 -2.8870  0.1223 -1.7830
 1747SOL     OW16699   3.727   2.878   3.870  0.1563 -0.0929  0.1066
 1747SOL    HW116700   3.793   2.823   3.913 -0.1411  0.3297  1.1164
 1747SOL    HW216701   3.656   2.852   3.928  0.3735  1.5808  1.1311
 1748SOL     OW16702   1.619   3.828   5.659  0.0601 -0.4158 -0.4949
 1748SOL    HW116703   1.644   3.781   5.738  1.9327 -1.0150 -1.4150
 1748SOL    HW216704   1.705   3.827   5.616  1.5805  1.3484  2.5574
 1749SOL     OW16705   0.429   1.618   3.744 -0.3043 -0.2493  0.6031
 1749SOL    HW116706   0.394   1.530   3.730 -0.8986  0.3206 -1.4736
 1749SOL    HW216707   0.498   1.614   3.678 -0.2402  1.9210  0.5574
 1750SOL     OW16708   1.266   2.184  13.282 -0.1139 -0.1133  0.1193
 1750SOL    HW116709   1.248   2.271  13.247 -1.8209 -0.3528  0.3808
 1750SOL    HW216710   1.188   2.174  13.337 -0.5525  1.4382 -0.2165
 1751SOL     OW16711   1.504   3.945   8.758 -0.5796 -0.0984 -0.5667
 1751SOL    HW116712   1.422   3.961   8.805  0.0693  0.9392  0.2283
 1751SOL    HW216713   1.501   3.850   8.751 -3.7153 -0.0334 -0.0678
 1752SOL     OW16714   0.593   2.950   2.801 -0.4791  0.2612  0.7100
 1752SOL    HW116715   0.625   3.016   2.862 -1.9500  1.1056  0.5650
 1752SOL    HW216716   0.580   2.872   2.856  0.2429  0.1067  0.6652
 1753SOL     OW16717   3.729   2.719   6.062 -0.1226  0.4127  0.4412
 1753SOL    HW116718   3.770   2.732   5.977 -3.2807 -1.3115 -1.3267
 1753SOL    HW216719   3.701   2.628   6.070  0.4008  0.2315  0.2281
 1754SOL     OW16720   0.853   1.181   9.040  0.1986 -0.6639  0.1571
 1754SOL    HW116721   0.911   1.244   9.083  0.6905 -0.5518 -0.6882
 1754SOL    HW216722   0.792   1.240   8.995  0.2454 -0.9659 -0.2949
 1755SOL     OW16723   3.654   0.577   9.203  0.3819  0.3467  0.1045
 1755SOL    HW116724   3.637   0.488   9.234 -0.5274  0.4167 -0.2012
 1755SOL    HW216725   3.694   0.615   9.282  0.2087  1.6397 -0.4219
 1756SOL     OW16726   0.062   1.401  15.109 -0.4453 -0.4995  0.1894
 1756SOL    HW116727   0.025   1.370  15.026  2.0784 -1.1172 -0.7184
 1756SOL    HW216728   0.049   1.325  15.167  0.4136 -2.0789 -1.6712
 1757SOL     OW16729   0.468   0.189   7.604 -0.4360 -0.0940 -0.3153
 1757SOL    HW116730   0.395   0.205   7.544 -1.5998 -0.1900  1.0596
 1757SOL    HW216731   0.431   0.199   7.692  0.0052  1.1670 -0.2751
 1758SOL     OW16732   2.714   1.421  14.470  0.0317  0.3683  0.1939
 1758SOL    HW116733   2.779   1.475  14.425  0.6048 -1.5275 -1.2413
 1758SOL    HW216734   2.740   1.449  14.558 -0.5257  0.2353  0.4009
 1759SOL     OW16735   3.552   3.433  13.394  0.3328  0.3544  0.5810
 1759SOL    HW116736   3.532   3.357  13.339 -2.0507  1.7180 -0.3971
 1759SOL    HW216737   3.476   3.442  13.451  1.1939  1.2862  1.5997
 1760SOL     OW16738   0.795   1.607   9.645 -0.7980 -0.7443 -0.1636
 1760SOL    HW116739   0.867   1.547   9.624  0.3720  1.3257 -2.0822
 1760SOL    HW216740   0.772   1.638   9.558  0.4800 -0.8513 -0.5404
 1761SOL     OW16741   0.280   1.127  12.105 -0.4467 -0.1645 -0.5090
 1761SOL    HW116742   0.303   1.196  12.168 -2.4766 -2.3393  2.6025
 1761SOL    HW216743   0.202   1.090  12.147 -0.5138 -1.8330 -2.1241
 1762SOL     OW16744   0.308   1.035   7.380 -0.1739  0.0652 -0.1991
 1762SOL    HW116745   0.350   0.954   7.409 -0.5506  0.1536  0.5719
 1762SOL    HW216746   0.368   1.102   7.413  1.1314 -0.7462 -0.8877
 1763SOL     OW16747   0.496   2.369   7.159 -0.1078 -0.4073 -0.2221
 1763SOL    HW116748   0.426   2.370   7.093 -0.2595  2.4308 -0.0299
 1763SOL    HW216749   0.509   2.461   7.180  2.3296 -0.4910 -1.4094
 1764SOL     OW16750   4.392   1.714   6.038  0.1353 -0.1892 -0.4900
 1764SOL    HW116751   4.318   1.772   6.057  0.9036  0.2241  1.1845
 1764SOL    HW216752   4.409   1.668   6.120 -0.5341  0.5091  0.0428
 1765SOL     OW16753   0.321   2.426   7.379 -0.1204  0.1854 -0.1793
 1765SOL    HW116754   0.269   2.506   7.385 -2.0451 -1.1733  1.1747
 1765SOL    HW216755   0.337   2.399   7.469 -0.3156 -1.0080 -0.5044
 1766SOL     OW16756   3.993   0.349  16.599 -0.5493 -0.2309 -0.2619
 1766SOL    HW116757   3.932   0.421  16.583 -0.4366  0.2712  1.5062
 1766SOL    HW216758   4.078   0.382  16.571 -0.8693  0.6970 -0.1283
 1767SOL     OW16759   2.285   3.533  16.563 -0.0723  0.9222  0.5870
 1767SOL    HW116760   2.309   3.480  16.639  0.3031  0.3479  0.0546
 1767SOL    HW216761   2.196   3.561  16.587 -0.3052  1.1717 -0.5816
 1768SOL     OW16762   3.060   0.122   6.091  0.2411  0.7978  0.2313
 1768SOL    HW116763   3.002   0.058   6.050 -0.6654  1.0206  1.1433
 1768SOL    HW216764   3.092   0.177   6.020 -1.0315  0.4627 -0.5923
 1769SOL     OW16765   0.426   0.994   6.496  0.9707  0.3094 -0.0705
 1769SOL    HW116766   0.519   0.973   6.486  0.9462 -0.3547  1.0892
 1769SOL    HW216767   0.420   1.086   6.473 -2.6933 -0.5046 -2.3592
 1770SOL     OW16768   3.286   1.901   5.869  0.2968 -0.1600  0.1531
 1770SOL    HW116769   3.223   1.890   5.798 -0.7431 -2.4535  1.4386
 1770SOL    HW216770   3.259   1.985   5.906  1.6569 -0.5950  2.1388
 1771SOL     OW16771   0.752   4.144   1.710  0.3485  0.5288  0.2851
 1771SOL    HW116772   0.787   4.140   1.622 -0.7633  0.7449 -0.1693
 1771SOL    HW216773   0.833   4.138   1.761  1.2060  0.9682 -1.0506
 1772SOL     OW16774   1.187   1.513   5.627 -0.2833 -0.0978 -0.2656
 1772SOL    HW116775   1.130   1.493   5.701  0.2356 -1.0507 -0.1133
 1772SOL    HW216776   1.156   1.442   5.569  2.3241 -1.4632 -0.0241
 1773SOL     OW16777   0.871   3.509   5.708  0.4264 -0.2782  0.1422
 1773SOL    HW116778   0.806   3.567   5.668 -0.2282 -1.5385 -0.6091
 1773SOL    HW216779   0.892   3.565   5.783 -1.4585  1.3376 -0.5193
 1774SOL     OW16780   1.286   4.091   6.303  0.1231  0.2197 -0.1477
 1774SOL    HW116781   1.375   4.124   6.311 -0.3887  1.2710  1.0544
 1774SOL    HW216782   1.264   4.105   6.211 -2.0735 -0.3350  0.2785
 1775SOL     OW16783   0.287   3.615   1.749  0.2203 -0.1474 -0.3317
 1775SOL    HW116784   0.292   3.685   1.815 -0.2753 -1.1359  0.7496
 1775SOL    HW216785   0.192   3.610   1.735  0.6269 -2.2372 -2.3381
 1776SOL     OW16786   3.310   3.382   1.125 -0.2926  0.2950  0.2394
 1776SOL    HW116787   3.399   3.418   1.121 -0.3309  0.5366  1.8560
 1776SOL    HW216788   3.267   3.426   1.198  0.0153  2.1863 -0.7124
 1777SOL     OW16789   1.752   1.727   2.811 -0.2795 -0.2140 -0.0035
 1777SOL    HW116790   1.716   1.778   2.739 -0.4021  0.4327  0.5130
 1777SOL    HW216791   1.774   1.795   2.875  0.3368  0.4500 -0.9173
 1778SOL     OW16792   0.982   3.773  10.587  0.0838 -0.0980  0.1689
 1778SOL    HW116793   1.023   3.824  10.518 -0.4181  1.3974  0.9801
 1778SOL    HW216794   0.915   3.832  10.621 -3.1874 -4.8116  1.9950
 1779SOL     OW16795   1.261   4.010   5.348  0.5360  0.1737 -0.8885
 1779SOL    HW116796   1.207   3.956   5.406 -1.1233  1.5535 -1.1576
 1779SOL    HW216797   1.347   4.019   5.390  0.1428  2.8092 -0.6605
 1780SOL     OW16798   2.482   0.293   9.311 -0.0165  0.5313 -0.6970
 1780SOL    HW116799   2.536   0.287   9.232  1.4150 -0.1149  0.3417
 1780SOL    HW216800   2.417   0.361   9.293  0.6509  2.2089  3.2637
 1781SOL     OW16801   2.634   3.850   6.028  0.1344 -0.3126  0.0454
 1781SOL    HW116802   2.711   3.847   6.085  0.0253 -0.8781  0.1628
 1781SOL    HW216803   2.611   3.941   6.043 -0.1026 -0.2467 -0.6908
 1782SOL     OW16804   3.455   0.018   8.252  0.5979  0.0039  0.2799
 1782SOL    HW116805   3.495   0.062   8.177  3.1769 -2.1652  0.3838
 1782SOL    HW216806   3.462   4.653   8.214  1.8107 -0.7594  2.2520
 1783SOL     OW16807   2.214   2.723   8.564  0.1529  0.1819  0.1035
 1783SOL    HW116808   2.219   2.641   8.614  2.4047  1.1804  1.5477
 1783SOL    HW216809   2.137   2.768   8.597 -0.4699 -1.0900  0.3814
 1784SOL     OW16810   1.347   1.043  10.336 -0.1534 -0.0017 -0.2616
 1784SOL    HW116811   1.425   1.089  10.305 -0.5523  0.0655 -1.1711
 1784SOL    HW216812   1.356   1.045  10.432  1.2006 -0.7578 -0.3743
 1785SOL     OW16813   4.085   0.668   3.155 -0.3635  0.4365  0.2031
 1785SOL    HW116814   4.080   0.618   3.236  0.2702 -1.0460 -0.6719
 1785SOL    HW216815   4.001   0.644   3.117  0.0629 -1.4019  0.4524
 1786SOL     OW16816   2.079   3.630   5.617  0.1602 -0.2114 -0.0793
 1786SOL    HW116817   2.097   3.702   5.677 -1.0321 -0.8479  1.0235
 1786SOL    HW216818   2.098   3.681   5.538 -0.4181  1.0223  0.5906
 1787SOL     OW16819   0.976   4.303  15.144 -0.6399 -0.5822  0.1746
 1787SOL    HW116820   0.965   4.345  15.058 -2.5835  1.5571  1.4494
 1787SOL    HW216821   1.069   4.325  15.150 -0.9105  0.3161  1.0814
 1788SOL     OW16822   0.531   2.441  16.814  0.2431  0.2025 -0.5174
 1788SOL    HW116823   0.626   2.451  16.805  0.0359  1.4250 -1.4805
 1788SOL    HW216824   0.531   2.353  16.849 -0.6733  0.0088 -0.9836
 1789SOL     OW16825   0.995   3.466   7.316 -0.0780 -0.3031  0.2453
 1789SOL    HW116826   0.946   3.454   7.235  1.3502 -1.4541 -0.4421
 1789SOL    HW216827   1.000   3.561   7.305  0.0370 -0.2126  1.0633
 1790SOL     OW16828   3.152   2.148   5.931 -0.3141 -0.3976 -0.8590
 1790SOL    HW116829   3.068   2.184   5.957  0.1561 -0.0806  0.2103
 1790SOL    HW216830   3.211   2.219   5.954  0.0370 -0.8010 -0.5106
 1791SOL     OW16831   4.257   3.939   3.286  0.4131  0.6435 -0.1022
 1791SOL    HW116832   4.305   3.995   3.226  1.2605  1.1959  1.0930
 1791SOL    HW216833   4.263   3.853   3.244  0.1561  1.2645 -1.3949
 1792SOL     OW16834   2.143   3.109   8.060  0.5017  0.1023  0.1193
 1792SOL    HW116835   2.133   3.126   8.154 -0.7285 -0.2001  0.0355
 1792SOL    HW216836   2.090   3.030   8.060 -0.5301  0.7990  1.0298
 1793SOL     OW16837   4.138   3.382   1.812  0.3735  0.3010  0.0435
 1793SOL    HW116838   4.065   3.439   1.787 -0.4122 -0.7185 -0.0293
 1793SOL    HW216839   4.091   3.339   1.883 -0.4243 -1.0588 -1.2958
 1794SOL     OW16840   2.738   1.414  17.625  0.0278 -0.2607  0.4896
 1794SOL    HW116841   2.740   1.507  17.603 -3.2927 -0.5730 -1.1356
 1794SOL    HW216842   2.830   1.402  17.646 -0.3152 -3.8127  0.0188
 1795SOL     OW16843   1.316   4.610  10.515  1.0132 -0.1757 -0.0408
 1795SOL    HW116844   1.377   4.646  10.580  3.0534  0.4924 -2.3340
 1795SOL    HW216845   1.359   4.607  10.429  1.0183  0.2644 -0.0492
 1796SOL     OW16846   3.035   3.138   6.484  0.2535 -0.4532  0.0693
 1796SOL    HW116847   3.114   3.087   6.465  1.5615  1.7029 -0.2560
 1796SOL    HW216848   3.071   3.197   6.550  0.2270 -1.4350  0.9692
 1797SOL     OW16849   1.159   4.067  11.852 -0.0412 -0.0304  0.0654
 1797SOL    HW116850   1.196   4.151  11.882 -0.8347  1.1400 -2.2156
 1797SOL    HW216851   1.172   4.073  11.757  0.3654  0.0406  0.1272
 1798SOL     OW16852   0.489   1.015   9.958 -0.4877 -0.1568 -0.0146
 1798SOL    HW116853   0.480   0.968  10.041 -3.0374 -1.5068 -1.0501
 1798SOL    HW216854   0.495   1.104   9.994 -0.5988  0.8765 -2.5886
 1799SOL     OW16855   3.905   3.522   1.731 -0.1276  0.3887 -0.4638
 1799SOL    HW116856   3.886   3.499   1.822 -1.2083 -0.3167 -0.8661
 1799SOL    HW216857   3.854   3.602   1.727  0.2237  0.6443  0.1698
 1800SOL     OW16858   1.438   0.978   7.638 -0.2135 -0.2551 -0.1313
 1800SOL    HW116859   1.366   0.945   7.585 -0.7697 -0.4306  0.7266
 1800SOL    HW216860   1.412   0.978   7.731  2.1058 -1.5248  0.5330
 1801SOL     OW16861   2.316   1.265  13.684  0.1178  0.2331  0.1187
 1801SOL    HW116862   2.238   1.274  13.738 -0.5913  0.7844 -1.0101
 1801SOL    HW216863   2.379   1.299  13.749  0.6683 -1.5384  0.5166
 1802SOL     OW16864   4.102   4.453   1.014 -0.0750 -0.2337 -0.1115
 1802SOL    HW116865   4.151   4.454   0.931  2.1347 -2.2648  1.1846
 1802SOL    HW216866   4.037   4.520   0.990 -1.2355 -1.6421 -0.9698
 1803SOL     OW16867   0.348   2.710  17.682 -0.7431 -0.1610  0.3894
 1803SOL    HW116868   0.435   2.713   0.031  0.3448 -2.1103 -1.7590
 1803SOL    HW216869   0.357   2.628  17.634 -0.3597 -0.5349  1.0957
 1804SOL     OW16870   2.566   2.104   8.639  0.3324 -0.0626 -0.2296
 1804SOL    HW116871   2.560   2.020   8.684 -1.7958  0.6113  0.7432
 1804SOL    HW216872   2.627   2.071   8.573  0.2693 -1.1631  0.2549
 1805SOL     OW16873   0.531   2.667   8.604 -0.6831  0.1343 -0.4738
 1805SOL    HW116874   0.515   2.641   8.513 -0.2762 -0.6351 -0.3203
 1805SOL    HW216875   0.546   2.757   8.575 -0.6946  0.6398  1.1074
 1806SOL     OW16876   3.788   4.153  17.352 -0.5455  0.0561 -0.5468
 1806SOL    HW116877   3.825   4.161  17.264  2.4062  0.6680  0.7405
 1806SOL    HW216878   3.865   4.170  17.406  0.4377 -0.4682 -1.7994
 1807SOL     OW16879   0.688   2.546  15.092 -0.5647  0.5191  0.2238
 1807SOL    HW116880   0.767   2.599  15.101 -0.7095  0.6259  0.9301
 1807SOL    HW216881   0.628   2.608  15.052 -0.5229  0.7912  0.5777
 1808SOL     OW16882   0.043   2.915  10.218 -0.0424  0.5109 -0.0053
 1808SOL    HW116883   0.074   2.944  10.303  0.8995  2.2926 -0.9397
 1808SOL    HW216884   0.008   2.995  10.178  0.2274  0.3008 -0.6592
 1809SOL     OW16885   2.405   2.858   5.127  0.1036  0.2244 -0.6382
 1809SOL    HW116886   2.375   2.851   5.218 -0.4430 -0.6449 -0.8835
 1809SOL    HW216887   2.376   2.947   5.111 -2.2094 -0.6503 -1.2439
 1810SOL     OW16888   3.329   2.707   9.125 -0.0261 -0.3148 -1.0898
 1810SOL    HW116889   3.279   2.766   9.181  0.2694 -0.6596 -0.4636
 1810SOL    HW216890   3.312   2.747   9.040  1.1839  1.0748 -0.6611
 1811SOL     OW16891   3.221   3.771   5.105 -0.1015 -0.3386 -0.4661
 1811SOL    HW116892   3.315   3.784   5.092  0.4034 -1.9476  1.5223
 1811SOL    HW216893   3.208   3.692   5.157  1.1925  0.4897  1.1490
 1812SOL     OW16894   3.083   3.972  10.611  0.2782 -0.3592 -0.0293
 1812SOL    HW116895   3.024   4.036  10.571 -0.4139  0.7042  2.6527
 1812SOL    HW216896   3.159   4.028  10.624  1.3519 -1.8564  0.1122
 1813SOL     OW16897   0.495   2.605   1.156 -0.1723 -0.5070 -0.1635
 1813SOL    HW116898   0.450   2.639   1.078 -1.0892  2.7479  1.7513
 1813SOL    HW216899   0.465   2.658   1.230  0.7178 -0.5445  0.2198
 1814SOL     OW16900   3.910   4.601   5.063  0.4709  0.5685 -0.0114
 1814SOL    HW116901   3.833   4.644   5.025 -0.2567  0.0529  0.8877
 1814SOL    HW216902   3.970   4.674   5.077  0.1860  0.6583  0.7151
 1815SOL     OW16903   1.330   2.714   5.361 -0.0718 -0.2228 -0.5375
 1815SOL    HW116904   1.275   2.780   5.404  0.9541  0.7882 -0.7555
 1815SOL    HW216905   1.261   2.689   5.300 -0.4192 -0.9952  0.1857
 1816SOL     OW16906   1.935   1.096   7.434 -0.2522  0.1340 -0.4036
 1816SOL    HW116907   1.933   1.107   7.339  0.8196  1.1361 -0.3098
 1816SOL    HW216908   2.005   1.153   7.466  0.4586  0.2741 -2.2310
 1817SOL     OW16909   0.316   2.015   3.464  0.3333  0.2737 -0.0572
 1817SOL    HW116910   0.399   1.983   3.499 -1.0376 -2.4932  0.6737
 1817SOL    HW216911   0.260   1.981   3.534  1.0027 -0.9634 -0.1246
 1818SOL     OW16912   2.767   0.175  15.568  0.1968 -0.2158 -0.4668
 1818SOL    HW116913   2.682   0.141  15.542  1.2677 -2.0614 -1.4992
 1818SOL    HW216914   2.801   0.137  15.488  1.3358  1.1068 -0.6181
 1819SOL     OW16915   0.213   3.179   3.672  0.1456  0.0165 -0.3386
 1819SOL    HW116916   0.222   3.090   3.636  1.2022 -0.0342  0.0402
 1819SOL    HW216917   0.143   3.220   3.622  0.6552  0.0532 -1.0269
 1820SOL     OW16918   1.899   0.528   6.898  0.1979 -0.2619 -0.8143
 1820SOL    HW116919   1.967   0.467   6.925 -2.8087 -2.2357  2.2390
 1820SOL    HW216920   1.848   0.543   6.978  0.8620 -1.0101 -0.2551
 1821SOL     OW16921   0.671   0.760   7.218  0.6268  0.6472 -0.2864
 1821SOL    HW116922   0.659   0.707   7.297 -0.6806  1.3290 -0.0363
 1821SOL    HW216923   0.618   0.702   7.162  2.5600 -0.4560 -1.0015
 1822SOL     OW16924   0.707   0.666   5.238 -0.1498  0.3445  0.3210
 1822SOL    HW116925   0.740   0.587   5.280  2.1450 -0.4772 -2.9735
 1822SOL    HW216926   0.731   0.658   5.145  1.4475 -0.1446  0.7860
 1823SOL     OW16927   4.348   4.315   8.600 -0.3181  0.4135 -0.2059
 1823SOL    HW116928   4.424   4.266   8.631 -0.3994  1.8986  2.3450
 1823SOL    HW216929   4.323   4.342   8.688  2.7961 -1.1371  1.1564
 1824SOL     OW16930   0.103   2.054   8.502 -0.0867 -0.1475 -0.0406
 1824SOL    HW116931   0.010   2.076   8.509 -0.1281 -0.2949 -0.1244
 1824SOL    HW216932   0.116   1.963   8.528  1.8176  0.2931  0.5903
 1825SOL     OW16933   4.683   4.484   6.333  0.2622 -0.0442  0.2649
 1825SOL    HW116934   0.042   4.446   6.300  0.0812 -0.1522 -0.0612
 1825SOL    HW216935   4.636   4.475   6.250 -0.0917  0.5868  0.4022
 1826SOL     OW16936   1.449   1.460   3.543  0.2932  0.6523  0.2229
 1826SOL    HW116937   1.491   1.468   3.458 -0.8237 -1.5211 -0.5181
 1826SOL    HW216938   1.527   1.469   3.599  0.7441 -2.0632  0.0149
 1827SOL     OW16939   4.613   0.449   3.489 -0.0027 -0.0659 -0.1603
 1827SOL    HW116940   4.541   0.447   3.552 -0.6496 -1.5421 -0.9424
 1827SOL    HW216941   4.688   0.436   3.547  0.2725  1.8515 -0.0881
 1828SOL     OW16942   4.279   1.301   3.016 -0.6476  0.0270  0.4120
 1828SOL    HW116943   4.259   1.233   3.080 -2.7830 -0.6483 -0.9941
 1828SOL    HW216944   4.367   1.271   2.992 -0.6798 -0.4531  0.8948
 1829SOL     OW16945   3.105   1.561  12.286 -0.1433  0.3028 -0.2050
 1829SOL    HW116946   3.065   1.567  12.199 -1.0169  1.6309  0.2887
 1829SOL    HW216947   3.114   1.653  12.310  1.5966  0.4287 -1.3389
 1830SOL     OW16948   0.626   1.606  14.486 -0.2861  0.2209 -0.3055
 1830SOL    HW116949   0.591   1.518  14.496  1.9435 -0.1461  4.0150
 1830SOL    HW216950   0.544   1.656  14.488 -0.2219  0.3558 -0.9512
 1831SOL     OW16951   0.433   4.312   3.836  0.6453 -0.6918 -0.4385
 1831SOL    HW116952   0.416   4.384   3.897 -1.2254 -0.6549 -0.9940
 1831SOL    HW216953   0.375   4.336   3.764 -1.2454 -0.5262  1.1583
 1832SOL     OW16954   2.522   0.520   7.952  0.7140  0.5191 -0.0041
 1832SOL    HW116955   2.440   0.538   7.997 -0.1652 -1.1472 -0.9262
 1832SOL    HW216956   2.592   0.545   8.012 -0.9935 -1.4083  2.7673
 1833SOL     OW16957   3.815   2.077   4.322 -0.7673 -0.8209  0.2468
 1833SOL    HW116958   3.758   2.000   4.315  0.4812 -1.4381 -3.1328
 1833SOL    HW216959   3.773   2.137   4.261  0.0470  0.0239  0.5028
 1834SOL     OW16960   3.955   4.552   9.111 -0.7035 -0.2542  0.3328
 1834SOL    HW116961   3.888   4.486   9.130 -2.6363  1.5528 -0.2332
 1834SOL    HW216962   3.994   4.564   9.197 -0.1801  0.7886 -0.0555
 1835SOL     OW16963   0.225   2.202   3.861  0.7183  0.6311  0.5009
 1835SOL    HW116964   0.197   2.279   3.812  0.7314  0.3675  0.0874
 1835SOL    HW216965   0.288   2.166   3.800  0.0204 -0.2070  0.2734
 1836SOL     OW16966   2.761   1.122   2.965 -0.2018 -0.0320  0.1035
 1836SOL    HW116967   2.808   1.099   3.045 -0.5244 -2.3446 -0.3661
 1836SOL    HW216968   2.684   1.165   3.003  2.7953  3.2485  2.4973
 1837SOL     OW16969   0.501   1.119   5.047  0.1277 -0.1279  0.4600
 1837SOL    HW116970   0.593   1.094   5.053 -0.4872 -1.9298  2.3864
 1837SOL    HW216971   0.499   1.210   5.076 -0.9819  0.3864 -1.1972
 1838SOL     OW16972   4.706   3.243   6.792 -0.1065 -0.3776  0.0289
 1838SOL    HW116973   0.007   3.151   6.805 -2.2989 -0.7232  1.4760
 1838SOL    HW216974   4.611   3.237   6.782 -0.4328  0.8036  2.5122
 1839SOL     OW16975   0.527   0.949  14.385  0.2516  0.0425  0.1191
 1839SOL    HW116976   0.574   0.997  14.316 -0.4459  1.0962  0.3798
 1839SOL    HW216977   0.464   0.898  14.334 -1.2193  0.2406  1.7287
 1840SOL     OW16978   0.975   3.226   2.906  0.1586 -0.3336 -0.0848
 1840SOL    HW116979   0.910   3.270   2.851  0.8466 -0.7000 -1.1796
 1840SOL    HW216980   1.054   3.249   2.858  0.5331 -0.6508  0.3751
 1841SOL     OW16981   1.541   4.462   5.647  0.5973  0.0346  0.2369
 1841SOL    HW116982   1.537   4.369   5.666  1.4153 -0.0115  0.1740
 1841SOL    HW216983   1.598   4.466   5.570  0.7853  0.5112  0.3999
 1842SOL     OW16984   0.341   3.519   8.374 -0.3613  0.2572 -0.5685
 1842SOL    HW116985   0.327   3.554   8.462 -1.0604  0.3636 -0.7251
 1842SOL    HW216986   0.294   3.437   8.388  0.4185 -0.1454 -0.3442
 1843SOL     OW16987   0.978   2.860  13.847  0.1315  0.1098  0.4477
 1843SOL    HW116988   0.916   2.932  13.864  0.3995  0.9753 -2.2629
 1843SOL    HW216989   1.054   2.918  13.843  1.0513 -1.1530 -0.3579
 1844SOL     OW16990   2.277   2.148  16.487  0.0680  0.1232  0.4170
 1844SOL    HW116991   2.217   2.198  16.432 -0.2190  0.2512  0.8462
 1844SOL    HW216992   2.335   2.111  16.420  0.0824  0.2417  0.3645
 1845SOL     OW16993   3.744   1.538   4.139  0.5109 -0.0722 -0.2266
 1845SOL    HW116994   3.776   1.449   4.155 -1.2400 -0.8936 -1.3182
 1845SOL    HW216995   3.801   1.588   4.199 -0.8937  0.9251  0.2734
 1846SOL     OW16996   0.887   1.346   0.227 -0.1305  0.0614  0.2208
 1846SOL    HW116997   0.822   1.377   0.164  0.2352 -0.0732 -0.2276
 1846SOL    HW216998   0.843   1.263   0.244  0.1398 -0.4962 -1.8055
 1847SOL     OW16999   3.508   0.084   4.462 -0.2642  0.2952 -0.1838
 1847SOL    HW117000   3.592   0.111   4.499  0.5577 -1.4923 -0.7174
 1847SOL    HW217001   3.519   4.711   4.459 -1.5182  0.1020  1.5718
 1848SOL     OW17002   2.737   3.100   7.997 -0.1357  0.6552  0.3495
 1848SOL    HW117003   2.644   3.121   8.002 -0.5364 -1.2279  0.8305
 1848SOL    HW217004   2.753   3.077   7.906  0.9325  2.0262  0.1948
 1849SOL     OW17005   0.653   3.161  14.048  0.6813  0.0232  0.4823
 1849SOL    HW117006   0.704   3.124  13.976 -2.4833  0.6594 -2.0740
 1849SOL    HW217007   0.663   3.085  14.106  2.6029  0.2823  0.4881
 1850SOL     OW17008   2.612   2.591   4.378  0.5625  0.2975 -0.2435
 1850SOL    HW117009   2.633   2.499   4.363 -0.1320  0.5442 -2.7998
 1850SOL    HW217010   2.677   2.625   4.440  1.2306 -2.7923  0.7242
 1851SOL     OW17011   2.028   1.250  14.547 -0.0268 -0.6947  0.3874
 1851SOL    HW117012   1.983   1.230  14.629  1.4412  3.0417  2.1099
 1851SOL    HW217013   1.974   1.316  14.502 -1.6133 -2.6308 -0.5696
 1852SOL     OW17014   0.115   3.308  13.176  0.0463  0.0205 -0.2062
 1852SOL    HW117015   0.079   3.244  13.238  0.5470  0.1052  0.1709
 1852SOL    HW217016   0.055   3.378  13.205  0.5525  0.9083 -1.3111
 1853SOL     OW17017   4.676   4.141  17.061  0.0233 -0.1986 -0.3451
 1853SOL    HW117018   0.003   4.200  17.117  0.0548 -0.7872  0.2473
 1853SOL    HW217019   4.618   4.204  17.019 -2.4977 -1.0063  1.9241
 1854SOL     OW17020   3.500   1.985   9.616  0.1373  0.3270 -0.4183
 1854SOL    HW117021   3.574   1.943   9.660  0.3099  1.3717  0.2861
 1854SOL    HW217022   3.471   2.053   9.677  1.7535 -0.4694  1.2353
 1855SOL     OW17023   2.554   4.354  15.963  0.2382  0.4508  0.2840
 1855SOL    HW117024   2.571   4.362  15.870 -0.5430  0.1842  0.1179
 1855SOL    HW217025   2.459   4.359  15.951  0.2901  3.0801  0.9219
 1856SOL     OW17026   2.562   2.894   3.287  0.2043 -0.0603  0.0455
 1856SOL    HW117027   2.610   2.976   3.270 -2.1366  1.2834 -0.0777
 1856SOL    HW217028   2.638   2.843   3.315 -0.1071 -0.5379  0.0072
 1857SOL     OW17029   0.502   2.813   2.376 -0.5699  0.5408 -0.1739
 1857SOL    HW117030   0.455   2.757   2.316  3.1744 -1.8302 -0.8969
 1857SOL    HW217031   0.585   2.812   2.328  0.6018  1.5361  1.8048
 1858SOL     OW17032   0.290   4.558   3.995 -0.6241  0.2164  0.0353
 1858SOL    HW117033   0.220   4.620   4.014 -1.3271  0.2194 -2.5521
 1858SOL    HW217034   0.363   4.615   3.970  0.5994 -1.8874 -1.2020
 1859SOL     OW17035   1.315   3.532   3.012 -0.4070 -0.2983 -0.5235
 1859SOL    HW117036   1.312   3.439   2.991 -1.3805 -0.3196 -0.3146
 1859SOL    HW217037   1.315   3.562   2.921  1.8598  0.8345 -0.1431
 1860SOL     OW17038   2.772   3.776   7.857  0.3940 -0.0528  0.5729
 1860SOL    HW117039   2.814   3.735   7.933 -1.1576 -2.6438 -0.0068
 1860SOL    HW217040   2.690   3.814   7.891  1.1906 -0.2243  2.7256
 1861SOL     OW17041   1.505   2.501  16.384 -0.1980  0.1157 -0.1245
 1861SOL    HW117042   1.479   2.584  16.424  1.3179  1.3231 -1.6262
 1861SOL    HW217043   1.492   2.533  16.294 -3.3154  1.7356  0.8786
 1862SOL     OW17044   3.605   4.178   6.422 -0.5675 -0.5353 -0.3221
 1862SOL    HW117045   3.548   4.117   6.470  1.2591 -1.7184  0.3412
 1862SOL    HW217046   3.590   4.261   6.468 -2.7612 -0.0197 -1.9866
 1863SOL     OW17047   2.095   2.212   8.632 -0.2459  0.0694  0.2444
 1863SOL    HW117048   2.053   2.288   8.674  0.4291  0.7926 -0.3724
 1863SOL    HW217049   2.169   2.197   8.690  0.0760  0.9083  0.0556
 1864SOL     OW17050   2.203   2.840  12.901  0.2247  0.1327  0.5877
 1864SOL    HW117051   2.116   2.811  12.873 -0.3842  0.5946  1.9958
 1864SOL    HW217052   2.254   2.822  12.823  1.3549  2.4742  0.8085
 1865SOL     OW17053   3.196   4.216   7.036  0.5044 -0.1074 -0.6490
 1865SOL    HW117054   3.182   4.122   7.024 -0.9561 -0.2250  2.0216
 1865SOL    HW217055   3.255   4.218   7.112  0.5157  1.6955 -0.6936
 1866SOL     OW17056   2.013   0.547   3.103  0.3648 -0.1467  0.2424
 1866SOL    HW117057   2.068   0.502   3.039  1.2292  0.5601  0.4942
 1866SOL    HW217058   1.974   0.470   3.143 -0.4197  0.2981  0.3365
 1867SOL     OW17059   1.112   1.186   4.767 -0.3757 -0.2460  0.1199
 1867SOL    HW117060   1.111   1.098   4.805 -0.3269  0.2449  1.2559
 1867SOL    HW217061   1.081   1.176   4.677  0.6717  1.8658 -0.4632
 1868SOL     OW17062   3.282   1.687   5.471  0.0807  0.3873  0.5309
 1868SOL    HW117063   3.270   1.660   5.380  1.9484 -2.8600  1.2369
 1868SOL    HW217064   3.374   1.714   5.460 -0.3524 -0.3925 -4.8935
 1869SOL     OW17065   4.291   0.519   3.009  0.0300 -1.1035  0.0797
 1869SOL    HW117066   4.386   0.517   3.022  0.3182  0.3511 -1.8107
 1869SOL    HW217067   4.262   0.596   3.058  0.5600 -0.2046 -1.0301
 1870SOL     OW17068   3.775   2.089   5.482 -0.0133 -0.4798 -0.3020
 1870SOL    HW117069   3.792   1.998   5.503 -3.0680 -0.9825  0.0378
 1870SOL    HW217070   3.679   2.089   5.487 -0.1000 -1.6053 -2.0707
 1871SOL     OW17071   4.155   0.323  10.129  0.0576  0.2370  0.1134
 1871SOL    HW117072   4.144   0.228  10.136  1.7132 -0.0488 -0.9818
 1871SOL    HW217073   4.133   0.322  10.036 -1.3380 -4.9695  0.4598
 1872SOL     OW17074   4.065   0.526  10.900  0.2836  0.4602  0.2800
 1872SOL    HW117075   3.972   0.534  10.880 -0.4242 -1.7524  2.7485
 1872SOL    HW217076   4.105   0.568  10.824  1.9816 -0.8829  0.4396
 1873SOL     OW17077   3.529   0.023  15.062  0.2275 -0.2620 -0.0610
 1873SOL    HW117078   3.462   0.013  15.130  1.1082 -0.3379  0.7897
 1873SOL    HW217079   3.496   0.099  15.015 -2.0849 -0.6566  0.8856
 1874SOL     OW17080   4.029   2.703   2.529 -0.2653  0.3744 -0.7092
 1874SOL    HW117081   4.011   2.777   2.588 -2.3663  0.0057 -0.9027
 1874SOL    HW217082   4.008   2.751   2.449 -0.3898 -0.9393 -1.4535
 1875SOL     OW17083   3.170   4.035   7.695  0.4068 -0.5055 -0.1451
 1875SOL    HW117084   3.201   4.035   7.605  0.0506 -0.9397 -0.2688
 1875SOL    HW217085   3.222   3.968   7.741 -0.4064  0.3344  1.9919
 1876SOL     OW17086   1.407   3.420   6.154 -0.1276  0.4933  0.4522
 1876SOL    HW117087   1.401   3.482   6.081 -1.8425 -0.5589 -0.3086
 1876SOL    HW217088   1.500   3.398   6.156  0.0994  1.4466  0.6732
 1877SOL     OW17089   1.449   4.346   7.806 -0.1974 -0.1393 -0.1525
 1877SOL    HW117090   1.385   4.399   7.853 -0.3139 -2.2540  2.0463
 1877SOL    HW217091   1.418   4.343   7.715 -2.1435 -0.3197  0.5084
 1878SOL     OW17092   3.502   1.496   1.700 -0.1120  0.5843 -0.1773
 1878SOL    HW117093   3.570   1.475   1.636  1.1544  1.4799  0.8464
 1878SOL    HW217094   3.516   1.588   1.725 -0.3606  0.1009  1.7252
 1879SOL     OW17095   1.198   1.410   8.261 -0.1154 -0.1729  0.1257
 1879SOL    HW117096   1.190   1.316   8.276  0.1817 -0.0316  1.1368
 1879SOL    HW217097   1.111   1.441   8.235  0.9527  2.7268  0.0294
 1880SOL     OW17098   3.275   1.838  17.597  0.8102 -0.1125 -0.1698
 1880SOL    HW117099   3.196   1.786  17.583 -0.9603  1.9671  2.2754
 1880SOL    HW217100   3.322   1.774  17.651  0.1692 -2.2705 -2.1532
 1881SOL     OW17101   3.336   0.341   6.135 -0.2168 -0.2623 -0.0990
 1881SOL    HW117102   3.424   0.351   6.099  0.6409 -1.0169  1.7675
 1881SOL    HW217103   3.288   0.410   6.089  0.5860  1.4712  1.6862
 1882SOL     OW17104   3.998   2.355   0.950 -0.4990  0.5966 -0.5416
 1882SOL    HW117105   3.958   2.419   0.890 -1.0361  1.5240  0.8137
 1882SOL    HW217106   3.997   2.413   1.026 -2.5895 -0.2438  0.0621
 1883SOL     OW17107   0.354   3.441  11.954  0.5286  0.1633  0.1034
 1883SOL    HW117108   0.269   3.404  11.978  1.7179 -1.0826  2.3500
 1883SOL    HW217109   0.360   3.412  11.863 -1.4938 -1.6122  0.5378
 1884SOL     OW17110   1.982   0.385   5.507  0.3651  0.0801 -0.1661
 1884SOL    HW117111   1.986   0.295   5.477 -2.8221  0.1621 -0.8505
 1884SOL    HW217112   1.947   0.371   5.595 -0.1284 -2.1151 -0.7249
 1885SOL     OW17113   3.298   4.020   7.456 -1.1069 -0.1398 -0.2856
 1885SOL    HW117114   3.368   4.066   7.502 -2.2948 -1.2635  2.6980
 1885SOL    HW217115   3.330   4.023   7.366 -1.2816 -0.6768 -0.3665
 1886SOL     OW17116   3.674   4.142   3.542  0.2323  0.0800 -0.1937
 1886SOL    HW117117   3.615   4.187   3.602  1.6488  0.0514  1.2109
 1886SOL    HW217118   3.739   4.124   3.609  0.0737  1.0310  0.2104
 1887SOL     OW17119   1.551   0.275  11.874  0.5535 -0.3145  0.5680
 1887SOL    HW117120   1.592   0.191  11.855 -0.0715 -0.2404 -1.1832
 1887SOL    HW217121   1.523   0.271  11.965  1.1239 -1.5838  0.6766
 1888SOL     OW17122   2.955   0.123   8.041  0.0898  0.2624  0.1930
 1888SOL    HW117123   3.049   0.117   8.024  0.0193  0.4445 -0.2534
 1888SOL    HW217124   2.948   0.169   8.125  1.3089  0.3846  0.2355
 1889SOL     OW17125   0.868   2.556   8.934  0.7225 -0.2908  0.2331
 1889SOL    HW117126   0.852   2.584   8.844 -2.3151 -1.7115  0.3546
 1889SOL    HW217127   0.917   2.477   8.913 -1.5663 -2.1916  2.1040
 1890SOL     OW17128   2.669   1.060   3.636 -0.1401  0.2796 -0.1140
 1890SOL    HW117129   2.577   1.070   3.660  0.3392  0.9394  1.4553
 1890SOL    HW217130   2.672   1.116   3.558  0.7529  0.1200 -0.2017
 1891SOL     OW17131   1.409   1.326   9.246 -0.9111  0.0790  0.2060
 1891SOL    HW117132   1.503   1.318   9.230 -1.1301 -0.7026 -0.6869
 1891SOL    HW217133   1.414   1.387   9.319  2.0276  0.0014  0.0869
 1892SOL     OW17134   0.948   0.942   5.986 -0.2632 -0.0591  0.2636
 1892SOL    HW117135   0.883   1.004   6.017  0.6669  1.6309 -1.1075
 1892SOL    HW217136   0.895   0.883   5.932 -1.3676  0.1451  1.1349
 1893SOL     OW17137   2.200   2.113   5.742 -0.1028  0.1938  0.7949
 1893SOL    HW117138   2.181   2.069   5.659  1.0942  0.7143  0.2410
 1893SOL    HW217139   2.177   2.053   5.813 -2.7759 -1.0572 -1.1603
 1894SOL     OW17140   3.181   4.210   7.938 -1.1423  0.3955  0.3137
 1894SOL    HW117141   3.272   4.240   7.930 -1.2351  0.3078 -1.1025
 1894SOL    HW217142   3.166   4.203   7.844  2.4233 -0.8195 -0.1867
 1895SOL     OW17143   2.943   2.186   2.906 -0.2170  0.8990 -0.3592
 1895SOL    HW117144   2.867   2.169   2.961 -0.2348 -1.0734 -0.9921
 1895SOL    HW217145   2.969   2.100   2.874  0.2381  1.5291 -1.6962
 1896SOL     OW17146   4.372   3.923  16.056 -0.2238 -0.2949  0.0730
 1896SOL    HW117147   4.352   3.978  16.131  1.1814  0.5157 -0.1410
 1896SOL    HW217148   4.451   3.880  16.089 -0.2824 -0.0689  0.5084
 1897SOL     OW17149   3.859   3.819   1.341  0.4302 -0.4103 -0.0148
 1897SOL    HW117150   3.883   3.728   1.358  1.1441 -0.1249  0.5167
 1897SOL    HW217151   3.910   3.865   1.408 -0.3459  0.4431 -0.0027
 1898SOL     OW17152   1.859   1.051   6.930  0.0384  0.4221 -0.6501
 1898SOL    HW117153   1.875   1.080   6.840 -0.9168 -0.3019 -1.0589
 1898SOL    HW217154   1.889   0.960   6.920 -1.5014 -0.1757  0.1778
 1899SOL     OW17155   4.168   1.583  12.121  0.4590  0.0491  0.2688
 1899SOL    HW117156   4.261   1.602  12.134  0.4249  1.2181 -1.1717
 1899SOL    HW217157   4.122   1.641  12.181  0.6001  1.3736 -0.8734
 1900SOL     OW17158   4.534   3.661   2.885 -0.3973 -0.2134 -0.3093
 1900SOL    HW117159   4.472   3.732   2.871 -0.0216  0.2541  0.3976
 1900SOL    HW217160   4.579   3.690   2.964 -0.3774 -0.0690 -0.3729
 1901SOL     OW17161   0.594   1.639  17.436 -0.1443 -0.0427  0.1142
 1901SOL    HW117162   0.505   1.634  17.400 -1.3376 -2.1568  3.3443
 1901SOL    HW217163   0.633   1.559  17.402 -0.9744 -0.9113  1.1944
 1902SOL     OW17164   1.580   1.703   8.628  0.0138 -0.3329  0.1944
 1902SOL    HW117165   1.505   1.737   8.676  0.3859  0.4252  0.2391
 1902SOL    HW217166   1.597   1.622   8.675  1.4907 -0.6848 -0.9367
 1903SOL     OW17167   4.183   0.839   6.672 -0.0675  0.0655 -0.4718
 1903SOL    HW117168   4.272   0.806   6.660 -0.5820 -1.0701 -1.1631
 1903SOL    HW217169   4.169   0.838   6.766  3.2493 -0.2646  0.0063
 1904SOL     OW17170   1.612   3.161   9.042  0.1185 -0.1419 -0.6434
 1904SOL    HW117171   1.634   3.084   9.095 -2.5342  0.4865  1.3849
 1904SOL    HW217172   1.683   3.160   8.978 -1.6790 -2.5010 -2.5678
 1905SOL     OW17173   3.766   4.645   6.406  0.3908 -0.1223  0.5044
 1905SOL    HW117174   3.748   4.659   6.314  1.8556  2.0289  0.5283
 1905SOL    HW217175   3.855   4.607   6.407 -0.1098 -1.2921  1.2411
 1906SOL     OW17176   1.844   0.660  17.162  0.0436 -0.4674 -0.4002
 1906SOL    HW117177   1.766   0.715  17.170  0.1860 -0.0263 -2.1740
 1906SOL    HW217178   1.891   0.690  17.084 -2.1678 -1.0552 -1.9569
 1907SOL     OW17179   3.903   0.201   7.036  0.1209 -0.0069  0.4329
 1907SOL    HW117180   3.825   0.250   7.060 -0.0325  0.1087 -0.3078
 1907SOL    HW217181   3.919   0.224   6.945 -1.7548 -0.7510 -0.0860
 1908SOL     OW17182   1.942   4.540   6.695  0.4649  0.1423 -0.4303
 1908SOL    HW117183   2.036   4.551   6.683  1.0088 -2.7224  1.3880
 1908SOL    HW217184   1.929   4.546   6.790 -1.0379 -2.3386 -0.4700
 1909SOL     OW17185   2.321   2.533   8.743 -0.2072  0.1044 -0.3075
 1909SOL    HW117186   2.372   2.488   8.811  0.5592  1.4364  0.0055
 1909SOL    HW217187   2.366   2.494   8.668  0.3016  2.5507 -1.2737
 1910SOL     OW17188   0.043   1.454   4.705  0.4241 -0.0859  0.9167
 1910SOL    HW117189   0.000   1.382   4.751 -2.5899  0.1282 -1.4850
 1910SOL    HW217190   4.712   1.531   4.724 -0.9721 -1.0706  0.9876
 1911SOL     OW17191   2.022   0.347   4.680  0.1801 -0.0542 -0.3551
 1911SOL    HW117192   1.932   0.352   4.712 -0.3199  1.6347 -2.0320
 1911SOL    HW217193   2.056   0.435   4.698 -2.6899  0.9762 -0.0158
 1912SOL     OW17194   1.880   0.007  11.510  0.0446  0.6572 -0.0706
 1912SOL    HW117195   1.921   4.681  11.439  0.8586 -1.7913  2.0640
 1912SOL    HW217196   1.797   4.682  11.517  2.3573 -3.0788  2.3746
 1913SOL     OW17197   1.231   3.211   3.760  0.1257  0.0867 -0.9206
 1913SOL    HW117198   1.249   3.125   3.722 -1.4305 -0.0860 -1.2593
 1913SOL    HW217199   1.313   3.259   3.747 -0.0759  0.5043 -0.6539
 1914SOL     OW17200   4.572   0.160   3.670 -0.3515 -0.3452  0.1352
 1914SOL    HW117201   4.661   0.157   3.634  0.1553  1.3569  1.2078
 1914SOL    HW217202   4.537   0.091   3.614 -0.9572 -0.8345  1.1059
 1915SOL     OW17203   4.205   0.389  14.171  0.3217  0.5867 -0.1933
 1915SOL    HW117204   4.214   0.433  14.256 -2.6411  1.3136 -0.2603
 1915SOL    HW217205   4.288   0.341  14.168 -0.2201 -0.2974 -0.7444
 1916SOL     OW17206   3.790   1.156   7.831  0.0568  0.2630  0.7863
 1916SOL    HW117207   3.784   1.245   7.796  0.0833 -0.1604 -0.2838
 1916SOL    HW217208   3.825   1.103   7.760 -2.0376  1.6495 -1.2743
 1917SOL     OW17209   0.504   2.055   4.171  0.2119  0.3291 -0.2272
 1917SOL    HW117210   0.552   2.060   4.089  0.5945 -3.1782 -0.1905
 1917SOL    HW217211   0.515   2.146   4.200 -0.3219  0.4374 -0.3625
 1918SOL     OW17212   0.037   1.727   4.814  0.4802 -0.1869 -0.2178
 1918SOL    HW117213   0.100   1.659   4.836  1.4392  1.1089  0.9456
 1918SOL    HW217214   4.684   1.705   4.869  1.4164  2.2454  2.0068
 1919SOL     OW17215   3.641   0.322   7.069 -0.4713  0.2832 -0.5641
 1919SOL    HW117216   3.591   0.278   7.000 -0.3657  2.0338 -1.7595
 1919SOL    HW217217   3.574   0.362   7.123 -1.8763 -2.7999 -0.0296
 1920SOL     OW17218   3.201   4.589   4.738 -0.7377  0.0391 -0.0006
 1920SOL    HW117219   3.232   4.680   4.731 -3.4659  0.9300 -0.3919
 1920SOL    HW217220   3.109   4.600   4.762 -0.6810  1.1497 -0.2938
 1921SOL     OW17221   0.108   1.246   4.479  0.1903  0.4043 -0.1818
 1921SOL    HW117222   0.153   1.287   4.406  1.6848  0.7262  0.9271
 1921SOL    HW217223   0.057   1.317   4.518 -2.4874 -2.1945  1.1371
 1922SOL     OW17224   2.215   1.863   9.296  0.3523 -0.0974 -0.3758
 1922SOL    HW117225   2.163   1.920   9.240  0.8387 -1.2803 -2.0314
 1922SOL    HW217226   2.300   1.905   9.309 -0.6209  1.3445  1.2128
 1923SOL     OW17227   3.952   2.316  14.188 -0.2812 -0.4350  0.2374
 1923SOL    HW117228   3.975   2.354  14.273  1.0093  0.3278 -0.4357
 1923SOL    HW217229   4.033   2.337  14.141 -0.6171  0.3142 -0.0139
 1924SOL     OW17230   3.438   1.067   8.330  0.0001 -0.1307 -0.5619
 1924SOL    HW117231   3.418   1.130   8.261 -0.5265 -0.3018 -0.5724
 1924SOL    HW217232   3.383   1.106   8.398 -0.3342 -1.7273  0.0817
 1925SOL     OW17233   3.722   1.025   5.336  0.6067 -0.4493  0.1560
 1925SOL    HW117234   3.743   1.085   5.265  0.6261 -2.2368 -1.3583
 1925SOL    HW217235   3.801   1.032   5.390 -0.1478  0.4987  1.1318
 1926SOL     OW17236   4.314   4.631  10.378  0.1291 -0.3969  0.2780
 1926SOL    HW117237   4.310   4.553  10.434  0.3255  1.4535  2.8388
 1926SOL    HW217238   4.222   4.636  10.353 -0.2002 -5.0020  0.4459
 1927SOL     OW17239   1.560   2.758   0.672  0.0948  0.2493  0.0842
 1927SOL    HW117240   1.585   2.809   0.595 -1.9904  1.9293  0.5006
 1927SOL    HW217241   1.477   2.714   0.655  1.3066 -1.6700 -0.7852
 1928SOL     OW17242   1.671   1.667   8.071  0.1712 -0.3350  0.4655
 1928SOL    HW117243   1.590   1.618   8.063 -0.1332  0.3123 -0.3568
 1928SOL    HW217244   1.665   1.707   8.158  0.5166  0.9387 -0.0988
 1929SOL     OW17245   2.076   1.829   8.136 -0.2406 -0.9427 -0.0623
 1929SOL    HW117246   2.038   1.857   8.052 -1.5003  0.2011  0.8921
 1929SOL    HW217247   2.139   1.763   8.107  1.5876  0.2473  1.2012
 1930SOL     OW17248   0.452   4.253   1.942  0.0325 -0.2627  0.1418
 1930SOL    HW117249   0.532   4.218   1.979 -0.2589 -1.5733 -0.4601
 1930SOL    HW217250   0.459   4.348   1.953 -2.0128 -0.0156 -0.5640
 1931SOL     OW17251   3.397   4.564  10.147 -0.7093 -0.3610 -0.4546
 1931SOL    HW117252   3.455   4.564  10.071 -1.3082 -1.8837 -0.9062
 1931SOL    HW217253   3.466   4.559  10.214 -1.5613  2.8525  0.6828
 1932SOL     OW17254   3.893   0.731   2.663  0.0488  0.3097 -0.2622
 1932SOL    HW117255   3.938   0.809   2.630  0.6090  0.4380  0.7760
 1932SOL    HW217256   3.882   0.752   2.756 -0.4865 -2.0673  0.2101
 1933SOL     OW17257   1.322   3.642   5.470 -0.4660  0.3633  0.0108
 1933SOL    HW117258   1.252   3.670   5.528  0.4805  2.2938  0.1987
 1933SOL    HW217259   1.274   3.580   5.415  0.6703 -0.4671 -0.0456
 1934SOL     OW17260   2.482   3.098   3.882  0.5330 -0.2941  0.5015
 1934SOL    HW117261   2.400   3.085   3.834  0.4514 -0.2875  0.6400
 1934SOL    HW217262   2.455   3.182   3.919  0.8393  0.1085 -0.1822
 1935SOL     OW17263   2.905   0.213   7.626 -0.0799  0.1481 -0.2138
 1935SOL    HW117264   2.894   0.137   7.568 -1.5462 -0.2518  0.5838
 1935SOL    HW217265   2.993   0.228   7.593 -0.3890  0.5904 -0.8283
 1936SOL     OW17266   4.230   0.652   2.634  0.3568 -0.2160 -0.8000
 1936SOL    HW117267   4.234   0.739   2.674  1.1736 -0.5312 -0.1927
 1936SOL    HW217268   4.234   0.688   2.545 -0.9431  0.9764 -0.3854
 1937SOL     OW17269   1.866   2.249  10.761  0.3386 -0.3511  0.0533
 1937SOL    HW117270   1.868   2.326  10.703 -1.7116 -1.7276 -1.8666
 1937SOL    HW217271   1.774   2.225  10.751  0.3311  0.1504 -1.1247
 1938SOL     OW17272   2.564   2.989   3.590  0.3492  0.4939  0.0193
 1938SOL    HW117273   2.562   2.994   3.686 -0.0942 -2.0309  0.1672
 1938SOL    HW217274   2.471   2.975   3.570  0.4643 -0.3369  0.0465
 1939SOL     OW17275   4.286   3.032   4.376  0.4839  0.1515  0.4178
 1939SOL    HW117276   4.229   2.967   4.418  0.4968  1.1713  2.0249
 1939SOL    HW217277   4.226   3.106   4.376 -0.2412 -0.4327  0.1611
 1940SOL     OW17278   3.770   4.321   9.156 -0.1119 -0.8355  0.1474
 1940SOL    HW117279   3.847   4.266   9.145 -1.2662 -2.4497  0.0826
 1940SOL    HW217280   3.701   4.259   9.182 -0.6772 -0.7032 -0.9909
 1941SOL     OW17281   3.761   3.607   4.776 -0.1744  0.3553  0.5319
 1941SOL    HW117282   3.813   3.685   4.800 -0.4446  0.0681  2.0467
 1941SOL    HW217283   3.693   3.646   4.721 -0.2255 -0.4410  0.0274
 1942SOL     OW17284   4.191   0.338   0.639  0.7507  0.7179  0.1761
 1942SOL    HW117285   4.168   0.245   0.643 -1.6722  1.4189  2.6090
 1942SOL    HW217286   4.123   0.374   0.581 -0.6780 -0.2240  1.2661
 1943SOL     OW17287   3.433   4.265   1.220 -0.0236 -0.3539 -0.3536
 1943SOL    HW117288   3.357   4.244   1.274  1.2653  1.4343  2.1421
 1943SOL    HW217289   3.404   4.345   1.175  1.0866 -0.6603 -1.6024
 1944SOL     OW17290   0.797   3.528   4.589 -0.2385 -0.6795 -0.1439
 1944SOL    HW117291   0.767   3.544   4.500 -1.3389 -0.0011  0.3475
 1944SOL    HW217292   0.770   3.610   4.631  1.1271  0.3693 -1.3384
 1945SOL     OW17293   3.132   1.765  12.840 -0.3945 -0.4265 -0.1530
 1945SOL    HW117294   3.055   1.710  12.830 -0.7687  0.1989 -0.7958
 1945SOL    HW217295   3.206   1.706  12.826 -0.6650 -1.1165  1.3661
 1946SOL     OW17296   2.586   3.133   4.474  1.0886 -0.2128 -0.0113
 1946SOL    HW117297   2.585   3.221   4.512 -1.3065 -0.0900 -0.3293
 1946SOL    HW217298   2.564   3.165   4.387  1.5958  0.4351  0.1033
 1947SOL     OW17299   0.593   1.989   6.841  0.1088  0.3510 -0.0467
 1947SOL    HW117300   0.567   2.038   6.919  0.7193 -2.6827  2.0631
 1947SOL    HW217301   0.623   2.064   6.790  0.9888  0.1374  0.1601
 1948SOL     OW17302   2.624   1.314  16.276 -0.1041 -0.1353  0.3538
 1948SOL    HW117303   2.589   1.396  16.242 -0.7901  0.1578  1.7665
 1948SOL    HW217304   2.590   1.251  16.212 -0.7215 -0.7526  1.2762
 1949SOL     OW17305   2.531   0.697  16.083  0.4576 -0.4525 -0.1849
 1949SOL    HW117306   2.617   0.716  16.046  0.5324 -3.4949 -1.6176
 1949SOL    HW217307   2.544   0.619  16.138  0.4578 -1.1651 -1.1980
 1950SOL     OW17308   1.721   0.893  12.037  0.1632  0.2372 -0.1953
 1950SOL    HW117309   1.705   0.807  11.996  1.3736  0.0966 -0.3503
 1950SOL    HW217310   1.645   0.912  12.093  0.0046 -1.3536  0.1489
 1951SOL     OW17311   4.330   2.405   8.056 -0.2777 -0.4781 -0.0175
 1951SOL    HW117312   4.381   2.455   8.120  0.8275 -0.1546 -1.1626
 1951SOL    HW217313   4.405   2.356   8.023 -0.4747 -0.1445 -0.9395
 1952SOL     OW17314   2.027   0.381  16.591 -0.1957 -0.2253 -0.1771
 1952SOL    HW117315   2.013   0.426  16.508 -0.4724  0.7791  0.4180
 1952SOL    HW217316   2.115   0.407  16.618  0.1384 -0.9135 -0.5995
 1953SOL     OW17317   2.601   3.931   1.525 -0.2582 -0.3073  0.3951
 1953SOL    HW117318   2.540   3.997   1.559  1.8698  2.1270 -0.4617
 1953SOL    HW217319   2.543   3.871   1.478  2.7399 -1.5433 -1.7034
 1954SOL     OW17320   1.444   4.071   1.780 -0.2778  0.2908  0.0888
 1954SOL    HW117321   1.416   4.094   1.868 -2.1840 -0.5988 -0.2713
 1954SOL    HW217322   1.429   4.148   1.725  1.9266  0.4043 -0.3591
 1955SOL     OW17323   3.667   0.542   8.216 -0.4753  0.0830  0.2288
 1955SOL    HW117324   3.595   0.594   8.252 -0.9461  0.3534 -1.1043
 1955SOL    HW217325   3.633   0.507   8.133 -1.3568  1.2652  0.0956
 1956SOL     OW17326   3.549   1.651   5.296 -0.1248  0.6416 -0.0664
 1956SOL    HW117327   3.610   1.625   5.365  1.7401 -1.1788 -2.3961
 1956SOL    HW217328   3.588   1.599   5.226  0.2020  1.5779 -0.5926
 1957SOL     OW17329   3.189   2.694  15.545  0.0917  0.3018  0.6880
 1957SOL    HW117330   3.117   2.713  15.485 -0.3066  0.7323  1.2948
 1957SOL    HW217331   3.257   2.663  15.486 -1.6822 -0.4552 -0.9388
 1958SOL     OW17332   2.706   2.698  11.366  0.2284  0.0300  0.0413
 1958SOL    HW117333   2.766   2.633  11.330 -1.0861 -0.7523 -0.7364
 1958SOL    HW217334   2.674   2.654  11.445  1.3633 -1.2838 -0.2236
 1959SOL     OW17335   0.239   3.947   1.516 -0.2112  0.2867  0.4155
 1959SOL    HW117336   0.184   3.905   1.582 -1.8984  0.4438 -0.8872
 1959SOL    HW217337   0.272   4.008   1.581  1.2108  0.0255 -0.0692
 1960SOL     OW17338   0.053   4.119   5.123 -0.9235 -0.0597 -0.0218
 1960SOL    HW117339   0.060   4.110   5.027 -2.3641  1.1110 -0.2236
 1960SOL    HW217340   0.098   4.203   5.136 -0.9052  0.1750 -1.5548
 1961SOL     OW17341   1.885   3.878   5.608  0.2069 -0.1324  0.0305
 1961SOL    HW117342   1.976   3.868   5.636  0.0801  0.2099  0.5796
 1961SOL    HW217343   1.901   3.953   5.551 -0.8770  1.8138  2.2439
 1962SOL     OW17344   2.969   2.286   7.484 -0.4361 -0.2397 -0.0164
 1962SOL    HW117345   2.966   2.367   7.535  0.6031 -0.9616  1.2116
 1962SOL    HW217346   2.910   2.308   7.412  0.6639 -0.2147 -0.9073
 1963SOL     OW17347   3.226   1.242   8.777  0.5931  0.2785  0.3424
 1963SOL    HW117348   3.134   1.247   8.804  0.1524 -0.4652 -1.0354
 1963SOL    HW217349   3.251   1.334   8.791  0.0152  0.3946  0.6344
 1964SOL     OW17350   0.834   2.260   2.950  0.1128 -0.3649  0.2047
 1964SOL    HW117351   0.813   2.264   3.043  0.2045 -1.2282  0.2650
 1964SOL    HW217352   0.911   2.204   2.955  1.6600  1.9190  1.8717
 1965SOL     OW17353   0.887   4.709   4.761  0.7117 -0.4784 -0.2853
 1965SOL    HW117354   0.966   4.658   4.779  0.1931 -0.7703  1.1311
 1965SOL    HW217355   0.926   0.058   4.711 -2.9504  1.4375 -0.4363
 1966SOL     OW17356   4.254   3.486   3.301 -0.4195 -0.4884 -0.0395
 1966SOL    HW117357   4.162   3.497   3.276 -0.3230 -1.1215 -0.6748
 1966SOL    HW217358   4.238   3.504   3.394 -1.1113 -0.1940 -0.2212
 1967SOL     OW17359   0.013   1.812  11.332 -0.6880  0.3627  0.2144
 1967SOL    HW117360   4.699   1.757  11.402 -0.3371 -0.7136 -0.4474
 1967SOL    HW217361   0.095   1.769  11.309 -1.5868 -0.0550 -2.2865
 1968SOL     OW17362   2.014   0.396   3.881  0.1709  0.0621 -0.1146
 1968SOL    HW117363   2.024   0.310   3.923 -0.5525  0.8049  1.5851
 1968SOL    HW217364   2.103   0.418   3.854  1.0882 -1.9872  1.1988
 1969SOL     OW17365   0.159   4.138   7.271  0.0919 -0.9501  0.1749
 1969SOL    HW117366   0.078   4.098   7.301 -0.6239  1.5240  1.4979
 1969SOL    HW217367   0.221   4.075   7.308  1.8092 -0.5791 -2.0736
 1970SOL     OW17368   1.498   1.785   6.076 -0.3510 -0.1801  0.0836
 1970SOL    HW117369   1.474   1.816   5.988  0.5233  0.4937  0.0920
 1970SOL    HW217370   1.485   1.860   6.134  0.5342 -0.3940  0.5576
 1971SOL     OW17371   0.555   0.840   3.200  0.3274  0.2116 -0.0653
 1971SOL    HW117372   0.540   0.805   3.112 -0.9750  0.5576  0.0249
 1971SOL    HW217373   0.474   0.887   3.218 -0.4524 -1.3661  0.5239
 1972SOL     OW17374   0.058   2.646   1.900 -0.0471  0.2247  0.1912
 1972SOL    HW117375   0.149   2.675   1.906 -0.0688  0.5942 -1.3963
 1972SOL    HW217376   0.057   2.554   1.873 -0.4037  0.8173 -1.7706
 1973SOL     OW17377   1.611   4.381   4.640  0.0431  0.0967 -0.5887
 1973SOL    HW117378   1.679   4.445   4.662  0.8281 -0.3638 -1.6590
 1973SOL    HW217379   1.543   4.416   4.697 -0.2522 -0.4067 -0.6283
 1974SOL     OW17380   0.740   3.648   7.054  0.0980  0.1371 -0.1119
 1974SOL    HW117381   0.787   3.565   7.047  0.3906  0.3306 -0.4344
 1974SOL    HW217382   0.683   3.630   7.130  2.1554 -0.9647  1.1524
 1975SOL     OW17383   2.839   1.017   2.707  0.2153  0.1281  0.2709
 1975SOL    HW117384   2.832   1.035   2.800  0.1019 -0.9965  0.4789
 1975SOL    HW217385   2.884   1.094   2.672 -0.2606  0.1048 -0.3868
 1976SOL     OW17386   3.643   1.922   0.368 -0.6587  0.6781 -0.3519
 1976SOL    HW117387   3.735   1.950   0.370 -0.1890 -0.8495 -0.0131
 1976SOL    HW217388   3.618   1.934   0.277  1.5923 -2.2158 -1.3420
 1977SOL     OW17389   4.339   1.587   2.980  0.5452  0.0295 -0.4802
 1977SOL    HW117390   4.308   1.578   2.890  1.2956  0.8091 -0.8228
 1977SOL    HW217391   4.334   1.497   3.011 -1.4795  0.1387 -0.5337
 1978SOL     OW17392   1.682   1.120   7.274 -0.4736 -0.4235 -0.0531
 1978SOL    HW117393   1.752   1.054   7.275 -0.1913 -0.1760 -2.4002
 1978SOL    HW217394   1.709   1.180   7.205 -1.8573  1.9962  1.5232
 1979SOL     OW17395   2.968   2.568  15.740 -0.1781  0.1850 -0.1237
 1979SOL    HW117396   3.012   2.643  15.701 -1.0738  0.6244 -0.2768
 1979SOL    HW217397   3.032   2.500  15.717 -0.2718 -0.4850  1.5964
 1980SOL     OW17398   1.986   0.790   6.885  0.1058 -0.3525  0.1307
 1980SOL    HW117399   2.021   0.806   6.797  1.5049 -3.8879  0.0577
 1980SOL    HW217400   1.979   0.696   6.873  0.2149 -0.5532  1.6200
 1981SOL     OW17401   3.617   1.395   1.954  0.0771 -0.9157 -0.4830
 1981SOL    HW117402   3.548   1.347   2.000 -0.2581 -0.2400 -0.2770
 1981SOL    HW217403   3.583   1.397   1.865 -2.8677 -2.3060  0.5781
 1982SOL     OW17404   3.582   1.230   2.551  0.4265  0.5368  0.1702
 1982SOL    HW117405   3.605   1.153   2.498  0.1825  0.0904  0.7160
 1982SOL    HW217406   3.657   1.225   2.610 -0.8940 -0.9760  1.7438
 1983SOL     OW17407   4.473   4.639   7.722 -0.4210  0.4230 -0.5074
 1983SOL    HW117408   4.499   4.549   7.703 -0.4228 -0.1508  2.2498
 1983SOL    HW217409   4.391   4.629   7.770  0.9997  0.1710  1.8909
 1984SOL     OW17410   2.980   2.680  15.332 -0.2096 -0.4286  0.1556
 1984SOL    HW117411   2.955   2.749  15.393 -0.5882 -1.6307  1.3638
 1984SOL    HW217412   2.913   2.611  15.342  0.2797 -0.8913  0.2484
 1985SOL     OW17413   1.410   1.880   3.003 -0.1139  0.3312  0.6725
 1985SOL    HW117414   1.414   1.865   2.909 -0.5492  1.3751  0.4910
 1985SOL    HW217415   1.343   1.816   3.029  1.3449 -1.4283  0.1102
 1986SOL     OW17416   4.491   4.447   7.992 -0.2178 -0.0192  0.4214
 1986SOL    HW117417   4.476   4.383   8.062 -0.6885  0.4096  0.7125
 1986SOL    HW217418   4.471   4.398   7.912  0.0433 -0.4796  0.6377
 1987SOL     OW17419   2.217   2.030  14.508 -0.4723  0.1643  0.6455
 1987SOL    HW117420   2.220   2.013  14.602 -2.9466 -0.7539  0.5482
 1987SOL    HW217421   2.130   2.064  14.487 -0.0252 -1.2691 -3.4955
 1988SOL     OW17422   2.185   4.633   1.391 -0.2410 -0.1642  0.8668
 1988SOL    HW117423   2.179   4.722   1.357  0.0306 -0.3004  0.4552
 1988SOL    HW217424   2.093   4.606   1.392 -0.1661 -0.4684 -0.3536
 1989SOL     OW17425   2.113   2.233   2.178  0.0278 -0.0717 -0.0424
 1989SOL    HW117426   2.096   2.154   2.127 -2.9028 -0.6390  1.8084
 1989SOL    HW217427   2.209   2.237   2.183  0.0454  1.0647 -1.4104
 1990SOL     OW17428   3.911   3.881   1.081  0.0131 -0.1524  0.8997
 1990SOL    HW117429   3.899   3.834   1.164 -0.7364  1.1126  1.5228
 1990SOL    HW217430   3.974   3.823   1.038 -0.3116 -0.1757  0.4556
 1991SOL     OW17431   4.602   3.038  16.209 -0.2814  0.1682  0.4346
 1991SOL    HW117432   4.594   2.954  16.255  1.3457  0.3518  1.0838
 1991SOL    HW217433   4.522   3.082  16.235  0.4064  1.2053  0.8017
 1992SOL     OW17434   3.746   0.202  16.485 -0.0786  0.7810 -0.0819
 1992SOL    HW117435   3.724   0.295  16.493 -0.0569  0.7048  0.8334
 1992SOL    HW217436   3.688   0.176  16.557  0.5978  0.1721  0.2367
 1993SOL     OW17437   1.360   1.234  15.078 -0.3870 -0.0184  0.0220
 1993SOL    HW117438   1.402   1.266  14.998  0.9814  2.6923  1.8499
 1993SOL    HW217439   1.430   1.183  15.119 -1.1704  1.4574  3.1525
 1994SOL     OW17440   0.690   3.280   5.968 -0.0847  0.2039 -0.3974
 1994SOL    HW117441   0.671   3.268   6.061  1.7085 -1.2327 -0.2367
 1994SOL    HW217442   0.614   3.231   5.937  0.9199 -1.0257 -0.8794
 1995SOL     OW17443   1.715   3.324  15.027 -0.1497 -0.1398 -0.9975
 1995SOL    HW117444   1.688   3.390  15.091  3.1052  0.5352 -0.3185
 1995SOL    HW217445   1.632   3.278  15.021 -0.7451  0.9787 -1.3365
 1996SOL     OW17446   4.671   2.413  11.851 -0.5934  0.5270 -0.0305
 1996SOL    HW117447   4.634   2.415  11.762 -0.9266  0.3139  0.1009
 1996SOL    HW217448   4.698   2.322  11.866 -1.6149  0.3266  0.5991
 1997SOL     OW17449   0.676   2.933   4.318  0.1372  0.1202 -0.6303
 1997SOL    HW117450   0.657   3.020   4.352 -0.8001 -0.0977 -0.6093
 1997SOL    HW217451   0.659   2.949   4.225 -0.7592  2.2516 -0.0891
 1998SOL     OW17452   1.797   3.720   8.380  0.1492 -0.7176  0.2334
 1998SOL    HW117453   1.857   3.750   8.448 -1.7436 -1.4062  2.2057
 1998SOL    HW217454   1.846   3.650   8.337 -0.0078 -1.5589  1.4371
 1999SOL     OW17455   2.382   1.470   4.958  0.3900  0.1196  0.0481
 1999SOL    HW117456   2.449   1.497   5.021 -0.2361 -0.5716  1.0110
 1999SOL    HW217457   2.311   1.535   4.964 -0.4674 -0.7610 -0.6245
 2000SOL     OW17458   2.171   4.611  17.411  0.5290  0.5078  0.5464
 2000SOL    HW117459   2.219   4.531  17.389  0.9925  0.7435  0.7254
 2000SOL    HW217460   2.169   4.602  17.506  0.1840 -1.5726  0.3515
 2001SOL     OW17461   3.339   2.141   9.115 -0.2364  0.1208  0.6595
 2001SOL    HW117462   3.359   2.133   9.208  0.1573  1.1683  0.6626
 2001SOL    HW217463   3.399   2.214   9.102  1.6794 -1.6124 -0.2539
 2002SOL     OW17464   4.150   0.274  13.164 -0.1868  0.5139 -0.3911
 2002SOL    HW117465   4.067   0.227  13.154 -1.2340  1.7639  2.5376
 2002SOL    HW217466   4.203   0.219  13.106 -0.5386 -1.0310  0.7548
 2003SOL     OW17467   1.207   1.513   9.869  0.1539 -0.2971  0.5568
 2003SOL    HW117468   1.163   1.430   9.852  2.1723 -1.0998 -0.6692
 2003SOL    HW217469   1.145   1.555   9.929  1.1424 -1.9931  2.7523
 2004SOL     OW17470   2.695   1.402  15.600 -0.7038  0.0397 -0.0003
 2004SOL    HW117471   2.691   1.397  15.695  0.2567  0.0853  0.0394
 2004SOL    HW217472   2.748   1.325  15.581 -2.0056 -0.7686 -0.3448
 2005SOL     OW17473   2.690   2.646   7.087  0.1031  0.4826 -0.1644
 2005SOL    HW117474   2.601   2.614   7.099  0.4172 -0.4150 -0.2637
 2005SOL    HW217475   2.684   2.694   7.004  1.4486  1.5342  0.3475
 2006SOL     OW17476   4.671   2.650  11.997 -0.0039 -0.0827 -0.0855
 2006SOL    HW117477   4.671   2.634  12.092 -1.2383  0.2860 -0.0267
 2006SOL    HW217478   4.673   2.560  11.965 -1.2646  0.2684 -1.1241
 2007SOL     OW17479   3.235   0.026   7.339 -0.2904  0.7536  0.4639
 2007SOL    HW117480   3.210   4.680   7.401 -0.5501  0.8679  0.4847
 2007SOL    HW217481   3.238   0.104   7.394 -0.1565 -0.0528  1.6162
 2008SOL     OW17482   1.033   3.628   5.089 -0.3309  0.2253 -0.4405
 2008SOL    HW117483   1.005   3.576   5.164  0.0077  0.1526 -0.3627
 2008SOL    HW217484   1.072   3.559   5.037  1.1214 -0.7409  1.9243
 2009SOL     OW17485   2.474   3.722   6.384  0.2447  0.3157 -0.9042
 2009SOL    HW117486   2.451   3.794   6.326  0.9129 -0.3812 -2.0259
 2009SOL    HW217487   2.492   3.650   6.324  0.7889 -0.4886  0.2175
 2010SOL     OW17488   1.534   3.661   4.728  0.7163  0.2642 -0.3301
 2010SOL    HW117489   1.444   3.645   4.756  0.6876  1.0268  0.0150
 2010SOL    HW217490   1.503   3.706   4.650 -1.8911  0.1581  0.6731
 2011SOL     OW17491   1.105   4.077   8.995 -0.1808 -1.0066 -0.2229
 2011SOL    HW117492   1.110   4.022   8.917  0.3879 -0.3840 -0.6210
 2011SOL    HW217493   1.018   4.115   8.987 -0.5853 -1.7650  0.6027
 2012SOL     OW17494   0.673   0.085   8.867 -0.3390  0.1947  0.8396
 2012SOL    HW117495   0.584   0.055   8.882 -0.0264 -1.7762 -1.3016
 2012SOL    HW217496   0.665   0.172   8.906 -5.6573  0.6639 -1.4040
 2013SOL     OW17497   0.786   4.063   8.861 -0.3835 -0.1562  0.3460
 2013SOL    HW117498   0.762   4.156   8.866  0.1163 -0.1098  1.9854
 2013SOL    HW217499   0.769   4.037   8.952  0.8329 -0.6819  0.4245
 2014SOL     OW17500   4.195   4.339   5.207  0.1296 -0.2844  0.2932
 2014SOL    HW117501   4.253   4.267   5.182 -0.9068  0.0350 -3.1014
 2014SOL    HW217502   4.255   4.414   5.210 -1.7686  1.2318  0.6147
 2015SOL     OW17503   1.814   2.575  10.909  1.0882 -0.3532 -0.0963
 2015SOL    HW117504   1.719   2.567  10.895  1.2381 -2.2743 -0.1009
 2015SOL    HW217505   1.809   2.617  10.995  3.2253  1.0645 -0.6792
 2016SOL     OW17506   4.540   0.216   8.383 -0.2275  0.5223 -0.5813
 2016SOL    HW117507   4.608   0.199   8.448 -1.7077  1.3033  1.1624
 2016SOL    HW217508   4.504   0.298   8.419 -1.7120  0.7411 -2.5428
 2017SOL     OW17509   4.377   2.119  10.951 -0.4298 -0.0171 -0.1273
 2017SOL    HW117510   4.351   2.211  10.949  1.1954  0.4607  1.7206
 2017SOL    HW217511   4.294   2.075  10.930 -1.5227  1.8828  0.2101
 2018SOL     OW17512   2.524   3.177  12.697  0.5099 -0.0735 -0.4568
 2018SOL    HW117513   2.580   3.251  12.718  0.6225  0.0596 -1.2060
 2018SOL    HW217514   2.587   3.113  12.662  0.7556  0.1921 -0.4960
 2019SOL     OW17515   0.177   4.351   8.969  0.2658 -0.7388 -0.0950
 2019SOL    HW117516   0.114   4.362   9.040 -0.6990 -0.2869 -1.0273
 2019SOL    HW217517   0.178   4.437   8.926  0.9068 -1.0563 -0.7047
 2020SOL     OW17518   4.583   4.612   2.490 -0.1508  0.5379 -0.0039
 2020SOL    HW117519   4.594   4.582   2.400  2.6912  2.1935 -0.1994
 2020SOL    HW217520   4.494   4.647   2.481 -0.1734  1.0310  2.1539
 2021SOL     OW17521   1.209   1.918   3.469  0.6981  0.1185  0.4170
 2021SOL    HW117522   1.193   1.824   3.477  2.6030 -0.3506 -1.3446
 2021SOL    HW217523   1.176   1.960   3.548 -1.3109  0.2253 -0.4848
 2022SOL     OW17524   3.929   0.533   0.987 -0.7685  0.3020  0.3280
 2022SOL    HW117525   3.902   0.496   0.903  1.5355 -2.5106  0.8345
 2022SOL    HW217526   3.893   0.461   1.039  0.7313 -1.2159 -0.7486
 2023SOL     OW17527   3.484   0.073   7.582 -0.1667  0.0690 -0.1904
 2023SOL    HW117528   3.571   0.071   7.623 -0.3810  3.1140  0.3752
 2023SOL    HW217529   3.515   0.099   7.496 -0.8423 -1.1115 -0.7909
 2024SOL     OW17530   0.659   4.528   8.553  0.2898 -0.3536 -0.5848
 2024SOL    HW117531   0.569   4.558   8.542  0.0332 -0.6261  0.8543
 2024SOL    HW217532   0.641   4.438   8.580 -1.7632  0.2735  0.1330
 2025SOL     OW17533   0.877   1.571   6.969  0.3943  0.4178 -0.9042
 2025SOL    HW117534   0.951   1.625   6.996  0.3443  0.9319 -1.8043
 2025SOL    HW217535   0.929   1.500   6.931 -0.2973 -0.6457  0.1456
 2026SOL     OW17536   0.652   2.125   7.606 -0.7093 -0.8236  0.1863
 2026SOL    HW117537   0.653   2.052   7.545  4.1340 -0.7078  0.1802
 2026SOL    HW217538   0.641   2.200   7.547 -1.4242  0.0085  1.3753
 2027SOL     OW17539   3.581   1.102   7.663 -0.0748 -0.6495  0.0831
 2027SOL    HW117540   3.611   1.181   7.619  2.9188 -2.2891 -0.8054
 2027SOL    HW217541   3.641   1.106   7.738  1.5699 -0.2193 -1.2737
 2028SOL     OW17542   0.779   1.138  13.451  0.5267 -0.0814 -0.3151
 2028SOL    HW117543   0.691   1.163  13.478  0.8444 -1.2266  1.7719
 2028SOL    HW217544   0.790   1.207  13.385 -3.2795  1.0346  0.2230
 2029SOL     OW17545   4.504   2.195   1.340 -0.0701 -0.3983 -0.2757
 2029SOL    HW117546   4.448   2.234   1.407  1.9404  0.7347  0.7405
 2029SOL    HW217547   4.525   2.267   1.281 -2.0341  1.2513  1.0016
 2030SOL     OW17548   3.412   1.271   2.082  0.6002 -0.4085 -0.2006
 2030SOL    HW117549   3.350   1.201   2.101 -0.0877  0.0470 -0.7662
 2030SOL    HW217550   3.347   1.339   2.065  0.4934 -0.5864 -0.4884
 2031SOL     OW17551   4.610   3.220  15.459 -0.3284  0.3626  0.4354
 2031SOL    HW117552   4.616   3.182  15.371  1.5356  0.6485  0.4453
 2031SOL    HW217553   4.552   3.154  15.498 -0.5899 -0.7578 -1.8541
 2032SOL     OW17554   3.731   1.076   5.950 -0.3947  0.1214  0.4862
 2032SOL    HW117555   3.775   1.103   5.870  0.4095 -0.0634  0.8622
 2032SOL    HW217556   3.763   0.986   5.948  2.6850  1.1817  1.8701
 2033SOL     OW17557   3.411   0.546   3.178 -0.3242  0.5989 -0.2711
 2033SOL    HW117558   3.504   0.553   3.200 -0.0913 -0.5049 -0.8990
 2033SOL    HW217559   3.402   0.451   3.172 -0.3412  0.5683  0.2300
 2034SOL     OW17560   0.762   1.568   4.827  0.1688 -0.2926 -0.4160
 2034SOL    HW117561   0.701   1.638   4.850  0.4109 -0.4673  0.7690
 2034SOL    HW217562   0.799   1.548   4.913 -0.2907 -1.7128 -0.5439
 2035SOL     OW17563   2.361   1.025   4.373  0.0317 -0.3183  0.1978
 2035SOL    HW117564   2.440   1.034   4.319 -1.1467 -1.3011 -1.6739
 2035SOL    HW217565   2.328   1.114   4.376  2.9932  0.7887 -0.2261
 2036SOL     OW17566   1.904   2.623   6.802 -0.1256  0.1923 -0.2271
 2036SOL    HW117567   1.994   2.615   6.835  0.1859 -1.8597 -1.5783
 2036SOL    HW217568   1.907   2.540   6.755  1.3213  0.9212 -1.4292
 2037SOL     OW17569   3.776   0.224   5.892  0.1889 -0.0555  0.0131
 2037SOL    HW117570   3.702   0.254   5.944 -0.2891  2.0097 -1.8674
 2037SOL    HW217571   3.750   0.135   5.869 -1.6002  0.5377 -0.3064
 2038SOL     OW17572   1.465   0.579   9.605  0.8636  0.0955  0.0763
 2038SOL    HW117573   1.465   0.663   9.558 -0.9707 -0.8563 -1.5834
 2038SOL    HW217574   1.371   0.565   9.594  0.6673  1.5411 -0.1362
 2039SOL     OW17575   1.932   3.107   2.304 -0.1618  0.4693  0.2949
 2039SOL    HW117576   1.922   3.104   2.209  2.2493  1.4190  0.0051
 2039SOL    HW217577   1.965   3.020   2.328  2.8025  1.5576  0.1860
 2040SOL     OW17578   1.428   4.492   4.837  0.0571  0.1636  0.8168
 2040SOL    HW117579   1.492   4.428   4.867  0.7128  0.7323  0.6309
 2040SOL    HW217580   1.372   4.494   4.914  0.4730  0.6664  1.1047
 2041SOL     OW17581   3.922   2.224   5.668 -0.1700 -0.3024 -0.0833
 2041SOL    HW117582   3.867   2.180   5.603  1.7477  0.1435 -1.9970
 2041SOL    HW217583   3.992   2.256   5.612 -0.5967  0.3862 -0.2177
 2042SOL     OW17584   1.527   1.790  10.204 -0.5196 -0.7201 -1.0003
 2042SOL    HW117585   1.557   1.788  10.295  3.0250  1.3264 -2.1451
 2042SOL    HW217586   1.577   1.719  10.164  0.1083 -1.5327  1.2312
 2043SOL     OW17587   2.524   0.409   7.300 -0.6728  0.3284 -0.2619
 2043SOL    HW117588   2.565   0.452   7.376 -1.0117  1.5928 -0.7940
 2043SOL    HW217589   2.499   0.333   7.353  0.8755  0.7776  1.1260
 2044SOL     OW17590   0.685   0.123  13.447 -0.0185 -0.0751 -0.2242
 2044SOL    HW117591   0.590   0.129  13.455  0.0391 -0.5506  0.9131
 2044SOL    HW217592   0.701   0.217  13.459  1.2772 -0.3277  0.0318
 2045SOL     OW17593   0.523   2.248   4.388  0.4200 -0.0652 -0.1896
 2045SOL    HW117594   0.428   2.252   4.382  0.3099 -1.2809  0.7093
 2045SOL    HW217595   0.537   2.177   4.451  2.6244  2.1495  1.8163
 2046SOL     OW17596   0.032   1.016   4.587  0.4154  0.6847  0.0981
 2046SOL    HW117597   4.692   1.053   4.650  0.8029 -0.4276  1.1489
 2046SOL    HW217598   0.056   1.085   4.525 -3.7937  0.3501 -1.9063
 2047SOL     OW17599   2.590   3.218   7.757 -0.8723 -0.0088  0.1445
 2047SOL    HW117600   2.521   3.165   7.796  0.4492 -2.2094 -0.5472
 2047SOL    HW217601   2.605   3.278   7.831  1.2269  0.3621 -0.5693
 2048SOL     OW17602   3.371   2.064   4.768  0.2959  0.3921 -0.0503
 2048SOL    HW117603   3.398   2.135   4.709  2.1182  1.3569  1.9628
 2048SOL    HW217604   3.307   2.020   4.712 -0.1882 -1.1357  1.7056
 2049SOL     OW17605   1.500   4.365   2.916 -0.5152  0.2636  0.5113
 2049SOL    HW117606   1.594   4.374   2.931 -0.3428  1.7788 -1.5096
 2049SOL    HW217607   1.468   4.451   2.944 -1.3308 -0.8101  2.8507
 2050SOL     OW17608   0.898   3.505   8.730  0.8143  0.5368 -0.5056
 2050SOL    HW117609   0.869   3.525   8.819 -2.4413 -0.6076 -1.3088
 2050SOL    HW217610   0.824   3.533   8.677 -1.1259 -0.9933  1.3970
 2051SOL     OW17611   0.704   1.928   7.129 -0.1126 -0.0270  0.6698
 2051SOL    HW117612   0.636   1.993   7.109  0.9284  1.3965  1.7767
 2051SOL    HW217613   0.664   1.847   7.098 -2.1613  0.9410  0.8004
 2052SOL     OW17614   1.489   2.659   4.379  0.0649 -0.4436  0.2782
 2052SOL    HW117615   1.465   2.629   4.467 -0.6610  0.6675  0.4518
 2052SOL    HW217616   1.404   2.687   4.346 -0.1262 -1.2372  0.0784
 2053SOL     OW17617   3.822   0.007   4.268  0.2008 -0.7156 -0.2436
 2053SOL    HW117618   3.834   0.080   4.208 -3.4806 -1.4827 -1.8862
 2053SOL    HW217619   3.733   4.701   4.249 -0.4005  0.8827  0.2129
 2054SOL     OW17620   0.743   0.108   3.692 -0.6073 -0.1458  0.0762
 2054SOL    HW117621   0.784   0.121   3.607  0.2848  0.6482  0.6296
 2054SOL    HW217622   0.806   0.059   3.745 -1.3460  0.3633  1.4206
 2055SOL     OW17623   3.520   1.907  14.558 -0.2680 -0.1398  0.1537
 2055SOL    HW117624   3.603   1.860  14.564 -1.2486 -2.1442 -2.1974
 2055SOL    HW217625   3.502   1.880  14.469  0.6083  1.0825 -0.4076
 2056SOL     OW17626   0.983   1.352   3.737  0.2182 -0.0626 -0.4338
 2056SOL    HW117627   1.050   1.290   3.708 -0.6912 -1.5529  0.6236
 2056SOL    HW217628   0.913   1.306   3.689 -1.7387  3.3155 -0.8075
 2057SOL     OW17629   1.201   1.578   6.673  0.3888  0.1348  0.1238
 2057SOL    HW117630   1.227   1.640   6.742  1.1093 -0.0087 -0.0199
 2057SOL    HW217631   1.171   1.639   6.606 -0.1390 -0.6955 -0.3908
 2058SOL     OW17632   2.542   0.734   3.093  0.3348  0.7327 -0.1202
 2058SOL    HW117633   2.554   0.639   3.089  1.0534  0.8558 -0.8413
 2058SOL    HW217634   2.600   0.779   3.032  0.1913  0.4390 -0.4706
 2059SOL     OW17635   2.590   2.333  15.049 -0.0279  0.4524 -0.6053
 2059SOL    HW117636   2.641   2.410  15.074 -1.7470  1.7960 -1.2295
 2059SOL    HW217637   2.530   2.326  15.123  1.4080  1.2665  0.6565
 2060SOL     OW17638   2.028   3.708   4.956 -0.5210  0.0598 -0.3871
 2060SOL    HW117639   1.987   3.682   4.873 -0.6135 -0.4248 -0.1893
 2060SOL    HW217640   1.959   3.685   5.019  1.4201  1.1467  2.1310
 2061SOL     OW17641   3.603   4.369  10.853  0.8892 -0.2598 -0.1184
 2061SOL    HW117642   3.565   4.331  10.932 -0.6122  1.5703  0.0299
 2061SOL    HW217643   3.571   4.459  10.863 -0.4957 -0.8821  0.9353
 2062SOL     OW17644   0.159   3.186   5.928  0.2769 -0.3684 -0.2176
 2062SOL    HW117645   0.168   3.097   5.963  2.0742 -0.3758 -0.6598
 2062SOL    HW217646   0.067   3.207   5.940  0.0675  0.2806 -2.9702
 2063SOL     OW17647   2.454   4.308   2.128 -0.2788 -0.1500  0.6883
 2063SOL    HW117648   2.487   4.348   2.047 -4.8341  1.6066 -0.3108
 2063SOL    HW217649   2.526   4.325   2.188  1.8108 -0.6444 -1.6818
 2064SOL     OW17650   4.032   0.253  13.931 -0.0491  0.3369  0.2456
 2064SOL    HW117651   4.096   0.184  13.914 -1.3993 -0.8603  0.0385
 2064SOL    HW217652   3.993   0.246  13.844  0.2106  1.0749  0.0676
 2065SOL     OW17653   2.046   4.393   7.533  0.1258  0.0103 -0.3083
 2065SOL    HW117654   1.967   4.390   7.480  0.2453 -1.0081 -0.4362
 2065SOL    HW217655   2.010   4.361   7.616 -0.8453 -0.5893 -0.9495
 2066SOL     OW17656   0.182   2.661   7.439 -0.0210 -0.5363 -0.0170
 2066SOL    HW117657   0.201   2.633   7.529 -2.3936 -1.6960  0.1206
 2066SOL    HW217658   0.164   2.752   7.463  0.8305 -0.4897  0.4230
 2067SOL     OW17659   3.248   4.365   2.010  0.0789 -0.3496 -0.3526
 2067SOL    HW117660   3.309   4.300   1.974  0.4371 -0.9430  1.3315
 2067SOL    HW217661   3.211   4.402   1.929  1.2924  0.4927 -0.5169
 2068SOL     OW17662   4.090   0.584   2.378 -0.0150  0.5272 -0.1921
 2068SOL    HW117663   4.091   0.653   2.312  0.3627 -1.4572 -2.2563
 2068SOL    HW217664   4.115   0.509   2.323  0.2536 -0.0080  0.6579
 2069SOL     OW17665   3.161   2.281   4.607  0.4950 -0.1901 -0.1502
 2069SOL    HW117666   3.250   2.268   4.575  1.6668 -0.0648  3.0694
 2069SOL    HW217667   3.175   2.309   4.698 -0.6946 -0.1468  0.0193
 2070SOL     OW17668   2.839   3.401   8.868  0.2784 -0.3164  0.0932
 2070SOL    HW117669   2.797   3.472   8.821  2.1207 -1.1568 -2.7998
 2070SOL    HW217670   2.846   3.423   8.961 -0.8483 -2.5706  0.7171
 2071SOL     OW17671   3.422   4.448   8.178 -0.4327 -0.1887  0.7898
 2071SOL    HW117672   3.479   4.389   8.129 -2.4389  1.1776 -3.1996
 2071SOL    HW217673   3.472   4.469   8.258 -0.5696 -0.5451  0.9679
 2072SOL     OW17674   1.210   0.634   8.723  0.3371 -0.1364 -0.0047
 2072SOL    HW117675   1.270   0.601   8.656  0.9673  0.8455  0.0846
 2072SOL    HW217676   1.133   0.660   8.671 -0.4773 -3.0027 -0.2653
 2073SOL     OW17677   4.251   1.138   3.246 -0.2144 -0.3421 -0.4247
 2073SOL    HW117678   4.231   1.067   3.185  2.4966  0.1632 -1.9131
 2073SOL    HW217679   4.168   1.187   3.243 -0.9160 -1.4783  0.5380
 2074SOL     OW17680   1.042   0.229   2.637 -0.4240 -0.6976  0.1288
 2074SOL    HW117681   0.985   0.153   2.647 -1.5457  0.2975  1.3036
 2074SOL    HW217682   1.085   0.216   2.721 -0.9463  0.2432  0.5477
 2075SOL     OW17683   2.262   3.515   6.418 -0.0912  0.6468  0.7174
 2075SOL    HW117684   2.232   3.535   6.507 -1.8094 -0.8586  0.4597
 2075SOL    HW217685   2.342   3.568   6.413 -0.3822  0.9398 -0.7471
 2076SOL     OW17686   4.197   0.763  12.518  0.0246  0.2584  0.1562
 2076SOL    HW117687   4.246   0.749  12.599  1.9310  0.1708 -1.0239
 2076SOL    HW217688   4.160   0.675  12.511 -0.4643  0.5486 -0.9458
 2077SOL     OW17689   4.677   2.404  10.290 -0.1210  0.4825  0.3860
 2077SOL    HW117690   4.714   2.486  10.257 -1.3143  1.1472  0.6933
 2077SOL    HW217691   4.582   2.416  10.280  0.2427  1.4680 -1.9986
 2078SOL     OW17692   1.717   0.647   8.589  0.0817 -0.3434  0.0236
 2078SOL    HW117693   1.747   0.560   8.616 -0.7367 -0.4690  0.5386
 2078SOL    HW217694   1.740   0.654   8.497  0.4006  0.0821  0.1396
 2079SOL     OW17695   3.256   0.888  11.248 -0.1725 -0.5713 -0.0105
 2079SOL    HW117696   3.181   0.919  11.198  1.4101  1.9943 -0.7750
 2079SOL    HW217697   3.234   0.935  11.329  0.0028  1.7399 -1.3088
 2080SOL     OW17698   2.586   0.549   2.379  0.2547  0.4288 -0.4471
 2080SOL    HW117699   2.591   0.640   2.409  3.4916 -0.0311  0.4576
 2080SOL    HW217700   2.660   0.550   2.318  0.0169 -0.2061 -0.7382
 2081SOL     OW17701   1.992   2.618   7.872  0.6031 -0.3978  0.3316
 2081SOL    HW117702   2.030   2.623   7.784 -1.2024  0.1392 -0.4111
 2081SOL    HW217703   1.899   2.612   7.853  0.9110 -0.4604 -1.1634
 2082SOL     OW17704   2.612   4.558   2.124  0.0344  0.2777  0.0771
 2082SOL    HW117705   2.681   4.491   2.123 -1.3990 -1.2357  1.4207
 2082SOL    HW217706   2.612   4.577   2.218  0.5104  1.8309 -0.2392
 2083SOL     OW17707   3.393   1.469   4.599 -0.2012  0.3165 -0.5402
 2083SOL    HW117708   3.464   1.416   4.563 -0.8308  0.4850 -2.0379
 2083SOL    HW217709   3.323   1.464   4.534  0.7022 -4.7475 -1.1375
 2084SOL     OW17710   3.379   3.936  15.402  0.4227  0.3449  0.6916
 2084SOL    HW117711   3.318   4.004  15.432  1.1381  2.1444 -1.9291
 2084SOL    HW217712   3.456   3.991  15.413  0.8238 -0.1100  0.1790
 2085SOL     OW17713   2.995   2.552  12.335 -0.2849  0.1991  0.0224
 2085SOL    HW117714   2.981   2.540  12.242 -0.6206 -0.7682  0.2031
 2085SOL    HW217715   3.083   2.517  12.351  0.0936  0.0374 -2.4909
 2086SOL     OW17716   2.302   3.996   1.245  0.5807  0.5600 -0.3806
 2086SOL    HW117717   2.273   4.063   1.307  0.7795  0.7119 -0.4513
 2086SOL    HW217718   2.385   4.038   1.222  0.3418 -0.1483 -2.5568
 2087SOL     OW17719   4.715   2.869   3.406  0.8974 -0.4296 -0.2137
 2087SOL    HW117720   4.648   2.937   3.395  0.8520 -0.6582 -1.3718
 2087SOL    HW217721   4.653   2.797   3.417 -0.7449  0.6823 -1.9740
 2088SOL     OW17722   2.062   3.479   3.086  0.5949  0.1774  0.1666
 2088SOL    HW117723   1.968   3.473   3.071  0.8135 -0.7876 -0.7983
 2088SOL    HW217724   2.075   3.508   2.996  2.3668 -0.3635  0.2401
 2089SOL     OW17725   4.599   1.544   2.016 -0.5876  0.8057  0.1447
 2089SOL    HW117726   4.679   1.492   2.019  1.0166  3.3054  1.1874
 2089SOL    HW217727   4.561   1.501   1.939  2.0698 -0.1017 -0.6303
 2090SOL     OW17728   3.898   3.273  12.595 -0.2075 -0.9589  0.0862
 2090SOL    HW117729   3.816   3.281  12.644  0.0391  0.2982  0.3025
 2090SOL    HW217730   3.882   3.202  12.533 -3.4726 -0.1331  0.0029
 2091SOL     OW17731   2.856   3.126  10.673 -0.1351 -0.4409  0.3987
 2091SOL    HW117732   2.824   3.112  10.763 -0.2060 -0.1679  0.4140
 2091SOL    HW217733   2.772   3.126  10.627 -1.0420 -1.5240  2.0070
 2092SOL     OW17734   4.168   4.015  10.608 -0.1971  0.2522  0.7829
 2092SOL    HW117735   4.117   4.078  10.659  0.6918  2.5668 -1.1532
 2092SOL    HW217736   4.197   3.955  10.677 -0.6130  0.2497  0.9543
 2093SOL     OW17737   4.635   2.447   7.491  0.2129 -0.4288 -0.2273
 2093SOL    HW117738   4.600   2.466   7.578  0.4406  0.4064 -0.3228
 2093SOL    HW217739   4.684   2.367   7.511  0.9811  0.3351  0.9321
 2094SOL     OW17740   1.918   1.442   9.877 -0.2391  0.0800 -0.2397
 2094SOL    HW117741   1.880   1.513   9.929 -1.5699 -1.6539  1.1854
 2094SOL    HW217742   1.887   1.368   9.929  0.5355  0.9870  1.5110
 2095SOL     OW17743   0.684   4.028   8.423 -0.8838  0.0972 -0.3437
 2095SOL    HW117744   0.698   3.934   8.417  1.2466  0.4273 -0.6481
 2095SOL    HW217745   0.700   4.055   8.332 -0.0237  2.1222  0.3964
 2096SOL     OW17746   2.208   3.770   2.059 -0.1696  0.5291 -0.1603
 2096SOL    HW117747   2.149   3.824   2.005  1.9473  1.3859 -1.6173
 2096SOL    HW217748   2.181   3.687   2.018  1.8610 -0.1212 -0.1807
 2097SOL     OW17749   0.466   4.160   6.218 -0.3313  0.2154  0.2633
 2097SOL    HW117750   0.538   4.097   6.217  1.2648  1.9880  3.7398
 2097SOL    HW217751   0.513   4.243   6.213 -2.5507  1.4795  0.5148
 2098SOL     OW17752   4.569   3.314   4.570 -0.8411  0.1310  0.4574
 2098SOL    HW117753   4.474   3.315   4.562 -0.8730  1.4746  0.9105
 2098SOL    HW217754   4.582   3.266   4.488 -2.3645 -1.2401  1.0311
 2099SOL     OW17755   0.047   3.905   6.128 -0.0336 -0.5177 -0.0830
 2099SOL    HW117756   0.086   3.827   6.169 -1.8876 -0.5342  1.6845
 2099SOL    HW217757   0.128   3.931   6.083 -1.4609  0.5954 -1.9961
 2100SOL     OW17758   3.246   1.168  12.987  0.0261 -0.4022 -0.1124
 2100SOL    HW117759   3.307   1.239  13.007  1.1221 -0.3254 -3.7505
 2100SOL    HW217760   3.196   1.223  12.927  0.4889  0.3752  0.2068
 2101SOL     OW17761   3.067   2.769   6.682  0.6260 -0.4272 -0.0843
 2101SOL    HW117762   2.974   2.779   6.665  0.5562 -0.1485  0.4699
 2101SOL    HW217763   3.054   2.740   6.772 -0.5760  0.9107  0.1670
 2102SOL     OW17764   2.635   3.263   8.514 -0.2395 -0.8666 -0.0705
 2102SOL    HW117765   2.647   3.252   8.608 -0.2299  2.4160  0.3049
 2102SOL    HW217766   2.579   3.340   8.516  0.8325 -0.1018  0.7852
 2103SOL     OW17767   4.598   0.080   5.879  0.0359  0.3786 -0.0726
 2103SOL    HW117768   4.580   0.008   5.939  2.7821  0.6182  1.0477
 2103SOL    HW217769   4.693   0.087   5.884  0.0169 -1.0751  2.0093
 2104SOL     OW17770   0.875   1.334   9.632 -0.3023 -0.6631 -0.3911
 2104SOL    HW117771   0.780   1.347   9.636 -0.3467 -1.1776  0.2754
 2104SOL    HW217772   0.876   1.281   9.553  1.0885  0.4072 -1.0935
 2105SOL     OW17773   0.266   4.225   3.268  0.2458  0.1643  0.1698
 2105SOL    HW117774   0.208   4.203   3.341 -0.8357 -0.5824 -0.9078
 2105SOL    HW217775   0.353   4.229   3.308  0.4755 -0.7442 -0.2274
 2106SOL     OW17776   1.507   1.216  12.812  0.7494 -0.4560  0.5616
 2106SOL    HW117777   1.599   1.211  12.838  0.6121  0.3187  1.1972
 2106SOL    HW217778   1.518   1.240  12.720 -1.4812 -1.0716  0.1139
 2107SOL     OW17779   3.358   3.506  12.216 -0.4196  0.9988 -0.0565
 2107SOL    HW117780   3.305   3.585  12.205 -0.2545  0.8699 -1.8751
 2107SOL    HW217781   3.300   3.462  12.153  1.1178 -0.3221 -0.5588
 2108SOL     OW17782   3.325   1.949   9.409  0.0129 -0.1334 -0.4065
 2108SOL    HW117783   3.337   2.042   9.395 -0.3167 -0.3305 -2.0779
 2108SOL    HW217784   3.383   1.938   9.484 -0.0363  1.5382 -0.1307
 2109SOL     OW17785   2.743   2.933  15.758 -0.1309 -1.0552 -0.0956
 2109SOL    HW117786   2.656   2.914  15.794 -0.6058 -1.1998 -1.3201
 2109SOL    HW217787   2.796   2.932  15.838 -1.4253 -0.1931  0.7683
 2110SOL     OW17788   1.196   1.985   2.331 -0.4377 -0.3475 -0.2739
 2110SOL    HW117789   1.272   2.038   2.307 -0.1679 -0.0464  1.2678
 2110SOL    HW217790   1.244   1.911   2.367 -0.3207 -0.0064  0.2700
 2111SOL     OW17791   1.658   0.300  16.796  0.0841  0.0937 -0.5511
 2111SOL    HW117792   1.726   0.257  16.848 -0.2304  0.9469  0.5689
 2111SOL    HW217793   1.610   0.348  16.863 -2.2215 -1.9240 -0.7952
 2112SOL     OW17794   0.327   1.605  10.172 -0.2377 -0.2806  0.1131
 2112SOL    HW117795   0.335   1.556  10.091  2.0324 -0.7401  0.6140
 2112SOL    HW217796   0.356   1.695  10.158 -0.1986 -0.4007 -0.5777
 2113SOL     OW17797   2.014   1.307   6.726  0.3645  0.0903 -0.3979
 2113SOL    HW117798   2.097   1.269   6.754 -0.9064 -0.3793  2.6912
 2113SOL    HW217799   1.990   1.340   6.813 -4.2717  0.3619 -1.7873
 2114SOL     OW17800   2.656   4.005  10.983  0.3093 -0.3002  0.2075
 2114SOL    HW117801   2.609   4.080  11.020 -0.7709 -0.5583 -0.6429
 2114SOL    HW217802   2.745   4.040  10.975  0.5246 -1.0913 -0.8246
 2115SOL     OW17803   3.334   3.276   0.477  0.0178 -0.4561 -0.4137
 2115SOL    HW117804   3.263   3.228   0.521 -1.5549  1.4553 -0.8505
 2115SOL    HW217805   3.380   3.313   0.552  0.9323 -1.2244 -0.6026
 2116SOL     OW17806   1.125   4.484   2.781  0.2584 -0.0236 -0.2981
 2116SOL    HW117807   1.063   4.545   2.822  0.3498  0.5326 -0.9929
 2116SOL    HW217808   1.137   4.518   2.693  1.3278  1.4121  0.3933
 2117SOL     OW17809   2.154   0.081   7.940  0.0789 -0.3540 -0.0167
 2117SOL    HW117810   2.155   0.164   7.891  0.6238 -0.8095 -0.7764
 2117SOL    HW217811   2.241   0.044   7.926  0.8314  1.0459  0.9600
 2118SOL     OW17812   4.689   0.180   2.468  0.2391 -0.2460  0.1554
 2118SOL    HW117813   0.016   0.204   2.546  0.8149  2.2392 -0.9782
 2118SOL    HW217814   4.648   0.095   2.486  0.6770 -0.7139 -1.0387
 2119SOL     OW17815   3.114   2.371   2.785  0.3448  0.1442  0.6797
 2119SOL    HW117816   3.203   2.344   2.808 -0.1143 -0.4272  1.7681
 2119SOL    HW217817   3.064   2.298   2.823 -3.6288  1.7585 -1.4847
 2120SOL     OW17818   2.984   3.006  14.102 -0.1035 -0.4879 -0.1529
 2120SOL    HW117819   2.994   3.097  14.074 -0.5245 -0.4813 -0.2883
 2120SOL    HW217820   2.927   3.015  14.178 -2.1134  1.4525 -1.8549
 2121SOL     OW17821   0.945   2.077   3.629 -0.2686 -0.1755  0.0679
 2121SOL    HW117822   0.999   2.021   3.684  0.9317  0.6880 -0.2411
 2121SOL    HW217823   0.900   2.005   3.583 -1.0237  0.3470 -0.0196
 2122SOL     OW17824   2.096   2.035  12.269 -0.3668  0.5493 -0.0371
 2122SOL    HW117825   2.160   2.100  12.297  0.5293  0.2360 -1.3930
 2122SOL    HW217826   2.156   1.979  12.220  1.6452  0.7169  2.2102
 2123SOL     OW17827   4.559   3.568  14.506  0.3588  0.7673  0.4931
 2123SOL    HW117828   4.630   3.619  14.467  0.3032 -0.5910 -1.3625
 2123SOL    HW217829   4.609   3.509  14.563  0.5284  0.2735 -0.1651
 2124SOL     OW17830   2.770   3.892  10.436 -0.1850  0.8085 -0.1670
 2124SOL    HW117831   2.761   3.833  10.511 -0.5554  0.6525 -0.3317
 2124SOL    HW217832   2.812   3.832  10.375 -1.1750  0.2854 -0.3430
 2125SOL     OW17833   0.518   1.929  15.113 -0.2353 -0.3613  0.1455
 2125SOL    HW117834   0.489   2.005  15.062 -0.6880  0.2420  1.3236
 2125SOL    HW217835   0.581   1.896  15.048  0.8563  2.0483 -0.0176
 2126SOL     OW17836   3.968   1.943   7.507  0.0813  0.0371 -0.2449
 2126SOL    HW117837   3.910   1.944   7.583  2.1665  1.3805  1.3121
 2126SOL    HW217838   3.906   1.989   7.450 -1.2786 -0.5744  0.7604
 2127SOL     OW17839   3.048   3.818   9.499 -0.1239  0.4008 -0.3465
 2127SOL    HW117840   3.136   3.816   9.537  0.4233  0.8889 -1.5792
 2127SOL    HW217841   3.071   3.777   9.416 -0.3163 -0.1421 -0.1293
 2128SOL     OW17842   0.487   3.076   1.630  0.1413 -0.5964  0.1611
 2128SOL    HW117843   0.434   3.156   1.623 -1.8267 -1.8829  0.2426
 2128SOL    HW217844   0.428   3.009   1.595  0.1354 -0.5349  0.0532
 2129SOL     OW17845   2.807   2.666   4.547 -0.0446 -0.4631 -0.2470
 2129SOL    HW117846   2.806   2.741   4.607  2.7043 -2.5294  2.3473
 2129SOL    HW217847   2.896   2.630   4.545 -0.2093 -0.8625 -0.3060
 2130SOL     OW17848   2.369   4.037  17.452  0.0980  0.1704  0.2944
 2130SOL    HW117849   2.296   4.098  17.460  0.0473  0.4766 -2.5650
 2130SOL    HW217850   2.439   4.085  17.407 -1.1435  1.9651  0.2583
 2131SOL     OW17851   3.137   2.497   8.927  0.1212 -0.2272 -0.1084
 2131SOL    HW117852   3.082   2.497   9.005  0.6704  0.1457  0.2723
 2131SOL    HW217853   3.207   2.557   8.949 -1.4732  1.4133  0.4707
 2132SOL     OW17854   0.950   3.003   5.655  0.1890 -0.1503  0.4084
 2132SOL    HW117855   0.858   3.005   5.629  0.3207 -0.9851 -0.1525
 2132SOL    HW217856   0.945   3.061   5.730 -1.4516 -0.1246  0.2683
 2133SOL     OW17857   3.502   3.137   0.292 -0.1091 -0.0605  0.0410
 2133SOL    HW117858   3.443   3.182   0.353 -0.9037  0.8109 -1.3701
 2133SOL    HW217859   3.584   3.181   0.310  0.3725  0.0757 -2.4533
 2134SOL     OW17860   0.432   2.544  14.863 -0.1071  0.4180  0.4019
 2134SOL    HW117861   0.414   2.521  14.772 -0.1543  0.0006  0.5185
 2134SOL    HW217862   0.484   2.624  14.855 -3.4328  2.6235  0.5446
 2135SOL     OW17863   4.293   0.117   5.236  0.8138  0.5264 -0.0252
 2135SOL    HW117864   4.332   0.195   5.199  1.0502 -1.6269 -4.2708
 2135SOL    HW217865   4.367   0.058   5.251 -1.6610 -2.4372  0.5777
 2136SOL     OW17866   3.577   0.496  14.233 -0.1721  0.1491 -0.0103
 2136SOL    HW117867   3.637   0.429  14.202  0.9859  2.1939 -2.1643
 2136SOL    HW217868   3.571   0.563  14.165  4.5122  0.0077 -0.5267
 2137SOL     OW17869   3.364   2.448  11.604  0.4317 -0.8264 -0.5122
 2137SOL    HW117870   3.382   2.499  11.682  1.5569 -0.8397 -0.7589
 2137SOL    HW217871   3.448   2.402  11.596  1.2024  0.8178 -2.0876
 2138SOL     OW17872   4.275   3.656   1.652 -0.3496  1.0204  0.2683
 2138SOL    HW117873   4.194   3.619   1.687  0.9117 -1.6010  0.3459
 2138SOL    HW217874   4.337   3.599   1.698  0.4901  0.6680 -1.3123
 2139SOL     OW17875   0.701   4.398   5.307 -0.2512 -0.1305 -0.0768
 2139SOL    HW117876   0.791   4.364   5.305  0.1737  0.9622  0.4987
 2139SOL    HW217877   0.717   4.492   5.303  1.0179 -0.2367  2.4700
 2140SOL     OW17878   3.782   2.378   6.973 -0.3616 -0.2729 -0.4990
 2140SOL    HW117879   3.777   2.410   6.883 -1.2163  0.1842 -0.2820
 2140SOL    HW217880   3.741   2.292   6.963  1.6417 -1.2652 -0.0804
 2141SOL     OW17881   1.412   3.123   8.525  0.3571 -0.6135 -0.0382
 2141SOL    HW117882   1.344   3.057   8.542 -0.4538  0.1284 -0.3857
 2141SOL    HW217883   1.479   3.100   8.590 -0.7646  0.7929  1.6091
 2142SOL     OW17884   2.480   2.979  14.987  0.2346 -0.5687  0.1936
 2142SOL    HW117885   2.522   3.034  15.053 -0.4880 -1.4201  1.3552
 2142SOL    HW217886   2.495   2.892  15.021 -1.5014 -0.3353  1.5508
 2143SOL     OW17887   2.791   3.914   9.439 -0.2221  0.1160  0.2508
 2143SOL    HW117888   2.743   3.837   9.409 -0.4788 -0.5680  2.4538
 2143SOL    HW217889   2.872   3.871   9.464 -0.1667 -0.1224 -0.3330
 2144SOL     OW17890   0.331   3.898   3.019 -0.2323 -0.0679 -0.6641
 2144SOL    HW117891   0.261   3.963   3.010 -1.3832 -0.9373  2.2861
 2144SOL    HW217892   0.396   3.945   2.965  0.5706 -1.7462 -1.1499
 2145SOL     OW17893   1.369   0.401   4.871  0.0405  0.7508 -0.0749
 2145SOL    HW117894   1.381   0.427   4.962 -0.6367  1.6659 -0.2544
 2145SOL    HW217895   1.447   0.443   4.833  0.3939 -0.2012 -0.4037
 2146SOL     OW17896   1.592   1.396   3.176 -0.6939  0.6038 -0.0165
 2146SOL    HW117897   1.525   1.463   3.167 -1.5343 -0.4726 -1.9580
 2146SOL    HW217898   1.608   1.351   3.092 -0.0080  0.9322 -0.0611
 2147SOL     OW17899   3.238   2.728   4.363  0.0021 -0.1622  0.2442
 2147SOL    HW117900   3.160   2.783   4.354  0.0975 -0.1270 -0.3891
 2147SOL    HW217901   3.221   2.670   4.437 -0.6446  0.7866  0.8408
 2148SOL     OW17902   3.022   2.627  10.001  0.1581 -0.3220  0.3925
 2148SOL    HW117903   3.058   2.694   9.943 -1.1825  0.3910  0.3826
 2148SOL    HW217904   3.084   2.628  10.075  0.5749  2.1526  0.0083
 2149SOL     OW17905   3.403   0.178   5.689 -0.3373  0.1765  0.1870
 2149SOL    HW117906   3.476   0.234   5.717 -0.6878 -0.2242  1.9427
 2149SOL    HW217907   3.394   0.132   5.773 -2.4815  0.2469  0.0063
 2150SOL     OW17908   1.728   2.100   9.255 -0.1552 -0.2572 -0.1277
 2150SOL    HW117909   1.647   2.149   9.241 -0.3545 -0.4406  0.3734
 2150SOL    HW217910   1.767   2.154   9.324  0.2398 -1.1885  0.3669
 2151SOL     OW17911   2.663   0.438  17.477 -0.5419  0.0060  0.0005
 2151SOL    HW117912   2.601   0.406  17.543  0.9171 -2.4647  0.1630
 2151SOL    HW217913   2.728   0.369  17.489 -0.3661  0.3081  0.8194
 2152SOL     OW17914   4.584   2.325   0.540 -0.1018 -0.2731 -0.1012
 2152SOL    HW117915   4.663   2.379   0.530 -1.1327  0.9342 -1.7293
 2152SOL    HW217916   4.581   2.296   0.449  1.3194 -0.9828  0.0887
 2153SOL     OW17917   1.534   2.443   5.799  0.2183 -0.1502 -0.0226
 2153SOL    HW117918   1.486   2.475   5.722 -2.2462 -1.2124  1.0804
 2153SOL    HW217919   1.627   2.453   5.775  1.4988 -2.5283  3.9594
 2154SOL     OW17920   3.111   0.857   8.411  0.3260 -0.1847  0.5944
 2154SOL    HW117921   3.061   0.801   8.352  0.1294 -1.2686  1.7773
 2154SOL    HW217922   3.160   0.792   8.462  0.7460 -0.0424  0.3672
 2155SOL     OW17923   3.494   0.429   0.447 -0.2397  0.5166 -0.3116
 2155SOL    HW117924   3.425   0.488   0.418  0.9146  1.7965 -0.4876
 2155SOL    HW217925   3.452   0.343   0.436 -2.6843  1.7606 -0.4569
 2156SOL     OW17926   0.867   2.936   4.533 -0.3206 -0.3101 -0.4493
 2156SOL    HW117927   0.813   2.946   4.455 -2.6609  2.2261  1.5092
 2156SOL    HW217928   0.808   2.987   4.589 -0.4137  0.3057 -1.1068
 2157SOL     OW17929   0.977   0.428   0.187 -0.3211 -0.2156 -0.6695
 2157SOL    HW117930   0.965   0.443   0.281 -1.9207 -1.0460 -0.7424
 2157SOL    HW217931   0.887   0.422   0.154 -1.1605 -1.5557  1.8982
 2158SOL     OW17932   3.834   1.795   8.115  0.2071 -0.1236 -0.2543
 2158SOL    HW117933   3.856   1.703   8.129 -1.2978 -0.2583  1.1837
 2158SOL    HW217934   3.746   1.804   8.151  0.0147 -1.4735 -0.3732
 2159SOL     OW17935   0.696   3.109  10.683  0.3170 -0.0335 -0.2974
 2159SOL    HW117936   0.688   3.128  10.589  0.6283  2.3961  0.1617
 2159SOL    HW217937   0.732   3.194  10.710  0.5708 -0.7833  1.7187
 2160SOL     OW17938   1.401   1.957   4.859  0.1652  0.0704  0.0225
 2160SOL    HW117939   1.408   1.864   4.834 -0.2453  0.0676 -0.0837
 2160SOL    HW217940   1.451   1.964   4.940 -1.9907 -0.3649  1.3877
 2161SOL     OW17941   3.076   3.989   5.067  0.2462  0.8228  0.4991
 2161SOL    HW117942   3.107   4.016   5.153 -0.5543  1.4113  0.6047
 2161SOL    HW217943   3.126   3.908   5.064  1.4580  1.6038 -0.3317
 2162SOL     OW17944   2.928   0.751   6.198  0.3942 -0.1590  0.0238
 2162SOL    HW117945   2.922   0.658   6.217 -1.1016 -0.0878 -0.0900
 2162SOL    HW217946   2.907   0.792   6.281 -1.6353  1.8542 -1.4893
 2163SOL     OW17947   3.014   3.058   5.701 -0.1600 -0.3427 -0.6555
 2163SOL    HW117948   2.952   3.129   5.684 -0.5868 -0.8287 -1.1465
 2163SOL    HW217949   3.090   3.089   5.652 -0.9577  1.7146 -0.6052
 2164SOL     OW17950   4.060   3.852   2.268  0.0534 -0.1036 -0.3922
 2164SOL    HW117951   4.024   3.929   2.224 -0.0744  0.8414  1.3946
 2164SOL    HW217952   4.001   3.783   2.238 -2.1181  1.7871 -0.4931
 2165SOL     OW17953   1.492   1.216   7.483 -0.3919  0.7407  0.2438
 2165SOL    HW117954   1.577   1.183   7.451  0.3714  1.5964  1.4075
 2165SOL    HW217955   1.464   1.145   7.540  0.1742 -0.0309 -0.4465
 2166SOL     OW17956   0.092   0.178  12.861  0.1535  0.2783  0.4947
 2166SOL    HW117957   0.075   0.156  12.953  2.3079 -0.5153  0.7201
 2166SOL    HW217958   0.007   0.160  12.821  0.0663  1.5547  0.1130
 2167SOL     OW17959   3.591   0.822   5.195 -0.7446  0.4772 -0.0911
 2167SOL    HW117960   3.632   0.898   5.235 -0.1325 -0.4418  1.0095
 2167SOL    HW217961   3.510   0.857   5.158 -0.2341  0.5120 -1.1790
 2168SOL     OW17962   3.507   2.664   6.550 -0.3473  0.1662  0.2149
 2168SOL    HW117963   3.518   2.758   6.558  1.1110 -0.1066  1.4264
 2168SOL    HW217964   3.595   2.645   6.515 -0.2854 -0.6086  0.7760
 2169SOL     OW17965   2.145   1.547  12.724 -0.5126 -0.3361  0.1002
 2169SOL    HW117966   2.101   1.629  12.747  0.7656  0.2288  0.4888
 2169SOL    HW217967   2.098   1.527  12.643 -1.2350  0.7439  0.2539
 2170SOL     OW17968   4.183   0.669   9.014 -0.7002 -0.4578 -0.2344
 2170SOL    HW117969   4.158   0.735   9.079  1.7460 -0.0815  0.3215
 2170SOL    HW217970   4.246   0.613   9.059  0.0698 -0.6783 -1.5769
 2171SOL     OW17971   1.771   3.434   0.380  1.1280  0.4185  0.5590
 2171SOL    HW117972   1.832   3.508   0.386 -0.9476  2.1095  0.5570
 2171SOL    HW217973   1.726   3.438   0.464 -3.3932  0.4557 -1.8531
 2172SOL     OW17974   2.066   4.480   9.772 -0.6204 -0.1993  0.3468
 2172SOL    HW117975   2.108   4.438   9.847 -0.0429  0.7435  0.5575
 2172SOL    HW217976   2.071   4.570   9.804 -0.9952 -0.4737  1.1896
 2173SOL     OW17977   3.328   3.867   1.411 -0.3912 -0.2895  0.1218
 2173SOL    HW117978   3.352   3.947   1.458 -0.7779  0.9662 -1.7762
 2173SOL    HW217979   3.396   3.806   1.438 -1.0221 -1.2426 -0.4087
 2174SOL     OW17980   0.084   0.400   8.486  0.1006  0.1832 -0.0388
 2174SOL    HW117981   0.092   0.414   8.392 -0.0094 -0.0566 -0.0835
 2174SOL    HW217982   0.099   0.490   8.514  0.6739 -0.0995  0.5575
 2175SOL     OW17983   4.279   0.935  16.899  0.0415  0.3074 -0.3581
 2175SOL    HW117984   4.257   1.009  16.955 -1.0202  0.6690 -1.2525
 2175SOL    HW217985   4.221   0.877  16.950  1.2329 -0.5763  0.0020
 2176SOL     OW17986   2.442   1.976   7.191  0.1358 -0.6042 -0.0155
 2176SOL    HW117987   2.506   2.025   7.242 -0.6289  1.3537 -0.9373
 2176SOL    HW217988   2.376   1.951   7.255  1.5471 -0.6419  1.3954
 2177SOL     OW17989   3.367   4.607   4.233 -0.1906 -0.5941 -0.3900
 2177SOL    HW117990   3.385   4.582   4.324  0.9814  0.8183 -0.2375
 2177SOL    HW217991   3.454   4.620   4.196 -1.0167  1.1350 -1.7138
 2178SOL     OW17992   1.354   2.568   8.697  0.0138 -0.2981  0.1167
 2178SOL    HW117993   1.308   2.651   8.709  1.3424  0.4211  0.2202
 2178SOL    HW217994   1.276   2.518   8.671 -2.2427  3.1389  0.3359
 2179SOL     OW17995   1.934   2.673   0.020 -0.5986  0.6475  0.0044
 2179SOL    HW117996   1.840   2.687   0.011 -0.3222  1.6383 -1.3444
 2179SOL    HW217997   1.966   2.743   0.076 -1.8645 -0.1885  1.7480
 2180SOL     OW17998   0.945   0.032  12.894 -0.2817  0.1014 -0.4506
 2180SOL    HW117999   1.029   0.021  12.940  0.1778  0.0587 -1.2956
 2180SOL    HW218000   0.895   4.685  12.938  1.8205  0.6113  2.7729
 2181SOL     OW18001   0.090   2.157   3.472  0.2255 -0.6847  0.0425
 2181SOL    HW118002   0.046   2.143   3.389  1.5775 -2.2322 -0.4163
 2181SOL    HW218003   0.178   2.123   3.453  0.5853  0.2791 -0.0363
 2182SOL     OW18004   0.796   2.160   7.284  0.3420  0.2119  0.1316
 2182SOL    HW118005   0.851   2.144   7.361 -0.9104 -0.1636  0.9528
 2182SOL    HW218006   0.787   2.070   7.252  0.1985  0.8668 -1.6722
 2183SOL     OW18007   3.052   0.793   2.764  0.5601 -0.4589  0.7203
 2183SOL    HW118008   2.975   0.778   2.708  0.0901 -1.6492  1.7037
 2183SOL    HW218009   3.126   0.794   2.704 -0.4596  1.6402 -0.5276
 2184SOL     OW18010   4.240   4.468  10.848 -0.3048 -0.2592 -0.1834
 2184SOL    HW118011   4.156   4.433  10.821 -0.9481  1.1867 -0.0271
 2184SOL    HW218012   4.274   4.405  10.911  0.6232 -0.3143 -0.7297
 2185SOL     OW18013   0.006   4.556   9.576 -0.2043 -0.9630 -1.1878
 2185SOL    HW118014   0.077   4.493   9.588 -0.6984 -2.0038 -3.7191
 2185SOL    HW218015   4.659   4.512   9.624  0.0953  0.1788  0.2807
 2186SOL     OW18016   1.263   1.129   0.083 -0.6404 -0.1300  0.4660
 2186SOL    HW118017   1.353   1.159   0.091 -1.2940  1.6761  1.1829
 2186SOL    HW218018   1.262   1.054   0.142  0.2310  1.1870  2.1606
 2187SOL     OW18019   4.225   3.897   6.820 -0.0011  0.4601  0.1645
 2187SOL    HW118020   4.184   3.812   6.808  3.5133 -1.3384  0.8632
 2187SOL    HW218021   4.210   3.908   6.914  4.0554  0.0865  0.8595
 2188SOL     OW18022   2.642   0.583   1.486  0.3132 -0.2536  0.1123
 2188SOL    HW118023   2.651   0.594   1.580  0.3174  0.5258  0.0222
 2188SOL    HW218024   2.637   0.488   1.475 -0.6582 -0.3529  1.4424
 2189SOL     OW18025   4.443   1.245   5.613 -0.3916  0.1955 -0.1119
 2189SOL    HW118026   4.438   1.157   5.649 -2.5537 -0.3836 -1.8537
 2189SOL    HW218027   4.539   1.252   5.616 -0.3554  0.1004 -1.0219
 2190SOL     OW18028   2.967   1.599   8.479  0.0055  0.5873 -0.3776
 2190SOL    HW118029   2.874   1.586   8.501  0.0352  0.3284 -0.4046
 2190SOL    HW218030   3.007   1.622   8.563  0.3309 -1.1790 -0.0482
 2191SOL     OW18031   2.569   3.558  16.918  0.6110  0.2750  0.4799
 2191SOL    HW118032   2.600   3.630  16.974 -0.2071  1.3310 -0.4147
 2191SOL    HW218033   2.645   3.550  16.860  0.0314  0.5835 -0.3162
 2192SOL     OW18034   3.404   1.087   6.382 -0.2344  0.0670 -0.1345
 2192SOL    HW118035   3.375   1.058   6.296  2.4036 -1.6232 -0.4542
 2192SOL    HW218036   3.441   1.005   6.416 -0.7863  0.0135  0.3419
 2193SOL     OW18037   1.254   3.239   7.128  0.5610  0.2637  0.5105
 2193SOL    HW118038   1.238   3.265   7.219 -2.0731  1.9529 -0.4638
 2193SOL    HW218039   1.343   3.203   7.134  0.5716  0.2549  0.2902
 2194SOL     OW18040   1.414   4.551   5.302  1.0405  0.0529 -0.3186
 2194SOL    HW118041   1.383   4.500   5.227 -1.3149 -0.5145  1.0474
 2194SOL    HW218042   1.432   4.628   5.248 -0.0341 -1.6085 -3.0461
 2195SOL     OW18043   2.275   2.209   6.276 -0.1857 -0.0636 -0.0651
 2195SOL    HW118044   2.189   2.212   6.233 -1.0451  1.7643  1.7746
 2195SOL    HW218045   2.248   2.254   6.357  1.9038 -0.9312  1.0982
 2196SOL     OW18046   1.495   3.415  15.939  0.2998  0.3794  0.1280
 2196SOL    HW118047   1.421   3.397  15.881 -0.5581  0.6590  1.1401
 2196SOL    HW218048   1.472   3.503  15.971  0.2151  1.4510 -2.8792
 2197SOL     OW18049   0.009   2.618  14.511  0.2290 -0.9257  0.5024
 2197SOL    HW118050   0.060   2.546  14.477  1.1782 -0.0680  0.1172
 2197SOL    HW218051   4.687   2.570  14.580  2.4123 -1.6969  1.3696
 2198SOL     OW18052   3.939   3.362   8.603 -0.1248 -0.4188  0.4240
 2198SOL    HW118053   3.988   3.427   8.552 -2.8479  2.1824  1.0774
 2198SOL    HW218054   3.876   3.429   8.631  0.3078  0.9889 -1.9297
 2199SOL     OW18055   3.386   3.383   8.129  0.3915  0.6376 -0.2101
 2199SOL    HW118056   3.398   3.407   8.037  0.5283  0.5151 -0.2256
 2199SOL    HW218057   3.465   3.414   8.172  0.4111 -0.6151  0.6817
 2200SOL     OW18058   0.532   1.642   8.348  0.9222  0.2146  0.0668
 2200SOL    HW118059   0.525   1.565   8.292  0.4821 -0.3034  0.8433
 2200SOL    HW218060   0.441   1.652   8.377  0.6068  0.4318 -1.0047
 2201SOL     OW18061   1.275   1.257   8.630  0.6655  0.2803  0.3475
 2201SOL    HW118062   1.285   1.180   8.685  0.0538 -0.1311 -0.1113
 2201SOL    HW218063   1.189   1.279   8.666  0.4413  2.4554 -1.4655
 2202SOL     OW18064   4.077   3.683   7.307  0.0892  0.2612 -0.4510
 2202SOL    HW118065   4.086   3.694   7.401 -0.9408 -0.3095 -0.2799
 2202SOL    HW218066   4.132   3.606   7.296  0.3187  0.3173  0.3457
 2203SOL     OW18067   0.730   4.230  16.400  0.0572  0.2915  0.0320
 2203SOL    HW118068   0.791   4.233  16.473 -0.5385 -0.4124  0.5649
 2203SOL    HW218069   0.776   4.295  16.348  1.1076 -1.1566 -0.8531
 2204SOL     OW18070   3.361   0.097   0.507  0.1904  0.4541 -0.5224
 2204SOL    HW118071   3.379   0.083   0.413  0.9101 -0.6133 -0.2290
 2204SOL    HW218072   3.265   0.098   0.512  0.2432  2.4321 -0.1412
 2205SOL     OW18073   2.635   0.625   8.471  0.3630 -0.1018 -0.1959
 2205SOL    HW118074   2.561   0.570   8.497 -0.4077  1.5644  1.1797
 2205SOL    HW218075   2.708   0.565   8.485  0.6148 -0.1415 -1.7085
 2206SOL     OW18076   2.439   2.342  14.304 -0.3534 -0.1377  0.2095
 2206SOL    HW118077   2.506   2.383  14.359 -1.0973  1.7911 -0.3310
 2206SOL    HW218078   2.453   2.252  14.333  1.4047  0.6919  1.9155
 2207SOL     OW18079   0.572   3.435   6.812  0.0904  0.1059 -0.1870
 2207SOL    HW118080   0.567   3.508   6.873 -1.4804  1.1526 -1.5814
 2207SOL    HW218081   0.643   3.461   6.754 -1.2122  0.0343 -1.8278
 2208SOL     OW18082   1.158   0.274   7.053 -0.4763 -0.6209 -0.1824
 2208SOL    HW118083   1.162   0.368   7.067 -0.7820 -0.7989  1.1377
 2208SOL    HW218084   1.092   0.251   7.120  0.8096 -2.3318  0.5014
 2209SOL     OW18085   4.342   1.998  17.515 -0.2117 -0.0306 -0.0037
 2209SOL    HW118086   4.377   2.071  17.566 -1.2694  1.3548 -1.2888
 2209SOL    HW218087   4.250   1.998  17.542 -0.0542 -0.1069  0.5331
 2210SOL     OW18088   2.904   4.658   5.617  0.0135  0.4255 -0.0049
 2210SOL    HW118089   2.959   4.647   5.694  0.4962 -2.5525 -0.7677
 2210SOL    HW218090   2.885   4.568   5.591  0.2495  0.6361 -0.9257
 2211SOL     OW18091   3.991   2.345  11.279  0.5060  0.1084  0.2120
 2211SOL    HW118092   4.049   2.286  11.231  1.6297  1.5342 -0.1782
 2211SOL    HW218093   3.972   2.291  11.356  1.6781  0.1493  0.5276
 2212SOL     OW18094   4.249   3.868   1.083 -0.1479 -0.3787  0.1119
 2212SOL    HW118095   4.271   3.785   1.127  0.5122  0.1448  0.7656
 2212SOL    HW218096   4.177   3.844   1.024 -0.3632 -0.5128  0.4303
 2213SOL     OW18097   1.582   1.126  15.213  0.4975  0.5585 -0.0842
 2213SOL    HW118098   1.562   1.037  15.241  0.7707  1.1445  1.9793
 2213SOL    HW218099   1.558   1.176  15.291  0.1222  1.1204 -0.5596
 2214SOL     OW18100   4.383   0.798   8.824 -0.2485  0.4267  0.1644
 2214SOL    HW118101   4.452   0.733   8.833 -0.5581 -0.1556 -1.5980
 2214SOL    HW218102   4.321   0.771   8.892 -1.8233  1.6072 -0.7935
 2215SOL     OW18103   1.634   1.365  16.022  0.3041  0.0659 -0.1122
 2215SOL    HW118104   1.580   1.440  15.997 -0.0320  0.1314  0.8142
 2215SOL    HW218105   1.576   1.314  16.078  1.1491  1.3152  1.9291
 2216SOL     OW18106   1.268   4.279   4.684 -0.0044 -0.0036  0.1437
 2216SOL    HW118107   1.354   4.244   4.709 -0.9423 -1.6343  1.1370
 2216SOL    HW218108   1.221   4.197   4.666  0.0992 -0.2152  0.8076
 2217SOL     OW18109   4.418   1.024   6.771 -0.2892  0.1028 -0.1190
 2217SOL    HW118110   4.373   1.062   6.696 -1.7876 -0.4578  0.4808
 2217SOL    HW218111   4.359   1.055   6.841  2.1797 -0.1584  2.0741
 2218SOL     OW18112   3.317   0.870   7.326 -0.0841  0.6339 -0.1162
 2218SOL    HW118113   3.364   0.888   7.245 -1.4222 -1.2136 -1.3052
 2218SOL    HW218114   3.225   0.888   7.309 -0.7324  0.0168  2.7083
 2219SOL     OW18115   2.007   2.327   3.953 -0.1760 -0.0785  0.0595
 2219SOL    HW118116   1.994   2.358   3.863 -0.6621 -1.3329 -0.3013
 2219SOL    HW218117   2.102   2.334   3.952 -0.1917  0.1963  0.4761
 2220SOL     OW18118   2.062   3.768   6.500  0.6713 -0.3786  0.7205
 2220SOL    HW118119   2.094   3.853   6.471 -0.6046 -0.8268 -2.0000
 2220SOL    HW218120   2.086   3.771   6.593 -1.0266 -0.3651  1.1631
 2221SOL     OW18121   3.505   0.820   2.503 -0.0042  0.6109  0.1763
 2221SOL    HW118122   3.550   0.889   2.454 -2.8439  2.0224 -0.4392
 2221SOL    HW218123   3.527   0.739   2.458  1.6156  1.7687 -1.1226
 2222SOL     OW18124   3.000   0.408  12.388 -0.4078 -0.4463 -0.2685
 2222SOL    HW118125   2.966   0.495  12.368 -1.0535 -0.4382  0.8239
 2222SOL    HW218126   3.086   0.426  12.350  0.7298 -0.7135  2.1519
 2223SOL     OW18127   3.445   1.779  14.321  0.0807  0.1419  0.0641
 2223SOL    HW118128   3.434   1.694  14.278 -0.0544 -0.3045  0.9996
 2223SOL    HW218129   3.500   1.821  14.254  0.4761  0.5245  0.6347
 2224SOL     OW18130   3.924   2.939   6.155  0.1125 -0.6031  0.0704
 2224SOL    HW118131   3.903   2.848   6.131  0.6795 -0.4531 -1.0119
 2224SOL    HW218132   3.984   2.937   6.229  1.5153 -0.5806 -1.0582
 2225SOL     OW18133   0.511   3.292   0.719 -0.3843 -0.4384 -0.2187
 2225SOL    HW118134   0.558   3.273   0.800 -2.9903 -1.7998  0.9851
 2225SOL    HW218135   0.426   3.257   0.748  0.5090 -1.3394  1.3128
 2226SOL     OW18136   4.047   0.818   0.660 -0.8450 -0.2263 -0.3765
 2226SOL    HW118137   3.962   0.861   0.657 -2.1418 -3.0031 -2.6307
 2226SOL    HW218138   4.024   0.726   0.660  2.3646 -1.0539 -1.0526
 2227SOL     OW18139   2.382   1.727  11.447 -1.0483  0.0411  0.0330
 2227SOL    HW118140   2.422   1.789  11.507  1.5760 -0.2396 -1.3835
 2227SOL    HW218141   2.370   1.657  11.512  0.5589 -1.6471 -1.4515
 2228SOL     OW18142   2.229   4.648   4.329  0.4365 -0.6806 -0.0067
 2228SOL    HW118143   2.270   0.006   4.361  1.2251 -1.0117 -0.1675
 2228SOL    HW218144   2.300   4.611   4.275 -0.4678 -2.8398  0.2787
 2229SOL     OW18145   2.323   1.910   7.428 -0.0972  0.0471  0.0683
 2229SOL    HW118146   2.256   1.949   7.485 -3.0076 -0.0924 -3.2404
 2229SOL    HW218147   2.395   1.916   7.491 -0.8176  0.0017  0.9119
 2230SOL     OW18148   2.340   3.403  16.794 -0.4206  0.2283  0.3645
 2230SOL    HW118149   2.421   3.440  16.829 -1.0916  0.2108  1.9419
 2230SOL    HW218150   2.376   3.322  16.759 -1.1201 -0.4997  1.3325
 2231SOL     OW18151   2.866   2.455   5.409  0.3718 -0.2736  0.1404
 2231SOL    HW118152   2.950   2.478   5.368 -0.1236 -0.5675 -1.0534
 2231SOL    HW218153   2.889   2.384   5.468 -0.2082  0.8152  1.6701
 2232SOL     OW18154   1.870   2.309  11.528  0.2236  0.1391  0.5117
 2232SOL    HW118155   1.852   2.403  11.525 -0.6160 -0.0004  1.0283
 2232SOL    HW218156   1.965   2.313  11.523  0.2938 -1.0672  0.8668
 2233SOL     OW18157   1.553   4.363   4.169  0.0413 -0.4017 -0.2587
 2233SOL    HW118158   1.550   4.309   4.248  0.1993 -0.6484 -0.4177
 2233SOL    HW218159   1.583   4.449   4.196 -1.6525  0.0252  0.2070
 2234SOL     OW18160   0.759   0.663   4.583  0.1543  0.0999 -0.2180
 2234SOL    HW118161   0.695   0.633   4.519  0.6927 -0.2554 -0.5980
 2234SOL    HW218162   0.776   0.756   4.565 -0.9910  0.5969  1.3353
 2235SOL     OW18163   0.281   0.978   5.585 -0.1998  0.1876 -0.3454
 2235SOL    HW118164   0.363   1.014   5.550  0.8466 -2.0004 -0.1375
 2235SOL    HW218165   0.279   0.887   5.556  1.8985  0.2423 -0.7044
 2236SOL     OW18166   2.540   3.686  16.257 -0.9469  0.3035 -0.3803
 2236SOL    HW118167   2.586   3.686  16.342 -2.5891 -1.2219  0.4960
 2236SOL    HW218168   2.554   3.777  16.229  0.1367 -0.0728 -1.0681
 2237SOL     OW18169   3.063   0.913   7.196 -0.3316 -0.6522 -0.6033
 2237SOL    HW118170   2.978   0.946   7.165  1.2746  0.1275 -4.1684
 2237SOL    HW218171   3.094   0.875   7.114 -0.9728  1.9426 -2.0422
 2238SOL     OW18172   1.723   4.658   3.321 -0.3544 -0.5213 -0.4577
 2238SOL    HW118173   1.640   4.702   3.306  0.0831  0.4629  0.0062
 2238SOL    HW218174   1.716   4.567   3.292 -2.5690 -1.1779  2.1169
 2239SOL     OW18175   1.164   2.548   3.042  0.3010 -0.4065 -0.3911
 2239SOL    HW118176   1.238   2.586   2.994  0.5882  0.5038  0.7657
 2239SOL    HW218177   1.194   2.457   3.047 -2.6984 -1.3843 -0.2406
 2240SOL     OW18178   2.308   2.114   9.752 -0.0452 -0.1316 -0.4735
 2240SOL    HW118179   2.284   2.040   9.697 -0.9603  0.4179 -0.8056
 2240SOL    HW218180   2.224   2.155   9.769  1.6063  3.3296 -0.5863
 2241SOL     OW18181   4.461   3.619   5.789  0.2521 -0.0861  1.1192
 2241SOL    HW118182   4.407   3.636   5.712 -0.7345  0.6621  1.9825
 2241SOL    HW218183   4.395   3.595   5.855 -0.2509  1.7433  1.2650
 2242SOL     OW18184   4.638   1.905   5.777 -0.2068  0.3195 -0.3568
 2242SOL    HW118185   4.554   1.861   5.791  1.5608 -4.4818 -4.8827
 2242SOL    HW218186   4.680   1.845   5.714 -0.5396  0.5099 -0.7624
 2243SOL     OW18187   0.176   2.581   4.538  0.0162  0.2536 -1.0723
 2243SOL    HW118188   0.135   2.652   4.489 -0.6136  0.8586  0.3543
 2243SOL    HW218189   0.211   2.633   4.610 -1.5763  0.3130 -0.3570
 2244SOL     OW18190   0.442   3.120  16.282 -0.2649  0.0729  0.1447
 2244SOL    HW118191   0.390   3.088  16.356  1.4651  1.5710  2.0068
 2244SOL    HW218192   0.499   3.045  16.266 -1.2459 -0.5050 -0.6530
 2245SOL     OW18193   1.836   0.787  17.561 -0.2576  0.6573 -0.7040
 2245SOL    HW118194   1.882   0.721  17.613  0.6417  0.2368 -2.0249
 2245SOL    HW218195   1.902   0.812  17.495  0.2752  1.4009  0.1124
 2246SOL     OW18196   1.957   1.429  12.934 -0.0427 -0.4170  0.4820
 2246SOL    HW118197   1.925   1.344  12.903  0.8195 -0.8703  0.8413
 2246SOL    HW218198   2.038   1.436  12.884 -1.0507 -0.6508 -1.1636
 2247SOL     OW18199   2.015   1.410   7.625  0.2903 -0.3633 -0.5161
 2247SOL    HW118200   2.085   1.346   7.618  2.4578  2.1545 -2.0388
 2247SOL    HW218201   1.936   1.377   7.583 -2.0898  2.9632  1.3277
 2248SOL     OW18202   0.228   0.734  11.555  0.0713 -0.2339  0.1396
 2248SOL    HW118203   0.171   0.743  11.632 -1.0659  0.4319 -0.7692
 2248SOL    HW218204   0.255   0.824  11.536 -0.9093  0.3565  1.5493
 2249SOL     OW18205   3.842   4.024   8.035  0.0188 -0.4672  0.8593
 2249SOL    HW118206   3.915   3.973   8.070  0.4078 -1.1074 -0.8963
 2249SOL    HW218207   3.777   3.994   8.099 -0.2675  1.5399  1.5198
 2250SOL     OW18208   1.505   1.884  15.836  0.0238  0.1607 -0.1847
 2250SOL    HW118209   1.574   1.832  15.796  0.2554  0.1685  0.2065
 2250SOL    HW218210   1.513   1.868  15.930  0.3136 -0.5841 -0.3374
 2251SOL     OW18211   0.258   3.675   8.591 -0.2567  0.3415 -0.3849
 2251SOL    HW118212   0.224   3.749   8.642  3.5972  1.9769 -0.1999
 2251SOL    HW218213   0.344   3.673   8.634 -0.3553 -0.8620 -0.2410
 2252SOL     OW18214   1.725   1.526   5.187  0.3280 -0.3764  0.4273
 2252SOL    HW118215   1.698   1.523   5.096 -2.0258  0.0988  1.1227
 2252SOL    HW218216   1.811   1.567   5.175 -0.0895 -0.2136 -1.8903
 2253SOL     OW18217   0.715   3.043   9.301 -0.1102 -0.2194  0.6008
 2253SOL    HW118218   0.647   3.111   9.298 -0.8835 -1.0382 -0.2864
 2253SOL    HW218219   0.699   3.002   9.216  2.6748 -0.8917  0.4082
 2254SOL     OW18220   1.684   1.222  13.104 -0.3694  0.0927 -0.0157
 2254SOL    HW118221   1.726   1.239  13.019 -1.3770  2.2094 -0.0973
 2254SOL    HW218222   1.749   1.251  13.168 -0.3955 -2.0491  0.9478
 2255SOL     OW18223   0.452   3.527   4.054  0.4845  0.6065  0.3220
 2255SOL    HW118224   0.492   3.601   4.008 -0.7066  0.0548 -1.5798
 2255SOL    HW218225   0.446   3.558   4.144 -0.4261  0.5748  0.2713
 2256SOL     OW18226   1.081   0.013   5.977  0.1761 -0.0585 -0.2713
 2256SOL    HW118227   1.016   4.667   5.963  1.2465 -1.3339  1.0141
 2256SOL    HW218228   1.038   0.065   6.046 -0.7666  0.8699 -1.5583
 2257SOL     OW18229   0.005   3.657  11.386  0.1000 -0.2522 -0.2091
 2257SOL    HW118230   4.710   3.569  11.351 -3.0009 -0.4060  1.7474
 2257SOL    HW218231   0.100   3.647  11.382  0.1133 -0.0425 -0.4119
 2258SOL     OW18232   2.329   1.114   3.445  0.1445 -0.1335  0.0496
 2258SOL    HW118233   2.267   1.150   3.508 -1.0712  2.9528 -2.8815
 2258SOL    HW218234   2.328   1.019   3.459 -1.5399  0.2252  2.4240
 2259SOL     OW18235   3.265   2.133   7.674 -0.0241  0.6696 -0.2805
 2259SOL    HW118236   3.217   2.087   7.605 -0.0102  0.5678 -0.2230
 2259SOL    HW218237   3.191   2.179   7.712 -0.5190 -0.6029  0.2881
 2260SOL     OW18238   1.089   0.110   8.303 -0.1961 -0.6559  0.8732
 2260SOL    HW118239   1.117   0.145   8.388  0.6016 -1.0595  0.7783
 2260SOL    HW218240   0.997   0.135   8.305  0.5262  2.3609 -3.1153
 2261SOL     OW18241   2.472   0.741   9.046  0.4772  0.1000  0.0838
 2261SOL    HW118242   2.535   0.793   9.095  1.4289 -0.5241 -0.4957
 2261SOL    HW218243   2.392   0.751   9.098  0.2084 -0.3574 -0.2418
 2262SOL     OW18244   1.740   4.547   7.701  0.5395 -0.4612 -0.5156
 2262SOL    HW118245   1.798   4.617   7.730  0.6283 -0.9277  0.4408
 2262SOL    HW218246   1.751   4.532   7.607 -0.1291 -0.8812 -0.5269
 2263SOL     OW18247   1.331   0.886   7.911 -0.0265 -0.0895 -0.0537
 2263SOL    HW118248   1.262   0.833   7.872  1.7026 -2.3459 -0.0961
 2263SOL    HW218249   1.303   0.897   8.002  0.4579 -0.0803  0.0959
 2264SOL     OW18250   2.491   3.718  14.937  0.6031 -0.2341 -0.3214
 2264SOL    HW118251   2.581   3.743  14.958  1.1566 -2.1213 -0.4843
 2264SOL    HW218252   2.474   3.761  14.853 -1.7557 -0.8630 -0.1594
 2265SOL     OW18253   1.084   2.652   8.207 -0.4090  0.6751 -0.5414
 2265SOL    HW118254   1.167   2.661   8.161  1.4023  0.7232  2.7723
 2265SOL    HW218255   1.100   2.566   8.245 -0.3209  0.7170 -0.4847
 2266SOL     OW18256   1.878   0.322   3.200  0.0984 -0.2936  0.6284
 2266SOL    HW118257   1.846   0.239   3.166  1.0725  0.1161 -1.2745
 2266SOL    HW218258   1.836   0.311   3.285  0.9853 -1.2248  0.9464
 2267SOL     OW18259   0.794   1.321   4.602 -0.0028 -0.4061  0.4480
 2267SOL    HW118260   0.813   1.405   4.644  2.1625 -0.8033  0.2507
 2267SOL    HW218261   0.798   1.351   4.511 -2.0186  1.3182  0.9130
 2268SOL     OW18262   3.929   1.185  10.625 -0.1087  0.1013  0.4691
 2268SOL    HW118263   3.956   1.264  10.671 -0.1698  0.2545  0.2440
 2268SOL    HW218264   3.946   1.210  10.534 -0.7963  2.1594  0.9140
 2269SOL     OW18265   1.264   1.950   5.114 -0.5300  0.4935 -0.3081
 2269SOL    HW118266   1.280   2.039   5.083  0.0550  0.4859 -0.0241
 2269SOL    HW218267   1.318   1.958   5.192 -1.6935 -1.5157  0.7044
 2270SOL     OW18268   0.324   3.224  11.722  0.6949  0.5673 -0.2076
 2270SOL    HW118269   0.369   3.307  11.703  0.0766  0.5879 -1.5929
 2270SOL    HW218270   0.274   3.210  11.641  1.6968 -0.7822 -0.5792
 2271SOL     OW18271   1.147   1.396   2.889 -0.2826  0.2537 -0.7796
 2271SOL    HW118272   1.061   1.373   2.855 -0.7197 -0.9576  1.1510
 2271SOL    HW218273   1.207   1.341   2.839 -0.5953 -1.3512  0.6359
 2272SOL     OW18274   0.947   2.375   4.607  0.3891  0.5400  0.0679
 2272SOL    HW118275   0.936   2.289   4.647  2.8079 -1.0049 -2.5481
 2272SOL    HW218276   1.042   2.368   4.594  0.1420  0.6286 -1.8167
 2273SOL     OW18277   4.247   3.044   7.127  0.0139  0.2893 -0.0149
 2273SOL    HW118278   4.168   2.995   7.101  0.5006 -0.6629  0.3126
 2273SOL    HW218279   4.297   2.975   7.169 -1.5620 -1.9271 -1.7260
 2274SOL     OW18280   1.596   0.693   6.313 -0.3048  0.2400 -0.2520
 2274SOL    HW118281   1.518   0.729   6.272  0.2496  0.9812 -0.6676
 2274SOL    HW218282   1.548   0.643   6.379 -2.0629 -0.9176 -2.4166
 2275SOL     OW18283   0.722   4.461   2.928  1.0375  0.4290  0.0945
 2275SOL    HW118284   0.736   4.524   2.999 -1.3325  1.2251 -0.1309
 2275SOL    HW218285   0.627   4.469   2.929  1.0783  0.8438  0.7729
 2276SOL     OW18286   3.512   3.372   0.692  0.6988 -0.3693  0.0511
 2276SOL    HW118287   3.577   3.376   0.763 -1.0940  0.0273  1.6494
 2276SOL    HW218288   3.572   3.333   0.628  1.1510  0.8557 -0.2792
 2277SOL     OW18289   1.997   4.036   3.801  0.1273 -0.4636  0.2570
 2277SOL    HW118290   1.946   4.114   3.782 -0.2758  0.0059  3.3176
 2277SOL    HW218291   1.996   4.004   3.710 -1.6431 -1.1814  0.5326
 2278SOL     OW18292   0.777   3.035   3.402 -0.2787  0.2493  0.2963
 2278SOL    HW118293   0.844   2.993   3.347  0.0313  0.2247  0.6887
 2278SOL    HW218294   0.749   3.109   3.348  1.6313  0.4093 -0.4844
 2279SOL     OW18295   4.573   1.851   7.498 -0.4328  0.2140 -0.9207
 2279SOL    HW118296   4.517   1.778   7.472  0.7769 -0.5176 -1.4571
 2279SOL    HW218297   4.581   1.888   7.410  1.5298 -0.5693 -1.0558
 2280SOL     OW18298   2.337   3.010  16.493 -0.2070 -0.3084 -0.0885
 2280SOL    HW118299   2.416   3.059  16.469 -0.4217 -0.1820 -0.5396
 2280SOL    HW218300   2.289   3.016  16.411  0.3324 -1.2896 -0.4806
 2281SOL     OW18301   1.892   2.149   7.471 -0.3012 -0.2597 -0.1006
 2281SOL    HW118302   1.920   2.057   7.471  0.4266 -0.0325 -1.2577
 2281SOL    HW218303   1.827   2.140   7.541 -1.0190  2.7909 -0.3819
 2282SOL     OW18304   2.117   1.692   4.265 -0.0513  0.7663  0.0073
 2282SOL    HW118305   2.083   1.603   4.262  0.7275  0.4762 -0.3846
 2282SOL    HW218306   2.045   1.736   4.220 -2.0399 -1.2810  1.1900
 2283SOL     OW18307   3.432   0.534  12.899  0.7318  0.2024 -0.6465
 2283SOL    HW118308   3.462   0.444  12.910  0.4770  0.5493  2.7999
 2283SOL    HW218309   3.362   0.521  12.835 -0.2721  0.9486  0.3060
 2284SOL     OW18310   4.175   2.196   0.834  0.0199  0.1155 -0.3150
 2284SOL    HW118311   4.114   2.124   0.822  0.7607 -0.2009 -2.1973
 2284SOL    HW218312   4.119   2.268   0.864 -1.4261 -1.6984  1.2843
 2285SOL     OW18313   3.519   2.129   5.532  0.1127 -0.1103  1.0994
 2285SOL    HW118314   3.478   2.145   5.447  1.2239  0.7778  0.7180
 2285SOL    HW218315   3.456   2.175   5.587 -0.1202  0.7758  0.0967
 2286SOL     OW18316   3.359   0.099   4.755  0.2019  0.6409 -0.9856
 2286SOL    HW118317   3.375   0.141   4.670 -1.7653  0.1391 -1.6020
 2286SOL    HW218318   3.318   0.162   4.814 -2.1284 -1.0515 -0.7807
 2287SOL     OW18319   3.822   3.709   7.162  0.1872  0.3964 -0.1370
 2287SOL    HW118320   3.871   3.681   7.239 -0.9489 -1.1425  0.0162
 2287SOL    HW218321   3.883   3.677   7.095 -0.7197 -0.6142 -0.4791
 2288SOL     OW18322   4.491   1.923   8.226 -0.2105  0.2596  0.1503
 2288SOL    HW118323   4.484   1.880   8.141 -0.0198  1.4080 -0.4592
 2288SOL    HW218324   4.541   2.001   8.200  1.0479 -0.4803  0.3375
 2289SOL     OW18325   0.853   3.097   1.742  0.4562  0.0336  0.4375
 2289SOL    HW118326   0.938   3.076   1.781  0.4478  0.1301  0.5079
 2289SOL    HW218327   0.851   3.023   1.681  0.8505 -1.4605  2.2470
 2290SOL     OW18328   4.136   2.255   8.393  0.7708  0.4906 -0.4438
 2290SOL    HW118329   4.166   2.224   8.479 -1.8242 -0.4535  0.1242
 2290SOL    HW218330   4.109   2.169   8.359 -1.5098  2.4463 -3.5504
 2291SOL     OW18331   1.431   0.749   9.376  0.6005  0.3916 -0.3387
 2291SOL    HW118332   1.340   0.737   9.405  0.9456 -0.5793  0.3408
 2291SOL    HW218333   1.432   0.690   9.301  0.8581  1.6347 -1.3206
 2292SOL     OW18334   0.626   2.193   0.117 -0.1006  0.0623  0.3233
 2292SOL    HW118335   0.576   2.216   0.039  1.1072 -1.4567 -0.9212
 2292SOL    HW218336   0.645   2.270   0.170  0.1300 -0.4633  1.0125
 2293SOL     OW18337   3.959   0.460   6.366  0.1791  0.3531  0.1725
 2293SOL    HW118338   3.929   0.482   6.278  1.4696  1.1693 -0.0619
 2293SOL    HW218339   3.984   0.548   6.395  0.9594 -0.0081  0.5974
 2294SOL     OW18340   1.623   0.114   4.315  0.5813  0.0805  0.2244
 2294SOL    HW118341   1.662   0.038   4.358 -0.3629 -0.8339 -0.5569
 2294SOL    HW218342   1.538   0.114   4.358 -0.7898  1.4835 -2.4805
 2295SOL     OW18343   1.373   3.066   2.416  0.0888  0.5532 -0.7962
 2295SOL    HW118344   1.378   3.109   2.330 -0.8415 -0.9600 -1.5935
 2295SOL    HW218345   1.437   2.995   2.405 -0.7918 -0.4380  0.5651
 2296SOL     OW18346   2.151   0.390   7.200  0.6625 -0.0062  0.3747
 2296SOL    HW118347   2.077   0.440   7.233  1.2362  0.9018  0.2908
 2296SOL    HW218348   2.108   0.320   7.152  2.6978 -0.8079 -0.3047
 2297SOL     OW18349   4.125   4.028   5.312  0.1073 -0.8368 -0.1678
 2297SOL    HW118350   4.092   4.005   5.399  2.5522 -0.5874  0.8374
 2297SOL    HW218351   4.193   4.090   5.338 -0.6798  0.9545 -2.3761
 2298SOL     OW18352   2.552   0.247   7.530  0.0258 -0.1146  0.2919
 2298SOL    HW118353   2.465   0.231   7.566 -0.3947 -1.9086 -1.5209
 2298SOL    HW218354   2.586   0.157   7.533 -0.9185 -0.4526  0.8985
 2299SOL     OW18355   0.286   0.623  17.259 -0.9419  0.0529 -0.3340
 2299SOL    HW118356   0.262   0.531  17.242  0.1630 -0.3881  0.5062
 2299SOL    HW218357   0.269   0.633  17.352 -4.3876  1.7831 -1.1420
 2300SOL     OW18358   4.711   0.176  10.186 -0.0754  0.1507  0.4093
 2300SOL    HW118359   0.042   0.104  10.152 -2.3234 -1.5443  0.3962
 2300SOL    HW218360   4.628   0.173  10.137 -0.3875  0.0245  0.9436
 2301SOL     OW18361   1.084   3.534   5.932  0.0958 -0.4655  0.0169
 2301SOL    HW118362   1.030   3.454   5.931 -0.1679 -0.2647 -1.2886
 2301SOL    HW218363   1.059   3.579   6.013 -0.9592  2.0597 -1.7324
 2302SOL     OW18364   3.964   4.397   3.493 -0.2462 -0.5388 -0.1320
 2302SOL    HW118365   4.041   4.386   3.549  0.1688 -1.0002 -0.7849
 2302SOL    HW218366   3.999   4.433   3.411 -2.2413  0.1108 -0.6931
 2303SOL     OW18367   0.728   1.455   0.534  0.2419 -0.1243  0.6230
 2303SOL    HW118368   0.691   1.384   0.481  2.5162 -1.7285  1.1998
 2303SOL    HW218369   0.762   1.504   0.459 -4.9277  3.2082  0.4369
 2304SOL     OW18370   0.216   1.066   3.628  0.1658  0.2175 -0.3746
 2304SOL    HW118371   0.266   1.133   3.582 -0.5570 -0.4040 -2.0469
 2304SOL    HW218372   0.129   1.094   3.599 -0.3060 -1.0997 -0.2571
 2305SOL     OW18373   1.702   0.354   7.396  0.1625  0.2532 -0.1311
 2305SOL    HW118374   1.719   0.432   7.450  0.5964  0.2130 -0.2134
 2305SOL    HW218375   1.610   0.340   7.420 -0.3540 -1.1275 -2.9023
 2306SOL     OW18376   1.624   1.588   0.383  0.4511  0.1881  0.2527
 2306SOL    HW118377   1.547   1.591   0.440  1.3128  3.0914  1.2328
 2306SOL    HW218378   1.677   1.641   0.442  0.2864  2.0260 -1.2379
 2307SOL     OW18379   0.352   3.912   3.652  0.1221 -0.1114  0.1619
 2307SOL    HW118380   0.367   3.819   3.671 -1.0518 -0.0827  1.1836
 2307SOL    HW218381   0.362   3.940   3.742 -1.7260  0.0308  0.3087
 2308SOL     OW18382   3.807   1.363   5.927 -0.1257  0.2694 -0.6074
 2308SOL    HW118383   3.789   1.274   5.959 -0.2507 -0.1612 -1.8589
 2308SOL    HW218384   3.753   1.377   5.849 -0.4041  0.6190 -0.3499
 2309SOL     OW18385   0.938   2.615   7.364 -0.1360  0.0055  0.4359
 2309SOL    HW118386   0.886   2.689   7.396 -0.2367  0.8808 -1.7525
 2309SOL    HW218387   1.028   2.644   7.383 -0.2869  1.2399 -0.7659
 2310SOL     OW18388   0.605   2.800   9.002  0.0738  0.5934  0.0616
 2310SOL    HW118389   0.663   2.752   9.062  0.1888 -0.5226 -0.9531
 2310SOL    HW218390   0.539   2.734   8.984 -2.9875  3.8936 -0.7239
 2311SOL     OW18391   4.299   0.115   6.998 -0.3460  0.3605 -0.7759
 2311SOL    HW118392   4.352   0.098   6.921 -0.1020 -1.1043 -0.2906
 2311SOL    HW218393   4.301   0.025   7.031  0.6303  0.5262 -0.3968
 2312SOL     OW18394   3.155   1.434   9.190  0.6097 -0.2580 -0.2526
 2312SOL    HW118395   3.100   1.389   9.254 -1.6583  1.2694 -1.1139
 2312SOL    HW218396   3.216   1.473   9.252 -1.2080  2.2670 -0.0385
 2313SOL     OW18397   1.657   4.378   7.217  0.7560 -0.1924  0.0869
 2313SOL    HW118398   1.634   4.289   7.193 -0.7611 -0.5511  2.8366
 2313SOL    HW218399   1.573   4.412   7.246  1.1222  0.1949  0.7079
 2314SOL     OW18400   0.678   2.438   1.077 -0.4213  0.1580  0.1727
 2314SOL    HW118401   0.681   2.406   1.167  0.8624 -0.5174 -0.1124
 2314SOL    HW218402   0.608   2.500   1.097 -0.1466  0.5034  0.0649
 2315SOL     OW18403   2.844   1.441  14.723  0.1285  0.4136 -0.2682
 2315SOL    HW118404   2.805   1.437  14.810  0.9169  1.1948  0.1247
 2315SOL    HW218405   2.893   1.359  14.720  1.1765  1.0157  0.3140
 2316SOL     OW18406   1.996   3.071   4.412  0.1373 -0.2767 -0.5733
 2316SOL    HW118407   1.984   3.013   4.336  1.3637 -1.5845  0.2451
 2316SOL    HW218408   1.926   3.052   4.474  0.7900 -0.0102  0.2378
 2317SOL     OW18409   3.216   2.037   9.889 -0.0555  0.3675 -0.4200
 2317SOL    HW118410   3.163   2.003   9.817 -0.5340 -0.8949  0.5293
 2317SOL    HW218411   3.242   2.127   9.873 -1.0079  0.4975 -1.2321
 2318SOL     OW18412   0.773   0.373  13.508 -0.2725 -0.1348 -0.5092
 2318SOL    HW118413   0.684   0.401  13.485 -0.7167 -1.6752 -0.6996
 2318SOL    HW218414   0.812   0.459  13.520  0.1221 -0.1797 -1.5114
 2319SOL     OW18415   2.049   0.299   4.406  0.1697 -0.1895 -0.9882
 2319SOL    HW118416   2.030   0.207   4.426 -1.7430  0.8771  2.1181
 2319SOL    HW218417   2.032   0.335   4.493 -0.9295 -0.4959 -1.0713
 2320SOL     OW18418   0.642   2.277   8.472  0.4897 -0.0178  0.3751
 2320SOL    HW118419   0.698   2.206   8.503  1.3966 -0.6937 -2.7661
 2320SOL    HW218420   0.571   2.281   8.536 -0.7368 -0.6196 -0.9488
 2321SOL     OW18421   4.244   4.134   2.908  0.6630  0.1295 -0.2748
 2321SOL    HW118422   4.241   4.099   2.819 -0.4456 -0.1808 -0.1219
 2321SOL    HW218423   4.171   4.087   2.951 -0.6888  2.0417 -0.4953
 2322SOL     OW18424   3.517   0.080   6.901 -0.4211 -0.3314  0.2121
 2322SOL    HW118425   3.498   0.023   6.827  2.6495 -1.7418  0.5073
 2322SOL    HW218426   3.502   0.168   6.866  0.6866 -0.8054 -1.4217
 2323SOL     OW18427   1.176   2.673  13.279  0.1048 -0.6802  0.1811
 2323SOL    HW118428   1.165   2.705  13.368 -3.2782  0.3903 -0.6214
 2323SOL    HW218429   1.148   2.742  13.219 -0.1420  1.2104  2.5115
 2324SOL     OW18430   4.174   0.052   4.000  0.1966  0.7952 -0.3021
 2324SOL    HW118431   4.228   4.700   3.975 -1.4353 -0.3689 -0.4069
 2324SOL    HW218432   4.188   0.042   4.094  2.9313 -0.0195 -0.7994
 2325SOL     OW18433   3.314   4.258   7.276  0.0261 -0.0083  0.2014
 2325SOL    HW118434   3.396   4.209   7.273  0.6274  1.0467 -0.3853
 2325SOL    HW218435   3.346   4.344   7.304 -0.8790  0.8046 -1.2628
 2326SOL     OW18436   0.347   3.368   5.820 -0.1512 -0.1718 -0.4530
 2326SOL    HW118437   0.284   3.299   5.842 -0.7036  0.2869 -0.5787
 2326SOL    HW218438   0.289   3.441   5.840  0.8146 -0.7342  4.4440
 2327SOL     OW18439   3.203   4.317   8.661  0.0402  0.0062 -0.7219
 2327SOL    HW118440   3.206   4.297   8.567  2.3686 -2.2180 -0.1663
 2327SOL    HW218441   3.293   4.349   8.671 -0.4015  1.7585 -2.1646
 2328SOL     OW18442   4.695   1.515   5.772 -0.5013  0.3901  0.3745
 2328SOL    HW118443   4.703   1.451   5.702  1.8685  0.7702  0.3084
 2328SOL    HW218444   4.685   1.601   5.730 -1.3887 -0.5992 -1.4393
 2329SOL     OW18445   0.948   0.530  11.779 -0.3695  1.1510  0.1271
 2329SOL    HW118446   1.011   0.527  11.851  2.4333 -0.5371 -2.3870
 2329SOL    HW218447   0.935   0.625  11.773 -2.9129  0.7551 -0.6332
 2330SOL     OW18448   3.767   4.286   5.919 -0.1357 -0.2577 -0.2875
 2330SOL    HW118449   3.859   4.291   5.945 -0.9081  1.7271  2.0665
 2330SOL    HW218450   3.743   4.194   5.927  2.7901 -0.7804  2.4630
 2331SOL     OW18451   2.840   3.288   5.773  0.3697 -0.2425  1.0887
 2331SOL    HW118452   2.794   3.370   5.793  0.8523  0.1402  0.6186
 2331SOL    HW218453   2.925   3.293   5.816 -0.8770 -1.8120  3.7199
 2332SOL     OW18454   4.003   4.497   8.432  0.2111 -0.3709 -0.4561
 2332SOL    HW118455   3.968   4.584   8.452  1.7310  0.6416 -2.1615
 2332SOL    HW218456   3.996   4.454   8.517 -0.0352  0.5737 -0.0014
 2333SOL     OW18457   3.947   4.218   5.110 -0.1470 -0.2518  0.1652
 2333SOL    HW118458   4.018   4.279   5.091  2.1165 -3.1740 -0.6797
 2333SOL    HW218459   3.953   4.218   5.206  0.9750 -0.5798  0.0873
 2334SOL     OW18460   4.435   2.404   8.860 -0.3109 -0.2574 -0.1383
 2334SOL    HW118461   4.420   2.311   8.880 -0.1293  0.1260  1.8301
 2334SOL    HW218462   4.379   2.454   8.919  0.0917 -0.6288  0.5583
 2335SOL     OW18463   3.966   3.369   7.585  0.4643  1.0675  0.7572
 2335SOL    HW118464   3.958   3.310   7.659  0.9054 -0.6316 -0.5549
 2335SOL    HW218465   3.945   3.319   7.507  0.5028  0.0566  1.3985
 2336SOL     OW18466   1.074   2.848   1.102 -0.8120  0.4099 -0.1337
 2336SOL    HW118467   1.078   2.761   1.144 -0.4743 -0.0696 -1.1612
 2336SOL    HW218468   0.988   2.837   1.063  0.0118  2.1396 -2.3966
 2337SOL     OW18469   3.094   2.693   4.035  0.6506 -0.4804  0.3142
 2337SOL    HW118470   3.046   2.618   4.001 -0.1760 -0.0730  0.5870
 2337SOL    HW218471   3.044   2.766   3.998  2.9590  1.3870  0.8380
 2338SOL     OW18472   3.718   2.291   3.910  0.0129  0.0841  0.1279
 2338SOL    HW118473   3.805   2.315   3.876 -0.7524  0.8284 -1.2900
 2338SOL    HW218474   3.708   2.203   3.875  0.1516  0.4434 -0.8049
 2339SOL     OW18475   0.167   4.612   3.340  0.1769  0.1728 -0.6270
 2339SOL    HW118476   0.159   4.592   3.247 -0.2269 -0.4915 -0.4486
 2339SOL    HW218477   0.249   4.574   3.370  0.9370  3.2117  1.1756
 2340SOL     OW18478   0.519   2.939  13.346 -0.0982  0.4475 -0.3103
 2340SOL    HW118479   0.578   2.864  13.344  0.6420  0.9610  2.0591
 2340SOL    HW218480   0.571   3.012  13.310 -0.8193  1.6082  0.9781
 2341SOL     OW18481   0.403   1.525  12.936 -0.1038  0.2283  0.1071
 2341SOL    HW118482   0.355   1.491  12.860  0.0395 -0.6835  0.4334
 2341SOL    HW218483   0.324   1.550  12.985 -0.4689  0.3723 -0.5495
 2342SOL     OW18484   0.355   0.165  13.903  0.2145 -0.3592  0.2344
 2342SOL    HW118485   0.380   0.118  13.983 -0.7185 -0.1577  0.6505
 2342SOL    HW218486   0.298   0.097  13.866  0.6114  0.1210 -1.2532
 2343SOL     OW18487   3.916   4.708   5.957 -0.1193 -0.0142  0.0633
 2343SOL    HW118488   3.954   4.719   5.870  0.1070 -0.8722  0.0604
 2343SOL    HW218489   3.872   0.070   5.971  2.2251  1.0183  1.4142
 2344SOL     OW18490   1.123   4.636  13.718  0.3579 -0.7905  0.4510
 2344SOL    HW118491   1.082   4.555  13.749  1.3529 -1.0929  0.9636
 2344SOL    HW218492   1.088   4.690  13.789  1.2115  0.9598 -0.4739
 2345SOL     OW18493   4.344   0.856  10.212 -0.2842  0.2003  0.1030
 2345SOL    HW118494   4.424   0.876  10.262  0.9530 -3.0246 -0.5759
 2345SOL    HW218495   4.350   0.761  10.202  1.1750  0.0448  2.3728
 2346SOL     OW18496   3.255   0.462   0.742 -0.0948  0.2270 -0.0207
 2346SOL    HW118497   3.262   0.557   0.735  1.2818  0.0632 -0.8277
 2346SOL    HW218498   3.300   0.434   0.821  1.4604  0.8436 -0.6984
 2347SOL     OW18499   0.917   1.049   6.367 -0.2860  0.6662 -0.4015
 2347SOL    HW118500   0.919   1.039   6.272  0.4996 -2.0295 -0.0966
 2347SOL    HW218501   0.994   0.994   6.384 -1.2767 -0.7535 -0.5104
 2348SOL     OW18502   1.432   4.086   4.777  0.3244 -0.5663 -0.0676
 2348SOL    HW118503   1.459   4.091   4.868 -0.0574 -0.0327  0.0158
 2348SOL    HW218504   1.488   4.015   4.746  0.0828  0.6417 -3.3640
 2349SOL     OW18505   1.849   1.412   7.241  0.3886 -1.2172 -0.8075
 2349SOL    HW118506   1.913   1.341   7.240 -0.8598 -2.3851  1.5373
 2349SOL    HW218507   1.787   1.379   7.176 -1.3411  1.1112 -0.3495
 2350SOL     OW18508   4.071   2.128   9.046  0.5062  0.4608  0.1476
 2350SOL    HW118509   3.994   2.159   9.095  0.8629  0.1723  0.8984
 2350SOL    HW218510   4.040   2.042   9.017  1.7580 -1.0000  3.1955
 2351SOL     OW18511   2.512   2.709   3.519  0.4951  0.3990 -0.3398
 2351SOL    HW118512   2.559   2.681   3.440  1.9626 -0.3571  0.7953
 2351SOL    HW218513   2.547   2.793   3.548  1.8045  0.0198 -0.7921
 2352SOL     OW18514   2.376   3.331   3.118 -0.0924 -0.3378  0.4374
 2352SOL    HW118515   2.385   3.320   3.212  0.1466  0.7502  0.5440
 2352SOL    HW218516   2.296   3.382   3.106  0.5215  0.9692  1.9645
 2353SOL     OW18517   2.091   2.011   3.655  0.3366  0.2480  0.0050
 2353SOL    HW118518   2.013   1.992   3.707 -0.4106  2.2876 -0.3544
 2353SOL    HW218519   2.142   2.080   3.698 -1.2930  0.8824  0.9067
 2354SOL     OW18520   3.808   2.758   4.477 -0.2554  0.2115  0.0811
 2354SOL    HW118521   3.842   2.680   4.520 -0.4983  1.5012  2.5645
 2354SOL    HW218522   3.844   2.824   4.537 -0.7277  2.1034 -1.6905
 2355SOL     OW18523   3.018   3.397   2.792  0.4013 -0.3578 -0.4247
 2355SOL    HW118524   3.036   3.345   2.713  0.1939 -1.0987  0.0110
 2355SOL    HW218525   2.943   3.449   2.764 -0.5022 -1.9366 -0.9735
 2356SOL     OW18526   0.284   4.058   6.058 -0.3518  0.2433  0.3333
 2356SOL    HW118527   0.269   4.135   6.003  1.2518 -0.2537 -0.7993
 2356SOL    HW218528   0.329   4.096   6.133  0.6767 -3.0368  1.3462
 2357SOL     OW18529   0.154   2.452   0.081  0.5014 -0.4026  0.6688
 2357SOL    HW118530   0.143   2.428  17.682 -0.3031  4.4853 -0.4995
 2357SOL    HW218531   0.139   2.372   0.132 -1.3683 -1.0156 -0.8582
 2358SOL     OW18532   2.615   2.682   8.705 -0.1716 -0.2882 -0.0002
 2358SOL    HW118533   2.668   2.678   8.625 -0.5046 -1.6379 -0.1586
 2358SOL    HW218534   2.667   2.616   8.751  0.0218  0.7600  1.2820
 2359SOL     OW18535   3.600   3.423   0.328  0.3427  0.6669 -0.3472
 2359SOL    HW118536   3.625   3.515   0.338 -0.5290  0.7429  1.1932
 2359SOL    HW218537   3.506   3.442   0.326  0.7982  2.7474 -1.7407
 2360SOL     OW18538   1.445   0.457  17.507  0.3962  0.2160  0.0988
 2360SOL    HW118539   1.506   0.528  17.490 -1.9723  1.7716 -1.9268
 2360SOL    HW218540   1.408   0.426  17.424 -1.3304  0.6897  0.7007
 2361SOL     OW18541   3.824   2.381  14.554  0.2448 -0.1733  0.6269
 2361SOL    HW118542   3.813   2.295  14.594 -0.7066 -0.1203  0.4742
 2361SOL    HW218543   3.907   2.374  14.506 -1.0963  0.2023 -1.7319
 2362SOL     OW18544   1.364   1.216   4.685 -0.0219 -0.7168  0.0919
 2362SOL    HW118545   1.276   1.202   4.720  0.0295  1.1904  0.9587
 2362SOL    HW218546   1.342   1.289   4.627  0.9472 -0.7656 -0.3275
 2363SOL     OW18547   0.082   0.231   1.225 -0.1559  0.1807 -0.4853
 2363SOL    HW118548   0.068   0.288   1.150  1.9974  0.4428 -0.6913
 2363SOL    HW218549   0.011   0.174   1.197  0.0879 -0.4033  0.0607
 2364SOL     OW18550   4.698   0.071   6.153 -0.2670 -0.1871  0.4995
 2364SOL    HW118551   0.023   4.711   6.163 -0.0648 -0.3781 -2.0021
 2364SOL    HW218552   4.695   0.105   6.243  0.2693  0.1389  0.3979
 2365SOL     OW18553   2.966   3.570   4.464  0.5098  0.4968  0.6658
 2365SOL    HW118554   2.971   3.581   4.369 -1.4778 -1.0528  0.3613
 2365SOL    HW218555   2.914   3.489   4.468  0.4736  0.3551 -2.9755
 2366SOL     OW18556   0.136   2.027   1.813  0.1284 -0.0039  0.2361
 2366SOL    HW118557   0.092   2.008   1.729  0.7899 -0.0331 -0.1030
 2366SOL    HW218558   0.169   2.115   1.794 -1.6890  0.5420 -0.4310
 2367SOL     OW18559   4.297   1.663   1.694  0.2700 -0.0412 -0.0289
 2367SOL    HW118560   4.363   1.598   1.718 -0.0978 -0.8391 -1.1837
 2367SOL    HW218561   4.344   1.713   1.627  0.2561 -0.9410 -0.7086
 2368SOL     OW18562   0.071   2.196  15.286 -0.1141  0.2707  0.6082
 2368SOL    HW118563   0.016   2.273  15.296 -0.7774 -0.1250  0.0034
 2368SOL    HW218564   0.148   2.231  15.331  0.2926  0.5110 -0.2525
 2369SOL     OW18565   1.566   0.558  12.841 -0.0864  0.3027 -0.2868
 2369SOL    HW118566   1.510   0.552  12.763  0.6949  1.3580 -0.9202
 2369SOL    HW218567   1.639   0.500  12.819 -0.4562 -1.2842  2.5970
 2370SOL     OW18568   4.504   4.375   5.684 -0.2919 -0.5087 -0.3167
 2370SOL    HW118569   4.525   4.320   5.760  1.4029 -0.6967 -0.9250
 2370SOL    HW218570   4.455   4.451   5.716 -2.5049 -2.5921  1.2823
 2371SOL     OW18571   4.134   3.697   6.226  0.3912 -0.0408  0.0325
 2371SOL    HW118572   4.063   3.717   6.164 -0.4080  0.9927  1.2824
 2371SOL    HW218573   4.208   3.749   6.195  0.0758  0.6588  0.4514
 2372SOL     OW18574   2.716   0.934  11.409  0.0630  0.4979 -0.4944
 2372SOL    HW118575   2.638   0.895  11.449 -0.0739 -2.1638 -3.2834
 2372SOL    HW218576   2.753   0.977  11.486 -0.3077  0.2527 -0.1785
 2373SOL     OW18577   1.583   1.697   7.612  0.0195  0.1321 -0.1828
 2373SOL    HW118578   1.581   1.629   7.545 -2.1762 -0.2326  0.2303
 2373SOL    HW218579   1.513   1.674   7.674  1.1013 -1.2657  0.5217
 2374SOL     OW18580   1.983   4.190  10.708  0.4040 -0.1610 -0.2946
 2374SOL    HW118581   1.981   4.135  10.630 -1.3612 -0.0977 -0.2879
 2374SOL    HW218582   1.896   4.180  10.746 -0.0292 -1.4410 -1.6440
 2375SOL     OW18583   0.908   2.881   2.759  0.2136  0.3698 -0.8288
 2375SOL    HW118584   0.904   2.828   2.679  1.5856 -0.1496 -0.5439
 2375SOL    HW218585   0.834   2.853   2.814  0.1152  1.1054 -0.5900
 2376SOL     OW18586   1.819   3.930   2.681 -0.3309 -0.0735  0.4919
 2376SOL    HW118587   1.822   3.841   2.716  0.7914 -0.2209  0.0366
 2376SOL    HW218588   1.803   3.921   2.587 -0.3331  0.6671  0.4242
 2377SOL     OW18589   0.809   1.593   7.533  0.0450 -0.0776  0.4424
 2377SOL    HW118590   0.880   1.657   7.540  1.4425 -1.5217 -0.6753
 2377SOL    HW218591   0.858   1.512   7.544  0.4693 -0.0112 -1.0240
 2378SOL     OW18592   3.134   2.895   4.851 -0.0114  0.2561 -0.0439
 2378SOL    HW118593   3.039   2.884   4.860 -0.6464  2.7482 -3.4717
 2378SOL    HW218594   3.159   2.879   4.942  0.5410  0.0374 -0.2328
 2379SOL     OW18595   1.594   2.252   0.709  0.1755  0.9957  0.9019
 2379SOL    HW118596   1.630   2.243   0.620 -1.3831  0.5207  0.3211
 2379SOL    HW218597   1.643   2.183   0.754  1.9958  2.4645  1.1700
 2380SOL     OW18598   1.742   3.552   7.563 -0.3807 -0.5433  0.9730
 2380SOL    HW118599   1.712   3.564   7.653  0.5477 -1.5433  1.4015
 2380SOL    HW218600   1.780   3.638   7.544 -1.5297 -0.3639 -0.5571
 2381SOL     OW18601   1.236   2.657   7.434  0.2246 -0.1563 -0.7920
 2381SOL    HW118602   1.329   2.672   7.415 -0.1141  0.4347 -1.9894
 2381SOL    HW218603   1.235   2.562   7.445 -0.0624  0.2569  2.7627
 2382SOL     OW18604   2.672   1.160  17.669  0.0791  0.4776  0.0593
 2382SOL    HW118605   2.708   1.243  17.637  0.6898 -0.3207 -1.3460
 2382SOL    HW218606   2.582   1.190  17.681 -0.3844 -1.0504  0.2975
 2383SOL     OW18607   3.532   3.556   1.067  0.1023 -0.1721 -0.1033
 2383SOL    HW118608   3.492   3.619   1.008  1.0922 -0.9030 -1.5739
 2383SOL    HW218609   3.588   3.623   1.106  0.0553  0.5256 -1.2590
 2384SOL     OW18610   2.739   3.093   3.225  0.3608 -0.2126  0.5259
 2384SOL    HW118611   2.727   3.149   3.148  0.0642  0.9480  1.4132
 2384SOL    HW218612   2.803   3.025   3.202 -0.5521 -1.0900  0.5646
 2385SOL     OW18613   2.748   1.172   5.231  0.2535  0.5146  0.0957
 2385SOL    HW118614   2.694   1.096   5.206 -1.3643  1.0241  2.0377
 2385SOL    HW218615   2.684   1.243   5.240 -0.7127 -0.0998 -1.8022
 2386SOL     OW18616   4.343   1.111   4.317 -0.4120 -0.0061  0.1663
 2386SOL    HW118617   4.402   1.173   4.275  0.8741 -2.7133 -2.0272
 2386SOL    HW218618   4.304   1.057   4.248 -0.1266  0.3111 -0.2434
 2387SOL     OW18619   4.572   2.942   5.275 -0.4953  0.5465 -0.5732
 2387SOL    HW118620   4.655   2.903   5.302 -0.9677 -0.3047 -0.3600
 2387SOL    HW218621   4.522   2.871   5.236  0.3971  0.4860 -1.6088
 2388SOL     OW18622   1.774   3.800   9.571 -0.2593 -0.3236  0.2836
 2388SOL    HW118623   1.814   3.863   9.631  0.6054 -0.9971  0.4290
 2388SOL    HW218624   1.768   3.719   9.622 -0.8816 -0.1767  0.4426
 2389SOL     OW18625   0.959   3.785  15.129  0.1456 -0.9304 -0.1645
 2389SOL    HW118626   0.941   3.878  15.138 -2.5839 -1.5172  0.6162
 2389SOL    HW218627   1.021   3.776  15.201  0.0118  0.8069  0.1612
 2390SOL     OW18628   3.843   2.475   2.465  0.1376  0.1227 -0.3190
 2390SOL    HW118629   3.880   2.563   2.471 -0.9129  0.7591 -2.9697
 2390SOL    HW218630   3.867   2.443   2.377  0.9391  0.7027 -0.3102
 2391SOL     OW18631   0.581   1.811   5.434 -0.0553 -0.3276 -0.3112
 2391SOL    HW118632   0.507   1.837   5.489  1.8964  0.6236  1.8982
 2391SOL    HW218633   0.659   1.850   5.476 -0.6254 -1.1615  1.5253
 2392SOL     OW18634   2.408   2.148  17.027  0.0429  0.0483  0.2886
 2392SOL    HW118635   2.409   2.168  16.934  0.4361  0.1957  0.3256
 2392SOL    HW218636   2.373   2.231  17.059  2.5064  0.4197  2.0266
 2393SOL     OW18637   1.068   2.192   5.432  0.5900 -0.9638  0.2936
 2393SOL    HW118638   1.039   2.130   5.365 -1.7010 -1.1224  1.4230
 2393SOL    HW218639   1.065   2.269   5.375  2.4052 -1.3769 -0.3426
 2394SOL     OW18640   1.634   3.204   3.467 -0.2544 -0.2133  0.2306
 2394SOL    HW118641   1.593   3.287   3.441 -0.2547 -0.0459  0.7792
 2394SOL    HW218642   1.675   3.176   3.384 -0.8929 -3.8771  1.1451
 2395SOL     OW18643   3.612   0.167   1.684 -0.2748  0.6977  0.6970
 2395SOL    HW118644   3.669   0.217   1.742  2.2300 -0.2351 -0.9707
 2395SOL    HW218645   3.602   0.089   1.739 -1.1884 -0.2222 -0.7559
 2396SOL     OW18646   0.491   3.099   5.872 -0.0913 -0.5180 -0.1966
 2396SOL    HW118647   0.466   3.077   5.962 -1.4868 -1.9075 -0.9110
 2396SOL    HW218648   0.405   3.121   5.835  0.6230  1.6369 -0.5306
 2397SOL     OW18649   0.176   3.738   5.148  0.5450  0.0717 -0.0544
 2397SOL    HW118650   0.228   3.764   5.071 -0.0783 -2.1657 -1.2145
 2397SOL    HW218651   0.107   3.680   5.116  0.4452  0.1235  0.0686
 2398SOL     OW18652   0.110   2.306  16.819 -0.5035 -0.2774  1.1123
 2398SOL    HW118653   0.080   2.361  16.891 -0.6966  1.2832 -0.1695
 2398SOL    HW218654   0.114   2.370  16.748  0.5341 -1.0742  0.4490
 2399SOL     OW18655   3.048   0.951  11.085 -0.1132  0.0647  0.6690
 2399SOL    HW118656   2.963   0.990  11.100 -0.5594  0.4559 -2.7805
 2399SOL    HW218657   3.026   0.870  11.038 -3.3407  1.1250  0.3942
 2400SOL     OW18658   0.316   1.868   4.539  0.0528 -0.8885  0.5933
 2400SOL    HW118659   0.344   1.871   4.447 -1.8248 -3.2645 -0.0569
 2400SOL    HW218660   0.394   1.908   4.577  0.5684 -3.5055  2.2517
 2401SOL     OW18661   4.482   0.064   1.828 -0.6255 -0.4103  0.4690
 2401SOL    HW118662   4.520   4.715   1.879  2.1570  0.2716 -0.6087
 2401SOL    HW218663   4.552   0.130   1.828 -1.0830  0.0730 -0.0511
 2402SOL     OW18664   1.809   4.025   4.229 -0.5127  0.3081 -0.1456
 2402SOL    HW118665   1.782   4.087   4.162  0.1395  1.9753  1.1179
 2402SOL    HW218666   1.842   3.953   4.175  0.4603 -0.7486  1.8657
 2403SOL     OW18667   2.714   2.545   2.032  0.2343 -0.1302 -0.1041
 2403SOL    HW118668   2.646   2.610   2.014 -0.9266 -1.3842 -0.3312
 2403SOL    HW218669   2.764   2.590   2.099  1.2659 -2.2756  0.5842
 2404SOL     OW18670   1.652   0.844  11.509  0.6809 -0.2202 -0.1539
 2404SOL    HW118671   1.557   0.843  11.510  0.7020 -3.1019  0.3647
 2404SOL    HW218672   1.673   0.931  11.475 -1.4836  0.1340 -0.5602
 2405SOL     OW18673   0.065   0.536   7.512 -0.0856 -0.1626  0.1419
 2405SOL    HW118674   0.115   0.544   7.593  1.5827  0.6070 -0.9605
 2405SOL    HW218675   0.023   0.453   7.533 -2.7052  1.0969 -0.1196
 2406SOL     OW18676   0.555   3.030  11.872  0.3147  0.0590 -0.5416
 2406SOL    HW118677   0.576   3.114  11.913 -1.0190 -0.3653  0.9987
 2406SOL    HW218678   0.488   3.064  11.813 -1.9680 -1.3829  1.2480
 2407SOL     OW18679   2.198   0.719   7.303  0.1121 -0.3288 -0.6423
 2407SOL    HW118680   2.238   0.710   7.389 -0.0180 -0.5124 -0.6028
 2407SOL    HW218681   2.265   0.680   7.247  0.4042  1.1386 -1.3143
 2408SOL     OW18682   2.812   4.224   6.165 -0.5926 -0.1249  0.1715
 2408SOL    HW118683   2.748   4.153   6.155 -0.2298 -0.2518 -1.2301
 2408SOL    HW218684   2.829   4.204   6.257 -0.1245 -0.0526  0.1002
 2409SOL     OW18685   0.679   0.850   4.302 -0.3644 -0.2196 -0.4519
 2409SOL    HW118686   0.612   0.908   4.267 -2.7928 -3.3783 -1.0782
 2409SOL    HW218687   0.637   0.764   4.292 -1.9412  0.4890  0.0607
 2410SOL     OW18688   4.552   3.324  11.074  0.1296 -0.8260 -0.7909
 2410SOL    HW118689   4.495   3.304  10.999 -1.7924 -1.0399  0.7220
 2410SOL    HW218690   4.588   3.409  11.050 -2.5280  0.8608  1.2213
 2411SOL     OW18691   2.284   2.283   3.924  0.1636 -0.8631 -0.3762
 2411SOL    HW118692   2.343   2.358   3.914  0.3834 -1.3091 -2.4098
 2411SOL    HW218693   2.334   2.203   3.907 -0.5287 -1.5814  0.9722
 2412SOL     OW18694   3.925   1.627   7.740 -0.6294  0.8531  0.4627
 2412SOL    HW118695   3.873   1.697   7.780 -0.7750  0.3089  1.2263
 2412SOL    HW218696   3.965   1.589   7.818 -0.5667  0.6004  0.3064
 2413SOL     OW18697   3.572   2.955   8.301 -0.3973 -0.0282 -0.0067
 2413SOL    HW118698   3.610   2.897   8.367 -0.2890  0.0380 -0.0104
 2413SOL    HW218699   3.633   3.029   8.304  0.2146 -0.5302 -0.0162
 2414SOL     OW18700   3.390   2.457   5.355 -0.2180 -0.1177 -0.6045
 2414SOL    HW118701   3.441   2.400   5.296  1.2274 -0.8792  1.3619
 2414SOL    HW218702   3.298   2.435   5.344 -0.4499 -0.1588  1.5701
 2415SOL     OW18703   3.378   3.724   4.748 -0.8462 -0.3141  0.3082
 2415SOL    HW118704   3.354   3.809   4.710  1.0360  0.2605  0.3929
 2415SOL    HW218705   3.374   3.752   4.840  0.8921 -1.1275  0.6397
 2416SOL     OW18706   0.192   1.641   2.220  0.1161 -0.1168  0.1899
 2416SOL    HW118707   0.208   1.571   2.157  4.2705  1.3118 -0.3367
 2416SOL    HW218708   0.232   1.709   2.166  3.0496 -2.7629 -0.9959
 2417SOL     OW18709   1.410   1.934   5.365  0.6513  0.0974  0.2141
 2417SOL    HW118710   1.445   1.848   5.391  1.4761  0.5204  0.4884
 2417SOL    HW218711   1.365   1.961   5.445  0.8282  1.8986 -0.2963
 2418SOL     OW18712   1.814   3.532  17.353  0.6594 -0.0200  0.4206
 2418SOL    HW118713   1.792   3.522  17.260 -1.0899  0.6740  0.7480
 2418SOL    HW218714   1.895   3.582  17.346  0.0989  0.8198 -0.0306
 2419SOL     OW18715   2.522   1.238  12.905  0.0162 -0.3316 -0.2371
 2419SOL    HW118716   2.464   1.314  12.899  0.7116  0.2892  1.1195
 2419SOL    HW218717   2.556   1.260  12.991  2.9449  1.4276 -1.8635
 2420SOL     OW18718   3.503   3.460   1.841  0.1041  0.1950  0.0142
 2420SOL    HW118719   3.576   3.400   1.853  0.2710  0.4278  0.1605
 2420SOL    HW218720   3.445   3.441   1.915 -0.2834  0.0985 -0.3173
 2421SOL     OW18721   1.453   3.370   8.904  0.2103  0.2597 -0.1024
 2421SOL    HW118722   1.370   3.322   8.896  2.8487 -4.0380 -1.2802
 2421SOL    HW218723   1.507   3.305   8.949  0.0932  0.9835  1.0810
 2422SOL     OW18724   1.208   3.324   7.384  0.5546 -0.2967 -0.1874
 2422SOL    HW118725   1.116   3.343   7.366  0.9381  2.2384  0.6204
 2422SOL    HW218726   1.223   3.393   7.448 -3.2294  0.1275  0.2088
 2423SOL     OW18727   4.493   2.291   7.301 -0.2549 -0.0870 -0.4463
 2423SOL    HW118728   4.464   2.352   7.369  1.2198  0.9267 -0.7366
 2423SOL    HW218729   4.571   2.340   7.274  0.3098  0.0260  1.3686
 2424SOL     OW18730   2.545   2.296   5.089 -0.4169  0.1053 -0.1318
 2424SOL    HW118731   2.451   2.305   5.103 -0.5328 -0.6179 -0.4737
 2424SOL    HW218732   2.569   2.297   5.182  2.2309 -1.8508 -0.7831
 2425SOL     OW18733   3.793   2.785   6.514 -0.3251 -0.0044 -0.1167
 2425SOL    HW118734   3.884   2.815   6.517  0.0638 -0.7802 -3.7769
 2425SOL    HW218735   3.763   2.846   6.582  0.2194 -1.5770  1.5326
 2426SOL     OW18736   0.487   3.675  12.427 -0.1946  0.3154 -0.5456
 2426SOL    HW118737   0.470   3.734  12.501  0.2693 -1.1002  0.6812
 2426SOL    HW218738   0.401   3.683  12.385 -1.5863  0.7411  2.3598
 2427SOL     OW18739   0.479   2.786   5.206  0.3966 -0.2448 -0.8618
 2427SOL    HW118740   0.451   2.877   5.218 -0.6203 -0.6400 -0.2617
 2427SOL    HW218741   0.569   2.802   5.176  0.3468  1.6011 -0.0458
 2428SOL     OW18742   2.494   0.071   6.266 -0.7711  0.6991 -0.6077
 2428SOL    HW118743   2.441   0.071   6.345 -3.1688  0.3145 -2.2020
 2428SOL    HW218744   2.570   0.123   6.291 -0.0464 -0.1251 -1.0912
 2429SOL     OW18745   0.644   2.841   6.742 -0.0959  0.2579  0.7408
 2429SOL    HW118746   0.724   2.787   6.742  0.4749  1.1142  1.2192
 2429SOL    HW218747   0.582   2.781   6.784  3.0521 -2.5192  1.4284
 2430SOL     OW18748   2.964   4.159   6.726 -0.4174  0.1901  0.0508
 2430SOL    HW118749   2.980   4.087   6.788  0.8161  0.8200  0.4619
 2430SOL    HW218750   2.912   4.225   6.772  0.4854  2.5352 -2.3087
 2431SOL     OW18751   1.341   2.631   8.072  0.2946  0.0945  0.0377
 2431SOL    HW118752   1.428   2.660   8.044 -0.6555  1.2196 -1.7258
 2431SOL    HW218753   1.289   2.665   8.000  0.6961 -1.5063 -1.0001
 2432SOL     OW18754   2.597   0.809   7.186  0.3109  0.1447 -0.4256
 2432SOL    HW118755   2.574   0.803   7.094 -0.8704  1.4753 -0.2087
 2432SOL    HW218756   2.685   0.773   7.173  1.1098  1.6251  0.9822
 2433SOL     OW18757   1.223   0.523   2.783  0.1445 -0.1494 -0.4581
 2433SOL    HW118758   1.132   0.544   2.804  0.7900  2.8193 -0.7554
 2433SOL    HW218759   1.219   0.433   2.815  0.3473  0.3536  0.9642
 2434SOL     OW18760   1.965   3.827   7.710 -0.1280  0.2227 -0.5546
 2434SOL    HW118761   2.034   3.888   7.737  0.2599 -0.3725 -0.2056
 2434SOL    HW218762   1.991   3.826   7.618 -0.0128  0.9620 -0.5318
 2435SOL     OW18763   1.060   1.677   3.490  0.2369 -0.0382  0.2162
 2435SOL    HW118764   1.025   1.617   3.423 -1.5800 -0.3452  1.4590
 2435SOL    HW218765   1.028   1.635   3.570 -1.0689  0.0580 -0.2402
 2436SOL     OW18766   1.512   3.634   8.808 -0.3828  0.4921  0.3452
 2436SOL    HW118767   1.497   3.618   8.715  0.1109  1.2150  0.1462
 2436SOL    HW218768   1.513   3.541   8.834 -2.5397  0.3141 -0.1686
 2437SOL     OW18769   4.694   1.731  10.661  0.5856  0.0954 -0.4103
 2437SOL    HW118770   0.005   1.773  10.740  0.7060  0.6358 -0.7534
 2437SOL    HW218771   4.600   1.721  10.675  0.6509  0.1200  0.0406
 2438SOL     OW18772   1.116   0.778  14.508 -0.0573 -0.5832  0.0400
 2438SOL    HW118773   1.179   0.830  14.558 -0.2156 -1.0584  0.7236
 2438SOL    HW218774   1.108   0.814  14.419  0.7575 -1.4403 -0.3754
 2439SOL     OW18775   0.571   1.818  14.263 -0.0693  0.5967  0.4277
 2439SOL    HW118776   0.484   1.830  14.226 -0.3540  1.3049  1.3175
 2439SOL    HW218777   0.606   1.753  14.202  0.1426 -0.8048  2.0085
 2440SOL     OW18778   3.479   4.587  16.080  0.2868 -0.0276  0.7404
 2440SOL    HW118779   3.539   4.650  16.117 -0.0877  1.0106 -0.4133
 2440SOL    HW218780   3.429   4.549  16.153  2.4995 -0.9152  1.7725
 2441SOL     OW18781   3.693   1.718  10.232  0.5146  0.2898  0.4177
 2441SOL    HW118782   3.744   1.781  10.182  2.2703 -1.0896  0.4371
 2441SOL    HW218783   3.653   1.778  10.293  2.0824 -0.7175  2.4489
 2442SOL     OW18784   1.890   1.693   6.671 -0.0128 -0.0553  0.2992
 2442SOL    HW118785   1.869   1.738   6.589  0.8829 -0.8540 -0.3647
 2442SOL    HW218786   1.923   1.615   6.627 -0.2788 -0.1479  0.2662
 2443SOL     OW18787   1.822   2.268   2.872  0.1451 -0.1738 -0.2790
 2443SOL    HW118788   1.772   2.286   2.792  0.8000  2.8297 -0.0337
 2443SOL    HW218789   1.859   2.350   2.905  0.8072 -0.5241 -0.1604
 2444SOL     OW18790   1.655   1.710   6.389  0.3656 -0.1652  0.6053
 2444SOL    HW118791   1.663   1.645   6.320 -1.4849  1.5005 -1.1894
 2444SOL    HW218792   1.560   1.721   6.395  0.1798 -0.3745 -2.2100
 2445SOL     OW18793   0.760   3.693   8.539 -0.3134 -0.0800  0.1416
 2445SOL    HW118794   0.796   3.776   8.572  2.5534 -0.8195 -1.1151
 2445SOL    HW218795   0.828   3.664   8.479 -0.3900  0.3696 -0.1650
 2446SOL     OW18796   3.479   0.347   2.477 -1.0947  0.1045 -0.3258
 2446SOL    HW118797   3.464   0.384   2.564  2.5150  0.5824  0.1200
 2446SOL    HW218798   3.490   0.432   2.435  0.8689 -0.0416 -0.1273
 2447SOL     OW18799   1.140   4.281   2.253 -0.0477  0.7061 -0.4670
 2447SOL    HW118800   1.225   4.277   2.211 -0.3976 -0.5260 -1.0557
 2447SOL    HW218801   1.148   4.203   2.308  1.4385 -0.3377 -2.1639
 2448SOL     OW18802   1.912   0.271  13.017 -0.5968 -0.4945 -0.0249
 2448SOL    HW118803   1.967   0.199  12.987  0.3609  0.1640  0.1380
 2448SOL    HW218804   1.833   0.221  13.035 -1.1002  0.4778  0.4553
 2449SOL     OW18805   0.924   2.526   2.917 -0.1823 -0.3916 -0.1118
 2449SOL    HW118806   0.997   2.525   2.979 -0.8517  0.1207  0.6814
 2449SOL    HW218807   0.895   2.435   2.927 -0.4780 -0.4534 -1.5535
 2450SOL     OW18808   0.692   0.856   6.785  0.5633  0.3130 -0.6521
 2450SOL    HW118809   0.611   0.905   6.798  1.1388  0.5674  1.9208
 2450SOL    HW218810   0.741   0.931   6.750  0.2829  2.2467  3.0783
 2451SOL     OW18811   2.633   3.202   4.922 -0.2406 -0.4846  0.3208
 2451SOL    HW118812   2.629   3.242   4.835  0.2075 -0.3815  0.3478
 2451SOL    HW218813   2.571   3.131   4.905  1.2327 -1.2502 -1.8788
 2452SOL     OW18814   2.844   1.357   4.053 -0.2108 -0.1824 -0.3206
 2452SOL    HW118815   2.819   1.438   4.007  0.7125  0.3022  0.0228
 2452SOL    HW218816   2.795   1.294   4.001  0.1773 -2.1150  1.6822
 2453SOL     OW18817   0.131   4.097   8.848 -0.4464  0.2443  0.2379
 2453SOL    HW118818   0.050   4.052   8.871 -0.8190  1.3187  1.0509
 2453SOL    HW218819   0.141   4.179   8.896 -1.2538  0.8334 -0.6000
 2454SOL     OW18820   2.749   1.890   6.047 -0.3182  0.4205  0.3270
 2454SOL    HW118821   2.709   1.970   6.014 -1.4848  0.5657  2.0925
 2454SOL    HW218822   2.690   1.827   6.004  0.5321 -1.3550  1.7571
 2455SOL     OW18823   3.143   2.236  11.258 -0.1679 -0.1922  0.1269
 2455SOL    HW118824   3.177   2.299  11.322 -0.9792 -1.4787  1.8272
 2455SOL    HW218825   3.134   2.169  11.326  1.1942 -1.3704 -0.8476
 2456SOL     OW18826   1.080   3.343  17.554 -0.0959 -0.3745  0.1215
 2456SOL    HW118827   1.016   3.273  17.566 -0.1364 -0.0618  1.7216
 2456SOL    HW218828   1.072   3.398  17.632  1.2134  3.7978 -2.6742
 2457SOL     OW18829   4.398   3.886   6.378 -0.8873  0.7464 -0.1286
 2457SOL    HW118830   4.382   3.852   6.466  0.2059  0.2097 -0.1454
 2457SOL    HW218831   4.493   3.893   6.383 -0.8826  0.3769  0.3119
 2458SOL     OW18832   4.077   4.196   1.211  0.3844  0.2463  0.1968
 2458SOL    HW118833   4.053   4.152   1.129  2.5927 -1.1795  0.3005
 2458SOL    HW218834   4.107   4.281   1.180  0.4970 -0.1157 -0.6929
 2459SOL     OW18835   2.530   4.371   0.054  0.0171  0.1569  0.0212
 2459SOL    HW118836   2.535   4.437  17.677  0.0645 -0.8212 -0.9096
 2459SOL    HW218837   2.625   4.355   0.049 -0.1486 -0.7145 -0.3077
 2460SOL     OW18838   0.174   0.132   7.683 -0.2944 -0.8413 -0.3663
 2460SOL    HW118839   0.159   0.161   7.593  1.5016 -0.5757 -0.5804
 2460SOL    HW218840   0.107   0.180   7.732 -1.8171 -1.4435 -1.8360
 2461SOL     OW18841   4.446   1.210  16.848 -0.3002  0.4844  0.0365
 2461SOL    HW118842   4.460   1.164  16.931  0.4512  0.6221 -0.0156
 2461SOL    HW218843   4.529   1.256  16.846 -0.1120  0.3735  4.4597
 2462SOL     OW18844   4.296   4.286  15.685 -0.0992  0.2697 -0.1571
 2462SOL    HW118845   4.379   4.248  15.656 -1.1214 -0.2040 -2.4679
 2462SOL    HW218846   4.319   4.372  15.649 -0.0758  0.1359 -0.4595
 2463SOL     OW18847   2.753   0.881   4.070  0.2896  0.1735  0.3564
 2463SOL    HW118848   2.681   0.943   4.086  0.2071  0.1372  0.1189
 2463SOL    HW218849   2.779   0.925   3.989  1.3243 -0.4876  0.3373
 2464SOL     OW18850   4.030   4.261   9.325 -0.1431  0.4367  0.6371
 2464SOL    HW118851   3.988   4.187   9.370 -1.1866  1.8823  2.0312
 2464SOL    HW218852   3.988   4.340   9.360  1.9857  1.7633  0.1968
 2465SOL     OW18853   3.780   2.398  10.825  0.2834  0.4835 -0.0466
 2465SOL    HW118854   3.699   2.373  10.869  0.0262 -0.7630 -1.2250
 2465SOL    HW218855   3.764   2.354  10.741 -1.8609  0.3750  0.4118
 2466SOL     OW18856   0.853   2.380   2.585 -0.1996  0.3427 -0.4265
 2466SOL    HW118857   0.943   2.349   2.572 -0.2326 -0.3837  1.1215
 2466SOL    HW218858   0.873   2.464   2.626  0.2870  0.8394 -1.6889
 2467SOL     OW18859   1.809   4.305   2.094  0.0024 -0.0117  0.4031
 2467SOL    HW118860   1.745   4.302   2.023  0.9314  2.2270 -0.5129
 2467SOL    HW218861   1.881   4.251   2.061  1.8058  2.6153  0.0588
 2468SOL     OW18862   2.520   1.697   4.315 -0.3400  0.4045 -0.3298
 2468SOL    HW118863   2.439   1.735   4.351  0.2553  0.4275  0.9722
 2468SOL    HW218864   2.586   1.766   4.317  1.3223 -1.1614 -0.8145
 2469SOL     OW18865   1.811   4.691   6.463  0.0323  0.5836 -0.1284
 2469SOL    HW118866   1.863   4.649   6.532 -0.7436 -1.3099 -0.7248
 2469SOL    HW218867   1.743   0.006   6.519 -0.2597 -1.3780  0.8234
 2470SOL     OW18868   0.868   4.318  11.727 -0.0630 -0.1233 -0.4615
 2470SOL    HW118869   0.863   4.357  11.640  1.1383 -0.7879 -0.8256
 2470SOL    HW218870   0.963   4.307  11.733 -0.3818 -1.7318  1.4653
 2471SOL     OW18871   4.415   1.988  14.563  0.5077  0.2365  0.2277
 2471SOL    HW118872   4.442   2.008  14.653 -0.5703  0.3132  0.5256
 2471SOL    HW218873   4.496   2.010  14.517  0.4613 -1.4937 -0.6955
 2472SOL     OW18874   0.930   4.108   4.488  0.0043 -0.1851 -0.8141
 2472SOL    HW118875   0.886   4.160   4.556  0.2560 -0.6369 -0.3113
 2472SOL    HW218876   0.921   4.175   4.421  1.0693 -0.0053 -0.7668
 2473SOL     OW18877   1.972   4.475   4.661 -0.0490  0.6156  0.2937
 2473SOL    HW118878   1.967   4.525   4.580 -1.7282 -0.2200 -0.1144
 2473SOL    HW218879   2.061   4.443   4.645  0.8127  3.2724 -0.1688
 2474SOL     OW18880   4.216   3.004   6.066  0.4418  0.2042  0.3655
 2474SOL    HW118881   4.248   2.946   6.136 -1.0169 -0.9613  0.0491
 2474SOL    HW218882   4.158   2.943   6.022  1.5760 -2.0438  1.9887
 2475SOL     OW18883   0.910   3.463   2.389 -0.0484  0.1674  0.3507
 2475SOL    HW118884   0.883   3.415   2.310 -1.9585  0.1080  1.0398
 2475SOL    HW218885   0.995   3.421   2.400 -0.1406 -0.1504 -0.1265
 2476SOL     OW18886   4.503   3.215  14.375  0.0495  0.1243  0.3627
 2476SOL    HW118887   4.571   3.193  14.311 -0.4056 -1.0169  0.2573
 2476SOL    HW218888   4.470   3.299  14.343 -1.3882  0.1578  1.9571
 2477SOL     OW18889   3.046   2.655   8.688 -0.2206  0.0380  0.9719
 2477SOL    HW118890   3.093   2.625   8.765  2.0005  0.2583 -0.3117
 2477SOL    HW218891   3.122   2.652   8.629 -0.2108  0.4554  0.9638
 2478SOL     OW18892   1.376   2.246   7.623 -0.7953  0.3061 -0.2531
 2478SOL    HW118893   1.322   2.322   7.645 -1.3496  0.1135 -0.9564
 2478SOL    HW218894   1.405   2.214   7.709 -0.6324 -3.2827 -1.6540
 2479SOL     OW18895   0.030   2.301   6.839 -0.1672 -0.3354  0.0097
 2479SOL    HW118896   4.672   2.347   6.817 -0.6678 -2.8109 -3.2930
 2479SOL    HW218897   4.714   2.222   6.879 -0.9150 -0.2877 -0.6271
 2480SOL     OW18898   1.701   4.463  10.472  0.4048 -0.8771  0.0501
 2480SOL    HW118899   1.674   4.436  10.559  2.4349  1.1576  1.3305
 2480SOL    HW218900   1.754   4.388  10.445  1.1760  0.2953 -1.6988
 2481SOL     OW18901   2.162   1.172  13.170 -0.4921  0.3003 -0.1998
 2481SOL    HW118902   2.177   1.221  13.252  2.4560  0.9162 -1.0902
 2481SOL    HW218903   2.251   1.138  13.164 -0.4627  0.4697 -0.6890
 2482SOL     OW18904   1.670   0.315  13.730  0.3117  0.1696  0.1227
 2482SOL    HW118905   1.659   0.406  13.757  1.1793  0.3035  0.0380
 2482SOL    HW218906   1.577   0.297  13.739  0.2297  0.4054 -0.2868
 2483SOL     OW18907   2.896   1.422   7.032 -0.3308  0.3939  0.9022
 2483SOL    HW118908   2.979   1.466   7.051 -0.8841  0.3035  3.4693
 2483SOL    HW218909   2.898   1.396   6.940 -1.1581  0.9104  0.7441
 2484SOL     OW18910   1.386   1.845   8.341 -0.1926 -0.1366 -0.5849
 2484SOL    HW118911   1.428   1.914   8.290 -0.1712  0.2330 -0.0600
 2484SOL    HW218912   1.461   1.788   8.359  1.3560  2.6254  1.6773
 2485SOL     OW18913   0.307   2.602   6.146 -0.0623 -0.1679  0.1721
 2485SOL    HW118914   0.373   2.672   6.139  0.5798 -0.6024  1.8593
 2485SOL    HW218915   0.253   2.601   6.067 -0.7968  0.1889  0.6745
 2486SOL     OW18916   0.297   2.719  17.341 -0.1135 -0.0580  0.1293
 2486SOL    HW118917   0.301   2.809  17.373  1.2232 -0.7177  1.8036
 2486SOL    HW218918   0.211   2.729  17.300  1.2037  2.4837 -2.0256
 2487SOL     OW18919   2.289   2.353   5.830 -0.1749  0.5317 -0.2167
 2487SOL    HW118920   2.208   2.398   5.853  0.6972  1.0948  1.7711
 2487SOL    HW218921   2.247   2.272   5.801  1.0247  0.4763 -1.8014
 2488SOL     OW18922   2.161   3.121   5.979  0.1537 -1.2537 -0.2119
 2488SOL    HW118923   2.253   3.095   5.990  0.4025  0.2108  1.1792
 2488SOL    HW218924   2.162   3.137   5.885  1.7713  0.0600  0.0246
 2489SOL     OW18925   2.317   2.596   6.515 -0.3630  0.3752 -0.0740
 2489SOL    HW118926   2.279   2.508   6.518  1.0648 -0.2734 -0.5594
 2489SOL    HW218927   2.243   2.648   6.486 -0.1354  1.2059  0.8377
 2490SOL     OW18928   3.358   1.266   2.722  0.1683  0.5176 -0.4993
 2490SOL    HW118929   3.432   1.277   2.662  0.2355 -0.6266 -0.6286
 2490SOL    HW218930   3.362   1.171   2.727  1.0211  0.7123  2.8307
 2491SOL     OW18931   2.049   1.468   6.991  0.7717 -0.1002  0.2934
 2491SOL    HW118932   2.073   1.560   7.006  1.4089 -0.6161  2.3783
 2491SOL    HW218933   2.083   1.434   7.073  0.3472 -2.9410 -0.7264
 2492SOL     OW18934   3.088   4.328   4.666  0.3494  0.0795  0.0448
 2492SOL    HW118935   3.114   4.420   4.659  1.4127 -0.2821 -0.8581
 2492SOL    HW218936   3.014   4.333   4.606  1.7345  0.5879 -1.6151
 2493SOL     OW18937   3.907   0.502   7.114  0.2090 -0.4332 -0.9491
 2493SOL    HW118938   3.970   0.431   7.129  0.7443  0.8757  3.0898
 2493SOL    HW218939   3.831   0.444   7.110 -0.6631  0.5327  1.2656
 2494SOL     OW18940   0.465   0.373   4.142 -0.3420  0.2749  0.1344
 2494SOL    HW118941   0.541   0.377   4.084 -1.8835 -1.9959 -2.0479
 2494SOL    HW218942   0.419   0.455   4.125 -2.0636 -0.8109 -0.4470
 2495SOL     OW18943   2.957   1.078   2.045  0.0934  0.4834  0.4135
 2495SOL    HW118944   2.906   0.997   2.042 -0.1643  0.5688  2.1370
 2495SOL    HW218945   2.912   1.131   2.111 -0.1352  0.5752  0.1835
 2496SOL     OW18946   0.253   0.213   6.092 -0.4321 -0.0590  0.2423
 2496SOL    HW118947   0.229   0.306   6.089  0.4670  0.1344 -0.9485
 2496SOL    HW218948   0.168   0.183   6.126 -0.3517 -1.5930 -0.9304
 2497SOL     OW18949   3.363   2.203   8.200  0.1674 -0.2955  0.0565
 2497SOL    HW118950   3.392   2.151   8.275  0.7195 -1.6220 -1.0961
 2497SOL    HW218951   3.365   2.291   8.239  1.3196 -0.9362  1.4473
 2498SOL     OW18952   0.668   4.652   7.866  0.2851 -0.1328  0.2779
 2498SOL    HW118953   0.738   4.667   7.929 -1.7992  0.6945  2.3902
 2498SOL    HW218954   0.611   4.596   7.919  0.8958  0.3532  1.4196
 2499SOL     OW18955   3.812   4.674   1.438 -0.0723 -0.1589  0.0638
 2499SOL    HW118956   3.819   4.619   1.360  1.3635 -1.4593  1.0879
 2499SOL    HW218957   3.892   4.648   1.484 -1.4466 -2.3154  1.2468
 2500SOL     OW18958   0.856   0.472  10.843 -0.0685 -0.2876  0.3637
 2500SOL    HW118959   0.766   0.467  10.875 -0.4609 -1.5650 -0.9103
 2500SOL    HW218960   0.867   0.564  10.865  0.4183 -0.7009  1.8251
 2501SOL     OW18961   1.626   2.152  12.525 -0.2824  0.2822  0.3795
 2501SOL    HW118962   1.669   2.140  12.440 -0.8806 -0.1407  0.1346
 2501SOL    HW218963   1.698   2.199  12.567 -0.3182  0.3267  0.3907
 2502SOL     OW18964   4.577   2.679  17.692 -0.2784  0.1418 -0.1006
 2502SOL    HW118965   4.605   2.676  17.600  0.9104 -1.5734  0.3133
 2502SOL    HW218966   4.531   2.596   0.011  1.6863 -0.8895  0.5438
 2503SOL     OW18967   3.618   0.204  10.572 -0.0614 -0.2439 -0.0511
 2503SOL    HW118968   3.552   0.257  10.529 -0.7811  0.5555  2.0462
 2503SOL    HW218969   3.626   0.245  10.658 -1.9043 -2.2784  1.1028
 2504SOL     OW18970   1.906   2.041   3.889  0.4667 -0.3247 -0.3892
 2504SOL    HW118971   1.906   2.024   3.983  1.6556 -3.2665 -0.9255
 2504SOL    HW218972   1.954   2.124   3.898  1.2880 -0.8995  0.4501
 2505SOL     OW18973   2.381   3.414   8.819 -0.6419  0.1129 -0.6170
 2505SOL    HW118974   2.429   3.368   8.751  2.5275  0.3164  1.5058
 2505SOL    HW218975   2.408   3.364   8.896  2.3899 -0.7221 -2.2406
 2506SOL     OW18976   1.402   2.119   8.219 -0.0856  0.1044  0.2085
 2506SOL    HW118977   1.433   2.205   8.188  2.2844 -0.1961  1.7547
 2506SOL    HW218978   1.432   2.065   8.146  0.8339  1.5032 -0.4537
 2507SOL     OW18979   4.015   1.924   8.882 -0.2682  0.1004 -0.5995
 2507SOL    HW118980   3.977   1.836   8.883 -0.3258  0.1106 -2.6023
 2507SOL    HW218981   4.106   1.911   8.855  0.7155 -0.0773  2.7647
 2508SOL     OW18982   2.152   4.710   2.760  0.3406  0.3341 -0.1788
 2508SOL    HW118983   2.101   4.670   2.830  1.1387 -0.5528 -0.1061
 2508SOL    HW218984   2.083   0.037   2.716  0.7720  0.8951 -0.2248
 2509SOL     OW18985   2.525   2.144   9.573 -0.3061  0.4643 -0.1599
 2509SOL    HW118986   2.439   2.137   9.614  0.3360  1.0037  1.3211
 2509SOL    HW218987   2.550   2.229   9.611  1.6517 -0.6275  1.0127
 2510SOL     OW18988   2.174   1.208   4.042  0.0567 -0.1734 -0.6660
 2510SOL    HW118989   2.080   1.218   4.060  0.5142  0.5118  1.3540
 2510SOL    HW218990   2.211   1.285   4.083 -0.3282  0.8193 -2.1850
 2511SOL     OW18991   1.978   4.651  11.269  0.6118  0.0949  0.1196
 2511SOL    HW118992   2.036   4.575  11.261  0.6154 -0.0555  1.6070
 2511SOL    HW218993   1.943   4.675  11.183 -0.0403  0.0713  0.3798
 2512SOL     OW18994   1.051   2.891   3.850 -0.1373 -0.4489 -0.7086
 2512SOL    HW118995   1.033   2.817   3.792  0.5041  0.1339 -1.6738
 2512SOL    HW218996   1.121   2.933   3.800  0.4005 -0.6151 -0.0862
 2513SOL     OW18997   0.531   1.048   5.480  0.2326 -0.2201 -0.6460
 2513SOL    HW118998   0.573   1.131   5.502  1.1096 -0.9446  0.3898
 2513SOL    HW218999   0.602   1.008   5.430  1.7368  0.0054  1.3096
 2514SOL     OW19000   1.428   0.943   2.597  0.5537  0.0645 -0.5218
 2514SOL    HW119001   1.338   0.965   2.572 -0.2113 -0.5944  1.6407
 2514SOL    HW219002   1.443   0.857   2.557  0.4689  0.5520 -1.6231
 2515SOL     OW19003   3.052   4.226  15.681 -0.0505  0.4548  0.3450
 2515SOL    HW119004   3.046   4.306  15.629  3.4512 -0.1239 -0.8870
 2515SOL    HW219005   3.058   4.256  15.771  0.6066  2.3031 -0.3347
 2516SOL     OW19006   3.111   4.312   0.054  0.3482 -0.0107  0.0206
 2516SOL    HW119007   3.104   4.289  17.653 -0.0543 -1.0290  0.3001
 2516SOL    HW219008   3.020   4.305   0.084 -0.3565  1.0079 -1.8683
 2517SOL     OW19009   0.816   3.386   2.731 -0.2972  0.5363 -0.7449
 2517SOL    HW119010   0.724   3.413   2.725 -0.5671 -0.2754 -0.2104
 2517SOL    HW219011   0.825   3.319   2.663  2.8868  1.3835 -1.1905
 2518SOL     OW19012   1.453   1.400  17.245  0.2553 -0.5443  0.5773
 2518SOL    HW119013   1.420   1.455  17.174 -0.6488 -1.3181  0.3993
 2518SOL    HW219014   1.439   1.455  17.322  0.3483 -1.6078  1.3530
 2519SOL     OW19015   2.834   2.370   6.161  0.3086 -0.1869 -0.0299
 2519SOL    HW119016   2.761   2.419   6.124  1.3742  0.9666 -0.6342
 2519SOL    HW219017   2.853   2.420   6.241 -0.8895  0.4694 -0.1602
 2520SOL     OW19018   1.617   0.847   0.706 -0.4867  0.6154  0.2070
 2520SOL    HW119019   1.682   0.872   0.640  0.9081 -0.6398  1.1028
 2520SOL    HW219020   1.544   0.901   0.675 -0.4584  0.0937 -0.7825
 2521SOL     OW19021   3.195   1.748   7.249 -0.5559  0.3362  0.3517
 2521SOL    HW119022   3.123   1.785   7.300 -0.5457  0.6167  0.1564
 2521SOL    HW219023   3.248   1.708   7.319 -1.7991  2.7109  2.6561
 2522SOL     OW19024   4.521   1.316   5.930 -0.3027 -0.5187 -0.3072
 2522SOL    HW119025   4.452   1.373   5.897  1.1442  1.1638 -0.4513
 2522SOL    HW219026   4.594   1.372   5.903  0.3078 -1.5443 -0.8075
 2523SOL     OW19027   1.211   2.334   4.942  0.1360  0.2269 -0.1321
 2523SOL    HW119028   1.267   2.411   4.946  0.7074 -0.3192  2.3136
 2523SOL    HW219029   1.175   2.336   4.854  3.1255  0.3257 -1.3569
 2524SOL     OW19030   1.570   2.995   0.211 -0.6976  0.8357 -0.0193
 2524SOL    HW119031   1.608   3.082   0.225 -0.6341  0.9806 -1.0628
 2524SOL    HW219032   1.476   3.013   0.220 -0.9584  1.0526 -3.1438
 2525SOL     OW19033   4.628   3.270   4.136  0.1223  0.0310  0.5587
 2525SOL    HW119034   4.561   3.203   4.152 -1.1068  0.6081 -2.1145
 2525SOL    HW219035   4.643   3.260   4.042  1.7747  0.0322  0.8277
 2526SOL     OW19036   2.546   3.173  11.620 -0.2449 -0.4242  0.3185
 2526SOL    HW119037   2.492   3.107  11.576 -0.0743 -1.3683  1.5014
 2526SOL    HW219038   2.631   3.146  11.587 -0.4700  1.4143 -1.7419
 2527SOL     OW19039   3.321   2.025   4.311 -0.4502 -0.6594  0.1044
 2527SOL    HW119040   3.351   2.117   4.314 -0.9700 -0.5371  1.4714
 2527SOL    HW219041   3.287   2.017   4.400  0.8749 -1.0586  0.5846
 2528SOL     OW19042   2.346   0.900   0.981 -0.0720 -0.2867  0.1034
 2528SOL    HW119043   2.258   0.897   1.019 -0.1365  1.6298  0.1176
 2528SOL    HW219044   2.382   0.954   1.051  1.6146  1.1953 -1.9050
 2529SOL     OW19045   3.276   2.625   9.831 -0.2194  0.1611 -0.5997
 2529SOL    HW119046   3.326   2.702   9.857 -1.5390  0.1963  1.8036
 2529SOL    HW219047   3.267   2.585   9.917  2.6586  1.7338  0.4072
 2530SOL     OW19048   0.200   3.325  15.822  0.4600  0.7784  0.6360
 2530SOL    HW119049   0.256   3.257  15.861  0.5807  0.9155  0.7012
 2530SOL    HW219050   0.133   3.330  15.890 -1.4282 -1.3600 -1.0459
 2531SOL     OW19051   4.254   0.492   5.335 -0.2600 -0.4177  0.3272
 2531SOL    HW119052   4.304   0.552   5.390  0.8665 -1.0925  0.0355
 2531SOL    HW219053   4.323   0.437   5.297 -1.6184 -1.2196 -0.9547
 2532SOL     OW19054   2.987   4.255  15.993  0.0692 -0.2464  0.0321
 2532SOL    HW119055   2.898   4.231  15.970  0.6141 -2.4669  0.1940
 2532SOL    HW219056   3.010   4.180  16.049  0.8451 -0.5466 -0.6836
 2533SOL     OW19057   1.866   4.585   9.338  0.3536  0.1082 -0.0881
 2533SOL    HW119058   1.853   4.498   9.375 -0.5964  0.6982  0.9666
 2533SOL    HW219059   1.876   4.571   9.244 -2.0889 -0.8991 -0.1927
 2534SOL     OW19060   1.036   2.090   2.962 -0.3762  0.0296  0.3802
 2534SOL    HW119061   1.021   2.033   2.886  0.5607  2.0008 -1.2936
 2534SOL    HW219062   1.067   2.023   3.022 -1.2027  0.2415  1.0435
 2535SOL     OW19063   1.535   0.170   1.145  0.0615 -0.3435 -0.2113
 2535SOL    HW119064   1.475   0.110   1.100 -1.0805  1.1644 -0.6795
 2535SOL    HW219065   1.512   0.251   1.100 -3.3170 -0.3004  1.5726
 2536SOL     OW19066   1.830   1.312   2.499 -0.1581 -0.3023 -0.0873
 2536SOL    HW119067   1.881   1.282   2.574 -1.3630  2.8403  2.0239
 2536SOL    HW219068   1.832   1.237   2.439  0.5845 -2.2418  2.3610
 2537SOL     OW19069   2.284   0.550   8.035 -0.8286  0.3984  0.8945
 2537SOL    HW119070   2.244   0.625   7.992 -0.2352  0.4411  0.4215
 2537SOL    HW219071   2.235   0.554   8.117  1.2122 -3.1463  2.2896
 2538SOL     OW19072   1.721   0.500   7.107  0.1794  0.2829 -0.1725
 2538SOL    HW119073   1.726   0.411   7.143  2.8850  0.8122  0.7476
 2538SOL    HW219074   1.682   0.552   7.177  1.2880  0.8876 -0.0088
 2539SOL     OW19075   3.324   3.734   8.302 -0.0752  0.4479  0.0537
 2539SOL    HW119076   3.373   3.762   8.224  0.6836 -0.7262  0.0958
 2539SOL    HW219077   3.253   3.797   8.311  2.2442  3.1939 -0.8467
 2540SOL     OW19078   2.573   3.405   5.501  0.1247  0.1644  0.3396
 2540SOL    HW119079   2.613   3.318   5.503 -1.3531 -0.5526 -0.5947
 2540SOL    HW219080   2.634   3.449   5.560  0.2269 -0.9367  1.0538
 2541SOL     OW19081   4.023   2.468  10.852  0.0335 -0.3163  0.6721
 2541SOL    HW119082   4.053   2.455  10.762 -0.3142  3.1878  0.0607
 2541SOL    HW219083   3.934   2.434  10.842 -0.5938  0.9256  2.0849
 2542SOL     OW19084   4.107   0.745  16.214 -0.0782  0.0101 -0.6420
 2542SOL    HW119085   4.143   0.827  16.180  0.3460 -0.1892 -0.6649
 2542SOL    HW219086   4.188   0.699  16.236 -1.8836 -2.8730  0.0970
 2543SOL     OW19087   2.770   3.909  15.260 -0.3914  0.5481 -0.2694
 2543SOL    HW119088   2.730   3.905  15.347  0.8960 -0.9381  0.2502
 2543SOL    HW219089   2.701   3.947  15.206 -1.6670  1.6983  2.1630
 2544SOL     OW19090   1.464   3.926  14.059  0.0309 -0.1433  0.4368
 2544SOL    HW119091   1.553   3.957  14.074  0.2595 -0.5914 -0.0061
 2544SOL    HW219092   1.413   3.998  14.097 -0.5338  0.4037 -1.3531
 2545SOL     OW19093   0.114   4.541  12.767 -0.2746  0.1273  0.8006
 2545SOL    HW119094   0.104   4.562  12.674  0.7788  0.1076  0.6807
 2545SOL    HW219095   0.167   4.462  12.760  0.9667  0.9867  0.3784
 2546SOL     OW19096   1.155   3.257  10.754 -0.0110  0.1140 -0.0314
 2546SOL    HW119097   1.231   3.209  10.787  0.0711 -0.2869 -0.8070
 2546SOL    HW219098   1.142   3.206  10.674  2.3703  0.8499 -0.8899
 2547SOL     OW19099   3.177   1.870   1.818  0.1481 -0.5961 -0.1027
 2547SOL    HW119100   3.227   1.884   1.737 -0.3719  2.5995  0.1410
 2547SOL    HW219101   3.235   1.899   1.888 -1.0789 -0.4055  0.8406
 2548SOL     OW19102   1.081   2.716   9.796 -0.3458  0.1928  0.2738
 2548SOL    HW119103   1.068   2.802   9.836  1.4605 -0.2006  1.7229
 2548SOL    HW219104   1.093   2.750   9.708  0.5249 -2.3240 -0.5853
 2549SOL     OW19105   2.803   0.015   6.946 -0.5143  0.4977  0.1857
 2549SOL    HW119106   2.816   0.107   6.969 -2.2050  0.9600 -0.7514
 2549SOL    HW219107   2.708   0.003   6.937 -0.5672  1.9716 -1.2015
 2550SOL     OW19108   2.300   0.698  12.309 -0.1487  0.7602 -0.2475
 2550SOL    HW119109   2.362   0.652  12.253  0.3950  2.4314 -1.0100
 2550SOL    HW219110   2.255   0.752  12.244 -2.7427 -1.6882 -0.4586
 2551SOL     OW19111   1.486   2.356   8.061 -0.0066 -0.1516 -0.0093
 2551SOL    HW119112   1.542   2.408   8.118  0.9141  0.9442 -1.8848
 2551SOL    HW219113   1.426   2.424   8.031 -1.9680 -1.7603  0.3129
 2552SOL     OW19114   2.181   0.013  10.802 -0.2301 -0.5948 -0.4399
 2552SOL    HW119115   2.112   4.695  10.749  0.3736 -2.0728 -0.1022
 2552SOL    HW219116   2.260   0.013  10.748  0.2702 -1.4256  0.2908
 2553SOL     OW19117   3.762   0.994   8.938  0.2691 -0.2284 -0.1247
 2553SOL    HW119118   3.688   0.950   8.896  2.3215 -2.3996 -1.4825
 2553SOL    HW219119   3.742   0.978   9.030 -0.7029 -0.9745 -0.4645
 2554SOL     OW19120   1.952   2.241  14.787 -0.1097 -0.5650 -0.2728
 2554SOL    HW119121   1.934   2.323  14.832  1.3545 -1.6042  2.1963
 2554SOL    HW219122   1.864   2.203  14.793 -0.3771  0.2272  0.8022
 2555SOL     OW19123   1.215   1.367   3.142 -0.3990  0.3439 -0.7267
 2555SOL    HW119124   1.187   1.376   3.051  0.7279 -2.8104 -1.4042
 2555SOL    HW219125   1.186   1.278   3.164 -0.7485  1.2245  2.4322
 2556SOL     OW19126   3.810   3.056   8.952 -0.0971 -0.1156  0.5623
 2556SOL    HW119127   3.871   2.984   8.972 -1.3373 -1.3493 -0.0888
 2556SOL    HW219128   3.868   3.118   8.908 -1.3533  1.7203  1.5337
 2557SOL     OW19129   3.035   4.393   8.952  0.1012 -0.5969 -0.1900
 2557SOL    HW119130   2.961   4.436   8.994 -1.1580 -0.9377 -2.0363
 2557SOL    HW219131   3.107   4.418   9.010 -1.3576  0.1773  1.2988
 2558SOL     OW19132   0.367   2.204   2.497  0.4188 -0.3239  0.1145
 2558SOL    HW119133   0.388   2.123   2.544  0.0118  0.1312  1.0810
 2558SOL    HW219134   0.272   2.193   2.496  0.4654 -0.6131 -1.5236
 2559SOL     OW19135   3.115   1.877   0.275 -0.6538  0.1621 -0.4811
 2559SOL    HW119136   3.021   1.873   0.290 -0.1417  0.7617  2.7446
 2559SOL    HW219137   3.140   1.798   0.228  0.8361  0.1871  0.2605
 2560SOL     OW19138   3.210   1.143   9.489 -0.6110 -0.4052  0.0715
 2560SOL    HW119139   3.238   1.101   9.570 -0.5108  1.9057  1.2216
 2560SOL    HW219140   3.225   1.232   9.520 -2.5389 -0.4962  1.2794
 2561SOL     OW19141   3.311   3.048   8.984  0.3775 -0.1058 -0.1838
 2561SOL    HW119142   3.405   3.057   8.971  0.8865 -2.4245  2.0482
 2561SOL    HW219143   3.303   2.965   8.936  1.8073 -0.2084 -0.2277
 2562SOL     OW19144   1.921   3.801  11.790  0.1407  0.4821  0.2975
 2562SOL    HW119145   1.921   3.841  11.877  2.9412  0.4389  0.3073
 2562SOL    HW219146   1.887   3.714  11.811 -1.6280  1.6294  2.2141
 2563SOL     OW19147   1.973   2.398   1.351 -0.5188  0.0526  0.3601
 2563SOL    HW119148   2.015   2.423   1.268  4.5252 -0.6836  2.7145
 2563SOL    HW219149   1.883   2.398   1.320 -0.4378  0.4602  0.1171
 2564SOL     OW19150   4.020   0.464   2.925 -0.1785 -0.4802 -0.0908
 2564SOL    HW119151   4.108   0.465   2.964  0.1295  0.8452 -0.8164
 2564SOL    HW219152   4.038   0.466   2.831  0.6614  1.0844  0.0966
 2565SOL     OW19153   3.426   0.345   0.960 -0.0238  0.3467  0.0018
 2565SOL    HW119154   3.418   0.270   0.901  3.5430 -0.8979  1.0660
 2565SOL    HW219155   3.517   0.327   0.984  0.5331 -0.6050 -2.8399
 2566SOL     OW19156   2.347   0.691   5.089  0.1594 -0.6729 -0.0271
 2566SOL    HW119157   2.264   0.650   5.065  1.5785 -3.0536 -0.8479
 2566SOL    HW219158   2.377   0.625   5.152  3.8798  1.0563  0.0274
 2567SOL     OW19159   4.692   1.073   6.639  0.1889 -0.1042 -0.3891
 2567SOL    HW119160   4.703   0.986   6.602 -1.5956 -0.4795 -0.0463
 2567SOL    HW219161   4.608   1.060   6.683  0.5857 -0.2211  0.3353
 2568SOL     OW19162   0.993   4.108   1.892  0.5795 -0.6941  0.0434
 2568SOL    HW119163   1.040   4.063   1.821  0.7641 -1.1636  0.4627
 2568SOL    HW219164   1.014   4.042   1.959 -0.8836 -2.0594 -0.8258
 2569SOL     OW19165   3.474   0.682  14.035 -0.2436 -0.3384  0.2932
 2569SOL    HW119166   3.390   0.636  14.041 -1.1493  1.4830  1.7979
 2569SOL    HW219167   3.483   0.707  13.943 -0.7481  3.4369  1.2548
 2570SOL     OW19168   2.795   2.690   7.778 -1.2094  0.7015 -0.1863
 2570SOL    HW119169   2.794   2.615   7.719  1.6311  0.5364 -0.0490
 2570SOL    HW219170   2.787   2.761   7.715  0.5430  0.4355 -0.7072
 2571SOL     OW19171   4.393   0.338   3.281 -0.0917 -0.6957  0.0642
 2571SOL    HW119172   4.469   0.288   3.309  1.0470  1.3774  0.6393
 2571SOL    HW219173   4.406   0.421   3.328 -0.1789 -0.2887 -0.6208
 2572SOL     OW19174   2.326   1.503   1.899  0.4459 -0.4734  0.3472
 2572SOL    HW119175   2.400   1.562   1.886 -0.7343  1.2992  1.8130
 2572SOL    HW219176   2.370   1.437   1.845 -0.8294 -1.1375  0.1017
 2573SOL     OW19177   2.086   2.625  14.026 -0.2565  0.1772  0.4095
 2573SOL    HW119178   2.163   2.571  14.013 -0.4951  0.4027 -2.1444
 2573SOL    HW219179   2.075   2.605  14.119  2.4471 -0.6387  0.5329
 2574SOL     OW19180   4.427   3.156   3.639  0.2835 -0.0141 -0.4513
 2574SOL    HW119181   4.336   3.178   3.619  0.2408 -0.6638 -0.9825
 2574SOL    HW219182   4.424   3.060   3.635 -0.5105 -0.0566  1.4043
 2575SOL     OW19183   4.704   1.158   9.687  0.7979  0.2112 -0.7340
 2575SOL    HW119184   0.055   1.195   9.637  1.9397  1.1023  1.6331
 2575SOL    HW219185   4.628   1.187   9.636  1.8212  2.1925 -1.1273
 2576SOL     OW19186   1.434   2.339   7.051  0.1594  0.2848 -0.3276
 2576SOL    HW119187   1.383   2.258   7.063  1.1352 -0.3268 -0.3152
 2576SOL    HW219188   1.403   2.402   7.116 -0.7937  1.9131 -2.3712
 2577SOL     OW19189   4.451   1.205   2.650  0.5631  0.6661  0.2743
 2577SOL    HW119190   4.423   1.294   2.670  3.0380  1.4197  0.4521
 2577SOL    HW219191   4.399   1.188   2.571  2.3608  0.8678 -0.9671
 2578SOL     OW19192   0.928   3.065   3.621  0.4022 -0.0229 -0.0797
 2578SOL    HW119193   0.986   3.127   3.576 -0.2674 -0.0659 -1.0252
 2578SOL    HW219194   0.882   3.045   3.539  2.3171 -0.3285 -1.0885
 2579SOL     OW19195   0.365   4.183   7.843 -0.1422 -0.3408  0.3238
 2579SOL    HW119196   0.458   4.194   7.864  0.0189  0.9766 -1.0200
 2579SOL    HW219197   0.348   4.254   7.780 -0.1501 -0.9897 -0.4009
 2580SOL     OW19198   1.254   1.642   2.931  0.5120  0.0943  0.1364
 2580SOL    HW119199   1.278   1.672   2.843 -0.2306  0.5250  0.0870
 2580SOL    HW219200   1.216   1.557   2.908  0.9074 -0.1738  0.4525
 2581SOL     OW19201   4.463   0.556   1.028  0.2519 -0.3479 -0.0172
 2581SOL    HW119202   4.479   0.634   0.976  2.0369 -0.8711 -0.2604
 2581SOL    HW219203   4.370   0.534   1.029  0.2680 -0.4342 -0.8535
 2582SOL     OW19204   2.592   3.531   3.230 -0.0910  0.2055  0.2960
 2582SOL    HW119205   2.510   3.487   3.206  0.5026 -1.2297  0.9549
 2582SOL    HW219206   2.571   3.625   3.225 -2.2643 -0.3211 -0.4238
 2583SOL     OW19207   0.648   1.805   4.377  0.3752 -0.9594  0.2767
 2583SOL    HW119208   0.560   1.818   4.342  1.3787  1.1735 -1.5077
 2583SOL    HW219209   0.688   1.767   4.299 -2.4196 -0.5574 -1.3301
 2584SOL     OW19210   3.094   2.793   8.249  0.0004  0.6621 -0.2229
 2584SOL    HW119211   3.108   2.699   8.249 -2.4049  0.3099  0.2972
 2584SOL    HW219212   3.033   2.807   8.177  0.7567  0.2742 -0.9455
 2585SOL     OW19213   1.271   2.844   3.054 -0.2745  0.1834 -0.1078
 2585SOL    HW119214   1.272   2.899   2.975  1.8681  2.8365  1.7781
 2585SOL    HW219215   1.182   2.860   3.084 -0.2515  0.0479  0.0287
 2586SOL     OW19216   3.211   3.134   5.532  0.4654  0.0466  0.2922
 2586SOL    HW119217   3.296   3.152   5.493 -0.2825 -0.8296 -1.7693
 2586SOL    HW219218   3.151   3.186   5.479 -0.6316 -1.6247 -0.1235
 2587SOL     OW19219   4.089   0.466   1.297 -0.0070  0.2732  0.1521
 2587SOL    HW119220   4.012   0.443   1.243  0.1601  1.2504 -0.4985
 2587SOL    HW219221   4.056   0.531   1.358  2.0591  0.3044  1.2090
 2588SOL     OW19222   2.964   0.349  14.727  0.2563  0.1917  0.2574
 2588SOL    HW119223   2.943   0.434  14.687  0.0731  0.1506  0.2672
 2588SOL    HW219224   3.028   0.315  14.664  1.6324  0.7669  1.3393
 2589SOL     OW19225   1.055   0.358   5.823 -0.1249  0.6304 -0.7098
 2589SOL    HW119226   1.076   0.397   5.908 -0.2098 -1.8959  0.4540
 2589SOL    HW219227   0.971   0.395   5.797  0.2433  1.2109 -1.0844
 2590SOL     OW19228   3.089   3.755   4.088 -0.0242 -0.6793 -0.2813
 2590SOL    HW119229   3.061   3.724   4.002 -0.4885  2.3548 -1.2176
 2590SOL    HW219230   3.117   3.673   4.129  3.5822  0.5278 -0.3143
 2591SOL     OW19231   3.980   4.131   3.621 -0.2724  0.4298 -0.2265
 2591SOL    HW119232   4.068   4.163   3.637  0.0853  0.1020 -1.5607
 2591SOL    HW219233   3.966   4.150   3.528 -1.0579 -0.7308 -0.3472
 2592SOL     OW19234   2.450   2.870   1.627  0.5332 -0.2419 -0.2481
 2592SOL    HW119235   2.502   2.791   1.611  1.6413  0.5363 -0.3944
 2592SOL    HW219236   2.505   2.946   1.608 -0.4189  0.6281  0.4708
 2593SOL     OW19237   2.071   0.757   9.463  0.0572 -0.2949  0.6942
 2593SOL    HW119238   2.031   0.672   9.445  1.3302 -0.6263 -0.6157
 2593SOL    HW219239   2.157   0.731   9.495 -0.4148 -0.3992  1.8551
 2594SOL     OW19240   4.579   0.017   8.031  0.4807  0.8486  0.4095
 2594SOL    HW119241   4.576   4.644   8.045 -3.8276  1.0435  0.8499
 2594SOL    HW219242   4.488   0.036   8.056 -0.1773  0.2474 -1.4953
 2595SOL     OW19243   3.439   2.908   2.992  0.5635  0.4801  0.0936
 2595SOL    HW119244   3.451   2.819   3.026 -0.4828  0.1446 -0.4314
 2595SOL    HW219245   3.491   2.963   3.051 -0.5289 -0.0448  1.5424
 2596SOL     OW19246   0.681   3.993  13.591 -0.3780 -0.7179  0.0002
 2596SOL    HW119247   0.741   3.954  13.528 -0.2679 -0.7422  0.1185
 2596SOL    HW219248   0.647   3.910  13.623  0.1405 -0.5231  1.0952
 2597SOL     OW19249   2.171   2.764   7.413 -0.4357  0.5047 -0.0610
 2597SOL    HW119250   2.224   2.837   7.444  2.3803 -0.1746 -3.2535
 2597SOL    HW219251   2.154   2.788   7.322  2.4343 -2.3622 -1.3658
 2598SOL     OW19252   2.434   3.714   8.412  0.3328  0.8713 -0.1462
 2598SOL    HW119253   2.473   3.727   8.326 -2.1460  0.6145 -1.2858
 2598SOL    HW219254   2.432   3.803   8.449 -0.1916  0.9605 -0.3998
 2599SOL     OW19255   1.469   1.160   8.982  0.1547 -0.3319  0.2741
 2599SOL    HW119256   1.487   1.216   8.907 -0.9750 -0.6933 -0.2732
 2599SOL    HW219257   1.494   1.226   9.047 -3.3473  0.7115  0.5807
 2600SOL     OW19258   1.569   1.063   2.775 -0.7500  0.4643  0.4688
 2600SOL    HW119259   1.593   0.976   2.806  0.5450  1.1209  1.3428
 2600SOL    HW219260   1.529   1.037   2.693  0.9023 -1.7767  0.3880
 2601SOL     OW19261   1.763   0.652   9.253  0.3731 -0.0482  0.3218
 2601SOL    HW119262   1.817   0.625   9.327 -0.3930  0.4750  1.0724
 2601SOL    HW219263   1.675   0.621   9.274 -0.4894  1.5642 -0.9076
 2602SOL     OW19264   2.174   2.724   6.804 -0.0921 -0.4242  0.4326
 2602SOL    HW119265   2.204   2.812   6.780 -0.8028 -0.1074  0.7172
 2602SOL    HW219266   2.145   2.687   6.721  2.3834  0.3220 -0.7637
 2603SOL     OW19267   0.105   3.052   4.501 -0.6252  0.2000  0.5512
 2603SOL    HW119268   0.098   3.065   4.407 -1.0972 -0.8993  0.4414
 2603SOL    HW219269   0.156   3.130   4.523 -0.7618  1.4676 -3.6029
 2604SOL     OW19270   1.843   0.064   7.803 -0.5720  0.2129 -0.0469
 2604SOL    HW119271   1.887   0.070   7.888 -0.9615 -1.9550  0.3102
 2604SOL    HW219272   1.820   0.156   7.792 -0.1446  0.4156  0.7334
 2605SOL     OW19273   3.712   3.280   0.524 -0.1965 -0.0643  0.1731
 2605SOL    HW119274   3.790   3.335   0.536 -2.2493  3.4258 -2.5158
 2605SOL    HW219275   3.674   3.324   0.448 -0.8255 -0.2353  0.3953
 2606SOL     OW19276   3.083   0.843  13.272 -0.2093 -0.2201  0.0895
 2606SOL    HW119277   3.157   0.800  13.229  0.6361  1.1093  0.1938
 2606SOL    HW219278   3.012   0.841  13.208  0.0329  2.2204 -0.2504
 2607SOL     OW19279   0.174   2.636   3.397 -0.2645  0.1262 -0.4704
 2607SOL    HW119280   0.119   2.692   3.341 -3.0980 -2.1422  0.0185
 2607SOL    HW219281   0.101   2.582   3.429  0.0949  0.9391  1.7275
 2608SOL     OW19282   2.386   4.315   1.805 -0.3789  0.1196 -0.5132
 2608SOL    HW119283   2.312   4.256   1.817 -1.0873  0.9996 -0.5861
 2608SOL    HW219284   2.350   4.392   1.848  0.1462 -0.1880  0.4891
 2609SOL     OW19285   4.333   2.921  15.074 -0.4106  0.7437 -0.1827
 2609SOL    HW119286   4.303   2.955  14.990 -0.2886  1.6714  0.1400
 2609SOL    HW219287   4.424   2.951  15.073  0.5196 -2.1083 -0.7909
 2610SOL     OW19288   0.472   3.554  14.688  0.0193  0.1746 -0.1994
 2610SOL    HW119289   0.529   3.614  14.737  0.4392 -1.5960  1.4919
 2610SOL    HW219290   0.383   3.575  14.717  0.1676 -0.0990  0.4744
 2611SOL     OW19291   2.808   0.832   0.383 -0.4947 -0.0131 -0.2023
 2611SOL    HW119292   2.775   0.918   0.356 -2.7515 -0.8692 -0.1737
 2611SOL    HW219293   2.844   0.802   0.299 -2.7953  0.6158 -1.4332
 2612SOL     OW19294   1.382   2.037  15.049  0.5325 -0.3835 -0.9213
 2612SOL    HW119295   1.407   1.981  14.975 -0.6382 -0.5676 -1.1820
 2612SOL    HW219296   1.450   2.103  15.042  1.4249 -1.3369 -1.2886
 2613SOL     OW19297   4.544   3.627  10.224 -0.3209 -0.3204  1.0448
 2613SOL    HW119298   4.468   3.664  10.268  0.6338  2.9742 -0.1273
 2613SOL    HW219299   4.535   3.534  10.247  2.0532  0.1880  4.0449
 2614SOL     OW19300   1.129   3.946   4.141  0.1315  0.1505  0.2182
 2614SOL    HW119301   1.137   4.013   4.074 -2.4915  1.9832  1.7543
 2614SOL    HW219302   1.209   3.895   4.127  0.0289  0.0578 -0.0457
 2615SOL     OW19303   1.237   1.442  17.597 -0.0863 -0.0955 -0.1214
 2615SOL    HW119304   1.231   1.384  17.672  2.0981  0.8536  0.7713
 2615SOL    HW219305   1.328   1.469  17.586  0.4622 -1.5750  0.8744
 2616SOL     OW19306   2.705   4.365   6.644 -0.0635 -0.4529 -0.4231
 2616SOL    HW119307   2.778   4.419   6.672 -1.4470  0.0331  2.2343
 2616SOL    HW219308   2.668   4.354   6.731  0.1886  0.1949 -0.2354
 2617SOL     OW19309   0.446   1.677   2.827 -0.1260 -0.5678  0.5843
 2617SOL    HW119310   0.492   1.595   2.812 -1.3752 -1.7399  3.0007
 2617SOL    HW219311   0.523   1.734   2.833 -0.1783 -0.2475 -2.1950
 2618SOL     OW19312   0.981   3.239   4.006  0.3389  0.1044 -0.4281
 2618SOL    HW119313   1.000   3.305   3.940  0.7759 -0.7657 -1.1675
 2618SOL    HW219314   0.956   3.290   4.083 -0.9233  1.8554 -1.9997
 2619SOL     OW19315   2.741   3.183  17.031  0.0777  0.6728 -0.3983
 2619SOL    HW119316   2.741   3.269  17.073  0.0364 -0.1346  1.2209
 2619SOL    HW219317   2.809   3.193  16.964 -1.0333  2.7804 -1.2126
 2620SOL     OW19318   1.429   4.078   3.669  1.0579  0.4099 -0.5819
 2620SOL    HW119319   1.366   4.045   3.606  0.2680 -1.0288  0.9555
 2620SOL    HW219320   1.438   4.168   3.639  3.0705  0.2006 -0.6166
 2621SOL     OW19321   1.783   3.481   1.107  0.0274  0.1691 -0.0094
 2621SOL    HW119322   1.791   3.494   1.013 -0.0181 -0.2636 -0.0719
 2621SOL    HW219323   1.862   3.528   1.135  1.1773 -0.8754 -1.5831
 2622SOL     OW19324   4.596   4.141   6.181  0.1794  0.3979  0.1362
 2622SOL    HW119325   4.603   4.134   6.086  1.1724  1.4562  0.1393
 2622SOL    HW219326   4.637   4.058   6.204 -1.8552 -0.7987 -0.5806
 2623SOL     OW19327   2.092   0.738   5.632 -0.3611  0.3926  0.1360
 2623SOL    HW119328   2.116   0.646   5.621 -0.4032  0.5070 -0.8837
 2623SOL    HW219329   2.157   0.779   5.576 -0.2947  3.7862  2.7321
 2624SOL     OW19330   3.273   3.661   3.707 -0.0338 -0.2308 -1.1915
 2624SOL    HW119331   3.273   3.753   3.732  1.7948  0.0125 -2.0637
 2624SOL    HW219332   3.202   3.651   3.644 -1.0806 -3.1652  0.5068
 2625SOL     OW19333   1.016   1.029   5.503  0.0485 -0.4881  0.2493
 2625SOL    HW119334   1.047   1.030   5.594 -1.8522  2.6160  0.8484
 2625SOL    HW219335   1.070   1.091   5.455  0.8851 -2.7282 -1.7381
 2626SOL     OW19336   3.643   1.708   3.411  0.0705 -0.1717 -0.1168
 2626SOL    HW119337   3.682   1.725   3.497  2.3549  1.1923 -1.4069
 2626SOL    HW219338   3.551   1.712   3.435  0.5096 -1.7345  1.8388
 2627SOL     OW19339   0.138   3.431  12.922  0.0014  0.4610  0.1882
 2627SOL    HW119340   0.226   3.461  12.901 -0.4263  1.0392 -0.8237
 2627SOL    HW219341   0.152   3.378  13.000 -3.0887 -1.8599 -0.8200
 2628SOL     OW19342   4.324   3.795   2.706 -0.1044  0.0672  0.5874
 2628SOL    HW119343   4.255   3.795   2.772 -2.5444 -1.1355 -1.9651
 2628SOL    HW219344   4.288   3.749   2.630  0.6468  0.4009  0.0298
 2629SOL     OW19345   4.589   0.976  10.626 -0.1016  0.3799 -0.3465
 2629SOL    HW119346   4.607   0.895  10.673 -1.6209  0.0303 -0.3570
 2629SOL    HW219347   4.611   0.943  10.539  2.1737  2.5189 -0.5792
 2630SOL     OW19348   2.817   0.767   2.620  0.2227  0.1045 -0.5323
 2630SOL    HW119349   2.806   0.856   2.656  0.5505  0.0023 -0.1805
 2630SOL    HW219350   2.762   0.715   2.679  0.1071  1.2091  0.3398
 2631SOL     OW19351   3.799   4.016   3.813 -0.2528  0.3987 -0.0106
 2631SOL    HW119352   3.835   4.105   3.823  0.1525  0.3194 -0.7731
 2631SOL    HW219353   3.883   3.970   3.817  0.3753  1.4763 -0.6438
 2632SOL     OW19354   3.451   1.753  17.387  0.2636  0.0840  0.2954
 2632SOL    HW119355   3.428   1.779  17.298 -0.6914  1.2779  0.9028
 2632SOL    HW219356   3.394   1.805  17.443  0.8003 -0.7678  1.6182
 2633SOL     OW19357   3.163   1.289   5.598  0.7159  0.2162 -0.1358
 2633SOL    HW119358   3.122   1.216   5.644  2.1333 -0.9321 -0.7229
 2633SOL    HW219359   3.240   1.242   5.567  1.7864  1.3468  0.8025
 2634SOL     OW19360   2.079   2.619   4.196 -1.0068 -0.3109  0.0013
 2634SOL    HW119361   2.013   2.563   4.157 -0.3126 -1.9927  1.2712
 2634SOL    HW219362   2.144   2.558   4.231  0.4883  1.4498  0.3543
 2635SOL     OW19363   0.198   3.244   8.298  0.2171 -0.0663 -0.3299
 2635SOL    HW119364   0.157   3.303   8.235 -1.8925  1.9391  2.9196
 2635SOL    HW219365   0.159   3.266   8.383  0.2678  0.0638 -0.3400
 2636SOL     OW19366   4.702   1.058   8.950 -0.5133  0.3634 -0.4670
 2636SOL    HW119367   4.633   1.030   9.011  1.6852 -2.7662  0.6115
 2636SOL    HW219368   4.659   1.056   8.865  0.0342  2.9221 -0.7898
 2637SOL     OW19369   4.101   1.273   1.913 -0.3905  0.5006  0.4693
 2637SOL    HW119370   4.117   1.208   1.982  0.1842 -0.8906 -0.9953
 2637SOL    HW219371   4.012   1.249   1.885  0.8234 -0.8645 -2.1366
 2638SOL     OW19372   3.800   1.419  11.912  0.0386 -0.9408  0.0816
 2638SOL    HW119373   3.751   1.469  11.847  1.0214 -0.3181 -0.1783
 2638SOL    HW219374   3.729   1.373  11.957 -1.3720  0.6117 -0.5543
 2639SOL     OW19375   2.034   2.586  12.235 -0.0667 -0.3250  0.0912
 2639SOL    HW119376   2.038   2.540  12.318 -1.4351 -1.3499 -0.4133
 2639SOL    HW219377   2.050   2.519  12.168 -1.3936 -0.2095 -0.3364
 2640SOL     OW19378   3.694   2.799   8.070 -0.6085 -0.0489 -0.2525
 2640SOL    HW119379   3.714   2.746   8.146  1.4724 -1.4961 -1.8193
 2640SOL    HW219380   3.719   2.885   8.104 -0.8643 -0.2556  0.4544
 2641SOL     OW19381   2.460   3.716   0.289 -0.3689  0.2564 -0.8934
 2641SOL    HW119382   2.497   3.804   0.285 -0.4097  0.4857  3.1502
 2641SOL    HW219383   2.409   3.717   0.370 -0.0807 -1.2612 -0.7027
 2642SOL     OW19384   0.758   2.260   4.883  0.2556 -0.3461  0.1233
 2642SOL    HW119385   0.823   2.218   4.826 -0.0880  1.8807 -1.8861
 2642SOL    HW219386   0.813   2.276   4.960  0.4513  1.6331 -0.4346
 2643SOL     OW19387   1.666   1.260   9.207 -0.4005 -0.2623  0.3794
 2643SOL    HW119388   1.657   1.165   9.202  2.2842 -0.4405 -0.7545
 2643SOL    HW219389   1.756   1.279   9.184 -0.6219 -1.8239 -1.7861
 2644SOL     OW19390   4.652   3.803   7.344 -0.0741  0.1447 -0.7001
 2644SOL    HW119391   4.605   3.719   7.338  0.4006 -0.2609  1.3152
 2644SOL    HW219392   4.611   3.843   7.420 -0.6965 -0.0247 -0.9459
 2645SOL     OW19393   0.639   3.274   2.076 -0.3583 -0.1402 -0.5232
 2645SOL    HW119394   0.573   3.338   2.048 -1.5025 -2.1480 -2.3920
 2645SOL    HW219395   0.602   3.199   2.029 -0.0628 -0.5815 -0.0418
 2646SOL     OW19396   2.460   3.583  12.765 -0.4235  0.3290 -0.0404
 2646SOL    HW119397   2.485   3.617  12.679  0.1594 -0.1279 -0.0558
 2646SOL    HW219398   2.522   3.510  12.757 -0.5396  0.2450 -0.1776
 2647SOL     OW19399   0.606   4.270   8.852 -0.0064 -0.2178  0.6737
 2647SOL    HW119400   0.615   4.280   8.757  0.0314 -2.7887  0.4152
 2647SOL    HW219401   0.620   4.359   8.885 -1.2017 -0.0280  0.6621
 2648SOL     OW19402   4.521   2.234   7.918  0.0804 -0.2193 -0.3290
 2648SOL    HW119403   4.505   2.183   7.838  1.8538 -1.5793  0.1681
 2648SOL    HW219404   4.586   2.173   7.952  0.6803  0.3013 -0.5509
 2649SOL     OW19405   3.892   0.214   2.965  0.1397  0.1904 -0.3126
 2649SOL    HW119406   3.981   0.198   2.998 -0.4127  0.8115  1.5106
 2649SOL    HW219407   3.905   0.280   2.897 -4.0962  2.9470  1.5104
 2650SOL     OW19408   0.468   3.829   3.261  0.3889  0.3317 -0.0364
 2650SOL    HW119409   0.386   3.808   3.215  1.2053  0.4843 -1.5635
 2650SOL    HW219410   0.474   3.921   3.236 -0.2482  0.3870 -0.0038
 2651SOL     OW19411   3.668   4.387   0.141  0.1506 -0.1154  0.5321
 2651SOL    HW119412   3.629   4.371   0.227  0.0153 -1.6236  0.1855
 2651SOL    HW219413   3.756   4.354   0.157  0.2512  0.4051  1.0647
 2652SOL     OW19414   0.405   3.988   2.158  0.1242 -0.1175  0.6732
 2652SOL    HW119415   0.322   4.028   2.185 -0.2914  0.5033 -1.4702
 2652SOL    HW219416   0.382   3.950   2.073 -0.7806 -0.7924  1.2159
 2653SOL     OW19417   1.843   4.597  13.077 -0.2008 -0.1845 -0.6469
 2653SOL    HW119418   1.851   4.535  13.005  2.5362 -2.0726  1.2888
 2653SOL    HW219419   1.875   4.538  13.145 -1.4080  1.1284  1.0661
 2654SOL     OW19420   1.384   1.411   1.649  0.2312  0.4427 -0.2194
 2654SOL    HW119421   1.401   1.395   1.556 -3.9128  0.0644 -0.8833
 2654SOL    HW219422   1.295   1.378   1.652  0.5155 -0.4132 -0.9339
 2655SOL     OW19423   2.883   2.691   7.271 -0.3993 -0.4258 -0.3101
 2655SOL    HW119424   2.965   2.650   7.244 -0.4725  0.0563 -1.2821
 2655SOL    HW219425   2.819   2.662   7.206  0.5448 -0.5343 -1.1855
 2656SOL     OW19426   4.314   1.377   7.894  0.2382  0.1014 -0.5349
 2656SOL    HW119427   4.257   1.300   7.898  0.7028 -0.3357 -2.1319
 2656SOL    HW219428   4.247   1.437   7.926 -1.0260 -2.2651  1.2831
 2657SOL     OW19429   1.712   4.340  14.721 -0.1308 -0.3010  0.5835
 2657SOL    HW119430   1.633   4.374  14.762 -0.4545 -0.9901  0.5305
 2657SOL    HW219431   1.679   4.323  14.633  1.2149  0.3885 -0.0576
 2658SOL     OW19432   1.104   3.580   8.544  0.7609 -0.1927  0.9030
 2658SOL    HW119433   1.141   3.494   8.563 -1.6252 -1.1902  1.0937
 2658SOL    HW219434   1.040   3.598   8.614 -0.0477 -1.9576  0.6246
 2659SOL     OW19435   4.504   2.080   4.618 -0.1603  0.1675 -0.0701
 2659SOL    HW119436   4.460   2.104   4.537 -0.1948 -0.2316 -0.1692
 2659SOL    HW219437   4.545   1.998   4.590  0.9962 -0.2519  2.8235
 2660SOL     OW19438   1.274   0.809   5.259 -0.0872  0.7880  0.3800
 2660SOL    HW119439   1.192   0.785   5.215  0.3530 -0.9276  0.4679
 2660SOL    HW219440   1.261   0.891   5.306 -0.1185  0.8288  0.3001
 2661SOL     OW19441   3.300   2.538   4.123 -0.1042 -0.0255  0.0817
 2661SOL    HW119442   3.320   2.580   4.206  0.6867 -0.3709  0.0602
 2661SOL    HW219443   3.230   2.597   4.094 -1.1631 -1.5053 -0.3867
 2662SOL     OW19444   2.036   1.020   9.124 -0.2893  0.0251 -0.0440
 2662SOL    HW119445   1.995   0.952   9.177  0.5493  0.4852  1.1901
 2662SOL    HW219446   1.974   1.041   9.054 -0.1022  3.7794  0.9224
 2663SOL     OW19447   3.155   2.139  14.110  0.7222 -0.5698 -0.2905
 2663SOL    HW119448   3.155   2.223  14.155  1.9336  0.1431 -1.6303
 2663SOL    HW219449   3.204   2.088  14.175  0.5625  1.8328  1.7101
 2664SOL     OW19450   0.244   2.581   7.095 -0.0541  0.4542  0.0990
 2664SOL    HW119451   0.269   2.503   7.046 -0.2654  1.1386 -1.0706
 2664SOL    HW219452   0.166   2.542   7.135  1.5427 -1.2350  1.6172
 2665SOL     OW19453   1.865   0.833   2.827  0.1132 -0.0304 -0.2521
 2665SOL    HW119454   1.925   0.909   2.828 -0.7178  0.5986  2.5358
 2665SOL    HW219455   1.923   0.771   2.782 -2.2568 -2.2231 -0.2566
 2666SOL     OW19456   2.196   2.635  17.313  0.2760  0.4998 -0.1282
 2666SOL    HW119457   2.157   2.721  17.294 -0.5315  0.0818 -0.3618
 2666SOL    HW219458   2.117   2.582  17.323  0.1031  0.9396  0.8785
 2667SOL     OW19459   1.810   2.036  11.535 -0.2317  0.4853 -0.4033
 2667SOL    HW119460   1.804   2.131  11.536 -0.6738  0.4564 -0.5141
 2667SOL    HW219461   1.822   2.030  11.441 -0.8839  2.8691 -0.6247
 2668SOL     OW19462   2.167   1.787   3.414  0.7591  0.3874  0.1384
 2668SOL    HW119463   2.143   1.694   3.412  0.1002  0.5664 -0.2908
 2668SOL    HW219464   2.081   1.829   3.411  0.1237 -0.9241  0.0711
 2669SOL     OW19465   3.948   4.221   1.956  0.3392  0.2091  0.1399
 2669SOL    HW119466   3.859   4.218   1.991 -0.2274 -0.5964 -1.3807
 2669SOL    HW219467   3.977   4.312   1.956  0.7946  0.0663  0.3237
 2670SOL     OW19468   2.915   3.129   3.771 -0.1510 -0.4145  0.1449
 2670SOL    HW119469   2.915   3.064   3.842 -0.0067 -0.2699  0.2778
 2670SOL    HW219470   2.969   3.195   3.815  1.0094 -0.5634 -1.0667
 2671SOL     OW19471   3.701   0.587   0.411 -0.4857 -0.3857 -0.4701
 2671SOL    HW119472   3.634   0.519   0.425  0.0967 -0.3639  2.3663
 2671SOL    HW219473   3.783   0.541   0.429  0.0753  0.0222 -1.9672
 2672SOL     OW19474   0.973   4.092   5.622  0.1721  0.0633  0.4393
 2672SOL    HW119475   0.918   4.072   5.546 -0.6197  2.2058  0.4506
 2672SOL    HW219476   0.949   4.181   5.648 -2.5756 -0.9247  1.2524
 2673SOL     OW19477   4.641   0.628   5.443  0.3162 -0.0527  0.1476
 2673SOL    HW119478   0.002   0.600   5.480  0.0921 -0.3615  0.4147
 2673SOL    HW219479   4.584   0.557   5.471  0.9058 -1.2989 -1.7288
 2674SOL     OW19480   3.021   2.457   7.158  0.2501  0.2032  0.7321
 2674SOL    HW119481   3.107   2.420   7.138 -0.0598 -0.2033  0.1670
 2674SOL    HW219482   2.957   2.385   7.155  0.0072  0.5318 -1.4136
 2675SOL     OW19483   2.380   3.988   4.221 -0.0191  0.7889  0.8589
 2675SOL    HW119484   2.462   4.011   4.266 -0.1158  1.7987  0.5351
 2675SOL    HW219485   2.385   3.893   4.222  1.3024  0.8654  1.2423
 2676SOL     OW19486   1.542   0.180   3.356 -0.3679  0.2824 -0.6748
 2676SOL    HW119487   1.619   0.193   3.410  0.5233  2.4972 -2.4773
 2676SOL    HW219488   1.475   0.192   3.423 -1.0022  2.2478 -1.6544
 2677SOL     OW19489   2.478   3.996   3.830  0.2137  0.6087  0.0393
 2677SOL    HW119490   2.449   3.920   3.779 -0.9179  0.1911  1.2967
 2677SOL    HW219491   2.405   4.058   3.830  0.0832  0.4600 -0.5662
 2678SOL     OW19492   0.373   3.950   5.677  0.4388  0.3644  0.5892
 2678SOL    HW119493   0.429   4.004   5.733  1.7818  0.8398 -1.1995
 2678SOL    HW219494   0.389   3.983   5.589  0.5867 -1.8811 -0.2383
 2679SOL     OW19495   3.351   2.991  10.472  0.4862  0.0618  0.0924
 2679SOL    HW119496   3.272   2.945  10.496  0.7839 -0.8199 -0.6190
 2679SOL    HW219497   3.324   3.025  10.386  0.0525 -0.2387  0.1118
 2680SOL     OW19498   4.429   0.945   2.548 -0.2522 -0.0810 -0.4249
 2680SOL    HW119499   4.396   0.895   2.473  0.4860 -2.0313  0.5509
 2680SOL    HW219500   4.441   1.024   2.496  0.4700 -0.5603 -0.9854
 2681SOL     OW19501   1.347   1.032   5.904  0.2609 -0.3837  0.4487
 2681SOL    HW119502   1.399   0.989   5.836 -1.2410  2.5437 -2.5008
 2681SOL    HW219503   1.409   1.088   5.951  0.0641  1.1862 -1.1722
 2682SOL     OW19504   2.464   2.886   5.699  0.1689  0.4619 -0.1563
 2682SOL    HW119505   2.528   2.938   5.748 -0.9403 -0.7616  2.5742
 2682SOL    HW219506   2.465   2.943   5.623  0.4904  1.6007  0.6964
 2683SOL     OW19507   2.954   1.062   5.660  0.2865  0.3070 -0.6537
 2683SOL    HW119508   2.873   1.011   5.651 -0.0121  0.7792 -0.6281
 2683SOL    HW219509   3.015   0.990   5.645  0.2021 -0.1686  1.2172
 2684SOL     OW19510   1.269   0.805  11.106 -0.2638 -0.0417  0.2993
 2684SOL    HW119511   1.220   0.749  11.045  1.2723 -2.3773  1.2235
 2684SOL    HW219512   1.332   0.852  11.051 -1.9765  1.3948 -0.4227
 2685SOL     OW19513   0.364   1.048  13.158  0.2015  0.5155 -0.2820
 2685SOL    HW119514   0.330   0.984  13.221  0.7793 -1.2160 -1.6979
 2685SOL    HW219515   0.454   1.051  13.188  0.7341 -0.4821 -1.7290
 2686SOL     OW19516   4.211   2.250   5.524 -0.3666 -0.2766  0.0558
 2686SOL    HW119517   4.273   2.252   5.597 -0.1441  0.0198 -0.1409
 2686SOL    HW219518   4.260   2.186   5.473 -0.5695 -1.3029  1.1565
 2687SOL     OW19519   2.308   3.258  10.203 -0.3351 -0.4137  0.0488
 2687SOL    HW119520   2.384   3.202  10.186 -0.2947 -0.3417 -0.0081
 2687SOL    HW219521   2.267   3.217  10.279 -1.7549  0.4014 -0.2798
 2688SOL     OW19522   2.390   3.742  11.261 -0.0353 -0.3096  0.2515
 2688SOL    HW119523   2.472   3.764  11.303 -1.4475  0.1372  2.7687
 2688SOL    HW219524   2.409   3.762  11.169 -0.7204  0.8480  0.3564
 2689SOL     OW19525   4.504   1.052  17.152 -0.8821 -0.5595  0.1604
 2689SOL    HW119526   4.458   1.096  17.224 -1.8080 -1.4042  0.0905
 2689SOL    HW219527   4.442   0.980  17.136 -1.8272  0.2807  0.0050
 2690SOL     OW19528   4.435   3.327   6.628 -0.3164 -0.3902 -0.7650
 2690SOL    HW119529   4.376   3.385   6.580  0.6484  1.5473  0.3700
 2690SOL    HW219530   4.394   3.341   6.713  0.5929  0.2011 -0.4254
 2691SOL     OW19531   4.172   4.258  15.926 -0.4808 -0.1234 -0.1791
 2691SOL    HW119532   4.216   4.263  15.840 -0.5007 -1.1261 -0.2398
 2691SOL    HW219533   4.244   4.273  15.987 -2.6739  0.4594  2.2774
 2692SOL     OW19534   3.219   0.244   2.755 -0.2516 -0.7674 -0.4210
 2692SOL    HW119535   3.274   0.170   2.779 -1.8192 -2.0267 -0.7228
 2692SOL    HW219536   3.222   0.289   2.839  0.3694 -0.5923 -0.5380
 2693SOL     OW19537   3.909   2.631  13.753 -0.1474  0.2716 -0.1585
 2693SOL    HW119538   3.830   2.684  13.747 -0.0687  0.5525  1.1751
 2693SOL    HW219539   3.882   2.540  13.771  1.1113 -0.6997 -3.2176
 2694SOL     OW19540   3.585   4.102  15.174  0.0101  0.2063 -0.5665
 2694SOL    HW119541   3.608   4.080  15.264 -1.9097  2.5975  0.5092
 2694SOL    HW219542   3.549   4.018  15.145  1.2517 -0.6842  0.4950
 2695SOL     OW19543   2.131   4.643   3.748 -0.2300  0.0050  0.0072
 2695SOL    HW119544   2.176   4.667   3.667 -0.6950  0.0836 -0.2272
 2695SOL    HW219545   2.196   4.594   3.799  1.1365  0.4872 -1.2811
 2696SOL     OW19546   2.409   3.165   1.802 -0.2476  0.1083  0.0441
 2696SOL    HW119547   2.494   3.137   1.835 -0.3774  0.1743  0.4397
 2696SOL    HW219548   2.360   3.082   1.801  0.1827 -0.1324 -1.2197
 2697SOL     OW19549   2.772   2.717   3.315  0.0545  0.2701 -0.0531
 2697SOL    HW119550   2.768   2.622   3.304 -2.8425  0.2447  1.0348
 2697SOL    HW219551   2.846   2.744   3.261 -0.0409  0.0382 -0.2985
 2698SOL     OW19552   1.249   4.421   1.630  0.3603  0.0566 -0.0249
 2698SOL    HW119553   1.225   4.363   1.557  0.1419  1.3543 -0.9874
 2698SOL    HW219554   1.226   4.372   1.709  0.9558 -1.9675 -1.0920
 2699SOL     OW19555   4.304   3.771   8.049  0.1670  0.1008 -0.4123
 2699SOL    HW119556   4.382   3.826   8.058  0.6642 -0.4960 -1.0262
 2699SOL    HW219557   4.345   3.685   8.054 -2.4454 -1.1044  0.5352
 2700SOL     OW19558   1.513   4.313   8.358 -0.2275  0.3215  0.1328
 2700SOL    HW119559   1.479   4.397   8.328 -0.5375  0.0083 -0.4025
 2700SOL    HW219560   1.431   4.268   8.381 -0.2691 -0.3253 -1.2555
 2701SOL     OW19561   0.777   0.201  10.569  0.0868 -0.0021  0.5584
 2701SOL    HW119562   0.689   0.231  10.547 -1.2454 -2.5238  2.5201
 2701SOL    HW219563   0.759   0.134  10.635 -0.4934 -0.0216  0.3765
 2702SOL     OW19564   0.982   3.589  14.942  0.0495 -0.0940  0.1154
 2702SOL    HW119565   1.034   3.515  14.972 -0.2853 -0.2513  0.3001
 2702SOL    HW219566   0.992   3.656  15.009  2.4888 -0.0551 -0.2945
 2703SOL     OW19567   0.159   3.389   8.535  0.3735  0.0017 -0.7228
 2703SOL    HW119568   0.137   3.357   8.623  0.3671  2.1184  0.0476
 2703SOL    HW219569   0.161   3.484   8.541  1.0227 -0.0918  0.5806
 2704SOL     OW19570   0.353   0.505   7.371  0.1246 -0.6326  0.2958
 2704SOL    HW119571   0.272   0.473   7.330  0.3688  0.4866 -1.0629
 2704SOL    HW219572   0.343   0.501   7.466 -1.7595 -0.4197  0.1068
 2705SOL     OW19573   0.454   3.633   0.774 -0.3923  0.3474  0.3543
 2705SOL    HW119574   0.459   3.728   0.783  0.2804  0.0797  2.7831
 2705SOL    HW219575   0.376   3.620   0.828 -1.0301  1.2079 -0.3609
 2706SOL     OW19576   0.837   2.873   4.903 -0.0851 -0.1414  0.1897
 2706SOL    HW119577   0.927   2.851   4.878 -0.0191  2.4728 -1.8799
 2706SOL    HW219578   0.812   2.934   4.834 -0.9953  0.2740  0.8830
 2707SOL     OW19579   3.574   0.717   4.674 -0.6765  0.3626  0.1676
 2707SOL    HW119580   3.626   0.682   4.747 -0.7047  0.5543  0.2810
 2707SOL    HW219581   3.521   0.780   4.723 -1.6122  0.2874 -0.7406
 2708SOL     OW19582   3.620   0.770  10.777 -0.1976  0.3309  0.3723
 2708SOL    HW119583   3.532   0.782  10.812 -0.4609  1.4543 -0.6741
 2708SOL    HW219584   3.631   0.854  10.734  0.2520 -0.1978 -0.5495
 2709SOL     OW19585   2.753   2.087  13.609  0.2563  0.1331 -0.3502
 2709SOL    HW119586   2.845   2.087  13.635 -0.2494  0.3662  1.4777
 2709SOL    HW219587   2.752   2.001  13.568  0.3588 -0.3269  0.6027
 2710SOL     OW19588   0.441   3.842   5.959 -0.0772  0.6273 -0.2516
 2710SOL    HW119589   0.425   3.836   5.865  1.3992 -0.9729 -0.4091
 2710SOL    HW219590   0.400   3.926   5.981  0.3194  0.8919 -0.5302
 2711SOL     OW19591   2.443   1.955   8.086  0.1850  0.1562 -0.0106
 2711SOL    HW119592   2.406   2.038   8.059 -2.7294 -0.8104  0.9604
 2711SOL    HW219593   2.428   1.901   8.008  0.1100  0.5202 -0.2437
 2712SOL     OW19594   3.845   4.579  16.352  0.1398  0.1996  0.6667
 2712SOL    HW119595   3.909   4.518  16.389 -0.3828 -0.9746 -0.3611
 2712SOL    HW219596   3.867   4.653  16.408 -1.9108  0.1255  1.5662
 2713SOL     OW19597   4.210   2.636   6.581 -0.3738  0.0793 -0.4948
 2713SOL    HW119598   4.295   2.676   6.560  0.0572  0.0487  1.1402
 2713SOL    HW219599   4.199   2.576   6.508 -1.1178  0.7118 -0.9042
 2714SOL     OW19600   1.984   3.972  10.541  0.2303 -0.3720  0.4915
 2714SOL    HW119601   2.068   3.927  10.540  0.0342 -0.6960 -0.8151
 2714SOL    HW219602   1.933   3.892  10.534 -1.2671  0.2584  3.8966
 2715SOL     OW19603   0.715   2.356   2.013 -0.0787  0.1394 -0.0343
 2715SOL    HW119604   0.747   2.278   2.060  0.7332  0.8455  0.5802
 2715SOL    HW219605   0.628   2.325   1.987  0.5964 -0.1915 -1.8923
 2716SOL     OW19606   2.123   2.508  17.617 -0.8249 -0.0279  0.0460
 2716SOL    HW119607   2.076   2.510  17.534 -1.3383 -1.6721  0.2962
 2716SOL    HW219608   2.066   2.562  17.672 -0.9776 -1.4130  1.2648
 2717SOL     OW19609   3.673   4.530  14.662 -0.2335 -0.1123 -0.2276
 2717SOL    HW119610   3.593   4.536  14.714  0.5706  0.0745  0.9783
 2717SOL    HW219611   3.646   4.461  14.601 -0.2701  0.5367 -0.9430
 2718SOL     OW19612   3.286   2.807   1.389  0.1839  0.0049  0.3811
 2718SOL    HW119613   3.314   2.800   1.481  1.3315  0.0429  0.0343
 2718SOL    HW219614   3.283   2.902   1.376 -0.4622 -0.3028 -1.6767
 2719SOL     OW19615   3.239   3.486   5.580 -0.2953 -0.0020 -0.1387
 2719SOL    HW119616   3.257   3.472   5.487  1.7417  0.5755  0.1790
 2719SOL    HW219617   3.303   3.432   5.626 -1.3952  1.1187  2.6737
 2720SOL     OW19618   1.351   4.347   3.601  0.6784 -0.2267 -0.0402
 2720SOL    HW119619   1.440   4.352   3.566  0.5022  1.1803 -0.2884
 2720SOL    HW219620   1.374   4.366   3.692 -0.8950  1.2961  0.0369
 2721SOL     OW19621   3.574   0.669   0.686 -0.2131 -0.6362  0.1925
 2721SOL    HW119622   3.645   0.616   0.723 -0.3757 -2.7130 -2.4833
 2721SOL    HW219623   3.597   0.657   0.594  2.5267 -1.2342  0.9540
 2722SOL     OW19624   2.057   2.676   6.533  0.2423 -0.2652  0.0903
 2722SOL    HW119625   1.995   2.746   6.555  0.8590 -0.0325  1.1416
 2722SOL    HW219626   2.001   2.599   6.528  0.5668 -0.4879 -0.1222
 2723SOL     OW19627   2.424   2.514   9.517  0.1887 -0.3282  0.5941
 2723SOL    HW119628   2.350   2.453   9.520  0.2423 -0.3560  1.3838
 2723SOL    HW219629   2.485   2.466   9.574  1.8231  0.3548 -0.5958
 2724SOL     OW19630   1.416   4.624  12.661  0.0890 -0.3462 -0.7903
 2724SOL    HW119631   1.349   4.689  12.639  0.2011  0.4178  1.0818
 2724SOL    HW219632   1.380   4.546  12.619 -0.6929 -0.3741 -0.0710
 2725SOL     OW19633   4.509   2.725   1.966 -0.3494 -0.2471 -0.4048
 2725SOL    HW119634   4.506   2.818   1.944 -1.8629 -0.4096 -0.8872
 2725SOL    HW219635   4.598   2.698   1.944 -0.1016 -0.0910  0.4178
 2726SOL     OW19636   2.377   1.611  17.587  0.1405 -0.2627  0.3721
 2726SOL    HW119637   2.289   1.642  17.562 -1.1191  0.1475  5.3285
 2726SOL    HW219638   2.394   1.658  17.669 -0.1237 -0.9021  0.7904
 2727SOL     OW19639   3.053   4.274  10.797  0.0553 -0.3697 -0.0538
 2727SOL    HW119640   3.003   4.269  10.715  1.6932 -3.4857 -0.8532
 2727SOL    HW219641   3.129   4.226  10.764  0.0711  0.6161 -1.4902
 2728SOL     OW19642   3.280   0.713   9.135  0.3351  0.2022 -0.2529
 2728SOL    HW119643   3.230   0.777   9.185 -2.3173 -2.9263  1.0833
 2728SOL    HW219644   3.288   0.644   9.202  1.7074  0.2786 -0.3384
 2729SOL     OW19645   0.661   4.402   3.236 -0.4181  0.4849 -0.5846
 2729SOL    HW119646   0.711   4.363   3.308 -2.7842 -2.9313 -0.7540
 2729SOL    HW219647   0.676   4.334   3.170 -2.4996 -0.4727 -0.0640
 2730SOL     OW19648   1.057   3.792   2.922 -0.1837 -0.0935 -0.0684
 2730SOL    HW119649   0.997   3.821   2.852  0.7706  2.0425 -0.0111
 2730SOL    HW219650   1.032   3.701   2.908 -1.7683  0.4365 -0.7233
 2731SOL     OW19651   1.007   1.539  15.607  0.5859  0.1872 -0.3129
 2731SOL    HW119652   1.038   1.475  15.543 -0.1209  0.3152 -0.7791
 2731SOL    HW219653   1.055   1.610  15.565 -0.9591  0.1390 -2.1144
 2732SOL     OW19654   1.552   0.760  16.100  0.1256  0.6165  0.2307
 2732SOL    HW119655   1.596   0.806  16.171 -0.2604 -0.0192  0.8746
 2732SOL    HW219656   1.494   0.699  16.144  0.6145  0.8161  1.1592
 2733SOL     OW19657   1.216   0.146   7.535 -0.9311 -0.0061  0.8884
 2733SOL    HW119658   1.179   0.091   7.466  1.3759  0.4111 -0.6836
 2733SOL    HW219659   1.144   0.131   7.597  0.5240 -1.0548  2.3156
 2734SOL     OW19660   2.046   2.940   7.720  0.0603  0.4264 -0.6003
 2734SOL    HW119661   2.010   2.998   7.652 -2.9264 -0.0812  0.5389
 2734SOL    HW219662   2.067   2.862   7.668  3.6580 -0.9465  2.8890
 2735SOL     OW19663   4.344   1.524  15.191  0.6664 -0.7959  0.2167
 2735SOL    HW119664   4.328   1.464  15.264 -1.7272 -0.7384 -0.2521
 2735SOL    HW219665   4.275   1.591  15.198  0.1340 -1.1547 -1.5364
 2736SOL     OW19666   0.962   3.962   4.897 -0.6535 -0.0660 -0.3613
 2736SOL    HW119667   0.976   4.052   4.867  0.0887 -0.4420 -1.1381
 2736SOL    HW219668   1.021   3.953   4.972 -3.0039 -2.8672  1.1267
 2737SOL     OW19669   2.008   0.269   9.361  0.0053  0.1895  0.7065
 2737SOL    HW119670   2.024   0.179   9.389  0.5568 -0.1782 -0.7563
 2737SOL    HW219671   1.934   0.252   9.302  0.6841 -0.6360  0.0920
 2738SOL     OW19672   0.027   3.667  17.292  0.2745  0.2336 -0.1387
 2738SOL    HW119673   0.041   3.582  17.249  2.9957  0.2881  0.6257
 2738SOL    HW219674   0.041   3.728  17.220 -1.4117  2.3221  1.3030
 2739SOL     OW19675   1.904   1.248   8.772  0.1654 -0.6263 -0.1294
 2739SOL    HW119676   1.952   1.320   8.813  0.9432 -1.3232  0.1732
 2739SOL    HW219677   1.887   1.187   8.844 -3.7297  0.0922 -0.4328
 2740SOL     OW19678   3.750   1.058   4.693 -0.0796  0.1282 -0.0905
 2740SOL    HW119679   3.810   1.109   4.639 -0.3309 -1.5586 -1.9650
 2740SOL    HW219680   3.669   1.061   4.643 -0.2893 -0.6836  0.2010
 2741SOL     OW19681   3.576   0.246   9.763  0.2257  0.2275  0.1319
 2741SOL    HW119682   3.611   0.326   9.803 -1.3051  1.1542 -0.3781
 2741SOL    HW219683   3.518   0.282   9.696  2.0587 -0.3111 -1.7610
 2742SOL     OW19684   0.230   0.900  14.203  0.1723 -0.0059  0.2026
 2742SOL    HW119685   0.286   0.954  14.147 -0.6107 -0.3270 -0.9085
 2742SOL    HW219686   0.148   0.913  14.154 -0.4017 -1.9044  0.6743
 2743SOL     OW19687   0.275   3.184  16.059 -1.0236  0.5914  0.0359
 2743SOL    HW119688   0.311   3.104  16.021  3.7319  2.2550  1.1292
 2743SOL    HW219689   0.342   3.194  16.126 -0.1098  0.7763 -0.8969
 2744SOL     OW19690   2.841   2.783  13.298 -0.4895 -0.1655  0.1654
 2744SOL    HW119691   2.819   2.829  13.379 -1.3580  1.9623 -1.2770
 2744SOL    HW219692   2.889   2.705  13.327  0.1128  0.5693  1.1437
 2745SOL     OW19693   0.731   0.015   3.102  0.1246 -0.4695  0.8986
 2745SOL    HW119694   0.751   0.107   3.114 -1.7826  0.0195  0.3362
 2745SOL    HW219695   0.637   0.020   3.118 -0.4123  1.2382 -2.6193
 2746SOL     OW19696   1.263   1.143   8.358  0.2507 -0.7694  0.0761
 2746SOL    HW119697   1.323   1.207   8.393  0.3395 -1.1487  0.6092
 2746SOL    HW219698   1.260   1.085   8.434 -2.4484 -1.5124 -0.5708
 2747SOL     OW19699   2.084   4.163   0.823 -0.1530  0.0191  0.6029
 2747SOL    HW119700   1.996   4.147   0.790 -0.0710 -1.0430  0.9146
 2747SOL    HW219701   2.121   4.215   0.751 -0.0931  0.0711  0.6715
 2748SOL     OW19702   3.279   2.586   5.054 -0.0813 -0.0211  0.0345
 2748SOL    HW119703   3.188   2.562   5.069  0.0287  1.5089  3.1067
 2748SOL    HW219704   3.316   2.598   5.141  0.1864 -0.1640 -0.0592
 2749SOL     OW19705   4.324   0.637   6.228  0.0388 -0.8039  0.4828
 2749SOL    HW119706   4.386   0.688   6.280  0.0893  0.3014 -0.6635
 2749SOL    HW219707   4.251   0.695   6.205  0.3560 -0.8857 -0.7174
 2750SOL     OW19708   3.568   2.346   5.161  0.0421  0.4645  0.4427
 2750SOL    HW119709   3.560   2.434   5.126  0.4276  0.4576  0.3354
 2750SOL    HW219710   3.501   2.295   5.116 -0.6747  1.5981  0.2204
 2751SOL     OW19711   4.019   3.144   6.399 -0.5032  0.0201  0.7557
 2751SOL    HW119712   4.093   3.125   6.341  0.0814  0.7643  1.2558
 2751SOL    HW219713   4.048   3.222   6.446 -0.3815  1.0295 -0.9655
 2752SOL     OW19714   3.763   2.040   3.839 -0.0286 -0.0924  0.3794
 2752SOL    HW119715   3.781   2.026   3.746  0.1161 -0.5951  0.4837
 2752SOL    HW219716   3.844   1.999   3.871  0.1653 -0.7141 -0.9174
 2753SOL     OW19717   2.243   3.243   5.546 -0.0663  0.2198  0.5717
 2753SOL    HW119718   2.170   3.305   5.554 -1.3506 -0.9925 -1.7944
 2753SOL    HW219719   2.307   3.291   5.599  3.7753 -2.1834 -1.9179
 2754SOL     OW19720   0.979   2.494   1.951  0.2156  0.0178 -0.0799
 2754SOL    HW119721   0.921   2.434   1.903 -0.9424  1.4750 -0.4894
 2754SOL    HW219722   1.064   2.463   1.918 -0.1619 -0.1100 -0.9398
 2755SOL     OW19723   3.320   1.108   3.333 -0.4206  0.0733  0.0047
 2755SOL    HW119724   3.372   1.086   3.410  2.4927  1.6130 -1.5499
 2755SOL    HW219725   3.318   1.021   3.294 -2.4947  1.3361 -2.7387
 2756SOL     OW19726   2.377   0.602   6.508 -0.0971 -0.3123 -0.1910
 2756SOL    HW119727   2.439   0.663   6.548 -0.3793 -1.1486  1.5427
 2756SOL    HW219728   2.422   0.518   6.505  0.6448 -0.0463  3.1067
 2757SOL     OW19729   2.492   4.194   6.555  0.3587  0.2794 -0.8083
 2757SOL    HW119730   2.578   4.227   6.580  0.4033  0.4294 -1.1623
 2757SOL    HW219731   2.482   4.129   6.624 -1.7898  3.0217  1.4623
 2758SOL     OW19732   4.427   0.090  17.630 -0.1643  0.2965 -0.3234
 2758SOL    HW119733   4.497   0.142  17.669  0.6399 -1.9294  1.2157
 2758SOL    HW219734   4.485   0.042  17.571  0.2036 -0.7155  0.8646
 2759SOL     OW19735   1.922   1.039   8.602  0.1281  0.2673  0.6732
 2759SOL    HW119736   1.913   1.127   8.640 -1.5580 -0.3185  1.6136
 2759SOL    HW219737   1.837   1.036   8.559  0.3570 -3.3953  0.5061
 2760SOL     OW19738   4.063   0.965   4.993 -0.0754 -0.1535  0.1166
 2760SOL    HW119739   4.116   0.929   4.923  2.5175  0.9792  1.5076
 2760SOL    HW219740   4.068   1.056   4.965  0.1636 -0.0184  0.5938
 2761SOL     OW19741   3.068   4.432  14.787 -0.2792 -0.1896 -0.3705
 2761SOL    HW119742   3.126   4.356  14.794  1.0675  0.8800  0.0424
 2761SOL    HW219743   3.109   4.508  14.828  0.5996  0.0217 -1.6354
 2762SOL     OW19744   2.645   2.260  14.819 -0.4518 -0.0638  0.3134
 2762SOL    HW119745   2.631   2.337  14.764  0.0773 -0.0778  0.1608
 2762SOL    HW219746   2.615   2.289  14.906 -3.0027  0.5603 -0.7864
 2763SOL     OW19747   3.338   0.070   2.159  0.4210  0.0065  0.0406
 2763SOL    HW119748   3.357   4.701   2.179 -1.1591 -0.7164 -1.8521
 2763SOL    HW219749   3.415   0.114   2.196  0.2774  0.9965 -0.8388
 2764SOL     OW19750   4.709   3.961  15.229 -0.1313 -0.0987  0.5983
 2764SOL    HW119751   4.664   4.030  15.181  0.1049  0.1663  0.7577
 2764SOL    HW219752   0.075   3.996  15.239 -0.6231  1.5806 -0.9492
 2765SOL     OW19753   0.539   2.902  11.554 -0.0786 -0.0320  0.6371
 2765SOL    HW119754   0.478   2.880  11.625  0.9440 -2.1337  0.8506
 2765SOL    HW219755   0.618   2.911  11.608  0.3934 -3.2306  0.4642
 2766SOL     OW19756   1.607   1.088   8.496 -0.2540  0.1290 -0.0305
 2766SOL    HW119757   1.602   1.148   8.571  1.6858 -0.7412  0.7947
 2766SOL    HW219758   1.559   1.010   8.525 -0.0784  0.1689  0.3785
 2767SOL     OW19759   0.161   3.652   0.937 -0.6033  0.3568 -0.0496
 2767SOL    HW119760   0.071   3.626   0.958 -0.7469  1.4504  0.7183
 2767SOL    HW219761   0.140   3.716   0.868 -1.2362  1.2519  0.9557
 2768SOL     OW19762   0.415   1.689  13.653 -0.1027 -0.0734 -0.4635
 2768SOL    HW119763   0.357   1.689  13.729  3.9003 -2.0714  2.5532
 2768SOL    HW219764   0.420   1.783  13.633  3.0908 -0.1120  0.1664
 2769SOL     OW19765   2.992   3.872   5.721 -0.2778  0.0937  0.4020
 2769SOL    HW119766   3.035   3.957   5.712 -0.0031 -0.2250 -1.3331
 2769SOL    HW219767   2.991   3.858   5.816  0.6341 -1.5214  0.1795
 2770SOL     OW19768   4.572   4.681  10.448 -0.6819 -0.0843 -0.3390
 2770SOL    HW119769   4.482   4.684  10.416 -0.8499 -2.7356 -0.0911
 2770SOL    HW219770   4.563   4.675  10.543  0.4224 -0.9344 -0.2825
 2771SOL     OW19771   1.759   1.843   8.843  0.0139  0.1810 -0.2044
 2771SOL    HW119772   1.808   1.864   8.922 -0.6207 -1.3473  0.5921
 2771SOL    HW219773   1.667   1.866   8.858 -0.1616 -0.6672  0.0354
 2772SOL     OW19774   0.751   3.928  12.344  0.2681 -0.6351 -0.3541
 2772SOL    HW119775   0.835   3.940  12.388  0.6817 -1.6698 -0.8684
 2772SOL    HW219776   0.758   4.005  12.287 -0.5416 -0.8389 -0.7312
 2773SOL     OW19777   2.593   2.129  11.555 -0.5357 -0.0508  0.3504
 2773SOL    HW119778   2.524   2.185  11.591 -0.0950  0.4272  0.4470
 2773SOL    HW219779   2.593   2.188  11.480 -1.0231  0.6351  0.8912
 2774SOL     OW19780   2.162   1.939   7.653 -0.0041 -0.1412  0.3438
 2774SOL    HW119781   2.099   2.011   7.652 -2.3951 -2.2398 -0.4610
 2774SOL    HW219782   2.105   1.866   7.677  1.5424 -2.0658 -1.8034
 2775SOL     OW19783   4.265   2.525   8.631 -0.6611 -0.5383 -0.2018
 2775SOL    HW119784   4.217   2.577   8.695 -0.8033 -1.1263  0.1717
 2775SOL    HW219785   4.315   2.473   8.694  1.4370  0.0373 -1.3964
 2776SOL     OW19786   3.046   4.290  14.528 -0.2652  0.0656  0.0178
 2776SOL    HW119787   2.972   4.322  14.476 -0.2075  1.5942  0.8728
 2776SOL    HW219788   3.059   4.361  14.591 -1.3249 -1.0672  1.5240
 2777SOL     OW19789   2.366   2.413   3.432 -0.1437  0.2500  0.8227
 2777SOL    HW119790   2.425   2.457   3.371  1.3961  1.7413  3.3783
 2777SOL    HW219791   2.425   2.400   3.506  1.3777  2.2883 -0.0477
 2778SOL     OW19792   2.767   1.193   6.306 -0.1089 -0.1464  0.2773
 2778SOL    HW119793   2.831   1.157   6.245 -1.1163  0.4388 -1.1288
 2778SOL    HW219794   2.700   1.225   6.246 -0.6652  0.6990  1.3338
 2779SOL     OW19795   0.644   3.543  10.237 -0.0411 -0.3121 -0.1909
 2779SOL    HW119796   0.642   3.556  10.142 -2.5994 -1.5977 -0.3096
 2779SOL    HW219797   0.717   3.482  10.247  0.2353  0.0716  0.1202
 2780SOL     OW19798   0.196   4.368   6.253  0.4603 -0.0120 -0.0719
 2780SOL    HW119799   0.240   4.330   6.177  0.6436  0.1207 -0.0315
 2780SOL    HW219800   0.207   4.296   6.315 -0.9535 -1.4161 -1.4609
 2781SOL     OW19801   1.691   0.322   5.406  0.4283  0.0419 -0.9408
 2781SOL    HW119802   1.639   0.246   5.431 -1.0407  1.0203 -1.0409
 2781SOL    HW219803   1.679   0.374   5.485  2.6966  1.9066 -1.8158
 2782SOL     OW19804   3.149   2.536   0.541 -0.0843 -1.0385 -0.1809
 2782SOL    HW119805   3.169   2.581   0.459  3.9956 -0.4784  1.1299
 2782SOL    HW219806   3.240   2.532   0.569 -0.5232 -1.7115  1.1651
 2783SOL     OW19807   4.619   4.024   0.429 -0.0757 -0.2781  0.0079
 2783SOL    HW119808   4.589   4.105   0.388 -0.1265 -0.6694 -0.7156
 2783SOL    HW219809   4.577   4.033   0.515 -0.7317  0.2040 -0.3570
 2784SOL     OW19810   2.698   4.466   3.225  0.6991 -0.1168  0.1265
 2784SOL    HW119811   2.734   4.512   3.300 -1.7503  0.8662  0.7175
 2784SOL    HW219812   2.644   4.404   3.273  2.6221 -1.0832  0.9945
 2785SOL     OW19813   3.236   0.851   4.032  0.1191  0.1216  0.5207
 2785SOL    HW119814   3.155   0.800   4.037  0.3036 -0.3227 -1.0167
 2785SOL    HW219815   3.287   0.799   4.094 -0.4936 -0.4391  0.5508
 2786SOL     OW19816   2.595   1.969   9.131 -0.3254 -0.5418 -0.1637
 2786SOL    HW119817   2.589   1.879   9.099  0.3462 -0.4214 -0.6099
 2786SOL    HW219818   2.667   2.010   9.083 -0.0842  0.9621  1.4914
 2787SOL     OW19819   4.577   4.392  10.335 -0.3305 -0.6234  0.2143
 2787SOL    HW119820   4.558   4.470  10.388  0.3822 -1.2512  1.3991
 2787SOL    HW219821   4.641   4.441  10.284 -2.5806  3.9670  1.8060
 2788SOL     OW19822   2.160   3.947  11.589  0.0486 -0.1504  0.5641
 2788SOL    HW119823   2.112   3.874  11.628 -0.0532  0.6818  1.9717
 2788SOL    HW219824   2.176   3.920  11.498  1.1209  3.2750 -0.2511
 2789SOL     OW19825   1.436   3.338   0.408 -0.0878 -0.3101  0.0129
 2789SOL    HW119826   1.494   3.396   0.358 -2.4519  1.8343 -0.2216
 2789SOL    HW219827   1.361   3.396   0.417 -1.6414 -1.9172 -2.9366
 2790SOL     OW19828   2.180   2.816  10.167 -0.0954 -0.3086 -0.2439
 2790SOL    HW119829   2.243   2.745  10.158  2.5067  1.7195  1.8844
 2790SOL    HW219830   2.226   2.876  10.226 -1.6773 -0.8810  1.5982
 2791SOL     OW19831   3.189   4.106   5.302 -0.2542 -0.1771  0.0189
 2791SOL    HW119832   3.255   4.136   5.365 -0.6935 -0.8342  0.8043
 2791SOL    HW219833   3.114   4.086   5.358 -0.2379 -2.9127 -0.9330
 2792SOL     OW19834   4.286   1.248   0.211  0.4739 -0.0819 -0.8169
 2792SOL    HW119835   4.305   1.342   0.219  0.4448  0.1189 -3.2128
 2792SOL    HW219836   4.193   1.241   0.191  0.4732 -1.7977 -0.2404
 2793SOL     OW19837   1.838   4.378  10.015 -0.2082  0.5697 -0.1235
 2793SOL    HW119838   1.880   4.464  10.007  0.7779  0.2732  1.8585
 2793SOL    HW219839   1.882   4.332  10.087  0.5987  0.8953 -0.4046
 2794SOL     OW19840   4.449   4.544   6.767  0.1536  0.3331  0.1925
 2794SOL    HW119841   4.446   4.639   6.767 -2.0213  0.2678 -0.2671
 2794SOL    HW219842   4.479   4.522   6.679 -2.7196 -0.8808 -0.5033
 2795SOL     OW19843   3.603   3.650  11.543  0.5448  0.3609 -0.1934
 2795SOL    HW119844   3.685   3.699  11.533 -0.4676  2.4092  1.5199
 2795SOL    HW219845   3.537   3.688  11.486 -1.5303 -1.5123  0.9772
 2796SOL     OW19846   2.204   2.059   4.819  0.1481  0.2346  0.2192
 2796SOL    HW119847   2.247   2.144   4.816  0.6010 -0.0015  0.0394
 2796SOL    HW219848   2.234   2.017   4.900  0.6137  0.1912  0.0260
 2797SOL     OW19849   2.164   2.658   4.594  0.8952 -0.0138 -0.3277
 2797SOL    HW119850   2.244   2.612   4.622 -0.2520 -0.2830  2.4867
 2797SOL    HW219851   2.179   2.687   4.504 -0.1663 -0.5091 -0.6632
 2798SOL     OW19852   3.356   1.304   0.910 -0.4740 -0.3113 -0.2308
 2798SOL    HW119853   3.382   1.363   0.840  2.3064 -1.3993 -0.1365
 2798SOL    HW219854   3.268   1.280   0.883 -1.0151  1.2229  0.2111
 2799SOL     OW19855   3.236   4.539   4.994  0.0251 -0.0455 -0.0743
 2799SOL    HW119856   3.226   4.630   5.021 -3.6353  0.2611 -2.3303
 2799SOL    HW219857   3.231   4.556   4.900 -0.7979  0.6137  0.0845
 2800SOL     OW19858   2.820   3.283   7.621  0.2142  0.1453  0.1846
 2800SOL    HW119859   2.771   3.360   7.649 -1.7029 -0.7311 -0.7890
 2800SOL    HW219860   2.758   3.217   7.650 -0.0268 -0.9590 -2.7796
 2801SOL     OW19861   0.731   3.477   9.662  0.2280 -0.6727 -0.1200
 2801SOL    HW119862   0.801   3.520   9.613  2.3115 -1.3795  2.2425
 2801SOL    HW219863   0.693   3.412   9.602 -1.3989 -0.7744  1.0470
 2802SOL     OW19864   0.749   1.183   3.935 -0.1626 -0.8584 -0.3038
 2802SOL    HW119865   0.738   1.229   4.019  0.5887 -2.0608  0.4539
 2802SOL    HW219866   0.819   1.124   3.961 -1.9241 -2.5783  0.5482
 2803SOL     OW19867   1.511   1.671   3.915  0.5443  0.1378  0.1477
 2803SOL    HW119868   1.488   1.648   4.005 -0.3470  0.3285 -0.0369
 2803SOL    HW219869   1.604   1.694   3.915 -0.0308  2.3593 -2.4596
 2804SOL     OW19870   4.607   4.037   5.637  0.4262 -0.5751 -0.1436
 2804SOL    HW119871   4.616   3.966   5.700  1.6052 -0.0139  0.3338
 2804SOL    HW219872   4.535   4.007   5.581 -0.4944 -3.0062  2.3664
 2805SOL     OW19873   1.786   3.923  10.846  0.1709 -0.1437  0.0131
 2805SOL    HW119874   1.758   4.011  10.821  0.2684 -0.3257 -0.7175
 2805SOL    HW219875   1.709   3.872  10.821 -0.0010  0.3221 -0.4024
 2806SOL     OW19876   4.106   2.312   8.832  0.3432 -0.3933 -0.0185
 2806SOL    HW119877   4.082   2.249   8.900 -3.4266  0.9401 -0.1429
 2806SOL    HW219878   4.107   2.397   8.876  1.9908 -0.6451  0.4406
 2807SOL     OW19879   1.189   2.434   7.675  0.0670 -0.4948  0.1164
 2807SOL    HW119880   1.130   2.416   7.602 -0.0446  1.0290 -0.1565
 2807SOL    HW219881   1.130   2.445   7.749 -0.4628  0.0628 -0.3934
 2808SOL     OW19882   3.739   0.916  10.097 -0.2125  0.0905 -0.5532
 2808SOL    HW119883   3.809   0.981  10.099 -2.1049  2.0739  1.7874
 2808SOL    HW219884   3.681   0.943  10.168  0.0793 -3.2763  0.9793
 2809SOL     OW19885   2.523   3.348   4.000  0.1595 -0.0917 -0.0269
 2809SOL    HW119886   2.598   3.373   3.946 -0.0411  0.3271 -0.1098
 2809SOL    HW219887   2.461   3.417   3.978 -1.0701 -1.0056  0.5619
 2810SOL     OW19888   1.957   1.154   7.166 -0.4308 -0.1757  0.2403
 2810SOL    HW119889   1.914   1.112   7.092 -0.6019  2.1163 -0.9721
 2810SOL    HW219890   2.049   1.142   7.145 -0.7193 -0.7056 -0.7137
 2811SOL     OW19891   4.513   0.949   9.720  0.3528  0.1724  0.6067
 2811SOL    HW119892   4.598   0.992   9.718 -0.1987  1.2189 -0.1557
 2811SOL    HW219893   4.499   0.933   9.626  1.7122  2.0214  0.0974
 2812SOL     OW19894   3.627   1.987   4.953  0.4022 -0.0602  0.3924
 2812SOL    HW119895   3.580   1.997   4.870 -1.0074  2.5777  1.5084
 2812SOL    HW219896   3.551   1.972   5.009 -0.9859 -1.4611 -1.8576
 2813SOL     OW19897   1.575   1.369   8.242 -0.1814 -0.0759 -0.0290
 2813SOL    HW119898   1.662   1.338   8.271 -0.4311  0.6103  1.4517
 2813SOL    HW219899   1.538   1.407   8.321 -3.4747 -0.9564 -1.1560
 2814SOL     OW19900   1.919   3.872  11.476  0.0135  0.0145  0.3266
 2814SOL    HW119901   1.941   3.779  11.474  2.4019  0.6275 -1.0891
 2814SOL    HW219902   1.990   3.901  11.420 -0.9657  2.5158  0.3791
 2815SOL     OW19903   0.145   3.867   1.782 -0.5203 -0.1884  0.4606
 2815SOL    HW119904   0.076   3.849   1.718  0.1729  0.2599 -0.4038
 2815SOL    HW219905   0.093   3.922   1.842  0.0881 -0.4831  1.2652
 2816SOL     OW19906   0.938   4.476  13.492 -0.3657  0.1260 -0.2744
 2816SOL    HW119907   0.881   4.401  13.476  1.3344 -0.8387 -1.7519
 2816SOL    HW219908   0.931   4.479  13.588 -0.0908 -1.4771 -0.2076
 2817SOL     OW19909   3.955   4.352  13.562  0.0329 -0.3290  0.4288
 2817SOL    HW119910   4.038   4.399  13.573  0.0890 -0.0257 -1.4276
 2817SOL    HW219911   3.891   4.395  13.620 -1.9019 -0.3628 -1.7171
 2818SOL     OW19912   3.862   0.753   7.205 -0.3622 -0.6516 -0.4252
 2818SOL    HW119913   3.836   0.661   7.193 -1.1653 -1.1013  4.9131
 2818SOL    HW219914   3.951   0.735   7.174 -0.8665  1.1155 -2.8817
 2819SOL     OW19915   3.793   4.085   0.350  0.0745  0.2805  0.0491
 2819SOL    HW119916   3.758   4.001   0.379  0.5068  0.2797  0.5649
 2819SOL    HW219917   3.870   4.054   0.302  0.0201  1.0374 -0.5258
 2820SOL     OW19918   1.164   3.043   7.819  0.2030  0.0015 -0.1259
 2820SOL    HW119919   1.083   2.996   7.836 -0.7074  1.6826  0.1437
 2820SOL    HW219920   1.181   2.998   7.736  0.0755  1.6035 -1.0282
 2821SOL     OW19921   0.836   0.203   8.188  0.2194  0.6063  0.3766
 2821SOL    HW119922   0.755   0.167   8.223 -0.3665  1.8759  0.3521
 2821SOL    HW219923   0.861   0.130   8.132  2.2117  1.1567  0.5292
 2822SOL     OW19924   4.518   4.144  15.576 -0.4780 -0.2777 -0.1276
 2822SOL    HW119925   4.497   4.082  15.505  0.3819  1.9804 -2.3636
 2822SOL    HW219926   4.585   4.196  15.531 -1.1477  1.9462  1.5024
 2823SOL     OW19927   3.184   2.408  17.034 -0.5116  0.1580 -0.1051
 2823SOL    HW119928   3.217   2.497  17.048 -1.3783  0.1897  1.7034
 2823SOL    HW219929   3.254   2.381  16.974 -0.5500 -0.1337 -0.0180
 2824SOL     OW19930   3.213   1.693   2.812 -0.0714  0.5018 -0.9352
 2824SOL    HW119931   3.247   1.780   2.834 -0.3243  0.7611 -1.5649
 2824SOL    HW219932   3.272   1.666   2.741  0.0295  2.2374 -1.5158
 2825SOL     OW19933   0.026   0.241   7.879  0.5521 -0.1658  0.2084
 2825SOL    HW119934   0.053   0.169   7.935 -0.8555 -0.0434  1.0219
 2825SOL    HW219935   4.658   0.219   7.860  0.6905  0.6780 -1.4853
 2826SOL     OW19936   1.869   0.614   7.838  0.3926  0.1327  0.3182
 2826SOL    HW119937   1.926   0.557   7.786 -0.5023 -2.2430  1.9780
 2826SOL    HW219938   1.894   0.702   7.810  0.5904 -0.7581 -2.3805
 2827SOL     OW19939   0.611   2.517  10.060 -0.4641 -0.4047  0.1796
 2827SOL    HW119940   0.672   2.493  10.130 -1.2197 -0.5207  0.8004
 2827SOL    HW219941   0.656   2.592  10.020 -0.6281  0.5341  1.7728
 2828SOL     OW19942   1.143   3.245  16.610  0.8548  0.2164 -0.2811
 2828SOL    HW119943   1.183   3.158  16.614 -1.4449 -0.8838 -0.5528
 2828SOL    HW219944   1.103   3.246  16.697  1.7009 -0.4126  0.1178
 2829SOL     OW19945   3.090   3.754  10.767  0.0314 -0.1324 -0.1701
 2829SOL    HW119946   3.104   3.837  10.721 -1.0637 -1.8272 -3.6291
 2829SOL    HW219947   3.182   3.737  10.787  0.5087  0.3550 -1.8873
 2830SOL     OW19948   3.721   2.349   1.961  0.2822 -0.0700 -0.6524
 2830SOL    HW119949   3.676   2.291   2.023 -1.5067  0.0376 -1.8453
 2830SOL    HW219950   3.763   2.281   1.909  1.5640 -1.1937  1.8151
 2831SOL     OW19951   4.614   3.586   9.551  0.3244 -0.1919 -0.1070
 2831SOL    HW119952   4.632   3.493   9.543 -1.5098 -0.5671  0.1955
 2831SOL    HW219953   4.519   3.580   9.561  0.2859  1.5355  0.7093
 2832SOL     OW19954   1.134   0.188  10.338  0.6499 -0.1972  0.0851
 2832SOL    HW119955   1.141   0.214  10.246  0.0345  0.1677  0.1376
 2832SOL    HW219956   1.150   0.270  10.385 -0.6296 -0.4925  1.0347
 2833SOL     OW19957   1.285   0.257   2.838  0.0070 -0.0503  0.4073
 2833SOL    HW119958   1.275   0.192   2.907  0.9312 -2.4192 -1.6634
 2833SOL    HW219959   1.379   0.253   2.818 -0.0729  0.9563 -0.1644
 2834SOL     OW19960   1.750   3.715   4.436 -0.1765 -0.2346 -0.8095
 2834SOL    HW119961   1.680   3.775   4.411  1.3829  2.9947  2.5869
 2834SOL    HW219962   1.791   3.775   4.498  0.4463 -0.4928 -0.9651
 2835SOL     OW19963   1.972   1.097   8.182 -0.2253  0.4854  0.8020
 2835SOL    HW119964   2.028   1.169   8.156  1.6860 -2.1591 -2.3613
 2835SOL    HW219965   2.032   1.035   8.224 -0.0737  1.1160  1.5063
 2836SOL     OW19966   4.430   1.265  17.365 -0.3696  0.8400  0.0138
 2836SOL    HW119967   4.497   1.332  17.356  1.9671 -1.3541  1.0557
 2836SOL    HW219968   4.345   1.308  17.352  0.5584  2.0785 -1.7654
 2837SOL     OW19969   3.663   4.603   7.867 -0.1098  0.2353 -0.2730
 2837SOL    HW119970   3.640   4.670   7.932  0.1677 -0.4025  0.4832
 2837SOL    HW219971   3.666   4.520   7.913 -0.4569 -0.1126 -0.8781
 2838SOL     OW19972   4.136   1.600  14.335 -0.3240  0.2470 -0.0628
 2838SOL    HW119973   4.045   1.630  14.348 -1.4154 -3.1003 -0.0268
 2838SOL    HW219974   4.173   1.681  14.299  0.4753  1.2698  3.0907
 2839SOL     OW19975   3.867   2.792   5.836 -0.2379 -0.1400 -0.5611
 2839SOL    HW119976   3.829   2.873   5.802  0.7804  0.3930 -0.4111
 2839SOL    HW219977   3.861   2.732   5.761  1.1500 -2.6662  1.3384
 2840SOL     OW19978   2.754   1.722   4.977 -0.1018 -0.7484  0.0149
 2840SOL    HW119979   2.825   1.775   4.941 -1.9682  1.2562 -0.7132
 2840SOL    HW219980   2.732   1.760   5.063 -1.8836 -0.9997 -0.3435
 2841SOL     OW19981   4.306   1.179   7.003 -0.4310  0.6117  0.1219
 2841SOL    HW119982   4.384   1.138   7.039 -0.5854  0.0328 -0.1936
 2841SOL    HW219983   4.321   1.272   7.020 -0.3507  0.5185  0.5552
 2842SOL     OW19984   2.381   2.585   5.108  0.2320 -0.3015  0.4158
 2842SOL    HW119985   2.437   2.567   5.184  2.2738  2.3999 -0.4690
 2842SOL    HW219986   2.390   2.680   5.103 -2.3512 -0.1223 -0.8301
 2843SOL     OW19987   1.788   2.855   7.780 -0.4230 -0.1324  0.3028
 2843SOL    HW119988   1.883   2.866   7.778 -0.4238 -0.6076 -2.9886
 2843SOL    HW219989   1.759   2.945   7.769 -0.2752 -0.2783 -1.3193
 2844SOL     OW19990   0.440   3.199   9.304 -0.1205  0.1192 -0.0699
 2844SOL    HW119991   0.358   3.249   9.294 -0.0086  0.6692  1.8525
 2844SOL    HW219992   0.454   3.147   9.225  1.0245  0.9103 -0.3921
 2845SOL     OW19993   2.368   0.255   3.392 -0.2310  0.1791 -0.5482
 2845SOL    HW119994   2.385   0.261   3.298 -1.0180 -0.2280 -0.7133
 2845SOL    HW219995   2.325   0.339   3.408  0.6977  1.0481 -2.5945
 2846SOL     OW19996   0.645   4.593   4.795  0.6220 -0.7928 -1.3069
 2846SOL    HW119997   0.727   4.642   4.792  0.2027 -0.1183 -1.6954
 2846SOL    HW219998   0.666   4.525   4.859 -1.0051 -0.1130 -0.0723
 2847SOL     OW19999   2.132   0.453  10.693 -0.0969  0.0806 -0.0389
 2847SOL    HW120000   2.088   0.376  10.659  1.8498 -1.2683  0.4922
 2847SOL    HW220001   2.193   0.415  10.756 -0.5391 -1.1474 -0.3699
 2848SOL     OW20002   1.461   2.558  16.131  0.1268 -0.3441 -0.1435
 2848SOL    HW120003   1.490   2.649  16.136 -0.1463 -0.1774 -1.6533
 2848SOL    HW220004   1.390   2.576  16.070  0.3674  4.3106  0.9447
 2849SOL     OW20005   1.007   4.272  15.773 -0.0549 -0.2677 -0.3879
 2849SOL    HW120006   0.937   4.293  15.711  0.5328 -0.1394 -1.0182
 2849SOL    HW220007   1.081   4.318  15.732  0.3080 -0.9090 -0.4428
 2850SOL     OW20008   3.523   1.481   2.424  0.3071  0.4222  0.1963
 2850SOL    HW120009   3.583   1.464   2.351 -2.9317 -0.9830 -2.1496
 2850SOL    HW220010   3.531   1.406   2.483 -2.3235 -0.8898 -1.1009
 2851SOL     OW20011   0.861   1.179   3.088  0.5351 -0.1533 -0.0453
 2851SOL    HW120012   0.902   1.204   3.005 -0.3970  0.8665 -0.1901
 2851SOL    HW220013   0.939   1.171   3.143 -0.4136  0.2474  1.3352
 2852SOL     OW20014   3.280   2.516   9.337  0.0263 -0.8600 -0.7834
 2852SOL    HW120015   3.327   2.544   9.416 -1.6220 -0.8635  0.2021
 2852SOL    HW220016   3.311   2.581   9.273  0.8098 -0.4136  0.0392
 2853SOL     OW20017   4.597   3.800   4.207 -0.9049  0.3963 -0.4669
 2853SOL    HW120018   4.539   3.787   4.132  0.0370  2.5679 -1.5684
 2853SOL    HW220019   4.529   3.825   4.270  2.0030  2.7259  1.7322
 2854SOL     OW20020   4.025   0.345  11.269 -0.0627 -0.4459  0.1926
 2854SOL    HW120021   4.087   0.289  11.222  1.5353 -1.0235  2.9404
 2854SOL    HW220022   4.057   0.327  11.358  3.2859 -3.3266 -1.6079
 2855SOL     OW20023   3.273   1.903   8.735 -0.0199  0.2869  0.3856
 2855SOL    HW120024   3.332   1.894   8.810 -1.6554  0.6597  1.7195
 2855SOL    HW220025   3.275   1.997   8.717 -2.6242  0.6942  2.2096
 2856SOL     OW20026   0.666   2.033   2.005  0.0040  0.3100  0.2829
 2856SOL    HW120027   0.600   1.973   2.041 -2.5734  0.7493 -3.6891
 2856SOL    HW220028   0.610   2.077   1.940 -2.1329 -0.9520  1.2661
 2857SOL     OW20029   4.332   0.642  13.073 -0.3630 -0.3077  0.2977
 2857SOL    HW120030   4.284   0.693  13.008 -1.1684 -2.2724 -0.6759
 2857SOL    HW220031   4.376   0.566  13.036  1.9174  0.1829  2.0287
 2858SOL     OW20032   2.729   4.193  16.599 -0.6984 -0.3096  0.3310
 2858SOL    HW120033   2.678   4.181  16.518 -2.0501  2.6063  0.7450
 2858SOL    HW220034   2.794   4.123  16.593 -0.0018  0.4930 -1.4850
 2859SOL     OW20035   3.888   0.711  10.361  0.7562  0.3109 -0.1362
 2859SOL    HW120036   3.915   0.781  10.301  2.5228 -1.8617 -1.8600
 2859SOL    HW220037   3.920   0.634  10.316 -1.3195  0.1670 -1.3402
 2860SOL     OW20038   0.362   4.645   7.694  0.3116 -0.1819 -0.4578
 2860SOL    HW120039   0.441   4.679   7.652 -0.5174  1.3854 -0.7221
 2860SOL    HW220040   0.306   4.723   7.702 -1.0428 -1.2957  0.9607
 2861SOL     OW20041   4.690   2.511  15.112 -0.4676  0.0601 -0.0361
 2861SOL    HW120042   0.062   2.506  15.100 -0.5944 -3.6956  0.4018
 2861SOL    HW220043   4.667   2.459  15.035  0.4963 -0.7976  0.2544
 2862SOL     OW20044   1.535   0.089   2.679  0.0968 -0.3827  0.7698
 2862SOL    HW120045   1.486   0.069   2.600  0.9344 -3.6567  1.0913
 2862SOL    HW220046   1.491   0.033   2.743  0.5014 -1.1727  0.3500
 2863SOL     OW20047   2.473   3.028   2.272  0.2085 -0.2334  0.1316
 2863SOL    HW120048   2.542   2.962   2.283 -0.5507 -1.1548 -0.6778
 2863SOL    HW220049   2.448   3.048   2.362  2.7435  0.2768  0.7374
 2864SOL     OW20050   4.673   1.314  11.578 -0.2502 -0.8544 -0.1959
 2864SOL    HW120051   4.695   1.223  11.596 -0.5603 -1.0909 -0.9984
 2864SOL    HW220052   4.670   1.314  11.482 -1.3996 -0.4649 -0.1585
 2865SOL     OW20053   4.056   0.524  13.993  0.7358  0.6464  0.0513
 2865SOL    HW120054   4.100   0.474  14.062  0.4185 -0.6850 -0.7224
 2865SOL    HW220055   4.046   0.453  13.929 -2.5194 -0.7009  2.0847
 2866SOL     OW20056   0.032   2.651  10.178 -0.2623 -0.4195 -0.4102
 2866SOL    HW120057   4.718   2.726  10.226 -1.0011 -0.6149 -0.6656
 2866SOL    HW220058   0.119   2.684  10.157 -0.7317  0.8694 -0.3482
 2867SOL     OW20059   2.283   0.133   6.442 -0.4899 -0.1121  0.3964
 2867SOL    HW120060   2.272   0.043   6.471 -1.0890 -0.3574 -0.5978
 2867SOL    HW220061   2.194   0.164   6.460 -0.8219 -1.2101  0.6750
 2868SOL     OW20062   1.250   4.060  12.200  0.2164 -0.0412  0.4800
 2868SOL    HW120063   1.308   4.132  12.224  2.2803 -1.7417  0.5344
 2868SOL    HW220064   1.309   3.985  12.203 -0.5341 -0.6864 -1.0247
 2869SOL     OW20065   1.310   1.469   7.022 -0.0782  0.2149  0.4195
 2869SOL    HW120066   1.371   1.491   7.094  0.3790 -0.0808  0.1257
 2869SOL    HW220067   1.364   1.410   6.969  0.6971 -0.0061  1.4382
 2870SOL     OW20068   3.668   2.714   9.515 -0.4747  0.5643  0.2628
 2870SOL    HW120069   3.696   2.768   9.589 -1.5683 -0.3282  1.3242
 2870SOL    HW220070   3.645   2.786   9.456  0.4477  0.3269 -0.3905
 2871SOL     OW20071   0.350   0.652   5.893  0.0499  0.5182 -0.1856
 2871SOL    HW120072   0.274   0.594   5.893 -0.6898  1.5043 -1.2541
 2871SOL    HW220073   0.379   0.640   5.984  0.6364 -0.6543 -0.5182
 2872SOL     OW20074   0.950   3.808   8.272 -0.3931 -0.1482 -0.1728
 2872SOL    HW120075   0.941   3.798   8.177  2.8086 -1.1698 -0.3583
 2872SOL    HW220076   1.017   3.742   8.292  1.1740  2.5845  3.6433
 2873SOL     OW20077   2.123   4.086   0.341  0.0997 -0.6272 -0.2663
 2873SOL    HW120078   2.146   4.119   0.254  0.5726  1.7371  0.7587
 2873SOL    HW220079   2.028   4.099   0.339 -0.2077 -2.7383 -0.1788
 2874SOL     OW20080   0.223   2.105  14.433 -0.4050 -0.5146 -0.1646
 2874SOL    HW120081   0.217   2.013  14.407 -0.9111 -1.0797  1.8804
 2874SOL    HW220082   0.265   2.139  14.354  0.7843  0.0045  0.6914
 2875SOL     OW20083   4.383   0.890   5.703  0.2170 -0.0925  0.0044
 2875SOL    HW120084   4.298   0.934   5.698  0.4023  0.0745 -1.5075
 2875SOL    HW220085   4.428   0.932   5.630  0.7656  0.8023  0.8557
 2876SOL     OW20086   3.207   0.064   5.067 -0.0961  0.0135 -0.2387
 2876SOL    HW120087   3.119   0.090   5.092 -0.1708  0.8962 -1.4200
 2876SOL    HW220088   3.263   0.096   5.138  0.1300 -0.9703  0.0391
 2877SOL     OW20089   4.544   0.480   3.911 -0.1183 -0.1789  0.0356
 2877SOL    HW120090   4.466   0.526   3.942 -1.6033 -2.4253 -0.3902
 2877SOL    HW220091   4.573   0.537   3.839  0.4987 -0.5407 -0.0046
 2878SOL     OW20092   2.824   0.858   6.434  0.1472 -0.5157  0.1574
 2878SOL    HW120093   2.743   0.897   6.401 -0.8338  0.3754  3.6810
 2878SOL    HW220094   2.850   0.920   6.502 -0.4582  0.0038 -0.0835
 2879SOL     OW20095   2.223   0.264   8.440 -0.3542  0.0713 -0.5882
 2879SOL    HW120096   2.229   0.231   8.529 -0.3256 -1.3273 -1.1027
 2879SOL    HW220097   2.136   0.303   8.440 -0.1216  0.5816 -0.6456
 2880SOL     OW20098   2.165   0.606   4.165  0.3087 -0.4260 -0.4010
 2880SOL    HW120099   2.206   0.526   4.131  1.7572 -0.2612  0.9770
 2880SOL    HW220100   2.119   0.632   4.085  0.3234 -0.5623 -0.4541
 2881SOL     OW20101   2.412   0.840   8.812  0.9228 -0.2314  0.5579
 2881SOL    HW120102   2.424   0.787   8.891  0.0637 -0.1661  0.7320
 2881SOL    HW220103   2.321   0.815   8.795  1.4732 -1.5813 -0.4638
 2882SOL     OW20104   0.718   0.334  14.403  0.6020 -0.6671  0.3606
 2882SOL    HW120105   0.661   0.291  14.339  1.6421  0.0335 -1.0294
 2882SOL    HW220106   0.664   0.331  14.482 -1.2847  1.4090 -0.8342
 2883SOL     OW20107   1.426   1.999   4.163  0.6320 -0.7104  0.0084
 2883SOL    HW120108   1.475   2.001   4.081 -1.3633 -0.7706 -1.1938
 2883SOL    HW220109   1.455   2.085   4.192 -0.0074 -0.4477 -0.1177
 2884SOL     OW20110   3.930   2.198   2.972  0.5082 -0.0063 -0.4839
 2884SOL    HW120111   3.986   2.151   2.911  1.1637 -1.7030  1.4165
 2884SOL    HW220112   3.887   2.249   2.904 -0.3189  0.3290  0.2966
 2885SOL     OW20113   0.140   1.126   6.086 -0.4212 -0.0986 -0.0187
 2885SOL    HW120114   0.177   1.059   6.028  1.6294 -0.5541  1.8336
 2885SOL    HW220115   0.046   1.108   6.077 -0.0379 -0.8556 -2.4357
 2886SOL     OW20116   1.205   3.429   6.943 -0.2822  0.1642  0.4841
 2886SOL    HW120117   1.233   3.351   6.991  2.7858  0.6832 -0.4207
 2886SOL    HW220118   1.265   3.489   6.987  0.4574  2.2288 -3.3158
 2887SOL     OW20119   3.849   0.285   8.658 -0.0884 -0.3282  0.0441
 2887SOL    HW120120   3.877   0.375   8.674 -0.5428 -0.1387 -0.2177
 2887SOL    HW220121   3.772   0.300   8.603  0.6121  0.0492 -0.8464
 2888SOL     OW20122   0.742   1.079  12.321 -0.4833 -0.4187 -0.1571
 2888SOL    HW120123   0.734   1.147  12.254 -0.4542  0.0435  0.3119
 2888SOL    HW220124   0.731   1.124  12.405 -0.8363 -0.9861  0.1007
 2889SOL     OW20125   1.549   2.949   4.272 -0.2561 -0.2889 -0.0194
 2889SOL    HW120126   1.555   2.883   4.341  4.1081  2.1803  1.9520
 2889SOL    HW220127   1.570   2.893   4.197 -0.1213 -0.4511  0.1421
 2890SOL     OW20128   0.364   0.147   4.605  0.4950  0.1058 -0.9053
 2890SOL    HW120129   0.452   0.168   4.637  0.6087 -0.7790 -0.6329
 2890SOL    HW220130   0.371   0.188   4.519 -0.5626  0.0495 -1.0232
 2891SOL     OW20131   0.152   2.359  11.005  0.2779 -0.2110  0.0804
 2891SOL    HW120132   0.178   2.273  10.972 -1.0901 -1.6801  2.8430
 2891SOL    HW220133   0.071   2.327  11.045 -1.9737  3.0760 -1.8933
 2892SOL     OW20134   3.269   2.287   5.074 -0.5551  0.3257  0.5896
 2892SOL    HW120135   3.203   2.220   5.063  0.1099  0.0578 -1.7481
 2892SOL    HW220136   3.237   2.367   5.033  0.2631  0.4656  0.2089
 2893SOL     OW20137   4.098   0.147   4.599 -0.4513  0.1690  0.2941
 2893SOL    HW120138   4.145   0.230   4.590 -1.2385  0.6233  0.3394
 2893SOL    HW220139   4.095   0.147   4.695  0.9559  0.6431  0.3456
 2894SOL     OW20140   2.721   0.094  15.038  0.1642  0.2996  0.0055
 2894SOL    HW120141   2.718   0.088  14.942  0.7774 -3.4313  0.2138
 2894SOL    HW220142   2.742   0.001  15.051  0.3259  0.3135 -0.1612
 2895SOL     OW20143   2.568   1.565  11.693 -0.4826 -0.5444 -0.1710
 2895SOL    HW120144   2.606   1.582  11.607  1.8336  1.1174  1.1746
 2895SOL    HW220145   2.479   1.551  11.660 -0.0635  1.5143 -2.1407
 2896SOL     OW20146   1.466   4.285   9.249  0.5272  0.0643 -0.3395
 2896SOL    HW120147   1.507   4.207   9.211  1.4825  0.0043  0.8037
 2896SOL    HW220148   1.508   4.281   9.335 -0.1169  1.0930  0.0252
 2897SOL     OW20149   3.590   1.982  10.057  0.4686  0.0596  0.1421
 2897SOL    HW120150   3.582   2.068  10.017  1.5205  0.0753 -0.0357
 2897SOL    HW220151   3.681   1.974  10.085  0.2597 -4.1014 -0.2937
 2898SOL     OW20152   3.650   2.882   1.420 -0.6775  0.1409 -0.3588
 2898SOL    HW120153   3.582   2.824   1.386  1.7070 -2.2488 -1.0595
 2898SOL    HW220154   3.628   2.877   1.513 -1.1075  0.1292 -0.4584
 2899SOL     OW20155   0.887   1.698  10.327  0.2755  0.0391 -0.1958
 2899SOL    HW120156   0.855   1.636  10.393 -0.5698  0.8765  0.1797
 2899SOL    HW220157   0.977   1.703  10.357  0.6849  1.6822 -1.6970
 2900SOL     OW20158   1.224   3.901  14.926 -0.5043 -0.5720 -0.3731
 2900SOL    HW120159   1.135   3.938  14.922  0.4353  1.8010  0.7337
 2900SOL    HW220160   1.246   3.907  14.833  0.5834  0.7843 -0.0212
 2901SOL     OW20161   0.820   1.935   8.705  0.0621  0.1645 -0.0324
 2901SOL    HW120162   0.737   1.976   8.680 -1.2885 -2.4851  0.0865
 2901SOL    HW220163   0.790   1.844   8.714 -1.1949  0.7488  1.6002
 2902SOL     OW20164   0.936   1.673   5.882  1.2824  0.4155 -0.0784
 2902SOL    HW120165   0.905   1.591   5.919  1.4085  1.0254  1.3955
 2902SOL    HW220166   1.019   1.694   5.926  2.3962 -3.1748 -0.4997
 2903SOL     OW20167   1.386   3.721  17.397 -0.2059  0.5046 -0.2529
 2903SOL    HW120168   1.467   3.701  17.349  0.3253  1.4130  0.2640
 2903SOL    HW220169   1.405   3.795  17.453  0.6320  1.0172 -1.2119
 2904SOL     OW20170   2.261   2.509  12.648 -0.0449 -0.2339  0.2071
 2904SOL    HW120171   2.346   2.469  12.631 -0.3082  0.0499 -1.7956
 2904SOL    HW220172   2.269   2.603  12.637  0.1281 -0.4331 -1.3293
 2905SOL     OW20173   3.401   2.905   3.336  0.2592  0.7529  0.0162
 2905SOL    HW120174   3.379   2.819   3.371 -0.6661  0.6108 -0.9072
 2905SOL    HW220175   3.323   2.934   3.288  0.0181 -1.5136 -0.9725
 2906SOL     OW20176   2.206   4.564   8.103 -0.1083 -0.3208  0.2416
 2906SOL    HW120177   2.231   4.640   8.155  0.2462  0.0699 -0.4874
 2906SOL    HW220178   2.124   4.601   8.070  0.6148  0.8700 -0.2579
 2907SOL     OW20179   0.767   0.452   5.400  0.0478  0.3716 -0.2468
 2907SOL    HW120180   0.793   0.449   5.492 -1.2694  1.6987  0.1775
 2907SOL    HW220181   0.829   0.389   5.363 -0.7888  0.2395 -1.4126
 2908SOL     OW20182   3.170   4.675   9.147  0.0963  0.3912  0.2333
 2908SOL    HW120183   3.170   0.036   9.100  3.3232  0.7780  0.8596
 2908SOL    HW220184   3.077   4.657   9.141 -0.2631  2.2108  0.1159
 2909SOL     OW20185   0.651   4.364   8.189 -0.4588  0.3498  0.0838
 2909SOL    HW120186   0.627   4.284   8.142 -2.2014  0.5540  0.6146
 2909SOL    HW220187   0.747   4.361   8.189 -0.4558  0.4576 -0.2738
 2910SOL     OW20188   4.115   0.404   2.682 -0.4274  0.2276 -0.6559
 2910SOL    HW120189   4.170   0.478   2.655  2.3325 -1.7019 -0.2963
 2910SOL    HW220190   4.143   0.330   2.628 -1.9742 -0.3535 -0.6382
 2911SOL     OW20191   1.088   0.560   6.502  0.2274 -0.3545 -0.3164
 2911SOL    HW120192   1.062   0.477   6.542  0.8934 -0.7923 -0.7953
 2911SOL    HW220193   1.043   0.569   6.418  0.8070  2.8142 -0.2837
 2912SOL     OW20194   0.116   4.357   2.427  0.0064  0.2260  0.0124
 2912SOL    HW120195   0.057   4.398   2.363  0.3760  0.4578 -0.1857
 2912SOL    HW220196   0.070   4.378   2.508  0.6886 -1.5623  0.8570
 2913SOL     OW20197   0.948   2.892   8.291 -0.3331  0.9519  0.3335
 2913SOL    HW120198   1.006   2.824   8.253  0.6709  0.0525  3.4794
 2913SOL    HW220199   1.004   2.968   8.275  0.6420  1.0390  4.2036
 2914SOL     OW20200   1.051   4.702   0.884 -0.2317 -0.6723 -0.3320
 2914SOL    HW120201   1.077   4.664   0.968 -0.3352  2.1686  0.9784
 2914SOL    HW220202   1.013   0.061   0.917  1.9805  0.2836 -0.1440
 2915SOL     OW20203   1.699   4.640   1.898  0.0754 -0.1062 -0.3382
 2915SOL    HW120204   1.617   4.593   1.913 -1.1438  2.9610  2.9578
 2915SOL    HW220205   1.676   4.706   1.832 -2.6141  0.2071  0.8918
 2916SOL     OW20206   4.105   2.692   5.317  0.0971 -0.1747 -0.3164
 2916SOL    HW120207   4.102   2.596   5.310  0.4593 -0.1223 -1.1064
 2916SOL    HW220208   4.194   2.712   5.346  0.3237 -2.0032  0.2584
 2917SOL     OW20209   2.588   0.899   6.029  0.8401 -0.1502 -0.2025
 2917SOL    HW120210   2.527   0.898   5.956 -1.4040  0.8798  1.6949
 2917SOL    HW220211   2.568   0.991   6.044  1.3255 -0.4759  2.5355
 2918SOL     OW20212   2.392   3.003  11.454 -0.2130  0.2055  0.1944
 2918SOL    HW120213   2.371   3.033  11.366  3.4069  1.1324 -0.3212
 2918SOL    HW220214   2.451   2.929  11.438 -1.1879 -0.1887 -1.5826
 2919SOL     OW20215   0.683   0.893   6.438  0.3530 -0.3228  0.0025
 2919SOL    HW120216   0.762   0.947   6.437  0.7453 -0.8762  1.4113
 2919SOL    HW220217   0.686   0.851   6.352 -1.2911 -0.2908 -0.0546
 2920SOL     OW20218   0.154   0.622   1.910  0.1067 -0.5172  0.2287
 2920SOL    HW120219   0.189   0.533   1.910  2.3280  0.3530 -0.6160
 2920SOL    HW220220   0.208   0.665   1.977  0.1069 -0.0347 -0.0878
 2921SOL     OW20221   0.422   2.942  14.246  0.4700 -0.0941 -0.0591
 2921SOL    HW120222   0.434   3.001  14.171 -0.0515 -0.3896 -0.3741
 2921SOL    HW220223   0.395   3.004  14.313 -2.2003 -2.1180  0.7283
 2922SOL     OW20224   3.696   4.293   7.436  0.7948  0.4013 -0.3085
 2922SOL    HW120225   3.622   4.246   7.476  1.1490 -1.2391 -1.5785
 2922SOL    HW220226   3.702   4.361   7.503 -1.4579 -2.5152  2.8947
 2923SOL     OW20227   3.581   1.648   2.089 -0.0778 -0.0783  0.0632
 2923SOL    HW120228   3.613   1.575   2.037 -1.8534  1.0940 -2.6969
 2923SOL    HW220229   3.550   1.690   2.009  0.5894 -1.8150 -1.1091
 2924SOL     OW20230   3.881   0.728   5.630  0.1783 -0.2730  0.2735
 2924SOL    HW120231   3.953   0.685   5.676 -0.5116 -1.1451  0.5301
 2924SOL    HW220232   3.931   0.750   5.551  0.1553  1.2944  0.6979
 2925SOL     OW20233   1.032   3.884   2.290 -0.0247  0.0765 -0.1141
 2925SOL    HW120234   1.108   3.931   2.325 -1.9382  2.4877  0.7340
 2925SOL    HW220235   1.055   3.791   2.293 -3.0126 -0.7093 -2.1857
 2926SOL     OW20236   3.339   1.505  11.094  0.7826  0.4157  0.0144
 2926SOL    HW120237   3.317   1.447  11.166  0.4148 -0.0225 -0.4576
 2926SOL    HW220238   3.357   1.439  11.028  1.8457  0.5678  0.1500
 2927SOL     OW20239   1.782   4.212   9.803 -0.3755  0.6276  0.4128
 2927SOL    HW120240   1.804   4.265   9.880 -1.1189 -1.4889  2.0867
 2927SOL    HW220241   1.787   4.277   9.733  1.6176 -1.9684 -1.8194
 2928SOL     OW20242   3.327   3.019  13.776 -0.1563  0.2070 -0.1634
 2928SOL    HW120243   3.277   2.938  13.773  1.3557 -0.6906 -0.8088
 2928SOL    HW220244   3.266   3.088  13.749 -1.1845 -0.5559  0.1994
 2929SOL     OW20245   2.569   3.127   8.739  0.1158 -0.3649 -0.3567
 2929SOL    HW120246   2.542   3.058   8.678 -1.4204 -1.9530  2.1064
 2929SOL    HW220247   2.500   3.122   8.806  1.5837 -1.7980  1.0247
 2930SOL     OW20248   0.417   4.316   5.333  0.0963  0.1553 -0.5260
 2930SOL    HW120249   0.410   4.391   5.393  0.9245 -1.0280  1.0317
 2930SOL    HW220250   0.511   4.318   5.316  0.4571 -2.8889  1.0470
 2931SOL     OW20251   3.237   1.192  10.780 -0.1657 -0.8244 -0.0456
 2931SOL    HW120252   3.300   1.120  10.789 -1.5565 -2.0206  0.0396
 2931SOL    HW220253   3.298   1.261  10.807  0.0846 -0.5982 -1.2069
 2932SOL     OW20254   4.300   0.039   7.947  0.0696 -0.5233  0.3768
 2932SOL    HW120255   4.224   0.070   7.997 -1.5352 -0.4398 -2.1371
 2932SOL    HW220256   4.269   4.674   7.923  0.0428  0.2352 -2.3615
 2933SOL     OW20257   1.112   0.553   5.411 -0.0278  0.9550  0.8398
 2933SOL    HW120258   1.121   0.473   5.463  1.5332  0.5749 -0.0261
 2933SOL    HW220259   1.044   0.599   5.461 -2.6440 -0.9870 -0.9373
 2934SOL     OW20260   3.632   2.454   6.186  0.4337 -0.2574  0.2660
 2934SOL    HW120261   3.544   2.491   6.184 -0.0500 -1.3218  2.0463
 2934SOL    HW220262   3.661   2.485   6.272  0.6754  0.0714  0.0700
 2935SOL     OW20263   0.927   1.851   0.018 -0.3276  0.2587 -0.2986
 2935SOL    HW120264   0.941   1.757   0.032  1.5830  0.4279 -1.1174
 2935SOL    HW220265   0.911   1.868   0.111  0.9277 -0.3633  0.0316
 2936SOL     OW20266   4.298   4.045   1.308  0.1113 -0.4426 -0.2770
 2936SOL    HW120267   4.208   4.071   1.324  0.8672  1.5213  0.7102
 2936SOL    HW220268   4.285   3.998   1.225 -0.0407 -0.4493 -0.2495
 2937SOL     OW20269   4.515   3.824   4.984 -0.2251  0.2628  0.3385
 2937SOL    HW120270   4.599   3.794   5.021 -0.1891  1.4588  1.2211
 2937SOL    HW220271   4.473   3.883   5.047 -1.7416 -0.8175  0.3346
 2938SOL     OW20272   0.328   2.605  12.419  0.5941 -0.6257  0.3196
 2938SOL    HW120273   0.417   2.640  12.414  0.1746  0.5852  1.0983
 2938SOL    HW220274   0.334   2.536  12.354 -0.0105 -0.6694  0.3102
 2939SOL     OW20275   0.071   3.433  11.748 -0.7770 -0.4427 -0.4220
 2939SOL    HW120276   0.023   3.508  11.713  1.0816 -0.3185 -2.7674
 2939SOL    HW220277   0.153   3.421  11.699 -0.1481 -1.0044  0.7669
 2940SOL     OW20278   3.707   0.746   1.088  0.4780  0.0246 -0.1864
 2940SOL    HW120279   3.787   0.712   1.049  0.1098 -0.8807 -0.1608
 2940SOL    HW220280   3.688   0.687   1.160  0.7348  0.4708  0.2476
 2941SOL     OW20281   2.137   1.520   2.251  0.5445  0.9340 -0.2721
 2941SOL    HW120282   2.067   1.477   2.299 -0.4941  0.1617 -2.4624
 2941SOL    HW220283   2.094   1.561   2.175  0.9591  1.9458  0.0394
 2942SOL     OW20284   0.525   0.938  15.055  0.3220 -0.2193 -0.2009
 2942SOL    HW120285   0.491   1.002  15.117 -1.5592  0.3999 -1.8455
 2942SOL    HW220286   0.592   0.987  15.008 -0.4005 -0.7709 -1.8197
 2943SOL     OW20287   1.231   0.577   2.512 -0.6086 -1.1436 -0.1508
 2943SOL    HW120288   1.241   0.562   2.606 -0.5291  0.2892  0.0755
 2943SOL    HW220289   1.316   0.618   2.496 -0.3519 -0.8545  1.9137
 2944SOL     OW20290   3.959   3.696   3.577  0.3419  0.7932 -0.1499
 2944SOL    HW120291   3.903   3.724   3.649 -2.1540 -1.4701 -1.2228
 2944SOL    HW220292   3.902   3.643   3.522  0.0599  3.7495 -2.6791
 2945SOL     OW20293   2.972   0.615   8.323  0.4004 -0.3491 -0.2710
 2945SOL    HW120294   2.908   0.575   8.263 -0.2384 -2.2706  1.6873
 2945SOL    HW220295   2.938   0.579   8.405 -0.7997 -3.2140 -1.9929
 2946SOL     OW20296   1.705   0.279   2.230  0.6424  0.4794 -0.0397
 2946SOL    HW120297   1.781   0.324   2.265 -0.1750  1.1052  0.9227
 2946SOL    HW220298   1.734   0.211   2.169 -0.9499 -1.2244  1.0746
 2947SOL     OW20299   1.517   1.052  14.512  0.2101 -0.4873 -0.2780
 2947SOL    HW120300   1.545   1.041  14.422 -0.9196 -2.8229 -0.3496
 2947SOL    HW220301   1.498   1.146  14.508  2.8734  0.0797  0.1985
 2948SOL     OW20302   0.792   2.707   8.713 -0.3476  1.2308 -0.1806
 2948SOL    HW120303   0.701   2.684   8.695 -0.1568  0.1335  0.2452
 2948SOL    HW220304   0.836   2.679   8.633  0.1269 -1.5157  1.0420
 2949SOL     OW20305   1.900   0.485  11.603  0.1875 -0.0654 -0.2067
 2949SOL    HW120306   1.972   0.465  11.662 -1.4620  0.5791  2.0622
 2949SOL    HW220307   1.830   0.505  11.666  1.0119  1.0887  0.3356
 2950SOL     OW20308   1.741   3.225  12.780  0.2665 -0.1069  0.2110
 2950SOL    HW120309   1.827   3.246  12.815  0.5934 -0.2126 -0.5381
 2950SOL    HW220310   1.690   3.236  12.860  3.3400 -1.0128  2.2839
 2951SOL     OW20311   4.131   1.599   3.583  0.0823  0.0508  0.3158
 2951SOL    HW120312   4.097   1.525   3.634  0.0150  0.1138  0.3617
 2951SOL    HW220313   4.166   1.552   3.508 -0.3005 -1.3227  0.9832
 2952SOL     OW20314   2.985   3.238   5.430 -0.3819 -0.3374 -0.6514
 2952SOL    HW120315   2.966   3.330   5.447  0.9622  0.4069 -3.2726
 2952SOL    HW220316   2.902   3.198   5.455  0.1595 -0.5239  0.8864
 2953SOL     OW20317   2.219   1.487  13.090 -0.4317  0.4796  0.5007
 2953SOL    HW120318   2.272   1.516  13.165  1.0116 -1.2378  0.1379
 2953SOL    HW220319   2.283   1.489  13.019  0.1072 -0.3908  0.9604
 2954SOL     OW20320   1.153   4.467  12.028  0.0660 -0.1844  0.2541
 2954SOL    HW120321   1.107   4.550  12.040 -1.2917 -0.5670 -2.3768
 2954SOL    HW220322   1.175   4.455  12.120  2.7052 -1.5373 -0.5455
 2955SOL     OW20323   2.387   1.550   8.810  0.0017  0.3701 -0.1430
 2955SOL    HW120324   2.333   1.596   8.747  0.7592  0.5487 -0.6636
 2955SOL    HW220325   2.438   1.506   8.742 -0.6315  0.0396 -0.4045
 2956SOL     OW20326   0.480   1.969   8.185  0.5090  0.6159 -0.2865
 2956SOL    HW120327   0.393   2.010   8.184 -0.6898 -1.8994  0.7121
 2956SOL    HW220328   0.481   1.907   8.258 -0.0011  0.3442 -0.5074
 2957SOL     OW20329   4.227   2.453   5.139 -0.0554  0.6162 -0.5671
 2957SOL    HW120330   4.211   2.361   5.120 -0.3050  0.2675  1.3189
 2957SOL    HW220331   4.277   2.445   5.220  0.9224 -3.0125 -1.5281
 2958SOL     OW20332   3.229   3.093   3.186 -0.7800  0.2552  0.3897
 2958SOL    HW120333   3.204   3.164   3.245 -1.9101 -0.4058  0.7020
 2958SOL    HW220334   3.146   3.087   3.139  0.1899 -1.7452 -1.0730
 2959SOL     OW20335   4.185   4.102   7.891 -0.7944 -0.2181  0.0548
 2959SOL    HW120336   4.188   4.138   7.980 -0.1879  3.3046 -1.4112
 2959SOL    HW220337   4.163   4.185   7.850 -0.0914  0.2363  0.5729
 2960SOL     OW20338   2.761   3.070   5.225 -0.0870  0.1898 -0.2446
 2960SOL    HW120339   2.839   3.076   5.169 -0.0680  1.6746 -0.0569
 2960SOL    HW220340   2.712   3.138   5.180 -0.3191 -0.1448 -0.4999
 2961SOL     OW20341   3.828   3.941  16.196 -0.2607  0.6872  0.1760
 2961SOL    HW120342   3.767   4.014  16.211  1.1159  1.6951  0.8745
 2961SOL    HW220343   3.903   3.989  16.161 -1.0625  1.4806 -0.4741
 2962SOL     OW20344   1.375   2.244   1.111  0.2242 -0.1425  0.1488
 2962SOL    HW120345   1.411   2.211   1.029 -2.6292  1.2054 -1.6534
 2962SOL    HW220346   1.395   2.338   1.110 -0.9804  0.1252  0.1246
 2963SOL     OW20347   1.941   1.820   6.103  0.5569  0.2862  0.2206
 2963SOL    HW120348   1.883   1.882   6.146  0.8907  0.8291 -0.1171
 2963SOL    HW220349   1.874   1.759   6.073 -0.0586  0.5343  1.0969
 2964SOL     OW20350   2.620   4.017   4.351 -0.1601 -0.3064 -0.1576
 2964SOL    HW120351   2.672   3.950   4.396 -0.0749  0.0453  0.2674
 2964SOL    HW220352   2.586   4.062   4.429  1.1571 -1.6462  1.2001
 2965SOL     OW20353   2.729   3.251   6.316  0.7103 -0.3202 -0.5631
 2965SOL    HW120354   2.756   3.309   6.387  1.2049  0.6045 -1.5211
 2965SOL    HW220355   2.712   3.308   6.241  0.0793  1.2540  0.7846
 2966SOL     OW20356   3.230   0.098  15.858  0.3352 -0.1735 -0.2102
 2966SOL    HW120357   3.293   0.170  15.857 -0.0424  0.1382 -6.1472
 2966SOL    HW220358   3.153   0.153  15.845  0.9387  1.0848  1.5130
 2967SOL     OW20359   1.129   2.298   0.074  0.3315  0.4290 -0.1069
 2967SOL    HW120360   1.168   2.211   0.062  0.3519  0.5943 -1.2397
 2967SOL    HW220361   1.040   2.289   0.039  0.5865  0.4792 -0.7701
 2968SOL     OW20362   4.202   2.552  11.037 -0.2889  0.2772  0.0488
 2968SOL    HW120363   4.130   2.542  10.974 -0.2318 -0.8446  0.1581
 2968SOL    HW220364   4.261   2.492  10.993 -0.1253 -0.4089  1.1984
 2969SOL     OW20365   4.233   1.493   5.059 -0.2756 -0.8078  0.1689
 2969SOL    HW120366   4.143   1.463   5.054  0.4195 -2.8115 -0.4010
 2969SOL    HW220367   4.248   1.535   4.974 -0.3163 -0.3802  0.3694
 2970SOL     OW20368   1.406   1.106  16.587 -0.1038  0.2738  0.3388
 2970SOL    HW120369   1.400   1.142  16.498 -1.9334 -1.1534 -0.1376
 2970SOL    HW220370   1.344   1.033  16.576  0.2922  0.2730 -2.0402
 2971SOL     OW20371   1.810   3.349   5.763 -0.4137  0.0660 -0.5839
 2971SOL    HW120372   1.730   3.324   5.717 -1.4792  1.1317  0.6762
 2971SOL    HW220373   1.788   3.430   5.809 -2.2135 -2.0649  2.3289
 2972SOL     OW20374   3.255   0.879   8.734 -0.3807 -0.2157  0.5695
 2972SOL    HW120375   3.258   0.954   8.675 -0.4317  0.1904  1.0801
 2972SOL    HW220376   3.250   0.921   8.820 -0.8636 -0.2677  0.5626
 2973SOL     OW20377   3.069   3.149   9.146  0.5062 -0.4689 -0.3667
 2973SOL    HW120378   3.111   3.228   9.178 -0.2708 -0.5123  0.7591
 2973SOL    HW220379   3.127   3.109   9.081  0.7408 -0.9768  0.1535
 2974SOL     OW20380   0.702   4.363   6.254  0.2989 -0.2667 -0.5790
 2974SOL    HW120381   0.647   4.441   6.250 -0.6659 -0.9450 -0.3696
 2974SOL    HW220382   0.783   4.397   6.215  0.4838 -0.0508 -0.0100
 2975SOL     OW20383   3.747   2.434   3.255  0.2059 -0.1964  0.6265
 2975SOL    HW120384   3.717   2.494   3.186  0.1227  1.3840  2.0294
 2975SOL    HW220385   3.691   2.460   3.328 -1.7816  1.0666 -1.3589
 2976SOL     OW20386   2.872   3.112   6.960  0.2304  0.0700  0.2319
 2976SOL    HW120387   2.851   3.194   7.005  3.0829  0.8342  0.2244
 2976SOL    HW220388   2.862   3.056   7.037  1.9066 -1.3981 -0.6212
 2977SOL     OW20389   1.008   0.854   5.127  0.2772 -0.3511 -0.1090
 2977SOL    HW120390   1.033   0.789   5.061  1.9746  0.2367 -0.0222
 2977SOL    HW220391   0.926   0.883   5.086  0.1498 -0.4384  0.0795
 2978SOL     OW20392   0.383   2.725   7.915  0.7127  0.2879 -0.1218
 2978SOL    HW120393   0.360   2.665   7.987  1.9337 -0.7161 -0.5762
 2978SOL    HW220394   0.468   2.687   7.894  1.3983  0.3935  2.3832
 2979SOL     OW20395   3.067   4.402   3.833 -0.0162 -0.0700 -0.6248
 2979SOL    HW120396   3.012   4.449   3.771 -0.8666  1.7027  1.4525
 2979SOL    HW220397   3.036   4.440   3.916  2.0553 -0.2958  0.2601
 2980SOL     OW20398   3.129   0.682   7.495  0.0809  0.6492  0.3517
 2980SOL    HW120399   3.180   0.756   7.462 -1.6114  1.6533  0.0075
 2980SOL    HW220400   3.137   0.612   7.431 -0.1682 -0.4072  1.4713
 2981SOL     OW20401   1.027   0.110   3.749 -0.2310 -0.2040  0.6216
 2981SOL    HW120402   1.040   0.200   3.720 -0.0158 -1.2087 -2.3959
 2981SOL    HW220403   1.104   0.091   3.803  1.6492 -0.6369 -2.2209
 2982SOL     OW20404   4.518   2.992  17.016 -0.3820  0.4914 -0.0714
 2982SOL    HW120405   4.563   3.031  17.091 -0.1127  1.6045 -0.8140
 2982SOL    HW220406   4.572   2.915  16.997 -0.2039  0.4341  0.6394
 2983SOL     OW20407   3.463   1.918   5.235 -0.0392  0.3758 -0.5613
 2983SOL    HW120408   3.394   1.891   5.175 -0.4855  0.5827 -0.1396
 2983SOL    HW220409   3.489   1.829   5.260  1.5103  0.7867 -0.6947
 2984SOL     OW20410   3.021   0.481   8.654 -0.0431 -0.8307 -0.3582
 2984SOL    HW120411   3.011   0.558   8.709  1.4919 -0.8486 -0.0312
 2984SOL    HW220412   3.098   0.513   8.606 -0.8354 -0.9275 -1.6947
 2985SOL     OW20413   0.108   2.731   0.110 -0.2170 -0.0440 -0.5824
 2985SOL    HW120414   0.156   2.648   0.100 -1.6518 -0.8023 -1.1307
 2985SOL    HW220415   0.017   2.713   0.090 -0.4927  1.2939 -0.4843
 2986SOL     OW20416   4.167   4.138  14.088  1.0771 -0.4121  0.6108
 2986SOL    HW120417   4.117   4.219  14.100 -0.1139 -0.9357 -1.0194
 2986SOL    HW220418   4.175   4.116  14.181 -0.8037  2.4096  1.4219
 2987SOL     OW20419   0.108   3.338  12.003 -0.5217 -0.2394  0.8201
 2987SOL    HW120420   0.078   3.252  12.030 -3.4310 -0.4360 -3.0088
 2987SOL    HW220421   0.054   3.351  11.925  1.0585  0.5497 -0.1401
 2988SOL     OW20422   0.159   0.925   4.242 -0.0082  0.5853 -0.0500
 2988SOL    HW120423   0.232   0.910   4.303  0.6268 -0.4908 -1.0782
 2988SOL    HW220424   0.120   0.837   4.238  0.0160  0.5224  1.0654
 2989SOL     OW20425   1.510   3.823   3.194  0.1728 -0.2880  0.1711
 2989SOL    HW120426   1.517   3.797   3.102 -0.1280  4.3720 -1.1975
 2989SOL    HW220427   1.549   3.910   3.202  0.8337 -0.3118 -2.8288
 2990SOL     OW20428   4.370   2.045   9.939  0.8088 -0.2058  0.1505
 2990SOL    HW120429   4.464   2.047   9.926  0.9816  3.2690  1.9140
 2990SOL    HW220430   4.356   1.951   9.928  0.4983 -0.0968 -0.3895
 2991SOL     OW20431   0.360   1.423   7.489 -0.0497  0.2439 -0.1612
 2991SOL    HW120432   0.427   1.489   7.466  0.3769  0.9120  3.0069
 2991SOL    HW220433   0.294   1.471   7.539  0.7822 -0.5400  1.7024
 2992SOL     OW20434   1.975   1.517   4.020  0.4565  0.2487  0.2776
 2992SOL    HW120435   1.919   1.534   4.096 -0.1003 -3.3558  0.6856
 2992SOL    HW220436   1.961   1.424   4.002  0.1214 -0.2626  3.1501
 2993SOL     OW20437   2.055   2.451  11.062 -0.8615 -0.2601  0.1549
 2993SOL    HW120438   2.116   2.444  10.989 -1.2530  0.1899 -0.2217
 2993SOL    HW220439   1.986   2.500  11.017 -0.4304 -0.2686 -0.5148
 2994SOL     OW20440   4.180   3.185   5.020 -0.0034 -0.1879  0.0052
 2994SOL    HW120441   4.259   3.155   5.065  0.4013  1.6456  0.5124
 2994SOL    HW220442   4.126   3.108   5.039  2.8152 -2.1584  0.0001
 2995SOL     OW20443   0.698   3.213   4.164 -0.1777  0.3061 -0.5847
 2995SOL    HW120444   0.689   3.287   4.104 -0.5629 -0.7137 -1.7883
 2995SOL    HW220445   0.775   3.235   4.216 -0.3976  0.3355 -0.2751
 2996SOL     OW20446   1.826   0.302   3.705 -0.1009  0.0106 -0.6550
 2996SOL    HW120447   1.742   0.309   3.751  0.4626 -1.0840  0.5337
 2996SOL    HW220448   1.883   0.354   3.761 -1.2255  2.2412 -1.6127
 2997SOL     OW20449   3.898   2.352  13.722 -0.2471 -0.0751 -0.1890
 2997SOL    HW120450   3.979   2.300  13.717  0.1696  0.5849 -0.2811
 2997SOL    HW220451   3.863   2.331  13.809 -0.5900  0.0530 -0.2995
 2998SOL     OW20452   4.513   4.559   8.477 -0.1110  0.1298  0.3416
 2998SOL    HW120453   4.528   4.620   8.549 -1.1483  3.3883 -2.2162
 2998SOL    HW220454   4.446   4.501   8.514 -1.5552  1.1375 -0.7005
 2999SOL     OW20455   2.227   4.237   3.945  0.0414  0.2742 -0.0689
 2999SOL    HW120456   2.165   4.223   4.016 -0.7991  0.7599 -0.7000
 2999SOL    HW220457   2.213   4.161   3.888 -2.5734  1.4034 -0.9773
 3000SOL     OW20458   0.867   4.607   7.333 -0.5688 -0.4099 -0.0534
 3000SOL    HW120459   0.861   4.701   7.350  0.8624 -0.2808 -0.2781
 3000SOL    HW220460   0.797   4.567   7.384 -0.2223  1.0337  1.5570
 3001SOL     OW20461   3.352   2.674  11.401  0.0768 -0.2569 -0.0937
 3001SOL    HW120462   3.342   2.610  11.472 -1.4287 -0.7679 -0.7670
 3001SOL    HW220463   3.442   2.660  11.371 -0.4760  0.9695 -2.2871
 3002SOL     OW20464   4.043   4.482   2.952  0.2662 -0.3682 -0.2539
 3002SOL    HW120465   3.974   4.510   2.891  0.3153  1.0695  0.3573
 3002SOL    HW220466   4.115   4.506   2.894 -1.3524  0.7865 -1.8076
 3003SOL     OW20467   0.164   2.824   6.986 -0.0096  0.2331  0.0346
 3003SOL    HW120468   0.086   2.825   7.041  0.1632 -1.1449  0.3148
 3003SOL    HW220469   0.204   2.743   7.017 -0.9131 -0.7810 -1.4537
 3004SOL     OW20470   4.306   0.034   2.581  0.3817 -0.0014 -0.1202
 3004SOL    HW120471   4.371   0.059   2.647  0.3625  2.1457 -0.9080
 3004SOL    HW220472   4.276   0.121   2.554 -1.5823 -0.8435 -0.6279
 3005SOL     OW20473   3.140   1.634   0.117 -0.1662  0.1678  0.6176
 3005SOL    HW120474   3.076   1.580   0.071 -0.2215  0.9455 -0.2118
 3005SOL    HW220475   3.215   1.577   0.135  1.1867  0.9463 -2.5942
 3006SOL     OW20476   1.332   1.959  17.240  0.0015 -0.4700 -0.4238
 3006SOL    HW120477   1.343   2.016  17.164 -0.7433 -1.2224 -1.0983
 3006SOL    HW220478   1.275   2.009  17.299  0.8848 -1.5256  1.3364
 3007SOL     OW20479   0.412   3.251   3.934  0.0175 -0.1887  0.8245
 3007SOL    HW120480   0.360   3.207   4.002 -0.2927 -0.1899  0.5843
 3007SOL    HW220481   0.370   3.337   3.940  0.3989 -0.0500  1.5985
 3008SOL     OW20482   1.834   2.507   4.095 -0.1041  0.1711  0.1673
 3008SOL    HW120483   1.839   2.414   4.116  1.5631  0.1351 -0.3656
 3008SOL    HW220484   1.840   2.492   4.000 -0.4443  0.4978  0.0981
 3009SOL     OW20485   0.175   4.654   7.281 -0.9368  0.3114  0.0335
 3009SOL    HW120486   0.086   4.682   7.300 -1.0105 -0.9088  1.4183
 3009SOL    HW220487   0.171   4.560   7.301 -1.2482  0.8158  2.3051
 3010SOL     OW20488   1.850   1.010  16.870 -0.2878  0.0127  0.3167
 3010SOL    HW120489   1.847   1.104  16.890 -0.1485 -0.0939  0.8404
 3010SOL    HW220490   1.801   0.984  16.948 -0.8679 -1.2420 -0.4790
 3011SOL     OW20491   4.681   1.116   1.246 -0.2897  0.1255 -0.5354
 3011SOL    HW120492   4.653   1.095   1.156  4.1056 -0.7991 -1.6832
 3011SOL    HW220493   0.001   1.202   1.241  1.0251 -0.5444 -0.8616
 3012SOL     OW20494   0.787   1.141   7.034  0.7631 -0.1501 -0.1233
 3012SOL    HW120495   0.845   1.083   7.084 -0.2374  1.3757  2.8018
 3012SOL    HW220496   0.712   1.144   7.093  1.6667  1.9927  0.8782
 3013SOL     OW20497   2.521   4.376   7.348 -0.0375 -0.6010 -0.2257
 3013SOL    HW120498   2.573   4.384   7.428 -3.1461  1.9329  1.5322
 3013SOL    HW220499   2.433   4.372   7.384 -0.3494  1.2365 -0.7836
 3014SOL     OW20500   2.070   2.449   8.805 -0.0964  0.2409  0.4292
 3014SOL    HW120501   2.158   2.481   8.785 -0.8046  2.1720  0.3991
 3014SOL    HW220502   2.029   2.532   8.828 -0.4000  0.9152 -2.5583
 3015SOL     OW20503   0.127   1.485  17.392 -0.0518  0.0322 -0.1969
 3015SOL    HW120504   0.187   1.556  17.369  0.1257  0.1676  0.6655
 3015SOL    HW220505   0.185   1.425  17.439 -0.6313 -0.1237  0.3215
 3016SOL     OW20506   0.720   3.032   0.827 -0.1532 -1.1408 -0.1287
 3016SOL    HW120507   0.765   3.114   0.807  1.2013 -1.9553 -0.4102
 3016SOL    HW220508   0.681   3.014   0.741  1.1364 -2.2698 -0.4908
 3017SOL     OW20509   2.591   0.533  15.236 -0.2071  0.5667  0.1977
 3017SOL    HW120510   2.671   0.491  15.205 -0.7210 -1.0895  1.0847
 3017SOL    HW220511   2.600   0.529  15.332 -0.1122 -0.7997  0.1445
 3018SOL     OW20512   1.164   0.065   5.453  1.0220 -0.4000 -0.6145
 3018SOL    HW120513   1.194   0.128   5.519  1.8061 -1.7300  0.2929
 3018SOL    HW220514   1.189   4.703   5.491 -1.1569 -0.9205 -0.3691
 3019SOL     OW20515   3.097   0.700   4.692  0.1501 -0.1750 -0.6257
 3019SOL    HW120516   3.169   0.764   4.699 -1.5480  1.6111  0.5059
 3019SOL    HW220517   3.019   0.754   4.707  1.1094  0.6069  1.6892
 3020SOL     OW20518   1.144   4.580  12.618 -0.5119  0.4231 -0.0883
 3020SOL    HW120519   1.107   4.668  12.622  2.3913  1.5328  2.2386
 3020SOL    HW220520   1.118   4.549  12.705 -1.1032 -0.7391 -0.6785
 3021SOL     OW20521   3.885   4.694   5.513  0.3291  0.1017  0.0832
 3021SOL    HW120522   3.969   4.661   5.483 -0.5380 -3.7342  1.8374
 3021SOL    HW220523   3.822   4.677   5.443 -0.3731 -2.7535  1.4107
 3022SOL     OW20524   2.791   2.203   5.002 -0.1145  0.0561  0.2704
 3022SOL    HW120525   2.825   2.263   4.936  0.3504  0.9118  1.2893
 3022SOL    HW220526   2.701   2.233   5.016 -0.0664 -0.1292  1.0056
 3023SOL     OW20527   1.404   1.076   5.264  0.8156 -0.1474  0.0490
 3023SOL    HW120528   1.316   1.114   5.264  0.1450 -1.6975 -1.6295
 3023SOL    HW220529   1.447   1.137   5.324  0.9138 -0.6807  0.5266
 3024SOL     OW20530   2.848   0.942   3.809 -0.2561  0.5370  1.1872
 3024SOL    HW120531   2.783   0.965   3.742  0.5624  3.0253  1.2711
 3024SOL    HW220532   2.926   0.975   3.764  0.2845 -0.2669  1.5279
 3025SOL     OW20533   1.863   1.573   3.213  0.5023  0.2376  0.1878
 3025SOL    HW120534   1.797   1.514   3.178  3.1163 -2.0634 -0.8065
 3025SOL    HW220535   1.878   1.638   3.144 -0.1303  0.3769  0.1794
 3026SOL     OW20536   4.035   0.119   5.148 -0.4647  1.2389 -0.0883
 3026SOL    HW120537   4.118   0.136   5.192 -1.0520 -0.2482  1.5857
 3026SOL    HW220538   3.973   0.161   5.208 -0.2591 -0.8516  1.6110
 3027SOL     OW20539   2.609   1.430   3.495  0.0716 -0.3245  0.4781
 3027SOL    HW120540   2.657   1.413   3.414 -2.1472  1.4567 -1.1966
 3027SOL    HW220541   2.585   1.523   3.488  0.7089 -0.3559 -2.1927
 3028SOL     OW20542   3.184   3.047  15.132 -0.8726  0.1803 -0.3188
 3028SOL    HW120543   3.247   3.096  15.079 -0.1772  0.2502  0.5801
 3028SOL    HW220544   3.208   2.955  15.127  1.3711  0.7011  0.9257
 3029SOL     OW20545   4.363   1.179   6.541  0.4592 -0.6895  0.0246
 3029SOL    HW120546   4.334   1.266   6.514 -0.9793 -0.8906  0.8852
 3029SOL    HW220547   4.372   1.130   6.459  0.7500 -1.4287  0.5043
 3030SOL     OW20548   2.133   0.164   4.969  0.3126 -0.0341  0.2626
 3030SOL    HW120549   2.131   0.104   5.044  0.6394  0.1715  0.4340
 3030SOL    HW220550   2.084   0.239   5.004 -0.5254 -0.8932  0.9440
 3031SOL     OW20551   2.695   3.619   4.251  0.1463 -0.0111  0.0091
 3031SOL    HW120552   2.705   3.655   4.162  4.0635 -0.0139  0.4406
 3031SOL    HW220553   2.754   3.544   4.252  0.1026 -0.0621 -1.5791
 3032SOL     OW20554   0.651   2.232   9.923 -0.1796 -0.1373 -0.0028
 3032SOL    HW120555   0.636   2.252  10.016 -1.6086 -1.8470  0.1403
 3032SOL    HW220556   0.676   2.140   9.921  1.0331  0.1988 -0.3311
 3033SOL     OW20557   1.391   2.509   5.066  0.0216 -0.3350 -0.2616
 3033SOL    HW120558   1.351   2.594   5.085  0.3681  0.1978 -1.8893
 3033SOL    HW220559   1.441   2.508   5.147  1.3878 -2.6330 -1.1497
 3034SOL     OW20560   1.286   0.956  14.610  0.3221  0.1975  0.2948
 3034SOL    HW120561   1.273   1.038  14.656  0.2751  0.6561 -0.5383
 3034SOL    HW220562   1.377   0.972  14.582  0.7949 -1.9940  0.5574
 3035SOL     OW20563   1.123   0.985   2.947  0.3330 -0.9418 -0.3476
 3035SOL    HW120564   1.211   0.966   2.980  1.2282  1.5183 -1.3236
 3035SOL    HW220565   1.146   1.012   2.859 -0.3666 -1.6807 -0.7524
 3036SOL     OW20566   0.870   4.233   6.429 -0.5013 -0.8218 -0.4765
 3036SOL    HW120567   0.817   4.276   6.361 -0.7689 -1.1169 -0.4558
 3036SOL    HW220568   0.835   4.276   6.508 -1.0530 -0.4092 -0.9401
 3037SOL     OW20569   2.008   0.982   6.024 -0.1599 -0.6867  0.2841
 3037SOL    HW120570   1.987   1.054   6.083  1.1338  0.0700 -0.1728
 3037SOL    HW220571   1.929   0.931   6.043 -1.2195  0.3872 -1.2725
 3038SOL     OW20572   1.235   2.406  17.477  0.1207 -0.4350 -0.6776
 3038SOL    HW120573   1.150   2.440  17.506  0.6476 -0.9216  1.4209
 3038SOL    HW220574   1.232   2.407  17.381  4.0024  0.7559 -0.8092
 3039SOL     OW20575   3.819   4.397  11.094  0.3216  0.4480 -0.2151
 3039SOL    HW120576   3.779   4.403  11.008 -0.7378 -2.6378  0.0698
 3039SOL    HW220577   3.872   4.318  11.085  0.8958  0.8361 -0.2598
 3040SOL     OW20578   4.667   2.353   2.441  0.2023  0.8010  0.6672
 3040SOL    HW120579   4.599   2.420   2.454  0.6200  1.4570 -0.5827
 3040SOL    HW220580   0.008   2.403   2.391 -1.1695  0.2411 -1.6532
 3041SOL     OW20581   1.211   2.100  17.428  0.5273  0.4498  0.5020
 3041SOL    HW120582   1.163   2.181  17.445 -2.5112 -1.4040  0.8908
 3041SOL    HW220583   1.248   2.078  17.514 -0.0351  0.2662  0.6981
 3042SOL     OW20584   2.344   3.506   5.596  0.2686 -0.2391  0.0624
 3042SOL    HW120585   2.325   3.587   5.548 -1.3137 -2.2451 -2.6665
 3042SOL    HW220586   2.425   3.481   5.551 -0.4245  0.1135 -1.4037
 3043SOL     OW20587   2.825   3.802  11.118  0.5975  0.6791 -0.2841
 3043SOL    HW120588   2.761   3.775  11.184  1.1241 -0.5212 -0.2643
 3043SOL    HW220589   2.851   3.887  11.155 -1.7155  0.9528  0.7242
 3044SOL     OW20590   2.048   2.867   4.732 -0.1717  0.5076  0.5386
 3044SOL    HW120591   2.068   2.804   4.802  1.3426  1.8590  1.3192
 3044SOL    HW220592   2.112   2.836   4.668  2.9349  3.2791  2.3247
 3045SOL     OW20593   4.216   3.930   1.703 -0.3255  0.0680 -0.1175
 3045SOL    HW120594   4.238   3.926   1.796  2.1033  1.3858 -0.6192
 3045SOL    HW220595   4.268   3.858   1.668 -0.6866 -0.5301  0.6015
 3046SOL     OW20596   2.812   1.034  16.142 -0.0928  0.5109  0.2622
 3046SOL    HW120597   2.809   1.043  16.046 -0.6563  0.4560  0.2783
 3046SOL    HW220598   2.872   1.099  16.180  1.0358 -2.2306  3.0863
 3047SOL     OW20599   3.882   0.078  12.221  0.1998 -0.1650 -0.4158
 3047SOL    HW120600   3.954   0.021  12.196  1.1596  0.4892  0.8327
 3047SOL    HW220601   3.810   0.014  12.217 -0.9969  1.2039 -1.0250
 3048SOL     OW20602   3.134   2.613   2.891  0.4945 -0.5008  0.5252
 3048SOL    HW120603   3.095   2.694   2.859  1.5977  0.5826  1.9497
 3048SOL    HW220604   3.103   2.549   2.827 -0.0813  0.0678  0.2304
 3049SOL     OW20605   3.639   3.605  16.618 -0.6220 -0.2225 -0.1072
 3049SOL    HW120606   3.554   3.642  16.641 -0.4557  0.7203 -1.0684
 3049SOL    HW220607   3.662   3.578  16.708 -0.2387  1.6087  0.3365
 3050SOL     OW20608   3.795   0.973   7.364 -0.8611 -0.0468  0.5537
 3050SOL    HW120609   3.724   0.939   7.418 -2.3061  1.5622 -0.3363
 3050SOL    HW220610   3.821   0.897   7.312  2.5040  0.4495  1.5046
 3051SOL     OW20611   1.407   0.329  13.736 -0.4423 -0.6133  0.1545
 3051SOL    HW120612   1.374   0.419  13.738  0.5709 -0.2188 -1.2483
 3051SOL    HW220613   1.323   0.282  13.737 -0.0685 -1.2861 -0.3743
 3052SOL     OW20614   2.305   1.212   6.766 -0.1720 -0.3193  0.2021
 3052SOL    HW120615   2.323   1.141   6.828 -2.6468 -1.0490  0.1194
 3052SOL    HW220616   2.297   1.165   6.683  3.2123 -2.5325  1.1133
 3053SOL     OW20617   0.056   3.065   4.214 -0.6188 -0.2625  0.6429
 3053SOL    HW120618   4.704   3.011   4.189 -2.2888  2.1397  0.4452
 3053SOL    HW220619   0.012   3.150   4.215 -0.0380  0.0636 -0.4171
 3054SOL     OW20620   3.506   2.920   2.033 -0.2924  0.0961  0.4210
 3054SOL    HW120621   3.480   3.012   2.029 -0.1667  0.1538  1.0176
 3054SOL    HW220622   3.532   2.914   1.941  0.8493  1.6669  0.6517
 3055SOL     OW20623   1.666   2.870   1.600 -0.4666  0.2712  0.2464
 3055SOL    HW120624   1.694   2.876   1.509 -0.7014  0.6967  0.1999
 3055SOL    HW220625   1.730   2.805   1.630  0.0451  1.4028  1.6389
 3056SOL     OW20626   3.825   4.706   2.858  0.2480  0.0141  0.2795
 3056SOL    HW120627   3.759   0.018   2.798  0.7504 -2.4766 -1.6838
 3056SOL    HW220628   3.847   0.055   2.918 -2.9216  0.7824  0.5788
 3057SOL     OW20629   4.499   1.534  11.275  0.4603 -0.6313 -0.1172
 3057SOL    HW120630   4.585   1.525  11.317  0.8858 -0.2466 -0.9082
 3057SOL    HW220631   4.473   1.441  11.279 -0.3488 -0.2766  3.1511
 3058SOL     OW20632   2.412   3.766   2.520  0.1506  0.6661 -0.4167
 3058SOL    HW120633   2.355   3.837   2.552  2.8976  2.4049  0.6001
 3058SOL    HW220634   2.397   3.763   2.426 -0.3137 -1.6305 -0.2704
 3059SOL     OW20635   4.612   3.901   5.865  0.1240  0.5108 -0.2960
 3059SOL    HW120636   4.546   3.839   5.896  1.3752 -0.3647  0.5934
 3059SOL    HW220637   4.683   3.896   5.929  0.3458  1.2275 -0.4874
 3060SOL     OW20638   4.254   0.633  17.065  0.6511  0.0866 -1.0594
 3060SOL    HW120639   4.203   0.614  17.143  2.7485 -2.2961 -0.2693
 3060SOL    HW220640   4.318   0.687  17.111  0.6041 -0.2782 -0.5685
 3061SOL     OW20641   2.172   0.557   5.996  0.1096 -0.3609 -0.6153
 3061SOL    HW120642   2.084   0.522   5.982 -0.6598  0.1326  3.0647
 3061SOL    HW220643   2.218   0.475   5.978  1.6077 -0.1985  2.4299
 3062SOL     OW20644   2.456   1.014   4.612  0.0118  0.1034  0.3910
 3062SOL    HW120645   2.468   1.104   4.583 -0.5345  0.2639  0.6715
 3062SOL    HW220646   2.413   0.981   4.533 -0.6164  0.5325  0.5504
 3063SOL     OW20647   4.594   0.323   6.542 -0.2326  0.5614 -0.1493
 3063SOL    HW120648   4.628   0.396   6.490 -0.0598  1.0572  0.6524
 3063SOL    HW220649   4.655   0.256   6.515 -1.2922 -0.3066 -0.3969
 3064SOL     OW20650   3.928   0.871  10.577 -0.1074 -0.2918  0.2362
 3064SOL    HW120651   4.000   0.931  10.555 -1.5054  0.9446 -1.0187
 3064SOL    HW220652   3.914   0.824  10.495  0.7438  0.3366 -0.2723
 3065SOL     OW20653   2.841   1.319   1.788  0.4233  0.3684  0.1806
 3065SOL    HW120654   2.901   1.305   1.714 -1.3875  1.5805 -1.5254
 3065SOL    HW220655   2.827   1.411   1.767 -1.1754  0.5098  1.9716
 3066SOL     OW20656   1.362   4.024   7.160 -0.0167  0.2389  0.3628
 3066SOL    HW120657   1.434   3.962   7.147 -1.7470 -1.7554  0.1359
 3066SOL    HW220658   1.341   4.018   7.253 -0.2498  0.3862  0.3203
 3067SOL     OW20659   4.612   2.603   3.498 -0.1305 -0.4036 -0.6930
 3067SOL    HW120660   4.520   2.582   3.483 -0.4838 -0.1301  1.1763
 3067SOL    HW220661   4.623   2.597   3.593 -0.9825  1.1707 -0.4855
 3068SOL     OW20662   4.087   0.328   1.572  0.6495 -0.2163  0.5094
 3068SOL    HW120663   4.020   0.289   1.516  0.7702  0.0716  0.1582
 3068SOL    HW220664   4.172   0.299   1.537  0.1048 -0.8844 -0.2480
 3069SOL     OW20665   1.130   2.805   6.797 -0.8874  0.0044  0.1854
 3069SOL    HW120666   1.087   2.836   6.877 -0.4471  0.2871  0.3131
 3069SOL    HW220667   1.051   2.781   6.750  0.1583 -1.8421 -0.6451
 3070SOL     OW20668   1.222   0.820  13.671  0.5918  0.5729  0.3066
 3070SOL    HW120669   1.203   0.796  13.581  1.4679  1.4616 -0.1077
 3070SOL    HW220670   1.139   0.861  13.698  0.4334  0.1364  0.4808
 3071SOL     OW20671   0.968   4.025   6.733  0.2931  0.4977  0.0726
 3071SOL    HW120672   1.045   4.023   6.676  0.0970  1.1021 -0.2105
 3071SOL    HW220673   0.970   4.120   6.744 -4.7911  0.5795  0.5665
 3072SOL     OW20674   3.501   3.334   5.653  1.0646 -0.0509 -1.0389
 3072SOL    HW120675   3.569   3.394   5.623  2.3514  0.0248  1.9572
 3072SOL    HW220676   3.531   3.244   5.639 -0.3169 -0.6288 -0.3995
 3073SOL     OW20677   0.031   0.094   9.676  0.2699  0.3160 -0.3380
 3073SOL    HW120678   0.053   0.007   9.641  0.4507 -0.4220  1.5619
 3073SOL    HW220679   4.693   0.128   9.611  0.7908 -0.2621 -1.1265
 3074SOL     OW20680   2.173   0.667   8.827 -0.5545  0.1564  0.2618
 3074SOL    HW120681   2.107   0.719   8.873  0.7766  2.2984 -0.2396
 3074SOL    HW220682   2.201   0.605   8.894 -1.9511 -1.1597 -0.3678
 3075SOL     OW20683   0.679   1.192  16.135 -0.2373  0.1060  0.2205
 3075SOL    HW120684   0.678   1.253  16.061  0.0051 -1.4016 -1.0057
 3075SOL    HW220685   0.744   1.125  16.116  1.3805  1.8582 -0.4459
 3076SOL     OW20686   2.915   0.738  11.294  0.2105  0.3707 -0.4183
 3076SOL    HW120687   2.968   0.747  11.374  0.6273  0.7021 -0.7271
 3076SOL    HW220688   2.896   0.831  11.283 -2.2925 -0.0677  0.2929
 3077SOL     OW20689   2.736   0.577   4.170  0.1769 -0.0052 -0.4926
 3077SOL    HW120690   2.726   0.504   4.109  2.4583 -0.3615 -0.4492
 3077SOL    HW220691   2.721   0.661   4.127 -0.4765  0.3943  0.5147
 3078SOL     OW20692   3.517   0.884   3.041  0.5676  0.4929  0.5050
 3078SOL    HW120693   3.441   0.940   3.029  0.7088  0.7047  0.6037
 3078SOL    HW220694   3.577   0.937   2.989  0.1301  1.4243  0.9607
 3079SOL     OW20695   2.700   4.338  13.749 -0.0933  0.0781 -0.2316
 3079SOL    HW120696   2.783   4.370  13.784 -0.7526  1.0385  0.4467
 3079SOL    HW220697   2.656   4.416  13.715  0.2673  0.1532 -0.5249
 3080SOL     OW20698   2.231   0.002   9.621 -0.0273 -0.0570 -0.2959
 3080SOL    HW120699   2.160   0.048   9.666 -2.4277 -2.5138 -1.5420
 3080SOL    HW220700   2.282   0.082   9.610 -0.2485  0.1589  0.2549
 3081SOL     OW20701   4.487   4.342  16.993  0.3736 -0.8725 -0.6333
 3081SOL    HW120702   4.509   4.435  17.002 -1.6224 -0.5422  0.9131
 3081SOL    HW220703   4.392   4.334  16.985  0.1758  0.7873  0.1207
 3082SOL     OW20704   2.786   1.960   9.387  0.5193  0.4099 -0.3648
 3082SOL    HW120705   2.820   1.871   9.383  0.9834  0.4634  2.3165
 3082SOL    HW220706   2.863   2.006   9.352  0.0112 -1.0993 -3.4808
 3083SOL     OW20707   2.702   4.511  17.360  0.2821 -0.2702  0.2036
 3083SOL    HW120708   2.769   4.496  17.293 -1.6042 -0.7410 -1.5775
 3083SOL    HW220709   2.628   4.540  17.307  0.7154  1.6816  0.6506
 3084SOL     OW20710   0.805   3.521  17.109 -0.5576 -0.1983 -1.4609
 3084SOL    HW120711   0.840   3.440  17.147 -0.2397  0.8468  0.4513
 3084SOL    HW220712   0.819   3.498  17.017  0.8043 -1.2611 -0.9835
 3085SOL     OW20713   2.327   0.733   4.738 -0.2057  0.0231 -0.4303
 3085SOL    HW120714   2.369   0.754   4.821  0.5614 -0.8170 -0.5925
 3085SOL    HW220715   2.377   0.652   4.723 -0.4506 -0.5500  1.8547
 3086SOL     OW20716   0.688   3.782   8.897  0.3073  0.4158 -0.0126
 3086SOL    HW120717   0.731   3.848   8.843 -0.0007 -0.1579 -0.9682
 3086SOL    HW220718   0.763   3.732   8.928 -1.2121 -1.1245  1.2086
 3087SOL     OW20719   1.414   3.838   6.080  0.7739  0.2202 -0.1008
 3087SOL    HW120720   1.383   3.806   6.165  0.7233 -0.2697 -0.2992
 3087SOL    HW220721   1.478   3.905   6.100  1.6152 -0.8299  0.7052
 3088SOL     OW20722   0.049   1.033  11.292  0.0898 -0.2693  0.1267
 3088SOL    HW120723   0.089   1.092  11.355 -0.1272 -0.4896  0.4717
 3088SOL    HW220724   0.014   0.965  11.350 -2.7407 -0.8184 -2.2378
 3089SOL     OW20725   1.553   1.122  16.818 -0.2360 -0.0479  0.3711
 3089SOL    HW120726   1.575   1.031  16.840 -0.1407 -0.2583 -0.5696
 3089SOL    HW220727   1.514   1.104  16.732 -0.0077  1.8882 -0.1272
 3090SOL     OW20728   0.239   4.630  14.001 -0.3154  0.6635  0.4290
 3090SOL    HW120729   0.268   4.688  14.071  0.3006 -0.5970  1.2166
 3090SOL    HW220730   0.242   4.545  14.044  0.2661  1.4734  1.9560
 3091SOL     OW20731   4.667   4.467   2.264 -0.0559 -0.2236  0.1232
 3091SOL    HW120732   4.580   4.438   2.239  0.4968 -0.5072 -1.4627
 3091SOL    HW220733   4.701   4.502   2.181 -0.6991 -0.1294 -0.1021
 3092SOL     OW20734   3.658   2.820   4.836 -0.5214  0.0491  0.0659
 3092SOL    HW120735   3.657   2.724   4.826  0.1956 -0.1042  1.5427
 3092SOL    HW220736   3.566   2.834   4.815 -1.1817 -0.5815  2.6249
 3093SOL     OW20737   1.311   2.161   4.490 -0.3736  0.1973  0.2359
 3093SOL    HW120738   1.376   2.148   4.560  0.5043 -1.2647 -0.8675
 3093SOL    HW220739   1.271   2.075   4.479 -2.1775  1.1435 -0.6679
 3094SOL     OW20740   3.395   0.278   3.265 -0.0407  0.7950 -0.2783
 3094SOL    HW120741   3.326   0.289   3.330  0.2539  1.9510 -0.1526
 3094SOL    HW220742   3.458   0.224   3.314 -0.8852  1.3912  1.4683
 3095SOL     OW20743   1.883   4.458   5.589  0.1851 -0.4776  0.7757
 3095SOL    HW120744   1.799   4.427   5.555  0.2732 -1.9423  1.9178
 3095SOL    HW220745   1.931   4.486   5.511 -0.6955  1.3641  0.8743
 3096SOL     OW20746   3.776   3.673   2.254 -0.3878  0.1436 -0.0186
 3096SOL    HW120747   3.703   3.624   2.217 -1.5114 -0.3263  2.9065
 3096SOL    HW220748   3.721   3.751   2.254 -1.5334 -0.6730  2.1284
 3097SOL     OW20749   1.071   1.005  10.347  0.8205  0.7811 -0.2201
 3097SOL    HW120750   1.159   1.043  10.345  0.8583  0.7442  0.6320
 3097SOL    HW220751   1.088   0.914  10.371  0.0649  0.6992  0.0143
 3098SOL     OW20752   1.033   4.181   7.437 -0.2764  0.0839  0.5166
 3098SOL    HW120753   1.029   4.103   7.381  2.4835 -0.4486  1.0621
 3098SOL    HW220754   1.078   4.139   7.510  0.5363 -0.6352 -0.3823
 3099SOL     OW20755   0.878   2.505  13.037 -0.4067  0.7215 -0.1909
 3099SOL    HW120756   0.892   2.446  12.963 -1.4702 -0.7241  0.7710
 3099SOL    HW220757   0.782   2.504  13.045 -0.4646 -4.2678 -1.8773
 3100SOL     OW20758   1.352   1.843   5.842 -0.0869  0.2460  0.0490
 3100SOL    HW120759   1.344   1.939   5.847  0.0931  0.3305 -1.2758
 3100SOL    HW220760   1.317   1.826   5.754  0.7555 -1.6518  0.0979
 3101SOL     OW20761   2.338   0.858   7.494  0.1350 -0.2230 -0.0429
 3101SOL    HW120762   2.351   0.841   7.587 -1.1615 -0.2908  0.1282
 3101SOL    HW220763   2.243   0.868   7.495  0.0819 -0.5812 -1.3723
 3102SOL     OW20764   2.324   2.679  14.999 -0.5665  0.2601 -0.0221
 3102SOL    HW120765   2.311   2.606  15.059 -1.9787  1.7443  1.4481
 3102SOL    HW220766   2.407   2.719  15.027  0.1648 -2.2975  1.4817
 3103SOL     OW20767   4.496   1.076   2.869  0.1395  0.5771  0.1338
 3103SOL    HW120768   4.456   1.108   2.788  2.8688  2.4179 -0.4908
 3103SOL    HW220769   4.582   1.052   2.835  0.1669  0.6034  0.1839
 3104SOL     OW20770   2.975   1.228   8.606 -0.1816 -0.4113  0.2602
 3104SOL    HW120771   2.923   1.216   8.685  0.9134 -1.4375  0.8160
 3104SOL    HW220772   2.926   1.193   8.531 -3.4090  0.5639  1.9238
 3105SOL     OW20773   4.308   3.005  10.830  0.1550  0.3978 -0.2725
 3105SOL    HW120774   4.315   2.955  10.911  1.4048  3.2752  1.3746
 3105SOL    HW220775   4.214   3.019  10.828  0.3145  1.4597 -0.6878
 3106SOL     OW20776   2.971   0.373   3.043 -0.0731  0.2606 -0.0528
 3106SOL    HW120777   3.010   0.389   3.128  0.6116 -1.2829 -0.0846
 3106SOL    HW220778   2.936   0.284   3.045 -1.2541  0.7484  1.2041
 3107SOL     OW20779   2.867   4.067  11.257  0.1141  0.0180  0.4479
 3107SOL    HW120780   2.792   4.098  11.308  0.3955  0.1963  0.7501
 3107SOL    HW220781   2.888   4.133  11.191 -0.8285  1.1173  1.2396
 3108SOL     OW20782   2.342   2.040   8.343 -0.6569  0.2466  0.1738
 3108SOL    HW120783   2.401   2.017   8.271 -1.3126 -3.3265  0.8027
 3108SOL    HW220784   2.392   2.101   8.398 -0.6863 -0.1730  0.6635
 3109SOL     OW20785   0.953   1.859  10.109 -0.0273 -0.1839 -0.1539
 3109SOL    HW120786   0.931   1.828  10.197 -1.4455 -0.7696 -0.7157
 3109SOL    HW220787   1.046   1.837  10.110 -0.0114  0.0801  3.2701
 3110SOL     OW20788   0.523   3.507  10.514  0.4799  0.6310 -0.0181
 3110SOL    HW120789   0.598   3.506  10.574  0.4943  2.0964 -0.0047
 3110SOL    HW220790   0.561   3.529  10.429  0.6540 -0.0919 -0.1229
 3111SOL     OW20791   4.441   1.622   7.430  0.1038 -0.4899  0.0243
 3111SOL    HW120792   4.371   1.634   7.495  1.0641  0.0944  0.9460
 3111SOL    HW220793   4.385   1.606   7.354  1.5697  0.7088 -1.2869
 3112SOL     OW20794   3.364   4.001   1.127 -0.0895  0.0475  0.0629
 3112SOL    HW120795   3.337   3.986   1.218 -0.8257  2.2694  0.2035
 3112SOL    HW220796   3.404   4.087   1.141 -1.3698  0.6401  0.0345
 3113SOL     OW20797   0.278   1.796  15.189 -0.6103  0.0195  0.1417
 3113SOL    HW120798   0.352   1.855  15.176 -0.9439  0.6397  1.0474
 3113SOL    HW220799   0.221   1.817  15.115  1.5484 -1.0094 -1.7736
 3114SOL     OW20800   0.646   1.886   9.583  0.3909 -0.6661  0.4776
 3114SOL    HW120801   0.692   1.892   9.499 -0.5807  0.4893  0.0280
 3114SOL    HW220802   0.634   1.981   9.589 -1.2825 -0.7466 -1.2941
 3115SOL     OW20803   1.670   1.981   6.922  0.5832  0.0374 -0.6110
 3115SOL    HW120804   1.744   1.925   6.945  1.8385  0.8727 -2.6715
 3115SOL    HW220805   1.653   1.950   6.833  0.1689 -3.3953  0.6448
 3116SOL     OW20806   0.493   2.332   7.868 -0.0050  0.4307  0.4185
 3116SOL    HW120807   0.552   2.313   7.941  0.5402 -0.5671 -0.2830
 3116SOL    HW220808   0.427   2.382   7.916  0.9710  1.3221  0.8325
 3117SOL     OW20809   3.940   2.523   4.554 -0.1163  0.2732  0.0169
 3117SOL    HW120810   4.028   2.536   4.520 -0.8628  0.4077 -1.8928
 3117SOL    HW220811   3.958   2.503   4.646 -0.7634  1.0186  0.3123
 3118SOL     OW20812   4.021   4.419  16.490  0.0267  0.2071  0.1349
 3118SOL    HW120813   4.040   4.325  16.489 -1.8257 -0.1541 -0.0704
 3118SOL    HW220814   4.062   4.450  16.571 -0.9024 -1.6558  1.3091
 3119SOL     OW20815   0.181   4.538   1.740 -0.3468  0.3567  0.2058
 3119SOL    HW120816   0.260   4.585   1.767 -0.9733  0.9300  1.0323
 3119SOL    HW220817   0.134   4.512   1.819  0.4421 -0.7844  0.2997
 3120SOL     OW20818   2.449   1.935   2.815  0.9601  0.6673  0.6288
 3120SOL    HW120819   2.380   1.997   2.837  2.4100  2.5378 -0.0915
 3120SOL    HW220820   2.439   1.942   2.720  0.0863 -1.3980  0.5636
 3121SOL     OW20821   0.935   4.312   6.767  0.0105 -0.0123 -0.4376
 3121SOL    HW120822   1.029   4.327   6.780 -0.3462  0.2392  2.0091
 3121SOL    HW220823   0.907   4.383   6.710  0.9936  0.1931 -0.6593
 3122SOL     OW20824   1.345   1.343   5.096  0.0639  0.1707  0.4761
 3122SOL    HW120825   1.394   1.385   5.167 -0.9702 -0.5370  1.6151
 3122SOL    HW220826   1.360   1.404   5.024 -2.1442  1.3478  1.0201
 3123SOL     OW20827   4.542   0.999   8.757  0.2063  0.4648 -0.3379
 3123SOL    HW120828   4.524   1.016   8.664  0.9770 -1.6844 -0.8664
 3123SOL    HW220829   4.486   0.928   8.787 -0.8532  2.3093  2.0771
 3124SOL     OW20830   0.328   0.367   3.804  0.0327  0.3926 -0.1851
 3124SOL    HW120831   0.378   0.285   3.794  0.2974  0.5730 -0.3507
 3124SOL    HW220832   0.392   0.438   3.804  0.3132  0.1457 -0.2874
 3125SOL     OW20833   3.307   4.440  10.925 -0.5145  0.3922 -0.3678
 3125SOL    HW120834   3.283   4.348  10.919 -1.5672  0.6240  0.3376
 3125SOL    HW220835   3.276   4.459  11.013  1.7791  0.7377  0.3804
 3126SOL     OW20836   1.167   2.380   3.906  0.4180 -0.4570 -0.5207
 3126SOL    HW120837   1.085   2.395   3.953 -0.8656 -0.5581 -2.7324
 3126SOL    HW220838   1.158   2.437   3.829 -2.2657 -3.3805 -2.3240
 3127SOL     OW20839   4.317   1.939  11.461 -0.4831  0.2058  0.8587
 3127SOL    HW120840   4.278   1.918  11.376 -0.2620  1.0280  0.5628
 3127SOL    HW220841   4.292   1.854  11.498  0.4293  0.3348  1.7795
 3128SOL     OW20842   1.579   3.455   5.050  0.4205  0.1539  0.3252
 3128SOL    HW120843   1.508   3.513   5.078  1.3246  2.2141 -1.5888
 3128SOL    HW220844   1.549   3.415   4.968  0.5743 -1.0601  0.8665
 3129SOL     OW20845   2.142   2.244   3.400  0.5847  0.0264  0.1442
 3129SOL    HW120846   2.209   2.309   3.421  0.6580 -0.0591  0.1731
 3129SOL    HW220847   2.092   2.233   3.480  1.1075  1.9132  0.7292
 3130SOL     OW20848   1.954   1.976   8.623  0.0540 -0.5007  0.6250
 3130SOL    HW120849   2.014   1.947   8.555 -0.1791 -0.2933  0.3350
 3130SOL    HW220850   1.984   2.067   8.633 -1.0000 -0.1309  0.4213
 3131SOL     OW20851   4.354   2.376  16.019  0.3457  0.3391  0.3167
 3131SOL    HW120852   4.393   2.451  15.973 -3.4643  1.0588 -1.7935
 3131SOL    HW220853   4.419   2.309  15.998 -1.0130 -0.6323 -0.7776
 3132SOL     OW20854   4.083   3.658   6.773  0.2975 -0.3885 -0.2334
 3132SOL    HW120855   4.037   3.577   6.795  0.7830 -1.1281 -1.9595
 3132SOL    HW220856   4.006   3.704   6.739 -1.3275 -3.1080 -0.2091
 3133SOL     OW20857   0.740   3.686   1.236 -0.0919 -0.6859 -0.1271
 3133SOL    HW120858   0.729   3.779   1.254 -0.9795 -0.9942  0.8913
 3133SOL    HW220859   0.778   3.655   1.318 -0.0846 -0.4456 -0.0403
 3134SOL     OW20860   2.823   0.573  14.584 -0.2875 -0.7626 -0.2063
 3134SOL    HW120861   2.844   0.548  14.494  0.2461 -1.2620  0.0589
 3134SOL    HW220862   2.809   0.667  14.591 -0.9031 -0.8734  0.1492
 3135SOL     OW20863   0.895   2.872   0.165 -0.2380  0.6290  0.1592
 3135SOL    HW120864   0.960   2.942   0.166  0.4107  0.0139  0.8156
 3135SOL    HW220865   0.874   2.862   0.258 -0.5520 -0.4411 -0.0281
 3136SOL     OW20866   4.475   0.441   4.356  0.3329  0.0187 -0.1060
 3136SOL    HW120867   4.551   0.429   4.299 -0.4146 -1.1012 -0.8580
 3136SOL    HW220868   4.476   0.537   4.363  0.6144 -0.0159  0.3155
 3137SOL     OW20869   4.507   2.541   4.228  0.1168  0.1837  0.2717
 3137SOL    HW120870   4.475   2.464   4.182 -1.8386  0.1529  1.6847
 3137SOL    HW220871   4.599   2.539   4.201 -0.4843 -0.7191 -1.7601
 3138SOL     OW20872   1.361   2.881  16.847  0.2542  0.1948  0.1657
 3138SOL    HW120873   1.434   2.822  16.830  1.6453  2.1655 -0.6506
 3138SOL    HW220874   1.329   2.852  16.933 -2.0710  1.7593 -0.1514
 3139SOL     OW20875   0.180   1.959   5.850  0.0442 -0.2298  0.1763
 3139SOL    HW120876   0.086   1.972   5.862  0.0995  0.9405 -0.6947
 3139SOL    HW220877   0.207   2.030   5.792 -0.8883  1.3047  1.6273
 3140SOL     OW20878   2.555   0.326  15.706 -0.0696  0.1559 -0.3595
 3140SOL    HW120879   2.585   0.303  15.618  2.9753 -0.4557  0.8528
 3140SOL    HW220880   2.640   0.345  15.745  0.0866 -1.2160 -0.0295
 3141SOL     OW20881   2.703   0.119  14.761  0.3619 -0.5726 -0.1272
 3141SOL    HW120882   2.774   0.063  14.731 -0.3892  0.6690 -4.2885
 3141SOL    HW220883   2.724   0.198  14.710  0.0270 -1.0237 -0.9667
 3142SOL     OW20884   1.804   0.212   5.084 -0.2502 -0.1045  0.5732
 3142SOL    HW120885   1.852   0.295   5.073 -2.1979  0.7628 -1.3766
 3142SOL    HW220886   1.800   0.193   5.178  1.0625  0.6979  0.7918
 3143SOL     OW20887   1.620   0.118   1.411  0.6342  0.1422  0.4783
 3143SOL    HW120888   1.574   0.117   1.328  0.2263  0.9303  0.6918
 3143SOL    HW220889   1.558   0.168   1.464 -2.5846 -1.3155 -1.8906
 3144SOL     OW20890   0.055   1.757   8.258  0.0452  0.9104  0.0991
 3144SOL    HW120891   4.702   1.747   8.316  0.8695  1.0809  1.1821
 3144SOL    HW220892   0.041   1.695   8.186  0.9640  2.4763 -1.4333
 3145SOL     OW20893   2.659   2.400  16.144  0.2613  0.2098 -0.4798
 3145SOL    HW120894   2.744   2.405  16.188  0.1676  0.2765 -0.3067
 3145SOL    HW220895   2.686   2.424  16.055 -1.2796 -2.8118 -1.7489
 3146SOL     OW20896   4.284   3.736   0.248  0.5615 -0.7513  0.2009
 3146SOL    HW120897   4.347   3.762   0.180  0.2331 -1.1320 -0.2467
 3146SOL    HW220898   4.235   3.665   0.207 -1.8935  1.4624 -0.7092
 3147SOL     OW20899   0.765   3.939  16.332 -0.2158 -0.3316  0.1176
 3147SOL    HW120900   0.780   3.979  16.246  2.4526 -0.9357  0.3160
 3147SOL    HW220901   0.739   4.020  16.377 -0.7320  0.1795 -1.1013
 3148SOL     OW20902   0.961   1.072  12.988 -0.7603  0.1268 -0.1721
 3148SOL    HW120903   0.885   1.035  12.943 -0.4551 -1.8198  0.9099
 3148SOL    HW220904   0.951   1.038  13.077 -0.8477  0.8639  0.0986
 3149SOL     OW20905   3.407   4.509   7.329 -0.0103 -0.1706  0.2050
 3149SOL    HW120906   3.457   4.541   7.254 -2.2823 -0.1017 -1.2748
 3149SOL    HW220907   3.397   4.590   7.380  1.2580  1.0053 -1.4250
 3150SOL     OW20908   3.035   0.204   5.574  0.9305  0.5136  0.1810
 3150SOL    HW120909   3.121   0.201   5.533  0.7776  0.6003 -0.1455
 3150SOL    HW220910   2.998   0.116   5.570  1.0835  0.4632 -0.0956
 3151SOL     OW20911   3.372   3.420   8.974  0.8975  0.2304 -0.1119
 3151SOL    HW120912   3.287   3.378   8.960  0.2491  1.6121 -0.3319
 3151SOL    HW220913   3.425   3.385   8.903  1.5111 -2.5281  1.7235
 3152SOL     OW20914   1.815   3.216  12.072 -0.0295  0.0677 -0.0307
 3152SOL    HW120915   1.838   3.254  12.157 -0.1112  0.9087 -0.3844
 3152SOL    HW220916   1.900   3.228  12.030 -0.5996  1.5569 -0.7561
 3153SOL     OW20917   0.979   4.290  12.531 -0.0548  0.0199  0.0388
 3153SOL    HW120918   1.002   4.317  12.442  0.3275  0.7993  0.3719
 3153SOL    HW220919   1.063   4.287  12.578  1.4815  0.4117 -2.7400
 3154SOL     OW20920   4.047   4.506   3.226 -0.5360  0.1994  0.6640
 3154SOL    HW120921   3.952   4.498   3.237 -0.5907 -0.1987 -0.0809
 3154SOL    HW220922   4.055   4.478   3.135 -0.3806 -0.5594  0.9117
 3155SOL     OW20923   1.024   2.212   5.116 -0.0716  0.8308 -0.1113
 3155SOL    HW120924   0.980   2.296   5.128 -0.7233  0.3264  1.0657
 3155SOL    HW220925   1.104   2.249   5.078  0.7949 -0.4395  0.4584
 3156SOL     OW20926   0.135   0.703   7.818  0.5527 -0.5978  0.1545
 3156SOL    HW120927   0.226   0.731   7.827 -0.3157  1.5257  2.1265
 3156SOL    HW220928   0.142   0.609   7.837 -1.3078 -0.7124  0.2776
 3157SOL     OW20929   2.840   2.261   7.126  0.0395 -0.4069  0.2066
 3157SOL    HW120930   2.909   2.203   7.094  0.1061  1.7057 -3.4691
 3157SOL    HW220931   2.776   2.268   7.055  1.7212  0.3222 -1.2281
 3158SOL     OW20932   1.780   0.256   6.306 -0.0352 -0.1166  0.0727
 3158SOL    HW120933   1.744   0.308   6.377  2.6134  0.2472  1.1301
 3158SOL    HW220934   1.714   0.260   6.237 -2.5668 -2.1165  2.3865
 3159SOL     OW20935   1.585   2.245   3.753 -0.4552  0.0764 -0.2555
 3159SOL    HW120936   1.556   2.278   3.838 -0.8786  0.2283 -0.4592
 3159SOL    HW220937   1.667   2.295   3.743  0.8498 -1.3471  3.4222
 3160SOL     OW20938   2.146   0.892   4.264  0.1645  0.3644  0.1221
 3160SOL    HW120939   2.224   0.946   4.280  0.7176 -0.4640  0.1931
 3160SOL    HW220940   2.166   0.842   4.185  0.6181  1.7738 -0.6692
 3161SOL     OW20941   3.213   1.442   4.410 -0.2441 -0.3600  0.1060
 3161SOL    HW120942   3.209   1.472   4.318  1.6649  0.1002  0.1721
 3161SOL    HW220943   3.119   1.430   4.421 -0.2155 -0.5831  0.0967
 3162SOL     OW20944   1.836   4.162   0.681  0.0582  0.3322  0.2641
 3162SOL    HW120945   1.755   4.115   0.661 -0.8046  1.0012  2.1875
 3162SOL    HW220946   1.844   4.211   0.599 -0.4978  0.0487  0.0432
 3163SOL     OW20947   2.606   2.519  11.568 -0.7446  0.7649  0.4375
 3163SOL    HW120948   2.676   2.477  11.619 -0.1723  0.4272 -0.6021
 3163SOL    HW220949   2.531   2.521  11.627 -1.9662  0.7721 -1.1193
 3164SOL     OW20950   2.256   2.397  10.890 -0.6316 -0.2151 -0.0408
 3164SOL    HW120951   2.348   2.412  10.868 -0.7905  1.1358  0.1951
 3164SOL    HW220952   2.235   2.313  10.848  0.7862 -0.8417  0.5142
 3165SOL     OW20953   1.195   2.553   4.387 -0.2340 -0.2891 -0.3603
 3165SOL    HW120954   1.186   2.509   4.471 -1.2668  0.0486 -0.2979
 3165SOL    HW220955   1.105   2.559   4.355  0.2239  1.1104 -1.3931
 3166SOL     OW20956   3.492   1.658   7.169  0.7052 -0.2394  0.1622
 3166SOL    HW120957   3.457   1.577   7.206 -0.8099 -0.3887 -1.5894
 3166SOL    HW220958   3.462   1.656   7.078  2.3065 -0.9362 -0.3552
 3167SOL     OW20959   0.924   3.750   3.693 -0.4883  0.3579 -0.5759
 3167SOL    HW120960   0.863   3.814   3.655  0.6857  1.2596 -0.9360
 3167SOL    HW220961   1.011   3.784   3.675 -0.3818  0.8589  0.9142
 3168SOL     OW20962   3.248   1.255   3.116  0.1602 -0.1195 -0.3333
 3168SOL    HW120963   3.250   1.350   3.109 -1.4482  0.0636  1.3688
 3168SOL    HW220964   3.301   1.235   3.193  0.1955 -1.5346 -0.7285
 3169SOL     OW20965   3.854   2.302   5.299 -0.7537  0.4603 -0.1739
 3169SOL    HW120966   3.768   2.326   5.265 -1.4612 -0.6672  0.8022
 3169SOL    HW220967   3.841   2.221   5.349 -1.8750  0.6714 -0.1300
 3170SOL     OW20968   4.416   1.660   3.506  0.3252  0.1546  0.1241
 3170SOL    HW120969   4.335   1.642   3.555  0.1678 -3.2929 -1.3738
 3170SOL    HW220970   4.482   1.644   3.573  1.2764 -1.0548 -1.1084
 3171SOL     OW20971   3.885   1.874   6.423  0.1529 -0.7319  0.1894
 3171SOL    HW120972   3.978   1.893   6.426  0.2367 -1.0103 -0.6368
 3171SOL    HW220973   3.879   1.778   6.425 -0.4869 -0.6717  1.6468
 3172SOL     OW20974   0.206   3.390   1.018  0.3385 -0.0485  0.6029
 3172SOL    HW120975   0.300   3.375   1.032  0.3515  0.4154  1.0455
 3172SOL    HW220976   0.200   3.483   0.996  2.6710 -0.1959 -0.6574
 3173SOL     OW20977   3.934   3.771   2.708 -0.4071 -0.1577  0.2366
 3173SOL    HW120978   3.921   3.688   2.754 -0.2480  0.2889  1.0863
 3173SOL    HW220979   3.847   3.791   2.672 -0.1188 -0.1328 -0.4513
 3174SOL     OW20980   4.604   2.811   2.658 -0.3030 -0.0602 -0.2833
 3174SOL    HW120981   4.622   2.794   2.751  1.2512  0.2932 -0.5241
 3174SOL    HW220982   4.670   2.879   2.647 -0.8171  0.7419  1.5766
 3175SOL     OW20983   3.365   1.368  13.164  0.0855  0.1442 -0.3769
 3175SOL    HW120984   3.422   1.397  13.093 -0.3265  1.4011 -0.2065
 3175SOL    HW220985   3.423   1.302  13.202  1.7602  1.6570 -0.3325
 3176SOL     OW20986   3.171   3.708   7.089  0.0374  0.3017  0.2096
 3176SOL    HW120987   3.083   3.676   7.067 -0.5333  1.8663  0.2361
 3176SOL    HW220988   3.173   3.667   7.176 -3.9123  0.3370  0.3167
 3177SOL     OW20989   3.157   3.323  12.575  0.5378 -0.0452  0.0777
 3177SOL    HW120990   3.207   3.343  12.496  1.9498  0.8187  1.1840
 3177SOL    HW220991   3.145   3.414  12.605 -1.2345 -0.3237  0.2058
 3178SOL     OW20992   2.446   4.560   6.640  0.4064 -0.7534 -0.2789
 3178SOL    HW120993   2.490   4.595   6.717  0.6415 -0.4460 -0.5516
 3178SOL    HW220994   2.520   4.557   6.579  1.9051 -1.3036  1.5611
 3179SOL     OW20995   1.829   4.449   6.999 -0.5846 -0.4088  0.5566
 3179SOL    HW120996   1.790   4.391   6.934  1.8703 -0.4064 -0.9070
 3179SOL    HW220997   1.776   4.433   7.077 -0.7146 -3.1140 -0.0876
 3180SOL     OW20998   2.997   1.494   9.545  0.1047  0.1918  0.1256
 3180SOL    HW120999   3.041   1.410   9.534  0.3558  0.3319  0.0768
 3180SOL    HW221000   2.996   1.500   9.641 -0.4201  1.8253  0.0287
 3181SOL     OW21001   4.223   3.970  15.850  0.6185  0.2283 -0.4348
 3181SOL    HW121002   4.239   4.062  15.868 -2.7377  1.0268 -1.5066
 3181SOL    HW221003   4.281   3.929  15.914 -1.0011  1.6022  1.8939
 3182SOL     OW21004   2.944   1.672   2.305 -0.3055  0.0482 -0.4508
 3182SOL    HW121005   2.925   1.618   2.382  0.9283  0.6307  0.2653
 3182SOL    HW221006   2.880   1.622   2.254 -1.1382 -0.0171  0.6573
 3183SOL     OW21007   1.126   0.350   4.232 -0.6762 -0.2747 -0.0823
 3183SOL    HW121008   1.181   0.413   4.184 -2.4544  1.1254 -0.2892
 3183SOL    HW221009   1.178   0.270   4.231 -0.7826 -0.3571  2.2642
 3184SOL     OW21010   2.089   4.581  14.945 -0.3605 -0.4768  0.1110
 3184SOL    HW121011   2.006   4.554  14.907 -0.3754 -2.2827  1.4393
 3184SOL    HW221012   2.101   4.519  15.017  4.6902 -0.6859 -0.8699
 3185SOL     OW21013   1.929   4.260   5.379  0.1778 -0.0884 -0.5453
 3185SOL    HW121014   1.996   4.244   5.445 -1.3323  0.0399  1.0077
 3185SOL    HW221015   1.972   4.226   5.300 -2.5588  0.9411 -2.4802
 3186SOL     OW21016   3.678   4.035  11.423  0.5028 -0.0194  0.2872
 3186SOL    HW121017   3.611   4.007  11.485  0.5908 -1.5932 -0.3237
 3186SOL    HW221018   3.731   4.095  11.477 -0.6144 -1.1885  2.6843
 3187SOL     OW21019   3.123   3.813  17.222  0.2141 -0.5074 -0.1147
 3187SOL    HW121020   3.105   3.837  17.313  1.8086 -3.4220  0.9834
 3187SOL    HW221021   3.159   3.893  17.184 -1.8171 -0.2213 -1.4350
 3188SOL     OW21022   1.850   2.125   5.976 -0.4783 -0.0848 -0.4846
 3188SOL    HW121023   1.797   2.139   5.898 -2.0961  1.3193  0.8557
 3188SOL    HW221024   1.927   2.074   5.951 -1.8249 -2.3199 -0.0553
 3189SOL     OW21025   1.374   3.499   9.393  0.6670 -0.1979  0.2884
 3189SOL    HW121026   1.345   3.587   9.415  0.1809 -0.2303 -0.2120
 3189SOL    HW221027   1.388   3.509   9.298  0.3818  0.2475  0.2975
 3190SOL     OW21028   0.553   0.504   4.940 -0.3510  0.1828 -0.1921
 3190SOL    HW121029   0.619   0.570   4.920  0.5502 -0.2348  1.4321
 3190SOL    HW221030   0.490   0.529   4.872 -0.8894  1.5693  0.8208
 3191SOL     OW21031   2.022   4.152   4.757 -0.4094  0.0521 -0.0678
 3191SOL    HW121032   1.995   4.167   4.667 -0.5352 -0.0574 -0.0482
 3191SOL    HW221033   1.945   4.108   4.792  0.6271 -1.2774  0.5377
 3192SOL     OW21034   0.643   0.511   6.255 -0.1261 -0.5800  0.1235
 3192SOL    HW121035   0.701   0.581   6.288 -2.2612  0.3871  1.8353
 3192SOL    HW221036   0.704   0.437   6.261  1.6847  0.9213  0.3839
 3193SOL     OW21037   2.665   2.764   5.523  0.3342 -0.1424  0.1445
 3193SOL    HW121038   2.588   2.734   5.572  0.3580 -2.1978 -1.0633
 3193SOL    HW221039   2.732   2.756   5.591  0.8449  1.4335 -0.1799
 3194SOL     OW21040   4.406   3.963   8.495  0.3633  0.0872  0.1595
 3194SOL    HW121041   4.313   3.969   8.517 -0.4910 -0.8001 -3.1222
 3194SOL    HW221042   4.401   3.925   8.407 -0.8995 -0.9930  0.6990
 3195SOL     OW21043   2.829   1.057  13.319  0.2862 -0.3308  0.8118
 3195SOL    HW121044   2.777   1.022  13.247 -0.2252 -0.5817  1.3017
 3195SOL    HW221045   2.799   1.009  13.397 -0.2365  0.9480  1.4001
 3196SOL     OW21046   3.780   2.406   4.315  0.0949 -0.0216  0.3942
 3196SOL    HW121047   3.830   2.439   4.389  1.0381 -1.3498  0.3471
 3196SOL    HW221048   3.844   2.362   4.259  0.4102  1.3329 -0.3046
 3197SOL     OW21049   2.504   4.519   7.090 -0.0382 -0.0302  0.4785
 3197SOL    HW121050   2.498   4.557   7.177 -1.4413 -1.1398  0.8659
 3197SOL    HW221051   2.450   4.441   7.102  0.6258 -0.5646  0.0028
 3198SOL     OW21052   4.067   2.398  14.425 -0.0107  0.0993  0.0798
 3198SOL    HW121053   4.100   2.308  14.425 -0.2639  0.0044 -0.9557
 3198SOL    HW221054   4.133   2.442  14.371  0.7172 -1.1471 -0.0389
 3199SOL     OW21055   3.314   4.293   4.799 -0.1512 -0.2792 -0.0459
 3199SOL    HW121056   3.311   4.260   4.890 -0.2916 -1.1839 -0.3747
 3199SOL    HW221057   3.223   4.322   4.787 -0.7264 -1.9263  0.2116
 3200SOL     OW21058   2.876   1.432   7.891  0.1692  0.1885 -0.2264
 3200SOL    HW121059   2.894   1.367   7.822 -1.2504 -1.4930  0.9744
 3200SOL    HW221060   2.899   1.386   7.972 -3.5881 -1.2063  0.0549
 3201SOL     OW21061   1.841   2.627   7.587  0.0179 -0.0905 -0.7174
 3201SOL    HW121062   1.859   2.592   7.500  0.4391  0.0144 -0.6753
 3201SOL    HW221063   1.931   2.657   7.604 -0.2363 -0.3891  1.1309
 3202SOL     OW21064   2.459   3.477   9.138 -0.0332  0.1182  0.1211
 3202SOL    HW121065   2.486   3.569   9.141 -0.5984  0.3238 -1.0713
 3202SOL    HW221066   2.512   3.433   9.072  0.2279 -0.0568  0.4470
 3203SOL     OW21067   4.176   2.045   3.516  0.1226 -0.3582 -0.2357
 3203SOL    HW121068   4.158   1.972   3.575 -0.8190  0.8603  0.9739
 3203SOL    HW221069   4.112   2.109   3.547  0.1105 -1.1942  1.4562
 3204SOL     OW21070   2.167   4.530  13.955  0.0646 -0.1864 -0.1988
 3204SOL    HW121071   2.087   4.484  13.927 -0.4806  2.1106 -2.3972
 3204SOL    HW221072   2.221   4.464  13.997  2.0463  0.0483 -2.3717
 3205SOL     OW21073   1.225   2.989   0.915  0.3478 -0.1612  0.3683
 3205SOL    HW121074   1.183   2.949   0.991 -1.6395  0.1824 -0.5570
 3205SOL    HW221075   1.169   2.963   0.842  0.6948 -0.1994  0.1155
 3206SOL     OW21076   2.334   3.036   3.288 -0.0418 -0.2146  0.0198
 3206SOL    HW121077   2.385   3.114   3.311  1.3546 -1.5815  1.6208
 3206SOL    HW221078   2.408   2.976   3.274 -0.5147 -1.3508  2.5183
 3207SOL     OW21079   3.837   2.786   4.206  0.0840  0.9930  0.3729
 3207SOL    HW121080   3.839   2.741   4.291 -1.2163  1.9008  0.8904
 3207SOL    HW221081   3.858   2.878   4.225 -1.6115  1.4575  0.0145
 3208SOL     OW21082   0.525   0.672   6.504 -0.1040  0.8261 -0.0992
 3208SOL    HW121083   0.573   0.754   6.497 -1.1407  1.4523  0.2405
 3208SOL    HW221084   0.443   0.700   6.544  0.8164  1.4503  1.3294
 3209SOL     OW21085   3.057   0.490   7.308 -0.3036 -0.1313 -0.0660
 3209SOL    HW121086   2.967   0.485   7.338  0.1833  1.4170  1.6425
 3209SOL    HW221087   3.035   0.471   7.217  1.6884  0.1674 -0.6141
 3210SOL     OW21088   2.723   2.507  15.903  0.0763 -0.0662  0.0769
 3210SOL    HW121089   2.803   2.489  15.854 -0.1166  2.3801 -1.1712
 3210SOL    HW221090   2.692   2.578  15.847  0.1153 -0.2116 -0.1304
 3211SOL     OW21091   0.266   4.366   9.312 -0.2422  0.3901  0.4656
 3211SOL    HW121092   0.322   4.333   9.242  1.2938 -1.0916  2.3880
 3211SOL    HW221093   0.187   4.323   9.281  1.3622 -3.6628  1.9068
 3212SOL     OW21094   2.894   3.392   4.870 -0.3364 -0.4441  0.5785
 3212SOL    HW121095   2.936   3.419   4.788  1.7133 -1.7511  1.1880
 3212SOL    HW221096   2.825   3.458   4.868  0.3315  0.2124 -1.1551
 3213SOL     OW21097   3.717   0.598   9.457  0.2026 -0.5812 -0.2635
 3213SOL    HW121098   3.779   0.617   9.527 -0.8217  1.8458 -0.0137
 3213SOL    HW221099   3.632   0.589   9.501 -0.4285  1.3412 -1.1227
 3214SOL     OW21100   1.437   2.499   1.063 -1.3331  0.7426  0.0319
 3214SOL    HW121101   1.481   2.475   0.981 -0.6557  0.9698  0.3252
 3214SOL    HW221102   1.452   2.593   1.070  1.4095  0.5108 -2.6801
 3215SOL     OW21103   4.612   2.429   6.174  0.1859 -0.7518 -0.3966
 3215SOL    HW121104   4.666   2.415   6.095  0.9123  0.7923 -0.1627
 3215SOL    HW221105   4.633   2.351   6.225  0.7908  0.0187  0.5212
 3216SOL     OW21106   1.831   3.585   9.727  0.1832 -0.2202  0.5071
 3216SOL    HW121107   1.907   3.561   9.780 -1.9705  0.5173  3.9510
 3216SOL    HW221108   1.835   3.545   9.640  4.7838 -1.1640  1.1483
 3217SOL     OW21109   1.174   0.487   5.151 -0.0683 -0.0094 -0.3113
 3217SOL    HW121110   1.266   0.512   5.155 -1.0340  2.9876  3.9879
 3217SOL    HW221111   1.145   0.515   5.238  1.0820 -0.9824  0.3858
 3218SOL     OW21112   1.382   0.062   8.467 -0.1452  0.0290 -0.1815
 3218SOL    HW121113   1.378   0.140   8.522 -1.1501  0.1594 -0.4358
 3218SOL    HW221114   1.309   0.014   8.508  2.1095 -2.5470  0.8068
 3219SOL     OW21115   0.767   4.289   5.841 -0.4304  0.2139 -0.3762
 3219SOL    HW121116   0.719   4.362   5.881  1.2590  0.6033  0.9537
 3219SOL    HW221117   0.783   4.330   5.757 -0.7133  0.6775 -0.2062
 3220SOL     OW21118   3.081   2.842   5.468 -0.3546  0.4685 -0.6888
 3220SOL    HW121119   3.153   2.781   5.485  0.8817  1.8872 -0.8120
 3220SOL    HW221120   3.097   2.912   5.532 -2.6668 -0.3473  0.7703
 3221SOL     OW21121   0.048   2.781   4.426 -0.6300 -0.2257 -0.3095
 3221SOL    HW121122   4.679   2.765   4.450  0.0116 -3.4002  0.0495
 3221SOL    HW221123   0.068   2.872   4.450  1.4418 -0.8178  0.2739
 3222SOL     OW21124   4.319   3.162   2.647  0.0720 -0.4685  0.2454
 3222SOL    HW121125   4.252   3.203   2.593 -2.4346 -1.7492  2.3859
 3222SOL    HW221126   4.338   3.084   2.595 -0.1848 -0.6619  0.4399
 3223SOL     OW21127   3.819   0.918  16.095 -0.1477  0.9323 -0.4528
 3223SOL    HW121128   3.851   1.006  16.115 -1.1686  1.1021  0.3817
 3223SOL    HW221129   3.880   0.882  16.030  0.8442  1.7456  0.0463
 3224SOL     OW21130   4.480   4.473   5.073 -0.2801 -0.3435  0.3003
 3224SOL    HW121131   4.413   4.431   5.019 -1.1870  0.7239  0.5881
 3224SOL    HW221132   4.548   4.406   5.069  0.6383  0.4141  3.3046
 3225SOL     OW21133   4.482   3.277  15.116 -0.0278 -1.0910 -0.4145
 3225SOL    HW121134   4.540   3.294  15.041  1.0354 -1.4363  0.3279
 3225SOL    HW221135   4.530   3.215  15.171 -0.3975 -0.0157  1.1397
 3226SOL     OW21136   2.473   0.607  12.085 -0.2945  0.0895 -0.2543
 3226SOL    HW121137   2.457   0.516  12.060  0.3405 -0.0148 -0.2792
 3226SOL    HW221138   2.434   0.654  12.011  1.4823  1.4298 -0.3314
 3227SOL     OW21139   1.819   3.189   0.865  0.2861 -0.1097 -0.0240
 3227SOL    HW121140   1.767   3.109   0.869  0.3391 -0.1250  0.3847
 3227SOL    HW221141   1.813   3.195   0.770  3.1406  0.1446 -0.2072
 3228SOL     OW21142   2.510   1.008   5.467 -0.0497 -0.5328 -0.4892
 3228SOL    HW121143   2.462   1.086   5.496 -0.2052 -0.3426 -1.2722
 3228SOL    HW221144   2.462   0.995   5.385 -3.0030  0.8974  1.0212
 3229SOL     OW21145   4.548   4.524   6.089 -0.2567 -0.5888  0.3473
 3229SOL    HW121146   4.484   4.588   6.058 -0.1507 -0.7141 -0.1210
 3229SOL    HW221147   4.499   4.442   6.093  0.7496 -1.2833 -1.6289
 3230SOL     OW21148   1.724   0.628   2.268 -0.2525  0.3794  0.4810
 3230SOL    HW121149   1.690   0.553   2.220  0.8776 -0.0663  0.3752
 3230SOL    HW221150   1.813   0.628   2.233  0.4697  0.5660  2.3211
 3231SOL     OW21151   4.169   0.027  12.158  0.5498 -0.0555  0.3509
 3231SOL    HW121152   4.253   0.015  12.114  1.0984  1.0261  1.1138
 3231SOL    HW221153   4.177   4.679  12.223  0.6099 -0.3777 -0.0060
 3232SOL     OW21154   1.609   2.339   6.144 -0.0634  0.2619  0.0166
 3232SOL    HW121155   1.681   2.364   6.086 -0.4975  0.1458 -0.5750
 3232SOL    HW221156   1.621   2.396   6.220 -1.3378 -0.0847  0.4793
 3233SOL     OW21157   2.226   0.329   5.297  0.3102  1.0574 -0.2822
 3233SOL    HW121158   2.159   0.365   5.239 -1.4901  1.5128  2.1009
 3233SOL    HW221159   2.184   0.249   5.330  0.3904  2.5558  3.4249
 3234SOL     OW21160   1.477   2.215   9.268 -0.0966  0.0816  0.3920
 3234SOL    HW121161   1.437   2.149   9.324 -0.7430  0.0577 -0.0975
 3234SOL    HW221162   1.456   2.289   9.325 -2.0332 -0.6601  0.6475
 3235SOL     OW21163   2.990   3.803   5.980  0.2387 -0.3471  0.3829
 3235SOL    HW121164   2.925   3.815   6.049  0.0147  2.0482 -0.2639
 3235SOL    HW221165   3.061   3.766   6.032  0.3847  0.8173  1.0196
 3236SOL     OW21166   0.284   1.009   3.219 -0.1656  0.0644  0.6785
 3236SOL    HW121167   0.197   0.996   3.181  0.1785  0.1060 -0.1272
 3236SOL    HW221168   0.320   1.080   3.166  2.0496 -1.5811 -0.0073
 3237SOL     OW21169   2.936   2.834   0.714 -0.2533 -0.3783 -0.8747
 3237SOL    HW121170   2.851   2.815   0.752 -0.1345 -0.5194 -0.6791
 3237SOL    HW221171   2.929   2.926   0.737 -0.1290 -0.0324 -2.2175
 3238SOL     OW21172   1.122   0.131   2.200  0.1051  0.0434  0.3040
 3238SOL    HW121173   1.059   0.202   2.188 -0.1862 -0.2916 -0.1630
 3238SOL    HW221174   1.192   0.185   2.236 -0.3114 -0.0696  1.2829
 3239SOL     OW21175   1.373   2.213   5.189  0.2381 -0.2288 -0.5532
 3239SOL    HW121176   1.363   2.256   5.104  0.9531  0.7935 -0.1225
 3239SOL    HW221177   1.460   2.174   5.176  0.9921  0.7719  1.5466
 3240SOL     OW21178   2.565   3.945  11.815  0.0561 -0.1776 -0.2801
 3240SOL    HW121179   2.561   3.877  11.882  0.2522  0.9294  0.8722
 3240SOL    HW221180   2.475   3.975  11.829  0.3310  0.8450 -0.6708
 3241SOL     OW21181   3.653   1.275   5.565  0.0961  0.4152  0.3584
 3241SOL    HW121182   3.726   1.220   5.593  0.3851  1.3586  1.4165
 3241SOL    HW221183   3.595   1.200   5.546 -1.3151  1.6792 -0.2921
 3242SOL     OW21184   1.978   0.818   5.371 -0.8067  0.0397  0.2505
 3242SOL    HW121185   1.910   0.886   5.369 -0.4548  0.3607 -1.0099
 3242SOL    HW221186   1.994   0.791   5.461  2.2528  0.8647 -0.0323
 3243SOL     OW21187   0.212   2.654   2.769 -0.5115 -0.4386 -0.1105
 3243SOL    HW121188   0.276   2.596   2.729 -0.1148  0.8187 -1.3174
 3243SOL    HW221189   0.222   2.715   2.695  0.7394  0.0869  0.4935
 3244SOL     OW21190   0.667   3.668   7.838 -0.5077 -0.2623 -0.1528
 3244SOL    HW121191   0.643   3.588   7.792 -0.2929 -0.9616  0.9601
 3244SOL    HW221192   0.638   3.730   7.771 -0.8383 -0.2242  0.0238
 3245SOL     OW21193   1.253   1.147   7.916  0.2563  0.6444  0.8993
 3245SOL    HW121194   1.272   1.055   7.895 -1.0272  0.2516  1.4336
 3245SOL    HW221195   1.334   1.169   7.960  0.1921 -1.0942  1.8810
 3246SOL     OW21196   1.907   2.467   6.499  0.2692 -0.2857  0.3544
 3246SOL    HW121197   1.848   2.475   6.424 -1.9737 -1.4342  2.0493
 3246SOL    HW221198   1.867   2.390   6.538 -0.4987  0.1623  0.4470
 3247SOL     OW21199   1.065   1.519  12.893  0.0924  0.0033  0.5969
 3247SOL    HW121200   1.023   1.581  12.953 -0.5224  0.1878 -0.0216
 3247SOL    HW221201   1.156   1.548  12.901  0.7860 -1.3996 -2.4047
 3248SOL     OW21202   3.175   3.552   5.275 -0.2805 -0.1379 -0.1594
 3248SOL    HW121203   3.119   3.572   5.350  0.1314 -1.7947  0.5963
 3248SOL    HW221204   3.102   3.526   5.220  0.5349 -2.1673 -0.2719
 3249SOL     OW21205   0.060   1.185   7.507  0.4330  0.5677  0.0087
 3249SOL    HW121206   0.146   1.172   7.545  1.1919  0.5103 -1.7469
 3249SOL    HW221207   0.019   1.241   7.573  2.7400  1.0113  1.0637
 3250SOL     OW21208   4.403   4.672   7.313 -1.1843 -0.0944 -0.1125
 3250SOL    HW121209   4.350   4.620   7.253 -1.0948 -0.7112  0.3474
 3250SOL    HW221210   4.442   0.010   7.249  0.2825  1.4345  2.2502
 3251SOL     OW21211   4.692   0.304   0.834 -0.2298 -0.2165 -0.6274
 3251SOL    HW121212   0.028   0.229   0.838  0.2266  0.1999  0.4358
 3251SOL    HW221213   4.688   0.325   0.927  1.1263 -0.6285 -0.4746
 3252SOL     OW21214   0.312   4.373   5.091 -0.4092 -0.3322  0.0227
 3252SOL    HW121215   0.364   4.452   5.082 -1.3138  0.3929  1.1216
 3252SOL    HW221216   0.330   4.338   5.179 -1.7072 -0.9225  0.0494
 3253SOL     OW21217   0.403   0.783   7.473 -0.1974  0.2292 -0.3179
 3253SOL    HW121218   0.377   0.716   7.536 -2.3174 -0.1522 -1.5946
 3253SOL    HW221219   0.380   0.724   7.401  0.0288 -0.8741  0.5009
 3254SOL     OW21220   0.347   1.431   7.041 -0.5143 -0.1330 -0.1698
 3254SOL    HW121221   0.381   1.510   7.000 -0.8956 -0.1714 -0.5585
 3254SOL    HW221222   0.402   1.369   6.992  0.5279  0.1853  0.6020
 3255SOL     OW21223   2.040   1.671   7.684  0.1800  0.1383 -0.6308
 3255SOL    HW121224   2.054   1.599   7.623  0.3215 -0.2620 -0.1251
 3255SOL    HW221225   1.967   1.635   7.735 -0.3035  0.0887 -1.3506
 3256SOL     OW21226   4.716   3.812  14.396 -0.4568  0.2671 -0.4767
 3256SOL    HW121227   0.064   3.863  14.357 -0.1880  1.3596  1.4563
 3256SOL    HW221228   4.637   3.860  14.372  1.9021  2.2951 -4.1542
 3257SOL     OW21229   3.863   1.964   3.110 -0.6942 -0.1018 -0.4624
 3257SOL    HW121230   3.847   2.054   3.082  0.5966  0.2524 -0.0586
 3257SOL    HW221231   3.778   1.920   3.116 -0.8726  0.2637 -0.3068
 3258SOL     OW21232   3.151   4.511   8.051 -0.1589 -0.6408 -0.4102
 3258SOL    HW121233   3.242   4.493   8.076 -0.7336 -1.0682  1.3715
 3258SOL    HW221234   3.158   4.603   8.024  0.3991 -0.8755 -1.0626
 3259SOL     OW21235   1.092   0.882   4.791  0.4875 -0.0789  0.4043
 3259SOL    HW121236   1.180   0.854   4.765  1.1940  1.5173  1.1076
 3259SOL    HW221237   1.053   0.799   4.819  1.7335 -0.8608 -0.1362
 3260SOL     OW21238   0.858   0.748   6.979 -0.2484 -0.1787 -0.2577
 3260SOL    HW121239   0.792   0.752   7.048  0.9340 -0.5939  0.9105
 3260SOL    HW221240   0.801   0.764   6.904 -0.1868  1.3160  0.0149
 3261SOL     OW21241   4.149   0.263   3.202 -0.1245 -0.0108  0.4757
 3261SOL    HW121242   4.225   0.315   3.227 -0.1779  0.0911  0.4224
 3261SOL    HW221243   4.194   0.232   3.124 -2.6217 -0.4801 -0.7727
 3262SOL     OW21244   3.596   1.670   5.726 -0.3174 -0.3748 -0.7133
 3262SOL    HW121245   3.661   1.733   5.758 -1.3226  0.6192 -0.6139
 3262SOL    HW221246   3.515   1.699   5.769 -0.8416 -2.0032 -0.5966
 3263SOL     OW21247   1.801   2.030   6.255 -0.1139  0.3649 -0.2159
 3263SOL    HW121248   1.805   2.062   6.165  1.1334 -0.5363 -0.4776
 3263SOL    HW221249   1.711   1.997   6.257  0.2316 -0.5234  1.0762
 3264SOL     OW21250   4.652   2.576  17.419  1.0036 -0.1708  0.4586
 3264SOL    HW121251   4.709   2.652  17.408  1.2023 -0.0322  2.5105
 3264SOL    HW221252   4.590   2.590  17.347  2.1138 -4.1581 -1.2947
 3265SOL     OW21253   1.974   2.328   5.556 -0.1685  0.7665 -0.6734
 3265SOL    HW121254   2.063   2.294   5.559 -1.0666 -1.4596  1.2288
 3265SOL    HW221255   1.954   2.320   5.463 -1.1445 -0.3202 -0.3651
 3266SOL     OW21256   0.470   2.827   9.560 -0.0693 -0.4436 -0.2988
 3266SOL    HW121257   0.564   2.829   9.578 -0.4980 -0.8363  1.9332
 3266SOL    HW221258   0.431   2.859   9.641  0.9520  0.6143 -0.2225
 3267SOL     OW21259   4.092   3.641   0.967  0.0912  0.3494 -0.5289
 3267SOL    HW121260   4.139   3.568   1.008 -1.3238  0.0648  0.5818
 3267SOL    HW221261   4.157   3.663   0.900  0.1685 -1.1334 -0.9545
 3268SOL     OW21262   3.286   3.976   4.726 -0.2127 -0.3076 -0.0432
 3268SOL    HW121263   3.332   3.992   4.643  1.9067 -1.1513  0.9926
 3268SOL    HW221264   3.251   4.065   4.735  3.1236  1.1351 -1.0807
 3269SOL     OW21265   4.597   4.544   5.507 -0.2160 -0.2761 -0.4609
 3269SOL    HW121266   4.569   4.481   5.573 -1.0389  2.3372  1.6923
 3269SOL    HW221267   4.583   4.625   5.555 -1.1864  0.4442 -1.9607
 3270SOL     OW21268   0.222   0.538   2.722 -0.5088 -0.3108  0.2451
 3270SOL    HW121269   0.303   0.589   2.710 -1.1908  0.1026 -2.7598
 3270SOL    HW221270   0.154   0.603   2.705  1.0182  1.1577 -0.2779
 3271SOL     OW21271   2.428   4.528   4.629  0.6126  0.0705  0.1918
 3271SOL    HW121272   2.337   4.505   4.612  0.1955  1.2088  0.9018
 3271SOL    HW221273   2.428   4.622   4.648 -1.1023 -0.4081  2.5519
 3272SOL     OW21274   0.885   1.965   4.167  0.2686 -0.4316  0.7357
 3272SOL    HW121275   0.975   1.980   4.198  0.4653  0.7278 -0.3974
 3272SOL    HW221276   0.862   2.056   4.149  1.2694 -0.5244 -1.0019
 3273SOL     OW21277   3.970   2.976   3.107  0.1955 -0.3625  0.9249
 3273SOL    HW121278   4.016   2.979   3.024  1.8398  2.4689  1.9360
 3273SOL    HW221279   3.879   2.966   3.077 -0.0493  0.0329  1.5169
 3274SOL     OW21280   3.545   1.897   8.119  0.1240  0.2647  0.1634
 3274SOL    HW121281   3.541   1.801   8.125 -1.6881  0.3003 -0.6032
 3274SOL    HW221282   3.483   1.921   8.188  1.2024  0.8018  0.9452
 3275SOL     OW21283   1.093   3.418   5.590 -0.2474 -0.5314  0.0363
 3275SOL    HW121284   1.128   3.335   5.622  2.5155  0.6282  0.0104
 3275SOL    HW221285   1.012   3.420   5.641  0.6331  2.5115  1.3568
 3276SOL     OW21286   2.868   2.108  14.844 -0.5673  0.4415  0.2674
 3276SOL    HW121287   2.793   2.167  14.849 -0.4182  0.3920  3.0425
 3276SOL    HW221288   2.836   2.033  14.793  2.0962 -0.0195 -0.7412
 3277SOL     OW21289   1.967   0.837   7.147 -0.0597 -0.3637  0.1574
 3277SOL    HW121290   1.983   0.830   7.052 -4.1319  0.7606 -0.6086
 3277SOL    HW221291   2.057   0.819   7.175  0.9049  2.6488 -1.0059
 3278SOL     OW21292   0.055   4.524   2.017  0.0385 -0.0719  0.1592
 3278SOL    HW121293   0.130   4.575   2.048 -1.1873  1.8076  0.0172
 3278SOL    HW221294   0.094   4.438   2.004 -0.3928 -0.2045 -0.2528
 3279SOL     OW21295   0.183   3.590   5.865 -0.4921 -0.2051 -0.4556
 3279SOL    HW121296   0.223   3.637   5.938 -0.9375 -0.0992 -0.2764
 3279SOL    HW221297   0.208   3.641   5.788 -0.3037  1.2969  0.6041
 3280SOL     OW21298   1.191   4.284   9.190 -0.2491 -0.2423  0.4929
 3280SOL    HW121299   1.285   4.286   9.209 -0.3377  0.0044  0.9156
 3280SOL    HW221300   1.192   4.216   9.123 -0.4822  1.1089 -0.8679
 3281SOL     OW21301   1.423   1.282   3.986  0.9395  0.4663 -0.9472
 3281SOL    HW121302   1.387   1.334   3.914 -0.5457 -0.5533 -0.9502
 3281SOL    HW221303   1.473   1.218   3.937  1.4787 -0.9068  1.3826
 3282SOL     OW21304   3.614   4.542   0.540  0.2515  0.2762 -0.0510
 3282SOL    HW121305   3.607   4.447   0.542 -1.4236  0.3765 -0.4550
 3282SOL    HW221306   3.546   4.560   0.475 -0.8155 -1.4971  0.5875
 3283SOL     OW21307   4.020   1.544   5.879  0.1199  0.0381  0.0189
 3283SOL    HW121308   4.069   1.489   5.818  0.0675 -1.9945  1.8090
 3283SOL    HW221309   3.959   1.475   5.905  0.3549  0.1852  0.9633
 3284SOL     OW21310   1.085   1.627   4.566  0.1729  0.9890 -0.3779
 3284SOL    HW121311   1.072   1.634   4.471  1.2791  0.3694 -0.5674
 3284SOL    HW221312   0.996   1.649   4.595 -0.6822  0.1430 -2.3741
 3285SOL     OW21313   3.715   4.660   3.793 -0.2929  0.3703 -0.1834
 3285SOL    HW121314   3.753   4.574   3.776  1.1014  0.9783 -0.1142
 3285SOL    HW221315   3.623   4.643   3.774 -0.5625 -0.7771  2.2394
 3286SOL     OW21316   3.944   1.692  11.916 -0.0749  0.1651 -0.3626
 3286SOL    HW121317   3.859   1.650  11.912 -0.1047 -0.0041  1.9671
 3286SOL    HW221318   3.923   1.785  11.909 -0.1128  0.3027  1.6789
 3287SOL     OW21319   0.845   2.770   3.582 -0.3356 -0.5866  0.6354
 3287SOL    HW121320   0.859   2.858   3.618  1.1960 -0.0615 -1.2895
 3287SOL    HW221321   0.871   2.781   3.491  2.1385 -2.9025  1.0758
 3288SOL     OW21322   3.993   0.971   2.847  0.4256  0.3406  0.3364
 3288SOL    HW121323   3.976   1.065   2.842  2.4433  0.5476 -2.7451
 3288SOL    HW221324   4.071   0.965   2.792  0.0446 -0.0495 -0.1558
 3289SOL     OW21325   3.327   1.720  14.048 -0.2510 -0.3515  0.1785
 3289SOL    HW121326   3.356   1.811  14.043 -1.6434  0.2440  3.5280
 3289SOL    HW221327   3.388   1.684  13.983  2.5955 -0.0004  2.6302
 3290SOL     OW21328   0.090   0.810  16.221 -0.3149  1.2911  0.1314
 3290SOL    HW121329   0.038   0.891  16.216 -2.2114  0.0306 -0.6570
 3290SOL    HW221330   0.138   0.828  16.302  1.8147 -1.0569 -0.6322
 3291SOL     OW21331   2.289   0.808   9.239 -0.2910 -0.1971  0.0900
 3291SOL    HW121332   2.253   0.891   9.268 -0.2812 -0.9304  2.1860
 3291SOL    HW221333   2.337   0.788   9.319 -0.2846  2.3616  0.7214
 3292SOL     OW21334   1.243   3.032   2.058 -0.1821 -0.2877 -0.1023
 3292SOL    HW121335   1.252   3.085   1.978  2.1174  0.2613  0.5059
 3292SOL    HW221336   1.315   3.069   2.109  0.5558  0.2188 -1.5212
 3293SOL     OW21337   3.752   4.348  12.212 -0.4322  0.4466  0.8125
 3293SOL    HW121338   3.809   4.320  12.140  0.8068  1.0997  1.5403
 3293SOL    HW221339   3.680   4.285  12.211 -0.2869  0.2729  1.5717
 3294SOL     OW21340   1.055   3.412   4.665 -0.2172 -0.3825 -0.0954
 3294SOL    HW121341   0.966   3.444   4.655  0.2757  0.6106 -1.3523
 3294SOL    HW221342   1.055   3.342   4.601 -0.9266 -0.5853  0.1359
 3295SOL     OW21343   4.271   2.155  10.183 -0.2224 -0.0523 -0.3225
 3295SOL    HW121344   4.236   2.070  10.209  1.7129 -0.7629 -0.0543
 3295SOL    HW221345   4.332   2.128  10.115 -0.1554 -0.0129 -0.2781
 3296SOL     OW21346   2.757   3.185   9.165  0.4338  0.4721 -0.0682
 3296SOL    HW121347   2.748   3.101   9.210  0.9129  1.2043  1.3967
 3296SOL    HW221348   2.852   3.190   9.159  0.4059  1.8178  0.5949
 3297SOL     OW21349   3.624   3.066  12.466  0.6428 -0.4575 -0.0282
 3297SOL    HW121350   3.590   3.100  12.383  1.3802 -1.2390 -0.6587
 3297SOL    HW221351   3.714   3.046  12.439  1.1990 -0.1163  1.5774
 3298SOL     OW21352   2.828   4.078   9.220  0.1719 -0.0545 -0.2731
 3298SOL    HW121353   2.917   4.050   9.198 -0.3418 -1.4842 -0.5767
 3298SOL    HW221354   2.825   4.050   9.312  1.3557  0.3842 -0.1055
 3299SOL     OW21355   2.087   2.667  11.719  0.3551  0.3559  0.4055
 3299SOL    HW121356   2.055   2.755  11.699 -0.0766  0.3317  1.0027
 3299SOL    HW221357   2.027   2.645  11.789 -0.5108  2.7623  0.4240
 3300SOL     OW21358   0.388   0.665   4.651 -0.1131  0.3241 -0.0796
 3300SOL    HW121359   0.401   0.684   4.744  1.5408 -3.0128  0.3540
 3300SOL    HW221360   0.378   0.750   4.608  2.2104  0.5144 -0.2831
 3301SOL     OW21361   3.747   1.026  10.731 -0.0441 -0.1123  0.3621
 3301SOL    HW121362   3.796   0.949  10.701  0.4853  0.8568 -1.2180
 3301SOL    HW221363   3.803   1.096  10.699 -2.3553  1.7089  0.3471
 3302SOL     OW21364   2.963   4.069  12.182  0.3449 -0.2489  0.5592
 3302SOL    HW121365   3.024   4.010  12.139 -2.7475 -2.2567 -1.0796
 3302SOL    HW221366   2.878   4.038  12.151 -0.3017  1.0958  0.9656
 3303SOL     OW21367   0.846   1.200   3.540  0.0864 -0.3477  0.1240
 3303SOL    HW121368   0.854   1.114   3.501 -1.6577 -1.2656  1.8098
 3303SOL    HW221369   0.819   1.244   3.459  1.2821  2.2414  1.1092
 3304SOL     OW21370   3.821   0.480   0.718  0.0048 -0.5579 -0.8996
 3304SOL    HW121371   3.798   0.387   0.714  1.8362 -1.1154  1.3850
 3304SOL    HW221372   3.868   0.514   0.642  2.0830  0.9075  1.0321
 3305SOL     OW21373   1.327   2.634   0.630 -0.0161 -0.4032  0.0469
 3305SOL    HW121374   1.375   2.558   0.598  1.1609  0.7498 -0.9649
 3305SOL    HW221375   1.242   2.599   0.655 -0.3600 -0.8900 -1.7610
 3306SOL     OW21376   4.664   1.697   5.581  0.4434 -0.6321 -0.2398
 3306SOL    HW121377   0.026   1.685   5.537  0.8524  0.3593  0.2601
 3306SOL    HW221378   4.623   1.746   5.510  0.4614 -1.4112 -0.7776
 3307SOL     OW21379   0.380   2.216   9.566  0.1722 -0.7564 -0.1459
 3307SOL    HW121380   0.347   2.131   9.597  1.9355 -2.0862 -1.9032
 3307SOL    HW221381   0.337   2.274   9.629  1.6290 -1.3113  1.3489
 3308SOL     OW21382   3.708   1.439  10.225  0.6875  0.3395  0.0276
 3308SOL    HW121383   3.676   1.435  10.134 -2.5970  1.3045  1.1275
 3308SOL    HW221384   3.729   1.531  10.237 -0.5391  0.8070 -1.4478
 3309SOL     OW21385   2.129   3.035  12.131  0.1902  0.3944  0.4879
 3309SOL    HW121386   2.207   3.059  12.180 -0.4836  1.1516  1.2062
 3309SOL    HW221387   2.168   3.005  12.049  1.1667 -0.9184  1.4425
 3310SOL     OW21388   4.290   1.183   2.421  0.7914 -0.0319  0.3471
 3310SOL    HW121389   4.256   1.106   2.374  1.7282 -1.5744  2.2072
 3310SOL    HW221390   4.316   1.241   2.349  1.1250 -0.7315 -0.0953
 3311SOL     OW21391   1.430   1.406  13.661  0.2122  0.5482  0.0991
 3311SOL    HW121392   1.516   1.446  13.664  0.8624 -0.9307  1.2436
 3311SOL    HW221393   1.439   1.336  13.725 -0.7397  0.0245 -0.3369
 3312SOL     OW21394   4.648   1.567   8.694  0.1696  0.4590  0.0382
 3312SOL    HW121395   4.584   1.496   8.700  1.4649 -0.9889 -3.0464
 3312SOL    HW221396   4.660   1.579   8.788  1.1798 -0.1708 -0.0049
 3313SOL     OW21397   4.495   2.761  14.723  0.0946 -0.0813  0.2801
 3313SOL    HW121398   4.443   2.700  14.671 -0.5128 -0.8366  1.7834
 3313SOL    HW221399   4.434   2.790  14.791 -0.0804 -1.6758  0.7956
 3314SOL     OW21400   4.414   2.534   1.749 -0.7518  0.6225 -0.3508
 3314SOL    HW121401   4.500   2.565   1.777 -0.5260  0.8414 -1.2989
 3314SOL    HW221402   4.365   2.524   1.831 -1.5069  0.2178 -0.8541
 3315SOL     OW21403   4.439   0.404  13.301  0.3322 -0.3173  0.2062
 3315SOL    HW121404   4.396   0.321  13.280 -4.1791  2.0276  0.1040
 3315SOL    HW221405   4.377   0.477  13.299  0.8574  0.1234  0.2228
 3316SOL     OW21406   3.894   3.458   4.568  0.5050  0.3286  0.2025
 3316SOL    HW121407   3.882   3.504   4.651 -0.5512  0.2612  0.0929
 3316SOL    HW221408   3.882   3.368   4.600  0.3356  0.5279  0.7064
 3317SOL     OW21409   0.114   2.514   6.359 -0.2930  0.5307 -0.3280
 3317SOL    HW121410   0.200   2.524   6.318 -0.0591  1.9424  0.4817
 3317SOL    HW221411   0.068   2.579   6.306  0.6529  1.2179 -0.3092
 3318SOL     OW21412   4.521   1.673  14.921  0.1140 -0.3565  0.6091
 3318SOL    HW121413   4.534   1.593  14.972 -0.6232 -0.2176  1.0200
 3318SOL    HW221414   4.596   1.690  14.864 -1.3008  1.4542 -0.7184
 3319SOL     OW21415   4.158   4.230   3.956 -0.2277 -0.3364  0.0245
 3319SOL    HW121416   4.185   4.139   3.942 -0.1205  0.0067 -1.9676
 3319SOL    HW221417   4.232   4.281   3.990  0.7924 -0.9445 -1.3209
 3320SOL     OW21418   1.866   2.881   0.409  0.1902 -0.2092 -0.1284
 3320SOL    HW121419   1.788   2.871   0.354 -1.2462 -1.1403  2.1146
 3320SOL    HW221420   1.934   2.918   0.352  0.5593  2.4390  2.0301
 3321SOL     OW21421   2.550   1.809   7.668 -0.4145 -0.2431  0.0057
 3321SOL    HW121422   2.585   1.726   7.701 -1.8026  0.1029  2.3117
 3321SOL    HW221423   2.613   1.845   7.606 -0.0739  1.8861  1.6040
 3322SOL     OW21424   2.876   3.913  14.864  0.0733 -0.0902  0.3413
 3322SOL    HW121425   2.808   3.978  14.880 -1.3834 -1.7353  0.8475
 3322SOL    HW221426   2.915   3.946  14.783 -1.3360  0.4620 -0.1037
 3323SOL     OW21427   3.238   4.613  13.722 -0.2682 -0.1470  0.2000
 3323SOL    HW121428   3.283   4.596  13.804  2.1555 -1.7120 -1.4635
 3323SOL    HW221429   3.297   4.559  13.670 -0.2401  1.2182 -1.1898
 3324SOL     OW21430   1.383   3.404   6.614 -0.3747  0.6473 -0.0911
 3324SOL    HW121431   1.441   3.473   6.582  0.5750  0.8150  1.9634
 3324SOL    HW221432   1.453   3.344   6.638 -1.5697 -1.1921 -1.2141
 3325SOL     OW21433   0.843   0.732  15.207  0.0765  0.0707 -0.1153
 3325SOL    HW121434   0.914   0.795  15.198  1.0349 -0.5145  3.2365
 3325SOL    HW221435   0.881   0.653  15.246 -1.9396 -0.4981  0.6795
 3326SOL     OW21436   4.530   1.166  15.122  0.3429 -0.3247  0.3291
 3326SOL    HW121437   4.450   1.130  15.084  1.3490 -1.5996 -0.5468
 3326SOL    HW221438   4.531   1.258  15.095  2.3609 -0.4524  0.0205
 3327SOL     OW21439   4.198   2.942   8.397  0.2607 -0.6078 -0.2977
 3327SOL    HW121440   4.108   2.934   8.429  0.9008  0.8017  1.8027
 3327SOL    HW221441   4.216   2.860   8.351 -0.8607 -2.0614  1.8649
 3328SOL     OW21442   1.136   2.869  15.922 -0.5948 -0.1482  0.0699
 3328SOL    HW121443   1.190   2.791  15.923  1.5124  1.3168  1.3936
 3328SOL    HW221444   1.164   2.914  15.842  2.1979  0.1532  1.2076
 3329SOL     OW21445   3.568   3.899   0.743 -0.0133  0.1854 -0.0265
 3329SOL    HW121446   3.525   3.836   0.800 -1.0588  2.3516  1.5867
 3329SOL    HW221447   3.613   3.944   0.815  0.2091 -0.4178  0.2064
 3330SOL     OW21448   1.781   2.370  16.308 -0.4342  0.3905 -0.4424
 3330SOL    HW121449   1.700   2.420  16.311 -0.2274  0.8991 -3.2693
 3330SOL    HW221450   1.743   2.282  16.309  2.1200 -0.7335 -0.4935
 3331SOL     OW21451   3.511   2.055   0.565 -0.3679 -0.4584  0.3316
 3331SOL    HW121452   3.560   2.004   0.500  0.9919  0.0075  1.0112
 3331SOL    HW221453   3.423   2.036   0.532  0.0227  2.1101 -2.2036
 3332SOL     OW21454   1.357   1.412  15.802  0.4542 -0.2714  0.4545
 3332SOL    HW121455   1.425   1.412  15.734 -0.9904  1.2885 -0.9987
 3332SOL    HW221456   1.375   1.495  15.847  0.0178  0.0303  0.0675
 3333SOL     OW21457   3.600   0.187  15.910  0.0405  0.7753 -0.1454
 3333SOL    HW121458   3.648   0.110  15.938 -1.3727  0.4628  1.4354
 3333SOL    HW221459   3.527   0.179  15.972  0.7541  0.9682  0.7161
 3334SOL     OW21460   4.468   2.815  14.391 -0.1809  0.9724 -0.5052
 3334SOL    HW121461   4.509   2.837  14.307 -1.2503 -1.8921 -1.7819
 3334SOL    HW221462   4.425   2.896  14.419  1.6930  1.8318 -0.1034
 3335SOL     OW21463   0.319   4.277   5.660 -0.5461  0.0960 -0.0100
 3335SOL    HW121464   0.341   4.368   5.641 -0.9239  0.1776 -0.0679
 3335SOL    HW221465   0.245   4.250   5.606 -0.6846 -1.2398  0.8312
 3336SOL     OW21466   3.209   3.688   8.764  0.2438 -0.3309 -0.0016
 3336SOL    HW121467   3.244   3.599   8.768  1.8128  0.2123 -1.4808
 3336SOL    HW221468   3.139   3.683   8.700  0.0012  1.6701  0.1059
 3337SOL     OW21469   2.810   0.413   7.437 -0.0674  0.1110  0.0275
 3337SOL    HW121470   2.741   0.349   7.456 -0.1746 -0.1744 -1.2675
 3337SOL    HW221471   2.851   0.413   7.523  1.9152  2.8128 -0.9108
 3338SOL     OW21472   0.497   1.814   6.029  0.2015 -0.0648  0.2478
 3338SOL    HW121473   0.469   1.902   6.055  1.2793  0.5636 -0.6836
 3338SOL    HW221474   0.576   1.837   5.980  0.1275 -1.8853 -0.7045
 3339SOL     OW21475   0.193   0.083   4.900 -0.0015 -0.0455  0.0221
 3339SOL    HW121476   0.167   0.157   4.955  0.0226  0.2462 -0.3622
 3339SOL    HW221477   0.111   0.047   4.866  1.2384 -2.0416 -0.7836
 3340SOL     OW21478   2.404   3.973   6.257  0.3998 -0.5800  0.4718
 3340SOL    HW121479   2.462   4.047   6.275 -3.6510  2.1390  2.1968
 3340SOL    HW221480   2.349   4.016   6.191 -0.3967 -0.2435  1.3726
 3341SOL     OW21481   2.297   2.729  13.743  0.2461  0.1140  0.4126
 3341SOL    HW121482   2.309   2.648  13.792  0.6760 -1.6474 -2.6008
 3341SOL    HW221483   2.229   2.708  13.678  0.8984 -0.2317 -0.1547
 3342SOL     OW21484   2.218   0.282  10.902 -0.2370 -0.1281 -0.2783
 3342SOL    HW121485   2.250   0.273  10.992 -0.9065 -3.5997 -0.3794
 3342SOL    HW221486   2.207   0.192  10.872 -2.6638  0.3493 -0.8274
 3343SOL     OW21487   0.496   3.340   1.827 -0.2913 -0.4692 -0.1765
 3343SOL    HW121488   0.474   3.250   1.853 -0.5394 -0.1563  0.6863
 3343SOL    HW221489   0.537   3.327   1.741  1.0351  0.5276  0.3062
 3344SOL     OW21490   0.371   1.152   8.242  0.2571  0.1847  0.3888
 3344SOL    HW121491   0.360   1.058   8.253 -1.7826  0.4336  0.3682
 3344SOL    HW221492   0.428   1.165   8.166  0.6704 -0.6134  0.5626
 3345SOL     OW21493   3.910   1.593   2.619 -0.1291  0.5035 -0.7223
 3345SOL    HW121494   3.856   1.595   2.540  0.4346 -0.2577 -1.1261
 3345SOL    HW221495   3.848   1.580   2.691  1.1697 -1.2306  0.0889
 3346SOL     OW21496   2.067   2.642   9.460  0.2121  0.1858  0.0423
 3346SOL    HW121497   2.041   2.685   9.541 -2.3031  0.5326 -0.9534
 3346SOL    HW221498   2.126   2.576   9.495 -1.2503 -0.0009  2.1334
 3347SOL     OW21499   0.974   0.273  17.055 -0.3725 -0.4340 -0.6954
 3347SOL    HW121500   0.998   0.363  17.075 -1.1735  0.0650 -1.9629
 3347SOL    HW221501   0.923   0.292  16.976 -0.3722 -0.2717 -0.6563
 3348SOL     OW21502   4.631   3.494   0.390  0.5334 -0.3266 -0.5409
 3348SOL    HW121503   4.653   3.499   0.483 -0.9373 -1.5269 -0.1338
 3348SOL    HW221504   4.655   3.581   0.360 -0.6145 -0.2812 -1.3065
 3349SOL     OW21505   3.238   0.512   6.493 -0.1675  0.6307 -0.3792
 3349SOL    HW121506   3.253   0.426   6.454  2.1073  0.8072  0.1151
 3349SOL    HW221507   3.249   0.558   6.410 -2.0286  1.5469 -0.1185
 3350SOL     OW21508   0.049   1.725  14.785 -0.1875 -0.6511  0.0259
 3350SOL    HW121509   0.122   1.672  14.753 -1.4644 -0.2391 -3.5190
 3350SOL    HW221510   0.007   1.745  14.701  1.5639  1.8132 -0.2889
 3351SOL     OW21511   0.989   1.031   4.262  0.0086  0.4997 -0.5284
 3351SOL    HW121512   0.928   1.105   4.262 -0.0421  0.4681  1.0313
 3351SOL    HW221513   0.968   0.989   4.179  2.9193 -2.3988  0.2225
 3352SOL     OW21514   0.592   0.099   8.283  0.3843  0.3167 -0.2541
 3352SOL    HW121515   0.536   0.113   8.359  0.7792 -1.0186  0.2893
 3352SOL    HW221516   0.567   0.008   8.266 -1.4408  0.4223  1.8086
 3353SOL     OW21517   0.364   2.807  17.032 -0.2590  0.3306 -0.1859
 3353SOL    HW121518   0.346   2.731  16.977  1.3164 -0.9438  1.0812
 3353SOL    HW221519   0.274   2.840  17.026  0.3317  1.7627 -1.2068
 3354SOL     OW21520   3.657   2.335  11.399  0.1791  0.5508  0.3269
 3354SOL    HW121521   3.746   2.304  11.415  0.5132  1.6931  0.7398
 3354SOL    HW221522   3.641   2.356  11.491 -1.2566  0.0126  0.1861
 3355SOL     OW21523   3.527   2.509   8.583 -0.5714 -0.6400 -0.3963
 3355SOL    HW121524   3.583   2.432   8.598  1.0548  0.3853 -1.1016
 3355SOL    HW221525   3.563   2.556   8.658  0.9991 -1.8115 -0.4120
 3356SOL     OW21526   4.354   2.030   5.412 -0.5340 -0.1042  0.0118
 3356SOL    HW121527   4.337   2.003   5.322 -1.3475  1.5224 -0.3181
 3356SOL    HW221528   4.442   1.994   5.424 -0.3328  0.9588  1.6562
 3357SOL     OW21529   3.736   4.514   2.293  0.3579  0.1727 -0.2181
 3357SOL    HW121530   3.658   4.488   2.244  0.5466 -1.5679  0.4121
 3357SOL    HW221531   3.691   4.545   2.372  1.7586  1.1997  0.1655
 3358SOL     OW21532   3.442   3.696  10.878  0.6304  0.0024 -0.0730
 3358SOL    HW121533   3.444   3.606  10.845  2.7377 -0.1632  0.4878
 3358SOL    HW221534   3.537   3.708  10.875  0.7266 -0.6180  0.5584
 3359SOL     OW21535   1.319   2.936   4.976  0.5711  0.4946 -0.0875
 3359SOL    HW121536   1.272   3.019   4.988 -0.8144 -0.0004 -2.0371
 3359SOL    HW221537   1.386   2.935   5.044  1.0677  0.1984 -0.5841
 3360SOL     OW21538   3.295   1.019   2.990  0.0571  0.0355 -0.3418
 3360SOL    HW121539   3.291   1.041   2.897  0.8954 -1.1328 -0.6522
 3360SOL    HW221540   3.273   1.098   3.039 -1.0548  1.1619 -2.6788
 3361SOL     OW21541   1.812   0.173  17.075  0.2575  0.0969 -0.0444
 3361SOL    HW121542   1.791   0.241  17.140  0.7205  1.4077 -1.2806
 3361SOL    HW221543   1.895   0.142  17.111  0.9293  1.2402 -0.6385
 3362SOL     OW21544   2.688   4.078  14.939  0.0167  0.2320  0.1549
 3362SOL    HW121545   2.739   4.158  14.949  0.6529  0.1900 -2.6303
 3362SOL    HW221546   2.645   4.073  15.024 -1.8606  0.7291 -0.7574
 3363SOL     OW21547   0.297   1.892  17.263  0.4667 -0.4090  0.2180
 3363SOL    HW121548   0.225   1.930  17.212  1.0418  1.5120  0.8341
 3363SOL    HW221549   0.368   1.902  17.199 -0.0429 -2.8677 -0.7301
 3364SOL     OW21550   4.341   4.632   2.329 -0.6145 -0.1418 -0.2512
 3364SOL    HW121551   4.300   4.672   2.406  1.2407  1.5653 -0.1613
 3364SOL    HW221552   4.258   4.606   2.291  0.3124 -1.5624 -1.2862
 3365SOL     OW21553   1.880   0.029   6.199  0.0413  0.0895  0.2216
 3365SOL    HW121554   1.856   4.682   6.261 -1.8465 -0.7207 -1.4413
 3365SOL    HW221555   1.813   0.088   6.232  0.9572  0.8587  0.7143
 3366SOL     OW21556   1.485   2.586   9.122  0.1569 -0.8551  0.8420
 3366SOL    HW121557   1.452   2.574   9.211  0.2104 -1.2786  0.8032
 3366SOL    HW221558   1.453   2.508   9.078 -1.4813  0.9942 -1.2413
 3367SOL     OW21559   2.627   4.174   4.581 -0.0064 -0.3620 -0.3576
 3367SOL    HW121560   2.654   4.199   4.669 -1.3346 -1.3726  0.3191
 3367SOL    HW221561   2.636   4.261   4.542 -0.4017 -1.2153 -2.3747
 3368SOL     OW21562   0.525   2.316  17.556  0.1885  0.2391  0.5740
 3368SOL    HW121563   0.468   2.388  17.531  2.3193  2.1168  1.1175
 3368SOL    HW221564   0.496   2.247  17.496  1.6790 -2.0363  2.4511
 3369SOL     OW21565   1.948   2.316   4.646 -0.0191  0.2602 -0.2277
 3369SOL    HW121566   1.858   2.302   4.619  0.4306 -2.7426 -0.1617
 3369SOL    HW221567   1.976   2.405   4.622  0.9965  0.2678  0.9777
 3370SOL     OW21568   0.085   0.760  12.111 -0.0094  0.4149  0.6162
 3370SOL    HW121569   0.171   0.766  12.068  0.5248  0.0256  1.6252
 3370SOL    HW221570   0.094   0.703  12.187 -0.3556  0.3779  0.6259
 3371SOL     OW21571   3.209   2.342  13.411 -0.0163  0.0927  0.5991
 3371SOL    HW121572   3.172   2.258  13.437 -0.5352  0.3697  0.7621
 3371SOL    HW221573   3.286   2.349  13.466  0.3100  1.6394 -0.0333
 3372SOL     OW21574   0.472   4.613   7.320  0.2658  0.0731  0.0188
 3372SOL    HW121575   0.537   4.649   7.380  0.9177 -0.1921 -0.5292
 3372SOL    HW221576   0.390   4.648   7.355 -1.1075 -2.2272 -0.8223
 3373SOL     OW21577   3.254   3.853   9.645 -0.1926 -0.0346 -0.0639
 3373SOL    HW121578   3.199   3.908   9.701 -2.2643 -2.1271 -0.0584
 3373SOL    HW221579   3.328   3.913   9.634  0.0750 -0.1195  1.3333
 3374SOL     OW21580   2.582   4.571   1.110  0.4532  0.2504 -0.7579
 3374SOL    HW121581   2.652   4.630   1.079 -0.4433  0.7868 -1.7844
 3374SOL    HW221582   2.509   4.590   1.051  0.0506 -0.5419 -0.5018
 3375SOL     OW21583   3.046   2.278   2.525 -0.1570 -0.5462 -0.0632
 3375SOL    HW121584   3.110   2.208   2.540  0.2725 -0.0956  0.2130
 3375SOL    HW221585   3.058   2.330   2.605  0.0067 -0.0162 -0.4380
 3376SOL     OW21586   3.011   3.274  14.089  0.0538 -0.4754  0.7200
 3376SOL    HW121587   2.994   3.325  14.168  1.2653 -1.6601  1.7437
 3376SOL    HW221588   3.104   3.258  14.102  0.0520 -1.3770 -0.3779
 3377SOL     OW21589   0.173   1.292   8.760  0.4229 -0.0731  0.0961
 3377SOL    HW121590   0.234   1.283   8.687  0.0448  2.4817 -0.5604
 3377SOL    HW221591   0.092   1.272   8.714  1.1362  3.1730 -2.6042
 3378SOL     OW21592   0.874   2.612   8.003  0.1186 -0.1349  0.3193
 3378SOL    HW121593   0.788   2.584   8.035  0.6425 -1.2026  0.7709
 3378SOL    HW221594   0.919   2.612   8.087  3.0397  2.3754 -1.2656
 3379SOL     OW21595   0.176   4.531   4.491 -0.0116 -0.1813  0.1270
 3379SOL    HW121596   0.202   4.594   4.424  1.3968  0.1708  1.0081
 3379SOL    HW221597   0.240   4.550   4.559 -0.9886 -2.4116  1.6821
 3380SOL     OW21598   2.148   4.589  15.323 -0.3753  0.5712 -0.9301
 3380SOL    HW121599   2.081   4.639  15.277  0.3837  1.6306 -0.8683
 3380SOL    HW221600   2.120   4.590  15.415 -2.6985 -0.6942 -1.6365
 3381SOL     OW21601   3.888   1.253   7.082 -0.1380  0.1182  0.2304
 3381SOL    HW121602   3.859   1.242   7.173 -0.0856 -2.5778 -0.0839
 3381SOL    HW221603   3.920   1.343   7.069  1.3470 -0.2725  1.1890
 3382SOL     OW21604   3.076   2.666   6.923 -0.0715 -0.0064  0.0064
 3382SOL    HW121605   3.144   2.605   6.951  2.5033  3.2959  0.8657
 3382SOL    HW221606   3.002   2.633   6.975 -0.1644 -0.3717 -0.3573
 3383SOL     OW21607   3.595   1.681  13.371  0.5157  0.0296 -0.2413
 3383SOL    HW121608   3.623   1.744  13.439 -2.7574  1.3771 -0.1677
 3383SOL    HW221609   3.672   1.625  13.360 -0.2165 -1.0421  0.1117
 3384SOL     OW21610   0.856   2.641   5.427  0.1525 -0.0410  0.2889
 3384SOL    HW121611   0.807   2.705   5.376  1.0255 -1.1072 -1.8923
 3384SOL    HW221612   0.929   2.694   5.458 -0.1588 -0.1584  1.2211
 3385SOL     OW21613   3.102   3.164   0.593  0.1878 -0.0623  0.5212
 3385SOL    HW121614   3.040   3.137   0.661  1.1718  1.9817  2.2125
 3385SOL    HW221615   3.034   3.186   0.529 -0.9009  1.6215  2.2859
 3386SOL     OW21616   4.210   3.143  11.719  0.0132 -0.0941  0.7670
 3386SOL    HW121617   4.182   3.164  11.808  0.3625 -0.2075  0.9034
 3386SOL    HW221618   4.304   3.147  11.740 -0.3917 -0.2716  2.5656
 3387SOL     OW21619   2.317   1.118  12.420 -0.4845 -0.0639 -0.4325
 3387SOL    HW121620   2.314   1.180  12.492  0.5617 -0.5184  0.0104
 3387SOL    HW221621   2.293   1.172  12.344  0.6944  2.6823  1.1412
 3388SOL     OW21622   1.410   3.969   0.964 -0.6785 -0.1346 -0.1976
 3388SOL    HW121623   1.359   3.973   1.045 -1.3409 -0.6553 -0.5893
 3388SOL    HW221624   1.479   3.912   0.998 -2.1536 -1.4988  0.4946
 3389SOL     OW21625   3.656   0.427  16.099  0.3119 -0.1225 -0.3277
 3389SOL    HW121626   3.684   0.350  16.050 -0.3483  0.1868 -1.2097
 3389SOL    HW221627   3.734   0.476  16.123  0.6413 -1.5026  1.3219
 3390SOL     OW21628   2.954   4.703   4.752 -0.1780 -0.2562 -0.0687
 3390SOL    HW121629   2.998   0.062   4.727  1.3900 -0.4301  2.0698
 3390SOL    HW221630   2.903   0.012   4.826  0.4892  0.5356  0.0447
 3391SOL     OW21631   0.835   2.826   1.615 -0.1004 -0.0030 -0.1113
 3391SOL    HW121632   0.895   2.785   1.677  2.7214  3.4524 -0.5127
 3391SOL    HW221633   0.881   2.802   1.534 -1.3082  1.1729 -1.1534
 3392SOL     OW21634   0.988   3.179   2.212 -0.2043  0.4517  0.2139
 3392SOL    HW121635   0.968   3.114   2.144  0.7158 -2.4547  2.7037
 3392SOL    HW221636   1.043   3.126   2.271 -0.6905  0.4846  0.7016
 3393SOL     OW21637   2.664   0.817   3.401 -0.4377  0.1007  0.2587
 3393SOL    HW121638   2.744   0.790   3.356 -0.1033  0.5276  0.5998
 3393SOL    HW221639   2.660   0.908   3.373  2.9743  0.0605 -0.3202
 3394SOL     OW21640   4.559   2.967   4.096  0.6528 -0.0099  0.2585
 3394SOL    HW121641   4.556   2.881   4.136  0.3800 -0.1410 -0.0419
 3394SOL    HW221642   4.509   2.963   4.014 -0.4789  1.4699  0.8820
 3395SOL     OW21643   4.634   2.113  14.471  0.0933  0.1853  0.0501
 3395SOL    HW121644   4.597   2.197  14.444 -2.0806 -0.3159  1.4292
 3395SOL    HW221645   4.720   2.112  14.430 -0.1722  2.4749 -0.5131
 3396SOL     OW21646   4.574   0.702  16.287 -0.2565  0.5631  0.7622
 3396SOL    HW121647   4.649   0.737  16.237  0.7457 -2.3961  0.1594
 3396SOL    HW221648   4.630   0.653  16.348  0.8142  2.2659  1.1426
 3397SOL     OW21649   1.215   1.547   6.214 -0.1560 -0.1603  0.3881
 3397SOL    HW121650   1.163   1.477   6.174 -1.7165  1.2697 -0.0789
 3397SOL    HW221651   1.191   1.613   6.148 -0.0305 -0.5650 -0.0629
 3398SOL     OW21652   3.513   1.968   3.940 -0.7546 -0.3320  0.0374
 3398SOL    HW121653   3.604   1.964   3.910 -0.8749  1.5074 -0.5693
 3398SOL    HW221654   3.478   2.044   3.893 -1.0840  0.9483  2.3619
 3399SOL     OW21655   1.150   4.235  11.260 -0.7043  1.0656 -0.0436
 3399SOL    HW121656   1.185   4.308  11.209  1.0638  0.1619 -0.1606
 3399SOL    HW221657   1.197   4.241  11.343 -1.6037  1.1648  0.4502
 3400SOL     OW21658   0.901   3.135   0.549 -0.4662 -0.1361  0.2531
 3400SOL    HW121659   0.827   3.149   0.489 -1.3687  2.3696  1.9276
 3400SOL    HW221660   0.850   3.176   0.619 -0.5809 -0.6351  0.4554
 3401SOL     OW21661   3.918   3.737  10.825 -0.1156 -0.0270  1.1485
 3401SOL    HW121662   4.011   3.760  10.818  0.3203 -2.1512  0.1586
 3401SOL    HW221663   3.885   3.770  10.741 -1.0277 -0.8615  1.1862
 3402SOL     OW21664   1.163   1.267   9.362  0.3791 -0.0950  0.0292
 3402SOL    HW121665   1.193   1.226   9.443  0.7917  1.4893  0.6814
 3402SOL    HW221666   1.244   1.260   9.312 -0.2809  2.0422 -1.3616
 3403SOL     OW21667   1.012   4.598   8.897 -0.0252 -0.1994  1.2274
 3403SOL    HW121668   1.106   4.606   8.915  0.3121 -0.1684 -0.5708
 3403SOL    HW221669   0.981   4.679   8.938 -0.4841 -0.5947  1.6585
 3404SOL     OW21670   1.599   3.678  12.196  0.3553 -0.4741 -0.5830
 3404SOL    HW121671   1.513   3.652  12.163 -0.8870  2.7679  0.1564
 3404SOL    HW221672   1.581   3.772  12.195  1.7674 -0.1897  2.4614
 3405SOL     OW21673   4.311   1.672  11.505  0.0469 -0.4308  0.1937
 3405SOL    HW121674   4.390   1.647  11.456 -0.8311 -1.3942 -0.7317
 3405SOL    HW221675   4.312   1.621  11.586  0.6673  1.0579  1.1263
 3406SOL     OW21676   2.929   1.902   8.198 -0.1187  0.4491  0.0209
 3406SOL    HW121677   2.970   1.988   8.186  3.0264 -0.8382  1.6209
 3406SOL    HW221678   2.834   1.916   8.198 -0.0475  0.9144  1.3761
 3407SOL     OW21679   0.304   2.918   8.406  0.2271  0.1720 -0.0633
 3407SOL    HW121680   0.399   2.911   8.411  0.4507  1.8030 -2.0234
 3407SOL    HW221681   0.274   2.952   8.490 -1.4484 -1.2966 -0.0697
 3408SOL     OW21682   3.217   0.449   1.081  0.2234  0.2056 -0.3196
 3408SOL    HW121683   3.213   0.536   1.040  0.9649 -0.4519 -1.7782
 3408SOL    HW221684   3.303   0.415   1.056  0.0934 -1.2752  1.3047
 3409SOL     OW21685   4.634   1.422   9.559  0.3014 -0.4138 -0.0193
 3409SOL    HW121686   4.625   1.514   9.534 -1.7777 -0.4504  0.5415
 3409SOL    HW221687   4.687   1.425   9.639 -0.6741 -1.4401  0.6749
 3410SOL     OW21688   3.787   0.819   5.902  0.3068 -0.5713  0.2714
 3410SOL    HW121689   3.858   0.755   5.905 -1.7088 -2.8593 -0.3443
 3410SOL    HW221690   3.715   0.771   5.943 -2.3309  4.2019  1.1641
 3411SOL     OW21691   0.614   2.009  15.347 -0.9385  0.1794 -0.3319
 3411SOL    HW121692   0.581   1.958  15.273  0.9174 -0.0454 -1.0094
 3411SOL    HW221693   0.654   2.078  15.293  0.1553  1.0250  1.5660
 3412SOL     OW21694   0.469   0.424   4.532 -0.2093  0.0619 -0.3014
 3412SOL    HW121695   0.511   0.378   4.604 -0.1593  1.1326  0.3565
 3412SOL    HW221696   0.450   0.511   4.566  0.8428  0.1446  0.0696
 3413SOL     OW21697   4.520   4.303  16.570  0.7127  0.1625  0.9226
 3413SOL    HW121698   4.589   4.320  16.634  2.3349 -1.4386 -0.3683
 3413SOL    HW221699   4.456   4.362  16.608 -0.3494 -1.9784  2.4247
 3414SOL     OW21700   4.211   2.742  11.222 -0.1850  0.2065  0.6497
 3414SOL    HW121701   4.193   2.684  11.148 -1.8043 -0.4677  1.5542
 3414SOL    HW221702   4.276   2.798  11.180  0.3318 -1.1176 -0.3093
 3415SOL     OW21703   0.599   0.867  13.119 -0.0441 -0.1867  0.5835
 3415SOL    HW121704   0.686   0.825  13.114 -0.1446 -0.1437 -1.8028
 3415SOL    HW221705   0.626   0.959  13.118 -0.0851 -0.1779 -0.3512
 3416SOL     OW21706   3.432   4.233   7.896 -0.4453 -0.5546 -0.0990
 3416SOL    HW121707   3.489   4.298   7.938 -0.2403 -0.9312  0.2105
 3416SOL    HW221708   3.495   4.160   7.892 -1.7126 -1.7189  1.2087
 3417SOL     OW21709   3.457   2.873   5.100 -0.0642  0.2397  0.0627
 3417SOL    HW121710   3.490   2.930   5.030 -2.1515  2.4712  0.9054
 3417SOL    HW221711   3.363   2.884   5.087 -0.3603 -0.7495  1.3978
 3418SOL     OW21712   0.878   4.338   2.044  0.1757 -0.7839  0.0918
 3418SOL    HW121713   0.871   4.268   1.979  0.4529 -0.8300  0.1110
 3418SOL    HW221714   0.930   4.289   2.108 -2.0393 -0.2116  2.3528
 3419SOL     OW21715   1.592   4.433   3.253 -0.1734  0.5931 -0.3407
 3419SOL    HW121716   1.608   4.354   3.201 -3.5907 -0.8785  0.7598
 3419SOL    HW221717   1.552   4.488   3.186 -0.8247 -0.0156 -0.4574
 3420SOL     OW21718   1.967   3.809  13.312 -0.3423 -0.2921 -0.3865
 3420SOL    HW121719   2.059   3.788  13.331  0.0290 -1.3231 -3.3006
 3420SOL    HW221720   1.931   3.806  13.401 -0.4661 -0.6015 -0.4441
 3421SOL     OW21721   2.367   2.647  11.090  0.1005 -0.5253  0.0355
 3421SOL    HW121722   2.287   2.691  11.061  0.6188 -0.8176 -1.8533
 3421SOL    HW221723   2.430   2.697  11.038  2.3804 -1.7742  1.6159
 3422SOL     OW21724   2.544   4.248   7.698 -0.5859  0.7746 -0.4631
 3422SOL    HW121725   2.520   4.190   7.626 -0.0724  0.3659 -0.3072
 3422SOL    HW221726   2.614   4.303   7.663  0.6505 -1.6004 -1.7260
 3423SOL     OW21727   4.365   3.755   7.044  0.6205  0.2030 -0.4434
 3423SOL    HW121728   4.426   3.795   7.105 -0.0058  2.3688 -1.2396
 3423SOL    HW221729   4.280   3.781   7.081 -0.4148 -2.3018 -0.9833
 3424SOL     OW21730   3.835   4.028   2.297  0.1367 -0.3690 -0.3780
 3424SOL    HW121731   3.754   3.985   2.272  0.0496 -0.5172  0.1571
 3424SOL    HW221732   3.841   3.984   2.382  1.4130 -2.1899 -1.4123
 3425SOL     OW21733   0.292   0.984  11.519 -0.1975 -0.4445 -0.2449
 3425SOL    HW121734   0.323   1.068  11.553 -0.4143 -0.9845  1.3350
 3425SOL    HW221735   0.292   0.997  11.425  0.9289  0.0763 -0.1758
 3426SOL     OW21736   3.416   3.925   3.443 -0.2475  0.3158  0.0972
 3426SOL    HW121737   3.500   3.959   3.474 -0.0951 -1.4166  1.5965
 3426SOL    HW221738   3.364   3.911   3.522 -0.7866 -0.6919 -0.4435
 3427SOL     OW21739   3.203   0.327   3.745 -0.0273  0.4579 -0.4988
 3427SOL    HW121740   3.175   0.418   3.736 -0.6186  0.4396  1.2791
 3427SOL    HW221741   3.283   0.348   3.793 -0.7516 -0.4643  1.0936
 3428SOL     OW21742   2.675   1.107   4.896  0.3844 -0.0810  0.6419
 3428SOL    HW121743   2.583   1.084   4.890  1.0036 -1.4456 -3.5552
 3428SOL    HW221744   2.701   1.022   4.931 -0.4843 -0.0169  1.4662
 3429SOL     OW21745   1.371   0.618   3.109 -0.1063  0.4607 -0.2239
 3429SOL    HW121746   1.405   0.607   3.020  0.8593  2.2086 -0.0585
 3429SOL    HW221747   1.313   0.693   3.102 -0.3403  0.0295 -2.7596
 3430SOL     OW21748   0.692   3.805   5.271 -0.0544 -0.3582 -0.3435
 3430SOL    HW121749   0.704   3.711   5.258 -3.1296 -1.0750  1.9007
 3430SOL    HW221750   0.619   3.827   5.212 -0.7701 -1.3880  0.1510
 3431SOL     OW21751   2.147   3.867   5.722  0.1564  0.1382 -0.6564
 3431SOL    HW121752   2.219   3.912   5.679 -0.0327  1.3074  0.2508
 3431SOL    HW221753   2.189   3.842   5.804 -1.3213  0.5589  0.2319
 3432SOL     OW21754   1.866   1.799   2.025  0.0951 -0.0275  0.2579
 3432SOL    HW121755   1.823   1.717   2.000 -1.6649  0.3523  2.0170
 3432SOL    HW221756   1.956   1.770   2.013 -0.0905  0.3378 -1.9701
 3433SOL     OW21757   1.582   0.808   2.902 -0.9333  0.4468 -0.0061
 3433SOL    HW121758   1.580   0.719   2.865  2.5648  0.3366  0.0349
 3433SOL    HW221759   1.676   0.826   2.904 -0.2278 -3.3687  3.1511
 3434SOL     OW21760   2.800   1.869  17.389  0.5053 -0.3131 -0.2437
 3434SOL    HW121761   2.738   1.933  17.353  0.3439  0.1344  0.8358
 3434SOL    HW221762   2.881   1.914  17.365  1.0896 -0.9938  0.4486
 3435SOL     OW21763   2.310   0.565   7.658 -0.6129  0.2742 -0.0416
 3435SOL    HW121764   2.400   0.547   7.630 -0.0189 -0.3293  2.2982
 3435SOL    HW221765   2.324   0.656   7.686  1.1737  0.2391 -0.7894
 3436SOL     OW21766   3.737   3.825   0.412  0.7861  0.1026  0.0940
 3436SOL    HW121767   3.670   3.776   0.458  1.0617  0.4303  0.8571
 3436SOL    HW221768   3.737   3.768   0.336 -1.0450 -0.5663  0.6158
 3437SOL     OW21769   3.435   1.949   8.937 -0.2751 -0.1138  0.4378
 3437SOL    HW121770   3.510   1.906   8.978  0.0525 -2.2345 -2.3944
 3437SOL    HW221771   3.397   1.992   9.014 -0.7674 -1.2661  0.8280
 3438SOL     OW21772   2.639   1.286   1.975  0.0994  0.6393 -0.1157
 3438SOL    HW121773   2.646   1.359   2.038  1.1402 -0.2593  0.8107
 3438SOL    HW221774   2.720   1.303   1.927  0.4797  0.2874  0.4006
 3439SOL     OW21775   3.305   2.936  12.360 -0.3896 -0.1776  0.4871
 3439SOL    HW121776   3.377   2.909  12.302 -1.6224 -0.7434 -0.7890
 3439SOL    HW221777   3.239   2.968  12.298  0.7464  0.9708 -0.1183
 3440SOL     OW21778   2.413   3.702   8.800 -0.4536 -0.6012 -0.3498
 3440SOL    HW121779   2.488   3.704   8.859  0.0144  2.8148 -1.0708
 3440SOL    HW221780   2.398   3.609   8.782 -0.7470 -0.3767 -1.2706
 3441SOL     OW21781   4.291   3.393   8.815 -0.7655 -0.5299 -0.6585
 3441SOL    HW121782   4.312   3.320   8.756 -0.6338 -0.3823 -0.7934
 3441SOL    HW221783   4.211   3.354   8.850  0.6857 -3.1587 -0.2202
 3442SOL     OW21784   0.552   3.628   5.571  0.3323 -0.1494  0.5018
 3442SOL    HW121785   0.602   3.682   5.633  2.8479 -0.2376 -1.4332
 3442SOL    HW221786   0.575   3.654   5.482  2.9811  0.3801  1.3089
 3443SOL     OW21787   2.382   4.477  10.801 -0.1360  0.3374  0.3091
 3443SOL    HW121788   2.439   4.480  10.724  0.1900  0.4386  0.5546
 3443SOL    HW221789   2.298   4.439  10.775  0.6569 -0.8856 -0.4568
 3444SOL     OW21790   0.693   4.043   3.926 -0.2707  1.3886  0.4590
 3444SOL    HW121791   0.630   4.083   3.987 -0.3670  0.3181  1.0590
 3444SOL    HW221792   0.766   4.045   3.988  0.5461 -1.5940 -0.4158
 3445SOL     OW21793   4.019   0.370   4.286 -0.2901 -0.1490  0.2386
 3445SOL    HW121794   4.078   0.408   4.222  1.8666 -4.3553 -0.2607
 3445SOL    HW221795   4.070   0.386   4.365 -0.2497  4.4128 -0.7000
 3446SOL     OW21796   3.993   0.043   8.606 -0.6796  0.1536  0.0102
 3446SOL    HW121797   3.948   0.123   8.578  0.2479  0.6862  0.0215
 3446SOL    HW221798   4.010   0.047   8.700 -1.2130  1.4485  0.0570
 3447SOL     OW21799   1.643   0.509   4.607  0.8080 -0.5175  0.0930
 3447SOL    HW121800   1.658   0.574   4.676  1.3866 -0.2249 -0.3112
 3447SOL    HW221801   1.658   0.425   4.650  0.1208  0.3708  2.0658
 3448SOL     OW21802   1.485   2.539   6.647 -0.0768 -0.2472 -0.1716
 3448SOL    HW121803   1.430   2.560   6.723  1.4564 -0.6084  1.0353
 3448SOL    HW221804   1.448   2.603   6.586 -1.9350 -0.1958  1.0243
 3449SOL     OW21805   1.223   4.266   4.064  0.4427  0.3706 -0.0354
 3449SOL    HW121806   1.184   4.210   3.997 -0.0855 -1.9707  2.1884
 3449SOL    HW221807   1.189   4.353   4.044 -0.7254 -0.5584 -2.0665
 3450SOL     OW21808   1.716   4.001  14.077 -0.2269 -0.1949 -0.2109
 3450SOL    HW121809   1.762   4.039  14.152 -0.2104 -1.3117  0.3485
 3450SOL    HW221810   1.782   3.960  14.022  0.0016  0.8480 -0.7224
 3451SOL     OW21811   2.632   0.625   1.776 -0.0343 -0.4553  0.1138
 3451SOL    HW121812   2.629   0.718   1.795  1.0370 -0.3305 -0.3537
 3451SOL    HW221813   2.556   0.603   1.831  3.0467 -1.2520  4.0359
 3452SOL     OW21814   1.502   4.704   8.009  0.2124  0.2879  0.0815
 3452SOL    HW121815   1.509   0.064   7.960  1.0911  0.0362 -0.2271
 3452SOL    HW221816   1.565   4.643   7.969 -0.2932 -1.5456  2.0898
 3453SOL     OW21817   2.748   1.667  17.575  0.3677 -0.3661  0.2559
 3453SOL    HW121818   2.751   1.735  17.508  1.9483  0.1196  0.8264
 3453SOL    HW221819   2.721   1.719  17.651  2.3490 -0.5182  1.0484
 3454SOL     OW21820   2.895   2.256   4.554  0.7164  0.3602  0.3524
 3454SOL    HW121821   2.871   2.171   4.519  1.0769  0.0392  0.8729
 3454SOL    HW221822   2.990   2.243   4.562  0.8957  2.2328  1.5035
 3455SOL     OW21823   4.042   1.011   6.507  0.4562 -0.2970 -0.0634
 3455SOL    HW121824   4.121   0.981   6.551  1.0627  0.4435 -0.6404
 3455SOL    HW221825   3.989   0.935   6.529 -1.2783  0.8905 -0.1105
 3456SOL     OW21826   1.332   2.891   5.827 -0.3510 -0.1252 -0.2637
 3456SOL    HW121827   1.335   2.937   5.911  0.9334  2.1887 -1.5823
 3456SOL    HW221828   1.281   2.816   5.858 -0.5587  0.6528  1.2760
 3457SOL     OW21829   4.434   2.780   6.578  0.0448 -0.7632  0.3566
 3457SOL    HW121830   4.521   2.744   6.562  0.0946 -0.5430  0.1355
 3457SOL    HW221831   4.444   2.823   6.663 -0.0833  1.7431 -0.9053
 3458SOL     OW21832   4.557   2.128  11.208  0.5004  0.0162  0.0770
 3458SOL    HW121833   4.593   2.211  11.238  0.1972  0.3148 -0.3676
 3458SOL    HW221834   4.500   2.112  11.283 -0.4039  2.9377  0.0447
 3459SOL     OW21835   1.316   1.042   1.650 -0.1000  0.1435 -0.0334
 3459SOL    HW121836   1.285   0.952   1.641  1.1362 -0.5581  2.6185
 3459SOL    HW221837   1.381   1.048   1.580 -0.6192  1.5388 -0.3981
 3460SOL     OW21838   4.395   0.676   3.736  0.0390 -0.5043  0.0026
 3460SOL    HW121839   4.361   0.658   3.649 -1.5474 -0.5555  0.6315
 3460SOL    HW221840   4.490   0.684   3.725 -0.1108  2.9097  1.2915
 3461SOL     OW21841   3.055   1.547   9.806  0.2338 -0.0604 -0.3024
 3461SOL    HW121842   3.080   1.631   9.768  0.0921  0.6613  1.1920
 3461SOL    HW221843   3.143   1.509   9.814 -0.2843 -0.5444  3.2018
 3462SOL     OW21844   0.767   1.985   5.573 -0.9532 -0.0604  0.1693
 3462SOL    HW121845   0.776   2.063   5.629 -1.7624  0.6401 -0.6664
 3462SOL    HW221846   0.853   1.944   5.575 -1.4013 -0.9472  1.4927
 3463SOL     OW21847   0.245   1.934   8.895 -0.3196  0.0453  0.3166
 3463SOL    HW121848   0.223   1.887   8.975  4.5258 -0.8683  1.0932
 3463SOL    HW221849   0.217   2.023   8.918 -0.6353  0.8410 -3.0465
 3464SOL     OW21850   0.139   1.479  10.645 -0.8231  0.4720  0.6719
 3464SOL    HW121851   0.090   1.554  10.679  0.1899  0.8670  1.2753
 3464SOL    HW221852   0.149   1.514  10.557  1.2840  0.0591  0.7237
 3465SOL     OW21853   4.687   0.662   3.760  0.0572  0.0610  0.6533
 3465SOL    HW121854   0.014   0.670   3.678 -0.4659  2.4905  0.5835
 3465SOL    HW221855   0.020   0.704   3.826 -0.1962 -1.4413  1.8312
 3466SOL     OW21856   4.392   3.911  10.917  0.4383 -0.1127 -0.5435
 3466SOL    HW121857   4.403   3.819  10.944  2.7953  0.3285  0.0055
 3466SOL    HW221858   4.468   3.926  10.861  0.7846  1.2241  0.3006
 3467SOL     OW21859   2.121   2.179  10.765  0.3192 -0.2966  0.5514
 3467SOL    HW121860   2.115   2.128  10.847 -0.4706  0.1264  0.7548
 3467SOL    HW221861   2.031   2.205  10.748  0.6377  0.8942  0.6955
 3468SOL     OW21862   0.800   1.928   0.224 -0.0849 -0.7368  0.2505
 3468SOL    HW121863   0.819   2.005   0.277 -1.8778 -1.0786  1.3788
 3468SOL    HW221864   0.748   1.874   0.283  1.5995  0.7273  3.0811
 3469SOL     OW21865   3.396   0.995   2.726  0.5632  0.1745  0.1603
 3469SOL    HW121866   3.424   0.986   2.635  3.0724  1.2690  0.8360
 3469SOL    HW221867   3.479   0.983   2.771 -0.4656  0.0410  2.0045
 3470SOL     OW21868   1.223   3.515   7.581 -0.2530  0.5717  0.2763
 3470SOL    HW121869   1.135   3.548   7.600 -0.6106  0.3216 -0.9798
 3470SOL    HW221870   1.276   3.580   7.627  0.2744 -0.9815  1.8668
 3471SOL     OW21871   1.124   0.423   7.515  0.0339 -0.3316  0.2437
 3471SOL    HW121872   1.149   0.478   7.441 -0.4048  1.3690  1.3440
 3471SOL    HW221873   1.148   0.336   7.484  1.7828  0.9258 -1.9422
 3472SOL     OW21874   0.475   4.258   4.572  0.0878 -0.2335 -0.1504
 3472SOL    HW121875   0.425   4.272   4.492 -0.2685  0.7956  0.2462
 3472SOL    HW221876   0.544   4.324   4.566  1.4071 -1.4592  1.3724
 3473SOL     OW21877   0.623   3.195   7.793  0.5222 -0.0739 -0.2280
 3473SOL    HW121878   0.651   3.104   7.796 -0.5504 -0.4837 -2.9153
 3473SOL    HW221879   0.686   3.239   7.851 -0.8611 -0.2187  1.3880
 3474SOL     OW21880   1.114   0.574  17.686  0.3245  0.1784  0.0283
 3474SOL    HW121881   1.194   0.567   0.046 -0.6150  0.3637  1.5027
 3474SOL    HW221882   1.050   0.525   0.047  0.7652  0.8763  1.2077
 3475SOL     OW21883   4.430   2.358  14.662  0.7028  0.1157 -0.4120
 3475SOL    HW121884   4.354   2.301  14.674  0.2540  0.5706 -1.0916
 3475SOL    HW221885   4.388   2.439  14.636 -1.4376 -1.1082 -0.7568
 3476SOL     OW21886   2.920   0.817   0.109  0.4768 -0.3324  0.0524
 3476SOL    HW121887   2.891   0.731   0.080 -0.2257  0.1149 -0.5774
 3476SOL    HW221888   3.015   0.808   0.110  0.5012 -0.1001 -0.0676
 3477SOL     OW21889   0.195   3.576   5.423 -0.1231  0.3845  0.2631
 3477SOL    HW121890   0.196   3.638   5.350 -1.5048  1.5394  1.2358
 3477SOL    HW221891   0.210   3.624   5.504 -0.8010 -0.5980  0.9788
 3478SOL     OW21892   1.251   1.058   3.959 -0.0946 -0.0881  0.0598
 3478SOL    HW121893   1.285   0.974   3.988 -1.2785 -1.3476 -2.2482
 3478SOL    HW221894   1.280   1.117   4.029 -2.6813 -0.9551  1.8524
 3479SOL     OW21895   1.299   0.859   2.238 -0.0947 -0.3228  0.2175
 3479SOL    HW121896   1.339   0.937   2.198 -0.2072  0.5010  1.7042
 3479SOL    HW221897   1.275   0.887   2.326  0.3513 -1.9064  0.8457
 3480SOL     OW21898   2.891   2.908  16.007 -0.0457 -0.2096 -0.2560
 3480SOL    HW121899   2.842   2.895  16.088  0.7998  0.7110  0.3987
 3480SOL    HW221900   2.982   2.905  16.035  0.2719 -0.9067 -1.3595
 3481SOL     OW21901   3.597   3.209   5.082  0.0404  0.1777 -0.2754
 3481SOL    HW121902   3.658   3.261   5.030 -0.1856  1.6107  0.8965
 3481SOL    HW221903   3.517   3.226   5.031  0.3035  0.0250 -0.7427
 3482SOL     OW21904   3.272   1.944   4.071  0.2820 -0.0704 -0.0200
 3482SOL    HW121905   3.278   1.945   4.167  0.8858 -0.0286 -0.0582
 3482SOL    HW221906   3.357   1.977   4.042  1.3661 -1.0580  1.9829
 3483SOL     OW21907   0.065   2.071   2.226  0.4242  0.1400 -0.3694
 3483SOL    HW121908   0.113   2.148   2.195  1.2269  0.0762  0.7454
 3483SOL    HW221909   0.094   2.003   2.164 -0.5875  1.4328 -2.2806
 3484SOL     OW21910   3.643   2.141   8.118 -0.2728 -0.1009  0.1340
 3484SOL    HW121911   3.635   2.046   8.120  0.1158 -0.1990 -4.0226
 3484SOL    HW221912   3.551   2.166   8.131 -0.9717 -2.2963 -0.6003
 3485SOL     OW21913   4.455   1.659   1.429 -0.4935  0.4189  0.1687
 3485SOL    HW121914   4.409   1.731   1.385 -2.1923 -0.8268 -0.0959
 3485SOL    HW221915   4.520   1.646   1.360  1.5944  0.0100  2.2174
 3486SOL     OW21916   0.353   0.850  14.550 -0.3256 -0.4421  0.0629
 3486SOL    HW121917   0.381   0.842  14.641 -0.5942  0.9612  0.2724
 3486SOL    HW221918   0.438   0.854  14.506  0.4943  0.6009  1.7431
 3487SOL     OW21919   2.971   3.703  17.040  0.2006  0.0758 -0.4218
 3487SOL    HW121920   2.876   3.703  17.046  0.2076  0.6242 -0.3321
 3487SOL    HW221921   3.010   3.729  17.123  1.8815  0.6142 -1.3771
 3488SOL     OW21922   2.780   1.000   7.117  0.5642 -0.0600 -0.2494
 3488SOL    HW121923   2.766   1.056   7.040  2.0523 -1.5213 -1.6120
 3488SOL    HW221924   2.794   1.063   7.188 -0.5985  0.7139 -0.6997
 3489SOL     OW21925   0.646   1.156  13.153  0.3826  0.2491 -0.5082
 3489SOL    HW121926   0.667   1.225  13.216  0.6425 -0.0256 -0.2897
 3489SOL    HW221927   0.593   1.200  13.088 -0.1060  0.5448  0.0893
 3490SOL     OW21928   1.607   3.451  13.227  0.2772  0.3112  0.4160
 3490SOL    HW121929   1.523   3.429  13.186  1.4585 -1.0261 -1.2788
 3490SOL    HW221930   1.656   3.457  13.145  0.4508  2.0735  0.6543
 3491SOL     OW21931   4.544   2.587   2.499  0.1764  0.4733  0.5460
 3491SOL    HW121932   4.582   2.663   2.543 -0.5457  1.2859 -0.2320
 3491SOL    HW221933   4.467   2.627   2.459 -0.4642 -1.7668 -0.4455
 3492SOL     OW21934   2.481   1.760   4.832  0.1203 -0.5325 -0.1583
 3492SOL    HW121935   2.538   1.808   4.771  0.2043 -0.6154 -0.1450
 3492SOL    HW221936   2.538   1.767   4.909  0.7731  1.6285 -0.8374
 3493SOL     OW21937   2.038   1.237   2.995 -0.1936  0.3713 -0.4186
 3493SOL    HW121938   2.009   1.326   2.979 -1.2174  0.5191  2.1503
 3493SOL    HW221939   1.974   1.208   3.061  1.5785  1.3011  1.7204
 3494SOL     OW21940   0.357   2.884   0.604 -0.0634 -0.4164 -0.3001
 3494SOL    HW121941   0.303   2.853   0.531  1.7001 -1.8684 -1.0012
 3494SOL    HW221942   0.413   2.808   0.621 -0.4793 -0.8857 -1.0175
 3495SOL     OW21943   2.582   3.306   8.978 -0.0588  0.4829 -0.4866
 3495SOL    HW121944   2.644   3.316   8.906 -0.6343 -1.3932 -1.2302
 3495SOL    HW221945   2.638   3.256   9.038 -2.0268 -1.0519  0.0946
 3496SOL     OW21946   2.701   2.864   2.334 -0.7417 -0.0193 -0.3071
 3496SOL    HW121947   2.796   2.879   2.341 -0.8097  0.8509 -1.2746
 3496SOL    HW221948   2.703   2.780   2.288  0.9982 -0.1183 -0.0779
 3497SOL     OW21949   0.420   4.124  15.669 -0.0789 -0.3185  0.6889
 3497SOL    HW121950   0.334   4.091  15.695  1.5093 -2.3598  3.4245
 3497SOL    HW221951   0.487   4.099  15.732  0.8695  0.4385 -0.0137
 3498SOL     OW21952   3.676   4.304   4.184  0.0316 -0.0770 -0.3571
 3498SOL    HW121953   3.670   4.209   4.187  0.3886  0.0017  2.6931
 3498SOL    HW221954   3.694   4.326   4.275  2.0407 -0.2093 -0.7223
 3499SOL     OW21955   0.599   1.556   8.585  0.1947  0.5517  0.3320
 3499SOL    HW121956   0.578   1.602   8.504 -0.6751  3.0658  1.9792
 3499SOL    HW221957   0.520   1.581   8.634  0.4330 -1.9085  1.9579
 3500SOL     OW21958   4.577   3.446  16.362  0.0178 -0.5920  0.2760
 3500SOL    HW121959   4.506   3.387  16.387 -1.2328  1.3671  1.2616
 3500SOL    HW221960   4.645   3.418  16.423 -1.2383 -2.4358  0.8425
 3501SOL     OW21961   2.484   4.096   8.059 -0.1622  0.2396 -0.0908
 3501SOL    HW121962   2.466   4.097   8.153 -2.9590  0.8399 -0.6132
 3501SOL    HW221963   2.486   4.190   8.043 -0.5156 -0.1764 -2.5858
 3502SOL     OW21964   1.166   2.410   9.992  0.4167  0.3058  0.6645
 3502SOL    HW121965   1.088   2.446   9.951 -0.8126 -2.4460  0.5810
 3502SOL    HW221966   1.219   2.372   9.921  0.1110  1.6894 -0.2936
 3503SOL     OW21967   4.568   0.556   5.106 -0.0213 -0.3103 -0.1709
 3503SOL    HW121968   4.533   0.623   5.164 -0.7354  0.1794 -1.1788
 3503SOL    HW221969   4.656   0.542   5.143 -2.1363 -0.9969  4.5720
 3504SOL     OW21970   2.679   3.339   5.151  0.6534  0.0673  0.3788
 3504SOL    HW121971   2.653   3.321   5.061 -0.0572 -3.8266  1.3352
 3504SOL    HW221972   2.591   3.340   5.189  0.6326  2.3128  0.2992
 3505SOL     OW21973   2.711   2.873  15.317 -0.0591  0.0843  0.0308
 3505SOL    HW121974   2.635   2.931  15.308 -0.0224 -0.3385 -3.1521
 3505SOL    HW221975   2.760   2.914  15.389 -0.6535  0.6769  0.0942
 3506SOL     OW21976   1.393   0.815   4.090  0.3091 -0.4462  0.4851
 3506SOL    HW121977   1.468   0.833   4.147  0.6494 -0.7229  0.1242
 3506SOL    HW221978   1.350   0.742   4.135 -1.4710  1.0986  1.3210
 3507SOL     OW21979   4.590   1.063   6.072 -0.3853 -0.1814 -0.7114
 3507SOL    HW121980   4.562   1.139   6.022 -0.3135  1.3911  1.6277
 3507SOL    HW221981   4.563   1.098   6.157 -0.2812  0.0212 -0.7639
 3508SOL     OW21982   3.490   2.761   3.976  0.3530 -0.2050 -0.7849
 3508SOL    HW121983   3.408   2.735   4.019  1.5182  1.7713  2.6626
 3508SOL    HW221984   3.457   2.801   3.896 -2.9875 -0.4938  0.4001
 3509SOL     OW21985   2.849   2.781   0.217  0.3444 -0.4809  0.1044
 3509SOL    HW121986   2.856   2.745   0.305 -1.0697 -0.3389  0.2757
 3509SOL    HW221987   2.863   2.695   0.176  0.9451  0.2099 -1.1447
 3510SOL     OW21988   1.723   0.062   2.422  0.0010  0.2804 -0.2132
 3510SOL    HW121989   1.710   0.141   2.369  0.7964  0.4200 -0.2043
 3510SOL    HW221990   1.688   0.089   2.507 -0.4235 -1.2234  0.0849
 3511SOL     OW21991   3.611   2.594  11.295 -0.6311  0.7256 -0.4016
 3511SOL    HW121992   3.603   2.516  11.349 -0.1617  0.2536 -1.0136
 3511SOL    HW221993   3.698   2.586  11.256  0.0497  0.7582  1.1223
 3512SOL     OW21994   1.071   1.666  11.309  0.4343  0.4364 -0.1634
 3512SOL    HW121995   1.062   1.697  11.219 -1.1784  0.4332  0.0083
 3512SOL    HW221996   1.164   1.642  11.306  0.6386  1.1201  0.8845
 3513SOL     OW21997   4.495   1.781   2.640  0.0969 -0.1636  0.0261
 3513SOL    HW121998   4.503   1.775   2.545 -1.7015  1.8022 -0.2610
 3513SOL    HW221999   4.409   1.823   2.647  1.1395  2.2455 -1.5097
 3514SOL     OW22000   3.550   1.047   9.812  0.9059 -0.4121  0.3020
 3514SOL    HW122001   3.568   1.138   9.790  0.7211 -0.4984 -0.2211
 3514SOL    HW222002   3.569   1.049   9.906 -1.2418  2.3040  0.6727
 3515SOL     OW22003   0.634   4.117   5.534 -0.5402  0.3573 -0.3110
 3515SOL    HW122004   0.561   4.079   5.485 -0.8230  2.3222 -1.4011
 3515SOL    HW222005   0.610   4.094   5.624 -0.5537  2.8753  0.3389
 3516SOL     OW22006   0.507   1.321   6.864  0.6413  0.3312  0.6601
 3516SOL    HW122007   0.516   1.226   6.868  1.8659  0.4488  0.6828
 3516SOL    HW222008   0.590   1.340   6.820  0.5260  0.3924  0.4673
 3517SOL     OW22009   0.033   4.182  12.631  0.5690  0.2119 -0.0769
 3517SOL    HW122010   0.080   4.205  12.550  1.2665 -0.9759 -0.0005
 3517SOL    HW222011   0.060   4.252  12.691  0.3352  0.4055 -0.1971
 3518SOL     OW22012   1.463   4.353  17.456 -0.6531  0.1039  0.2593
 3518SOL    HW122013   1.421   4.299  17.389 -1.1844  1.0235 -0.1391
 3518SOL    HW222014   1.543   4.375  17.410 -0.6856  0.4334  0.3566
 3519SOL     OW22015   1.075   3.752   6.924 -0.0769 -0.2323 -0.1008
 3519SOL    HW122016   1.103   3.843   6.916 -0.2366 -0.2698 -1.1069
 3519SOL    HW222017   1.161   3.712   6.938 -0.4380 -0.5940  1.0471
 3520SOL     OW22018   0.045   2.175   4.456  0.3009  0.4144  0.1637
 3520SOL    HW122019   0.042   2.082   4.478  0.8226  0.1713 -0.7584
 3520SOL    HW222020   0.005   2.221   4.530  0.6018  0.4981  0.2749
 3521SOL     OW22021   2.146   1.147   2.568 -0.3868 -0.4048 -0.3973
 3521SOL    HW122022   2.215   1.180   2.511 -1.1973  0.4932 -0.8552
 3521SOL    HW222023   2.126   1.234   2.603  2.7467  0.6267 -1.1983
 3522SOL     OW22024   3.398   0.273   8.637 -0.2367 -0.8503  0.1688
 3522SOL    HW122025   3.407   0.230   8.722 -0.7655 -0.6653  0.3144
 3522SOL    HW222026   3.405   0.362   8.671  0.1905 -0.4483 -0.9673
 3523SOL     OW22027   0.617   3.689   2.502 -0.4676 -0.9199  0.0189
 3523SOL    HW122028   0.592   3.731   2.420  1.1167 -1.5234 -0.7723
 3523SOL    HW222029   0.709   3.697   2.478 -0.0921  1.1717  2.1794
 3524SOL     OW22030   1.138   1.190   6.516 -0.0792  1.2079 -0.1865
 3524SOL    HW122031   1.210   1.231   6.467  1.1254  3.0227  3.0943
 3524SOL    HW222032   1.058   1.217   6.471  0.1430 -0.1201 -1.3954
 3525SOL     OW22033   0.360   0.744   4.916  0.5619 -0.2390 -0.0771
 3525SOL    HW122034   0.281   0.763   4.967  0.7530  1.7977 -0.5733
 3525SOL    HW222035   0.370   0.833   4.884  2.0284 -0.7828 -1.1095
 3526SOL     OW22036   4.393   2.299   4.025  0.0981 -0.2304  0.2411
 3526SOL    HW122037   4.427   2.353   3.954 -0.5812 -0.7174 -0.4584
 3526SOL    HW222038   4.458   2.229   4.023 -0.8248 -1.1853  2.9712
 3527SOL     OW22039   1.675   2.529   3.562  0.4462 -0.3825  0.3054
 3527SOL    HW122040   1.701   2.493   3.477  1.3919 -0.5945  0.6887
 3527SOL    HW222041   1.710   2.617   3.549  1.3434 -0.3857  2.6893
 3528SOL     OW22042   4.447   0.295   6.280  0.2740  0.2885 -0.2715
 3528SOL    HW122043   4.450   0.204   6.309 -1.9829  1.1189  2.5813
 3528SOL    HW222044   4.361   0.324   6.311  0.1087  0.0293 -0.4881
 3529SOL     OW22045   0.729   1.848   2.763 -0.1746  0.1319  0.0973
 3529SOL    HW122046   0.762   1.935   2.738 -0.0645 -0.0120 -0.2508
 3529SOL    HW222047   0.767   1.799   2.690  0.7388 -1.0037  1.3535
 3530SOL     OW22048   3.664   3.500  17.663  0.6289  0.1576 -0.1738
 3530SOL    HW122049   3.626   3.485  17.576  1.3640 -1.3509 -0.2494
 3530SOL    HW222050   3.712   3.417  17.663  0.0757 -0.1733 -1.5776
 3531SOL     OW22051   3.075   3.691  11.612 -0.3154 -0.2914 -0.0911
 3531SOL    HW122052   3.096   3.752  11.542  1.1021  0.1721  0.7454
 3531SOL    HW222053   3.036   3.744  11.682 -0.4544 -0.0722 -0.3379
 3532SOL     OW22054   0.214   0.386   8.249 -0.7926 -0.0132 -0.1524
 3532SOL    HW122055   0.185   0.310   8.199  3.2116 -2.5894  1.4415
 3532SOL    HW222056   0.300   0.357   8.278 -0.0950  1.5748 -0.6563
 3533SOL     OW22057   3.126   0.673   8.102  0.2511 -0.1465 -0.1097
 3533SOL    HW122058   3.060   0.635   8.045  1.2647  1.2306 -2.1983
 3533SOL    HW222059   3.079   0.658   8.184 -0.1277  0.3071 -0.2415
 3534SOL     OW22060   2.843   4.548   3.714  0.2660  0.5273  0.3417
 3534SOL    HW122061   2.784   4.621   3.733 -2.0383 -1.4829  0.9611
 3534SOL    HW222062   2.783   4.484   3.676  0.4208 -1.2565  3.1090
 3535SOL     OW22063   3.675   1.348   6.653  0.3061  0.6360  0.4915
 3535SOL    HW122064   3.763   1.328   6.621 -0.3703 -1.1908 -0.2330
 3535SOL    HW222065   3.625   1.342   6.571  1.5594 -0.1591 -0.2210
 3536SOL     OW22066   4.108   1.835   2.994 -0.1433 -0.2780 -0.4300
 3536SOL    HW122067   4.036   1.885   3.032  0.7364 -1.1885  2.3944
 3536SOL    HW222068   4.115   1.886   2.913  0.9180 -0.1040 -0.2272
 3537SOL     OW22069   2.021   3.241   3.332  0.3407 -0.2973 -0.0098
 3537SOL    HW122070   1.958   3.313   3.328  1.8715  1.0352 -0.2422
 3537SOL    HW222071   1.971   3.174   3.378 -1.2921 -0.5313 -2.1544
 3538SOL     OW22072   0.905   4.472   7.993  0.4816 -0.1410  0.8559
 3538SOL    HW122073   0.988   4.467   8.041  0.3722  3.2489  1.4186
 3538SOL    HW222074   0.884   4.380   7.976  2.3497 -0.0112 -2.2577
 3539SOL     OW22075   4.605   3.906   4.739 -0.0006  0.1401 -0.1435
 3539SOL    HW122076   4.528   3.908   4.682 -1.4971  0.5690  1.9116
 3539SOL    HW222077   4.572   3.910   4.828  0.3244  0.5707 -0.0422
 3540SOL     OW22078   0.342   1.134   9.110 -0.7124  0.0364 -0.1299
 3540SOL    HW122079   0.375   1.181   9.187  1.8958 -1.3257 -0.4104
 3540SOL    HW222080   0.425   1.099   9.080  0.2695  0.5185  1.9972
 3541SOL     OW22081   4.437   3.447   1.848 -0.0928  0.2332  0.3722
 3541SOL    HW122082   4.516   3.464   1.899 -1.1561 -1.1033  2.4277
 3541SOL    HW222083   4.365   3.456   1.910 -0.6225 -1.1334 -0.0275
 3542SOL     OW22084   2.215   2.348   7.327 -0.4509  0.0555 -0.2020
 3542SOL    HW122085   2.164   2.308   7.397 -1.2028  0.2089 -0.6615
 3542SOL    HW222086   2.150   2.343   7.257  2.5254  0.9311 -2.9779
 3543SOL     OW22087   3.784   0.364   8.388  0.1286 -0.1498  0.0724
 3543SOL    HW122088   3.760   0.428   8.320 -0.4637  0.1780  0.5926
 3543SOL    HW222089   3.706   0.308   8.393  0.0568  0.0497  1.1894
 3544SOL     OW22090   0.982   3.947   1.318  0.7055 -0.6299  0.2399
 3544SOL    HW122091   0.908   3.972   1.374 -0.1240 -2.1125 -0.1668
 3544SOL    HW222092   1.025   3.873   1.360 -0.0816 -0.9362  0.5137
 3545SOL     OW22093   2.822   4.431   7.791  0.1544 -0.9688  0.7406
 3545SOL    HW122094   2.902   4.378   7.798  0.0580 -1.2985 -0.5991
 3545SOL    HW222095   2.821   4.479   7.873  1.3675  1.7109 -0.8003
 3546SOL     OW22096   0.203   2.014   9.648  0.2646  0.4787  0.1112
 3546SOL    HW122097   0.158   2.084   9.696 -2.1263  0.0816 -1.5210
 3546SOL    HW222098   0.159   1.943   9.695 -2.4421  1.1879 -1.3181
 3547SOL     OW22099   3.615   4.231   0.962  0.6287 -0.0129  0.0162
 3547SOL    HW122100   3.668   4.153   0.974 -0.3874 -0.5376  1.0801
 3547SOL    HW222101   3.554   4.197   0.896 -0.3866 -2.0466  2.0155
 3548SOL     OW22102   2.054   2.271   6.128  0.3583  0.0029  0.1375
 3548SOL    HW122103   2.028   2.360   6.103 -1.0324 -0.2167  0.8189
 3548SOL    HW222104   1.994   2.217   6.077  2.3423 -0.8450 -1.2690
 3549SOL     OW22105   4.057   3.083   8.065  0.3328  0.2377  0.6374
 3549SOL    HW122106   4.101   3.146   8.009 -2.0186  2.2281  1.0338
 3549SOL    HW222107   4.068   3.134   8.146  0.3667  1.3024 -0.0332
 3550SOL     OW22108   0.314   1.253   6.446  0.2501 -0.1168 -0.4050
 3550SOL    HW122109   0.327   1.344   6.473  3.5942 -0.4440 -0.9696
 3550SOL    HW222110   0.226   1.261   6.409 -0.2975 -0.3848  0.8419
 3551SOL     OW22111   3.957   3.416   5.908  0.3935 -0.1582  0.1132
 3551SOL    HW122112   3.927   3.377   5.826 -1.1938  0.5741  0.3428
 3551SOL    HW222113   3.960   3.341   5.967  3.7136  1.0596  1.4676
 3552SOL     OW22114   1.356   3.990   5.695 -0.1019 -0.2519  0.3419
 3552SOL    HW122115   1.272   3.969   5.737  0.1434  0.1778  1.0563
 3552SOL    HW222116   1.414   3.914   5.694 -1.4717 -1.3715  3.3034
 3553SOL     OW22117   0.777   4.547  16.975  0.2871  0.0841  0.1778
 3553SOL    HW122118   0.803   4.481  16.911 -1.6412  0.4005 -0.9257
 3553SOL    HW222119   0.682   4.548  16.978  0.2882  0.7080 -0.0167
 3554SOL     OW22120   0.833   4.574  13.053 -0.0592  0.0871  0.0876
 3554SOL    HW122121   0.831   4.594  13.147 -1.4733  1.4181 -0.2048
 3554SOL    HW222122   0.786   4.491  13.046  1.1025 -0.4629 -1.1358
 3555SOL     OW22123   3.763   0.846   1.357 -0.0339 -1.1128  0.4308
 3555SOL    HW122124   3.722   0.760   1.359 -1.0447 -0.6712 -0.9234
 3555SOL    HW222125   3.690   0.901   1.326 -1.0731 -1.4248  2.2996
 3556SOL     OW22126   0.799   4.119  12.153 -0.0665  0.5785  0.1993
 3556SOL    HW122127   0.880   4.077  12.123 -0.8453  1.4122 -2.9988
 3556SOL    HW222128   0.769   4.167  12.076 -0.7259 -2.0297 -1.1938
 3557SOL     OW22129   1.070   2.764   4.580 -0.3548  0.0503  0.1871
 3557SOL    HW122130   0.997   2.825   4.588  0.1056  0.5605  0.4710
 3557SOL    HW222131   1.089   2.763   4.486 -2.6724 -3.8668 -0.2608
 3558SOL     OW22132   2.311   0.760   3.244 -0.1002  0.3968  0.2013
 3558SOL    HW122133   2.250   0.771   3.171  2.6149 -2.0804 -2.4268
 3558SOL    HW222134   2.397   0.760   3.204  0.1573  0.1861  0.7482
 3559SOL     OW22135   3.223   0.656   8.567  0.5835  0.6023  0.3997
 3559SOL    HW122136   3.257   0.730   8.617 -0.7775 -0.6019  3.0561
 3559SOL    HW222137   3.305   0.611   8.548 -1.0665 -1.5132 -1.8002
 3560SOL     OW22138   1.499   4.252   1.009 -0.3765 -0.4451  0.3517
 3560SOL    HW122139   1.577   4.216   0.966  1.0597  0.6711  2.0153
 3560SOL    HW222140   1.440   4.178   1.023 -2.6488  1.6525  1.7722
 3561SOL     OW22141   1.085   1.591   2.494 -0.6493 -0.0785 -0.4818
 3561SOL    HW122142   1.166   1.635   2.519  0.9042 -1.8487 -2.4128
 3561SOL    HW222143   1.084   1.619   2.403 -1.5135 -0.0464 -0.4591
 3562SOL     OW22144   4.619   2.223   2.704  0.1360 -0.0123  0.4135
 3562SOL    HW122145   4.693   2.163   2.701  0.9589  1.0920 -1.0407
 3562SOL    HW222146   4.643   2.275   2.628  1.9474  0.7712  1.5212
 3563SOL     OW22147   0.009   3.171  17.044 -0.0322  0.3233  0.3659
 3563SOL    HW122148   0.088   3.124  17.072 -0.7984 -2.5552 -2.3056
 3563SOL    HW222149   0.005   3.238  17.113  0.5735  0.9205 -0.1917
 3564SOL     OW22150   0.210   4.620  11.488  0.1768  0.0813  0.3486
 3564SOL    HW122151   0.272   4.663  11.546 -1.0489  1.9297  0.2906
 3564SOL    HW222152   0.212   4.659  11.401  1.8990 -0.3051  0.2251
 3565SOL     OW22153   1.926   3.794   9.333 -0.1249  0.0669  0.3117
 3565SOL    HW122154   1.998   3.833   9.384 -0.0715 -0.6782  0.8175
 3565SOL    HW222155   1.872   3.763   9.406 -1.0553 -1.4486 -1.0447
 3566SOL     OW22156   3.305   3.335  14.941 -0.0028 -0.0691  0.1613
 3566SOL    HW122157   3.375   3.276  14.913 -2.1036 -1.3383 -2.3516
 3566SOL    HW222158   3.228   3.302  14.896  0.1568  3.0247 -2.3115
 3567SOL     OW22159   0.687   3.507   3.022 -0.1402  0.0400  0.3442
 3567SOL    HW122160   0.779   3.503   2.996 -0.4760  0.3994 -0.9094
 3567SOL    HW222161   0.662   3.416   3.038 -2.1151  0.3601 -1.0028
 3568SOL     OW22162   4.571   3.034   0.274  0.1567  0.1875 -0.4426
 3568SOL    HW122163   4.563   2.985   0.192  1.7661  1.0654 -1.1251
 3568SOL    HW222164   4.545   2.970   0.340  1.7635 -2.1350 -2.0702
 3569SOL     OW22165   1.828   2.833   6.533  0.2120  0.2399  0.1431
 3569SOL    HW122166   1.748   2.780   6.539 -0.4772  1.1805 -0.6883
 3569SOL    HW222167   1.819   2.867   6.444 -0.6495 -3.5715 -1.2483
 3570SOL     OW22168   1.648   0.344   2.972 -0.1699 -0.8069  0.1832
 3570SOL    HW122169   1.622   0.410   2.908 -0.0883 -0.5020  0.4661
 3570SOL    HW222170   1.675   0.404   3.041  1.3000 -1.0874 -0.1384
 3571SOL     OW22171   2.522   1.326   9.025 -1.0456 -0.0801 -0.0493
 3571SOL    HW122172   2.490   1.403   8.978 -1.1442  0.5495  1.0631
 3571SOL    HW222173   2.447   1.269   9.007 -0.5922 -0.5685 -0.4009
 3572SOL     OW22174   0.545   3.218  15.774 -0.4056 -0.1272  0.1650
 3572SOL    HW122175   0.480   3.159  15.813 -1.6472 -0.5738 -2.5725
 3572SOL    HW222176   0.618   3.206  15.835  1.9104 -2.0366 -2.9991
 3573SOL     OW22177   2.546   2.745   7.392  0.0158  0.1353  0.1351
 3573SOL    HW122178   2.482   2.816   7.383 -3.7761 -3.2321  0.3382
 3573SOL    HW222179   2.524   2.693   7.315 -1.3306 -2.2018  2.0991
 3574SOL     OW22180   4.104   1.361  12.422 -0.1038 -0.4094 -0.2689
 3574SOL    HW122181   4.184   1.405  12.451  0.1320 -2.9273  2.8912
 3574SOL    HW222182   4.061   1.328  12.501  0.2586  0.2247  0.1848
 3575SOL     OW22183   3.360   4.638   6.495  0.0218  0.0411  0.0853
 3575SOL    HW122184   3.416   4.715   6.477 -0.7416  0.2126 -1.5801
 3575SOL    HW222185   3.299   4.642   6.421 -0.9270 -1.4922  0.7910
 3576SOL     OW22186   2.416   2.885   8.682  0.0176  0.1471 -0.4319
 3576SOL    HW122187   2.486   2.827   8.710 -0.5656  0.7415  2.2024
 3576SOL    HW222188   2.360   2.827   8.630 -1.1101  1.8392 -1.1206
 3577SOL     OW22189   3.578   4.264   0.387 -0.5730  0.2571  0.7079
 3577SOL    HW122190   3.670   4.241   0.372 -0.6281  1.1332 -0.9383
 3577SOL    HW222191   3.558   4.218   0.468  0.2641 -1.5877 -0.1279
 3578SOL     OW22192   2.931   2.098   8.870  0.2696 -0.4055  0.4454
 3578SOL    HW122193   2.965   2.145   8.945 -0.8335  0.0471  0.6619
 3578SOL    HW222194   2.900   2.015   8.905 -0.3901 -0.1908  0.3726
 3579SOL     OW22195   3.851   3.345  10.258 -0.8954  0.4149  0.0592
 3579SOL    HW122196   3.921   3.281  10.258 -0.5437  0.7884  1.1245
 3579SOL    HW222197   3.816   3.327  10.345  1.0968 -1.4480  0.4562
 3580SOL     OW22198   0.219   4.045  15.290  0.0173 -0.2117 -0.3330
 3580SOL    HW122199   0.262   4.109  15.347  0.5242 -3.0446  2.4487
 3580SOL    HW222200   0.180   3.994  15.360  0.3330  0.3811  0.2738
 3581SOL     OW22201   3.885   3.655   6.028 -0.5724 -0.3732 -0.2589
 3581SOL    HW122202   3.921   3.572   5.997 -1.4043 -0.7155 -0.3013
 3581SOL    HW222203   3.847   3.635   6.113  0.0795 -2.7120 -0.5081
 3582SOL     OW22204   0.023   1.240   0.807  0.4522  0.0750 -0.4799
 3582SOL    HW122205   4.699   1.322   0.791 -1.9887 -1.0968  0.5397
 3582SOL    HW222206   4.671   1.180   0.806  1.4140 -1.1103 -1.1010
 3583SOL     OW22207   0.929   4.271   9.026 -0.2628  0.2301  0.2945
 3583SOL    HW122208   0.871   4.337   9.063 -1.7534 -0.1669 -1.2956
 3583SOL    HW222209   1.011   4.270   9.075 -1.0427 -1.4152  1.5852
 3584SOL     OW22210   1.794   3.200   1.984 -0.0239 -0.1478  0.7787
 3584SOL    HW122211   1.756   3.286   1.972  2.4707  0.4977 -2.5116
 3584SOL    HW222212   1.885   3.225   1.995 -0.3339  1.1145  0.4591
 3585SOL     OW22213   3.624   0.016  16.275  0.4937 -0.3592 -0.9068
 3585SOL    HW122214   3.699   4.680  16.288  0.1881 -0.6444 -0.4270
 3585SOL    HW222215   3.636   0.086  16.338 -2.2514 -0.0396 -0.7330
 3586SOL     OW22216   2.520   4.253   2.433 -0.1699  0.0026 -0.2874
 3586SOL    HW122217   2.434   4.245   2.475 -0.5525  1.4535 -0.7711
 3586SOL    HW222218   2.542   4.346   2.429 -0.5805  0.1357  0.5770
 3587SOL     OW22219   2.519   2.877  16.198 -0.4018  0.3431 -0.3394
 3587SOL    HW122220   2.613   2.862  16.208 -0.7624 -0.8471  1.3386
 3587SOL    HW222221   2.527   2.877  16.103 -0.0133  0.6496 -0.3078
 3588SOL     OW22222   4.030   4.231   6.410 -1.0798  0.1937 -0.5065
 3588SOL    HW122223   3.975   4.227   6.488  1.4528  1.3096  1.3438
 3588SOL    HW222224   4.019   4.140   6.382  0.5828  0.7994 -3.1820
 3589SOL     OW22225   3.802   1.601   2.391 -0.3741 -0.9028 -0.5097
 3589SOL    HW122226   3.790   1.684   2.344 -0.7143  0.1506  1.4317
 3589SOL    HW222227   3.734   1.541   2.362  1.5655 -2.1696 -2.4390
 3590SOL     OW22228   4.601   1.437   4.348 -0.2237 -1.0211 -0.5840
 3590SOL    HW122229   4.555   1.394   4.421 -0.9737 -0.0847 -0.5051
 3590SOL    HW222230   4.568   1.397   4.267  0.7743 -1.0742 -0.9664
 3591SOL     OW22231   0.507   3.910   8.162 -0.3599 -0.4705  0.3426
 3591SOL    HW122232   0.517   3.874   8.074  1.5567  2.6143 -0.7215
 3591SOL    HW222233   0.514   3.828   8.211  1.9826 -0.9121 -0.7087
 3592SOL     OW22234   0.374   1.722   1.174 -0.3341  0.0245 -0.2826
 3592SOL    HW122235   0.421   1.716   1.091 -0.5266 -0.0928 -0.3832
 3592SOL    HW222236   0.444   1.706   1.237  0.6449  1.3846 -1.0233
 3593SOL     OW22237   0.801   3.481   6.646 -0.4285  0.2074 -0.2127
 3593SOL    HW122238   0.771   3.527   6.567  0.1491  0.0366 -0.5322
 3593SOL    HW222239   0.895   3.500   6.650 -0.2822  0.0954 -3.0266
 3594SOL     OW22240   0.204   3.045  17.159 -0.8148 -0.4567 -0.0259
 3594SOL    HW122241   0.173   2.964  17.117 -2.3020  0.4926 -0.7577
 3594SOL    HW222242   0.206   3.021  17.251  1.7236 -0.3650 -0.0525
 3595SOL     OW22243   3.940   3.405   4.185 -0.0279  0.1978 -0.2530
 3595SOL    HW122244   3.857   3.428   4.228  1.0004 -1.4879  2.6492
 3595SOL    HW222245   3.962   3.494   4.158 -0.3560  0.1370 -0.7089
 3596SOL     OW22246   1.235   3.766  14.052 -0.3453  0.0248 -0.1944
 3596SOL    HW122247   1.314   3.821  14.052 -0.5958  0.3875  0.4887
 3596SOL    HW222248   1.227   3.742  14.144 -0.8691  0.6982 -0.0649
 3597SOL     OW22249   0.021   2.491   2.931 -0.3552 -0.8355 -0.1375
 3597SOL    HW122250   0.061   2.416   2.974 -0.6912 -0.8751  0.1072
 3597SOL    HW222251   0.094   2.516   2.875 -0.6912  0.8232  0.1521
 3598SOL     OW22252   3.205   4.140   6.286 -0.4931  0.1812  0.1132
 3598SOL    HW122253   3.164   4.221   6.255 -2.2977 -1.4652 -1.8392
 3598SOL    HW222254   3.178   4.149   6.377 -0.5405  1.2679 -0.0055
 3599SOL     OW22255   4.303   0.644   1.904  0.2672  0.5032  0.1068
 3599SOL    HW122256   4.304   0.740   1.899  0.2833  0.5283  0.5545
 3599SOL    HW222257   4.252   0.619   1.828  0.1883 -0.8419  0.6073
 3600SOL     OW22258   0.785   2.487   8.376 -0.1400  0.7807 -0.2630
 3600SOL    HW122259   0.835   2.426   8.322  1.9295  1.7632  0.5407
 3600SOL    HW222260   0.727   2.430   8.427  0.0775  1.0326  0.2720
 3601SOL     OW22261   2.949   2.841   2.494 -0.3587  0.2534 -0.5943
 3601SOL    HW122262   2.899   2.807   2.568  0.1733  2.0541  0.5725
 3601SOL    HW222263   3.040   2.840   2.522 -0.5648 -0.3364  0.0535
 3602SOL     OW22264   3.553   3.076  12.746  0.5357  0.0781  0.1813
 3602SOL    HW122265   3.572   3.059  12.654 -2.7734 -0.4742 -0.4175
 3602SOL    HW222266   3.573   2.992  12.788  0.6460 -0.0041 -0.0330
 3603SOL     OW22267   1.514   0.840   8.673  0.0958 -0.4868  0.0573
 3603SOL    HW122268   1.524   0.845   8.767 -0.5681 -2.5019  0.2417
 3603SOL    HW222269   1.597   0.799   8.649  0.5995  1.3994 -1.4018
 3604SOL     OW22270   3.725   4.085   5.462  0.0612 -0.1174  0.1114
 3604SOL    HW122271   3.717   4.092   5.367 -2.0945  3.3822  0.5524
 3604SOL    HW222272   3.661   4.150   5.491  0.0024 -0.4134  0.6378
 3605SOL     OW22273   3.138   3.054   8.046 -0.0758 -0.2767 -0.3497
 3605SOL    HW122274   3.144   3.137   7.997 -1.4626  0.6387  1.0381
 3605SOL    HW222275   3.227   3.051   8.082  0.1519  1.4430 -0.7344
 3606SOL     OW22276   2.944   3.511   5.525 -0.4195 -0.2231 -0.4263
 3606SOL    HW122277   2.863   3.555   5.551 -0.5944 -0.0612 -1.2505
 3606SOL    HW222278   2.990   3.509   5.609  3.1391 -3.7507 -2.4605
 3607SOL     OW22279   3.782   3.224   4.658 -0.3346 -0.0943 -0.0162
 3607SOL    HW122280   3.849   3.219   4.726 -0.0766 -1.2591 -0.3529
 3607SOL    HW222281   3.763   3.134   4.633 -2.5584  0.8264 -1.5873
 3608SOL     OW22282   0.985   0.082  13.452 -0.3380  0.1478 -0.1690
 3608SOL    HW122283   0.974   0.087  13.547  0.8371 -0.1440 -0.0136
 3608SOL    HW222284   0.901   0.044  13.426 -0.5623 -0.2382  1.1126
 3609SOL     OW22285   3.097   1.421   6.379 -0.3400 -0.2068 -0.5679
 3609SOL    HW122286   3.153   1.428   6.456 -0.5698  0.0347 -0.4190
 3609SOL    HW222287   3.143   1.481   6.321 -0.5773  1.1453  0.6402
 3610SOL     OW22288   1.608   4.395   3.532  0.4526  0.0834  0.4610
 3610SOL    HW122289   1.616   4.377   3.438 -0.9138 -1.7708  0.6937
 3610SOL    HW222290   1.670   4.468   3.531  0.9410 -0.3729 -1.9425
 3611SOL     OW22291   0.314   1.256   0.785  0.3454 -0.1805 -0.6684
 3611SOL    HW122292   0.220   1.254   0.801  0.6290 -4.0416  0.6380
 3611SOL    HW222293   0.338   1.307   0.863 -3.3739  0.2128  0.2168
 3612SOL     OW22294   3.323   3.579   0.045 -0.2578  0.1421  0.3463
 3612SOL    HW122295   3.289   3.516   0.109  1.4732  0.1860  1.2967
 3612SOL    HW222296   3.396   3.627   0.084  0.9274 -2.6566  1.5605
 3613SOL     OW22297   0.094   0.933   8.570  0.1391  0.5476  0.4583
 3613SOL    HW122298   0.078   1.023   8.598 -0.3093  0.7145 -0.3259
 3613SOL    HW222299   0.006   0.904   8.591 -0.3768  1.6532 -0.1689
 3614SOL     OW22300   1.144   4.570   8.177 -0.1219  0.0882  0.4287
 3614SOL    HW122301   1.186   4.647   8.139  1.3813  0.6477  3.2252
 3614SOL    HW222302   1.096   4.615   8.246  1.7209  1.6367  0.6796
 3615SOL     OW22303   3.738   0.858   6.404  0.2790  0.1900  0.0706
 3615SOL    HW122304   3.664   0.827   6.457 -1.8961 -0.5923 -3.4106
 3615SOL    HW222305   3.816   0.812   6.433 -0.8337 -0.0760  2.6946
 3616SOL     OW22306   4.230   0.371  14.855 -0.2208 -0.2546  0.3357
 3616SOL    HW122307   4.139   0.397  14.840  0.5759  1.7992 -0.9762
 3616SOL    HW222308   4.270   0.448  14.896  0.3609  0.8203 -2.2228
 3617SOL     OW22309   1.775   1.280   7.551 -0.1412 -0.3720 -0.0812
 3617SOL    HW122310   1.726   1.235   7.621  2.7720 -1.6053  1.1593
 3617SOL    HW222311   1.810   1.199   7.515  1.2876  1.4655 -2.7904
 3618SOL     OW22312   0.778   3.136   3.862  0.3445  0.0111 -0.3185
 3618SOL    HW122313   0.837   3.121   3.788 -1.0851  0.8415 -1.6118
 3618SOL    HW222314   0.845   3.169   3.922 -0.5562  2.5308 -0.7263
 3619SOL     OW22315   0.420   0.702  16.224 -0.1161  0.6265 -0.1555
 3619SOL    HW122316   0.386   0.739  16.305 -3.5699 -1.4406 -0.6968
 3619SOL    HW222317   0.399   0.775  16.166 -0.8513  0.3631 -0.2157
 3620SOL     OW22318   1.098   4.524   4.704 -0.3043  0.4546 -0.4168
 3620SOL    HW122319   1.165   4.566   4.651  1.6093 -1.5539  0.4049
 3620SOL    HW222320   1.134   4.436   4.717 -1.4709 -0.4630 -3.3793
 3621SOL     OW22321   2.510   0.183   8.416 -0.4865  0.1549  0.5522
 3621SOL    HW122322   2.418   0.199   8.438 -0.6381  0.5756 -0.3828
 3621SOL    HW222323   2.539   0.114   8.475  0.8970  0.2359 -0.0308
 3622SOL     OW22324   1.427   0.604   5.165  0.4674 -0.3177  0.6510
 3622SOL    HW122325   1.503   0.642   5.122 -0.7778  1.4493  0.0186
 3622SOL    HW222326   1.382   0.679   5.204 -2.3249 -2.0987  0.8881
 3623SOL     OW22327   0.549   1.223   7.730  0.3101  0.0643  0.3850
 3623SOL    HW122328   0.640   1.251   7.738 -1.0228  4.3727  0.4126
 3623SOL    HW222329   0.568   1.133   7.706  0.3360  0.3839 -0.7780
 3624SOL     OW22330   4.501   1.326   7.676 -0.4960  0.3460  0.3381
 3624SOL    HW122331   4.535   1.263   7.740  1.0035 -0.4855 -1.2775
 3624SOL    HW222332   4.413   1.349   7.707 -1.5315 -3.0123 -0.0243
 3625SOL     OW22333   1.653   0.154  15.753  0.7029  0.0110 -0.1708
 3625SOL    HW122334   1.691   0.237  15.781  0.4507  0.0278  0.1221
 3625SOL    HW222335   1.628   0.169  15.662  1.7901  2.5404 -0.0631
 3626SOL     OW22336   3.311   2.377   3.513  0.0120 -0.8413  0.0295
 3626SOL    HW122337   3.364   2.320   3.456  2.6850 -0.7971  2.4838
 3626SOL    HW222338   3.330   2.344   3.601  3.9818  1.5962  0.0559
 3627SOL     OW22339   3.395   1.977   7.086  0.1156  0.5864  0.3775
 3627SOL    HW122340   3.396   1.922   7.165  0.5213 -2.3877 -1.7116
 3627SOL    HW222341   3.411   2.058   7.134  1.6558  0.6568 -0.2677
 3628SOL     OW22342   1.685   0.886   5.869  0.0812  0.0593  0.1249
 3628SOL    HW122343   1.684   0.807   5.924 -0.8678  0.6618  0.9737
 3628SOL    HW222344   1.678   0.961   5.928  1.6734  0.1990  0.1239
 3629SOL     OW22345   3.829   0.915   4.373 -0.3022  0.0131 -0.0533
 3629SOL    HW122346   3.734   0.910   4.363 -0.3237 -0.8006  0.5878
 3629SOL    HW222347   3.860   0.857   4.304  0.3137  1.7760 -1.2568
 3630SOL     OW22348   4.110   4.301   7.688 -0.2282 -0.0209 -0.1369
 3630SOL    HW122349   4.080   4.378   7.639  2.8981  0.7656 -0.7904
 3630SOL    HW222350   4.109   4.237   7.617  1.5351 -0.4469  0.2238
 3631SOL     OW22351   4.708   4.326  17.541  0.0547  0.4185 -0.7069
 3631SOL    HW122352   0.056   4.323  17.606 -0.9883 -1.9580  0.3082
 3631SOL    HW222353   4.664   4.409  17.557 -1.4516 -0.3663 -0.8365
 3632SOL     OW22354   1.788   4.440   8.831  0.4104  0.0456 -0.3215
 3632SOL    HW122355   1.705   4.424   8.787 -0.2644 -0.6675  1.2327
 3632SOL    HW222356   1.780   4.410   8.922 -0.3169  1.4460  0.0842
 3633SOL     OW22357   3.511   4.486  13.645 -0.0814  0.4394 -0.5999
 3633SOL    HW122358   3.571   4.553  13.613 -0.0676  0.3756 -0.7071
 3633SOL    HW222359   3.514   4.420  13.576  0.6020  0.1338 -0.2846
 3634SOL     OW22360   2.785   0.858  13.777  0.1501 -0.0900 -0.0762
 3634SOL    HW122361   2.699   0.838  13.814  0.2712 -0.9747 -0.2782
 3634SOL    HW222362   2.830   0.867  13.861 -2.4448 -1.8373  1.4927
 3635SOL     OW22363   3.596   0.371  10.786 -0.0856  0.2449 -0.3901
 3635SOL    HW122364   3.679   0.417  10.790  0.2093 -0.1954 -1.2825
 3635SOL    HW222365   3.547   0.427  10.846  1.4666 -0.9146  1.9146
 3636SOL     OW22366   3.984   1.860  14.755 -0.0335  0.3293  0.0821
 3636SOL    HW122367   4.025   1.901  14.832 -0.5710  3.3308 -1.2279
 3636SOL    HW222368   4.060   1.832  14.705  1.6156  1.1185  2.1397
 3637SOL     OW22369   3.064   2.902  10.862  0.2488  0.4847 -0.0323
 3637SOL    HW122370   3.034   2.817  10.828 -0.9738  1.4329 -1.3178
 3637SOL    HW222371   3.159   2.901  10.852  0.1039 -0.7519 -1.2731
 3638SOL     OW22372   0.812   2.501  10.648 -0.2934  0.1277 -0.3034
 3638SOL    HW122373   0.791   2.484  10.556  0.1150 -3.3883  0.2449
 3638SOL    HW222374   0.752   2.439  10.692  1.7759  0.4732  3.0232
 3639SOL     OW22375   3.081   0.026  14.837  0.0783 -0.9581 -0.4470
 3639SOL    HW122376   3.031   0.107  14.825 -0.2199 -1.0357  0.2520
 3639SOL    HW222377   3.168   0.052  14.805  0.5590  0.9809  2.3723
 3640SOL     OW22378   4.635   1.966   6.546 -0.5453 -0.2711  0.1028
 3640SOL    HW122379   4.569   1.924   6.601 -0.5411 -1.9710 -1.1895
 3640SOL    HW222380   4.715   1.930   6.586 -0.4282 -1.0861 -0.8657
 3641SOL     OW22381   2.372   0.234   6.997  0.1351  0.5268  0.3214
 3641SOL    HW122382   2.350   0.323   6.969  0.3439  1.2034  2.3258
 3641SOL    HW222383   2.454   0.224   6.947  0.0475 -3.8820  1.0143
 3642SOL     OW22384   4.548   2.275   8.404 -0.2453 -0.0250 -0.4663
 3642SOL    HW122385   4.477   2.339   8.414  1.9069  2.1943  0.6044
 3642SOL    HW222386   4.504   2.199   8.441  1.2311  0.2477  1.9126
 3643SOL     OW22387   4.001   2.692   7.008  0.5023 -0.1782  0.5503
 3643SOL    HW122388   3.914   2.690   6.969  0.3558  0.2062  0.8531
 3643SOL    HW222389   4.010   2.771   7.061  1.6168 -0.4676  0.7963
 3644SOL     OW22390   1.708   0.332   1.258 -0.6624 -0.1453 -0.1278
 3644SOL    HW122391   1.742   0.280   1.331 -2.0166 -0.9019 -0.0310
 3644SOL    HW222392   1.663   0.262   1.211 -0.5229  1.7699 -3.0952
 3645SOL     OW22393   4.633   3.777   0.307  0.0732  0.0280  0.0195
 3645SOL    HW122394   4.627   3.867   0.339  1.6999 -0.9968  3.2480
 3645SOL    HW222395   4.583   3.788   0.226 -1.7538  1.3000  1.3330
 3646SOL     OW22396   1.943   1.035   6.619  0.3396  0.0325  0.2086
 3646SOL    HW122397   1.958   1.129   6.607 -2.1120  0.0429 -2.7683
 3646SOL    HW222398   1.951   0.995   6.532 -0.5590 -1.0092  0.6245
 3647SOL     OW22399   0.888   3.978  10.763 -0.0301 -0.3554  0.1755
 3647SOL    HW122400   0.885   4.068  10.732  1.2902 -0.3177  0.1631
 3647SOL    HW222401   0.931   3.986  10.848  0.8936 -2.2115 -0.1108
 3648SOL     OW22402   2.761   4.220   2.763  0.0810 -0.0970  0.2938
 3648SOL    HW122403   2.846   4.253   2.793  0.6727  0.7252 -2.2902
 3648SOL    HW222404   2.784   4.161   2.691 -1.1685  0.0104 -0.1982
 3649SOL     OW22405   3.671   2.780   5.604 -0.0391  0.7115  0.0938
 3649SOL    HW122406   3.637   2.784   5.515  1.5720 -2.6129 -0.6744
 3649SOL    HW222407   3.599   2.739   5.652  0.8859 -1.1405 -0.0846
 3650SOL     OW22408   2.582   0.156  11.035 -0.4658 -0.4867  0.6476
 3650SOL    HW122409   2.491   0.181  11.045  0.1312  1.5587  1.0295
 3650SOL    HW222410   2.574   0.065  11.007 -2.7703  0.1881 -0.8599
 3651SOL     OW22411   3.546   1.754  17.098  0.1460 -0.2458  0.2322
 3651SOL    HW122412   3.580   1.759  17.008  2.6756 -0.1044  1.1810
 3651SOL    HW222413   3.457   1.720  17.085 -0.6383  2.2318 -0.7342
 3652SOL     OW22414   2.774   0.353  15.891 -0.0152 -0.1916 -0.0899
 3652SOL    HW122415   2.852   0.313  15.853  1.3649  1.3863  1.0972
 3652SOL    HW222416   2.788   0.331  15.983 -1.6665 -0.1454  0.1767
 3653SOL     OW22417   1.977   3.291  11.812  0.4516  0.8560  0.2777
 3653SOL    HW122418   1.958   3.367  11.757 -1.3987  1.0416  1.1850
 3653SOL    HW222419   2.070   3.270  11.799  0.1051 -0.7863  0.4768
 3654SOL     OW22420   1.314   1.495   5.319 -0.0815 -0.0373 -0.4465
 3654SOL    HW122421   1.367   1.429   5.363 -1.8701 -0.3349  1.2935
 3654SOL    HW222422   1.295   1.555   5.391  0.3797 -1.9272  1.2389
 3655SOL     OW22423   2.828   2.610   2.268 -0.8658  0.4983 -0.0515
 3655SOL    HW122424   2.875   2.694   2.268 -0.5184  0.3061 -0.8682
 3655SOL    HW222425   2.872   2.569   2.342 -1.0909  2.1021  0.9863
 3656SOL     OW22426   0.171   2.476  15.399 -0.3265  0.2070 -0.2073
 3656SOL    HW122427   0.237   2.501  15.465 -0.8203  1.6730 -0.2689
 3656SOL    HW222428   0.229   2.478  15.323  1.5544  2.4244  1.2775
 3657SOL     OW22429   0.465   1.008   6.849  0.3250 -0.2631  0.2806
 3657SOL    HW122430   0.407   1.024   6.923  1.1663  0.0860  0.8670
 3657SOL    HW222431   0.414   1.051   6.781 -2.7261 -0.9231  2.1608
 3658SOL     OW22432   2.552   0.070   3.248 -0.1063 -0.2363 -0.2735
 3658SOL    HW122433   2.488   0.108   3.188 -0.7461  0.1820  0.6610
 3658SOL    HW222434   2.623   0.134   3.259 -0.4791  0.0413  0.6099
 3659SOL     OW22435   1.701   4.154   1.878 -0.0053 -0.0807  0.5238
 3659SOL    HW122436   1.621   4.102   1.865 -0.4363  0.3826  1.3009
 3659SOL    HW222437   1.764   4.128   1.811  0.8769  2.6793  0.2974
 3660SOL     OW22438   0.779   1.215   5.099  0.3226  0.2126  0.3722
 3660SOL    HW122439   0.789   1.256   5.185 -1.7263  1.7255 -0.1066
 3660SOL    HW222440   0.860   1.242   5.056  0.4818 -1.3096 -0.2675
 3661SOL     OW22441   2.827   4.177   8.938 -0.1546 -0.1436 -0.2674
 3661SOL    HW122442   2.873   4.141   9.014  2.1005  2.5897 -0.3043
 3661SOL    HW222443   2.749   4.222   8.971  0.7363  0.1004  1.5020
 3662SOL     OW22444   0.991   1.474   3.278  0.0111 -0.1757 -0.2915
 3662SOL    HW122445   1.062   1.434   3.228 -1.5016 -2.2109 -0.8113
 3662SOL    HW222446   0.944   1.526   3.212  1.8017  1.6375 -0.1334
 3663SOL     OW22447   4.538   0.853   4.067 -0.1839  0.0309 -0.7167
 3663SOL    HW122448   4.509   0.928   4.014  0.5767  0.5250 -0.4223
 3663SOL    HW222449   4.632   0.868   4.066 -0.3566  1.2521  0.7910
 3664SOL     OW22450   4.207   1.871   7.791  0.3170 -0.5114 -0.1400
 3664SOL    HW122451   4.127   1.866   7.844 -0.2389  0.3978 -0.8877
 3664SOL    HW222452   4.199   1.961   7.757  0.2944 -1.0432 -1.5206
 3665SOL     OW22453   3.116   2.454   5.634 -0.1933  0.0182  0.2406
 3665SOL    HW122454   3.046   2.396   5.605  1.8179 -2.1643 -0.2700
 3665SOL    HW222455   3.065   2.497   5.703  0.1953  2.3076 -0.9002
 3666SOL     OW22456   1.669   4.231   7.547  0.5218  0.4111  0.2687
 3666SOL    HW122457   1.729   4.228   7.622  1.8464  1.6389 -0.7290
 3666SOL    HW222458   1.724   4.194   7.477  1.1139  1.2123  0.3100
 3667SOL     OW22459   2.179   3.812   8.730  0.3034  0.4725  0.1234
 3667SOL    HW122460   2.273   3.801   8.742  0.4511 -0.2048 -1.6800
 3667SOL    HW222461   2.181   3.897   8.774 -0.7109 -0.9362  2.8721
 3668SOL     OW22462   0.350   2.347   3.640  0.0481  0.3680 -0.1844
 3668SOL    HW122463   0.258   2.372   3.631 -0.5900 -2.6170 -2.2987
 3668SOL    HW222464   0.373   2.319   3.551  0.0179  1.0820 -0.4148
 3669SOL     OW22465   3.095   4.262   9.969  0.3272  0.2040  0.1996
 3669SOL    HW122466   3.057   4.349   9.956  2.2313  0.9718 -0.2698
 3669SOL    HW222467   3.163   4.279  10.033  2.0016  1.7462 -1.9778
 3670SOL     OW22468   2.914   3.409   3.409 -0.1394  0.3175  0.1454
 3670SOL    HW122469   2.839   3.367   3.452 -0.1390 -0.8791 -1.0133
 3670SOL    HW222470   2.868   3.419   3.325  0.2357  1.4025  0.0650
 3671SOL     OW22471   1.817   0.229   3.444  0.4124  0.3729  0.1730
 3671SOL    HW122472   1.877   0.155   3.458  0.2517 -0.0386 -1.3307
 3671SOL    HW222473   1.816   0.261   3.535 -2.8201 -0.6433  0.4651
 3672SOL     OW22474   4.134   1.673  15.209 -0.0517  0.0111  0.1120
 3672SOL    HW122475   4.053   1.722  15.221  1.1000  1.5615  1.5503
 3672SOL    HW222476   4.110   1.628  15.128 -1.2908  1.5997 -0.4055
 3673SOL     OW22477   2.001   3.918   1.852  0.4174 -0.1308 -0.4240
 3673SOL    HW122478   2.056   3.871   1.789  0.0204  0.6371 -1.3402
 3673SOL    HW222479   1.949   3.966   1.788  0.6580  0.1518 -0.4037
 3674SOL     OW22480   2.127   2.627   7.621  0.5346 -0.0081 -0.2390
 3674SOL    HW122481   2.216   2.654   7.645 -0.4789  2.6415  0.4669
 3674SOL    HW222482   2.131   2.661   7.532  0.6910  2.9653  0.9327
 3675SOL     OW22483   0.950   3.265   5.913 -0.6363 -0.2400 -0.0378
 3675SOL    HW122484   0.974   3.215   5.991 -0.6629 -0.7501 -0.3580
 3675SOL    HW222485   0.856   3.246   5.905 -0.6803 -0.3485  0.7799
 3676SOL     OW22486   1.108   0.753  14.861 -1.0448  0.4474 -0.1682
 3676SOL    HW122487   1.103   0.702  14.781  3.7253 -0.2811  0.0014
 3676SOL    HW222488   1.086   0.839  14.823  1.4367  1.4246  0.5907
 3677SOL     OW22489   0.556   0.450   3.470 -0.3916 -0.5451 -0.1085
 3677SOL    HW122490   0.461   0.462   3.480 -0.3420  0.0243 -0.3090
 3677SOL    HW222491   0.583   0.541   3.486 -1.5715 -0.4729  1.5696
 3678SOL     OW22492   4.007   4.001   3.334  0.4007 -0.4639 -0.2395
 3678SOL    HW122493   4.101   3.980   3.331  0.6214  0.1803  2.0002
 3678SOL    HW222494   3.988   3.958   3.251 -2.0391  1.5688 -0.7029
 3679SOL     OW22495   1.652   3.684   2.029  0.4633  0.1922 -0.2217
 3679SOL    HW122496   1.584   3.709   1.966  0.6128 -1.2000 -0.9340
 3679SOL    HW222497   1.643   3.765   2.080 -1.0156  1.1490 -2.0174
 3680SOL     OW22498   1.053   4.551   1.102  0.1871  0.5603  0.0887
 3680SOL    HW122499   1.115   4.535   1.173  0.2877 -1.4519 -0.4592
 3680SOL    HW222500   0.969   4.556   1.148  0.7143 -2.3533  1.3939
 3681SOL     OW22501   0.079   3.949   5.326 -0.5005 -0.0992  0.0121
 3681SOL    HW122502   0.132   3.883   5.280 -0.5883  0.2361 -0.5690
 3681SOL    HW222503   0.058   4.005   5.252 -2.7375 -1.2337 -0.2274
 3682SOL     OW22504   2.807   2.424   3.250 -0.1533  0.1933 -0.0372
 3682SOL    HW122505   2.890   2.403   3.293  0.2634  0.1484 -0.8628
 3682SOL    HW222506   2.837   2.437   3.160  0.7525  0.0013  0.2301
 3683SOL     OW22507   0.936   3.634   6.141  0.0236  0.8118  0.2337
 3683SOL    HW122508   0.948   3.688   6.220  0.3701 -0.1213  0.8218
 3683SOL    HW222509   0.877   3.570   6.181 -1.8277  1.6749 -1.1098
 3684SOL     OW22510   3.474   3.665   9.030  0.0731  0.2831 -0.3440
 3684SOL    HW122511   3.543   3.640   9.091  1.5441  1.4728 -1.5330
 3684SOL    HW222512   3.437   3.580   9.004 -1.5616  0.4766  1.3830
 3685SOL     OW22513   3.559   1.646   8.196  0.0642 -0.2581 -0.1043
 3685SOL    HW122514   3.469   1.628   8.223 -0.1973  0.2254 -0.6291
 3685SOL    HW222515   3.602   1.561   8.202 -0.9008 -0.5854  2.2489
 3686SOL     OW22516   1.575   4.307   2.210 -0.2439 -0.1465 -0.1575
 3686SOL    HW122517   1.658   4.288   2.167  0.6852 -0.6430  1.8419
 3686SOL    HW222518   1.570   4.400   2.230 -2.5399 -0.6505  1.5846
 3687SOL     OW22519   1.799   1.072   8.959  0.5150 -0.0976 -0.2394
 3687SOL    HW122520   1.724   1.035   9.004 -0.7548  1.3121 -1.2077
 3687SOL    HW222521   1.802   1.011   8.885  1.2910 -1.1750  0.6611
 3688SOL     OW22522   0.944   4.232   4.213  0.1154 -0.5718 -0.6221
 3688SOL    HW122523   0.866   4.280   4.184 -1.0216 -2.6663 -1.0318
 3688SOL    HW222524   0.939   4.142   4.180  1.3158 -0.8802  0.0478
 3689SOL     OW22525   4.305   3.271   7.329 -0.1263 -0.1830  0.6545
 3689SOL    HW122526   4.391   3.240   7.356  0.7164  1.7977  0.1645
 3689SOL    HW222527   4.279   3.204   7.265  0.1467  0.0028  0.3539
 3690SOL     OW22528   2.287   3.030   3.699  0.2384  0.3361  0.1482
 3690SOL    HW122529   2.210   3.086   3.686  1.0331  0.3513 -4.6023
 3690SOL    HW222530   2.249   2.943   3.692 -0.6000  1.0197 -3.8851
 3691SOL     OW22531   3.637   4.530   2.960  0.0627  0.1904  0.6215
 3691SOL    HW122532   3.700   4.589   2.917 -0.1896  1.2186  1.6716
 3691SOL    HW222533   3.585   4.600   3.000 -1.6715 -0.0609 -1.1869
 3692SOL     OW22534   1.331   1.633  10.607 -0.3752 -0.0133  0.0840
 3692SOL    HW122535   1.409   1.653  10.555 -0.2596  2.1654  1.1160
 3692SOL    HW222536   1.365   1.562  10.662  0.7761  1.3164  1.1044
 3693SOL     OW22537   2.731   3.582   6.918  0.2638  0.2910  0.0150
 3693SOL    HW122538   2.721   3.557   6.826  1.4126  1.0611 -0.3208
 3693SOL    HW222539   2.652   3.536   6.944  0.2104  0.4109  0.0648
 3694SOL     OW22540   0.463   0.563   8.550 -0.1766 -0.4299 -0.2286
 3694SOL    HW122541   0.376   0.584   8.584 -0.4498 -1.2210 -0.4183
 3694SOL    HW222542   0.486   0.654   8.534  0.5378 -0.4496  0.7407
 3695SOL     OW22543   0.237   1.390   9.253 -0.1324  0.1458  0.7378
 3695SOL    HW122544   0.147   1.362   9.233 -0.7020  3.4378 -1.3369
 3695SOL    HW222545   0.222   1.473   9.299 -1.5157  0.2278  0.1317
 3696SOL     OW22546   3.250   0.118   4.347  0.3197 -0.4430  0.0491
 3696SOL    HW122547   3.268   0.035   4.302  1.9224 -0.9241  1.5609
 3696SOL    HW222548   3.329   0.138   4.397 -0.3402 -0.5467  1.1328
 3697SOL     OW22549   1.859   2.916   8.455 -0.2751 -0.0912 -0.0342
 3697SOL    HW122550   1.913   2.904   8.532 -1.8477 -1.0825  0.9137
 3697SOL    HW222551   1.799   2.970   8.506 -0.1081 -0.6322  0.7245
 3698SOL     OW22552   4.675   3.623   4.527  0.1826 -0.1663  0.5544
 3698SOL    HW122553   4.693   3.574   4.447 -0.0539 -0.5584  0.7391
 3698SOL    HW222554   4.581   3.605   4.533  0.3409 -1.0489  0.3041
 3699SOL     OW22555   3.773   4.590   4.765 -0.0714 -0.5942 -0.5181
 3699SOL    HW122556   3.687   4.558   4.793 -0.3417 -0.3382 -1.0530
 3699SOL    HW222557   3.842   4.529   4.790 -2.2589 -2.1770  1.7532
 3700SOL     OW22558   0.018   2.467   4.089  0.0335  0.3268  0.0223
 3700SOL    HW122559   0.008   2.513   4.005 -3.8440  1.1879  0.9692
 3700SOL    HW222560   0.094   2.508   4.131  0.2621 -1.1080  1.0007
 3701SOL     OW22561   1.161   1.884   4.467  0.7200  0.1657 -0.5718
 3701SOL    HW122562   1.147   1.934   4.547 -2.0176  0.2963 -1.1091
 3701SOL    HW222563   1.174   1.793   4.492  1.4526  0.5611  0.4892
 3702SOL     OW22564   2.408   0.537   3.424  0.2790  0.0586  0.4740
 3702SOL    HW122565   2.435   0.620   3.464 -0.8960  1.3961 -1.5105
 3702SOL    HW222566   2.349   0.567   3.356  0.4866  0.7896  0.6184
 3703SOL     OW22567   0.940   3.956  15.808  0.2698  0.0957  0.1793
 3703SOL    HW122568   1.013   4.018  15.812 -0.0449  0.6882 -3.8760
 3703SOL    HW222569   0.975   3.884  15.861  3.4309  2.2338  0.9690
 3704SOL     OW22570   2.778   0.642  15.966 -0.3673 -0.1698  0.0786
 3704SOL    HW122571   2.831   0.625  16.045  0.2110  0.4540 -0.1769
 3704SOL    HW222572   2.791   0.558  15.921  0.7764  0.7831 -1.3643
 3705SOL     OW22573   4.306   4.568   7.058 -0.1861 -0.0796  0.5347
 3705SOL    HW122574   4.384   4.527   7.021  0.3623  0.6600  0.8764
 3705SOL    HW222575   4.244   4.502   7.027 -0.8244  1.3770 -1.2818
 3706SOL     OW22576   4.216   3.275  15.235  0.2686  0.0997  0.7095
 3706SOL    HW122577   4.200   3.203  15.296 -0.4011  0.5202  1.0228
 3706SOL    HW222578   4.311   3.268  15.224  0.0389 -3.5335  1.1269
 3707SOL     OW22579   1.825   2.924   7.204 -0.0692 -0.0754  0.1987
 3707SOL    HW122580   1.911   2.933   7.163 -0.2613  2.8696  0.4242
 3707SOL    HW222581   1.791   2.845   7.161  0.1257  0.7175 -1.3999
 3708SOL     OW22582   2.382   3.245   6.599 -0.6669  0.4050 -0.2162
 3708SOL    HW122583   2.331   3.323   6.623 -2.4488 -0.3214 -1.6788
 3708SOL    HW222584   2.404   3.272   6.510  2.3922 -0.2244  0.3319
 3709SOL     OW22585   0.085   2.130  14.898  0.2778  0.1339 -0.1331
 3709SOL    HW122586   0.115   2.156  14.811 -0.9705 -1.9929 -1.2019
 3709SOL    HW222587   0.020   2.196  14.924 -0.3728 -0.4208 -0.3467
 3710SOL     OW22588   0.134   1.335   7.837  0.1467  0.0082 -0.7494
 3710SOL    HW122589   0.042   1.359   7.849 -0.1527 -0.2809 -2.5624
 3710SOL    HW222590   0.155   1.338   7.930  0.3387 -1.8229 -0.7311
 3711SOL     OW22591   0.602   2.330   7.411  0.5492 -0.3525  0.6583
 3711SOL    HW122592   0.679   2.290   7.371  1.3199  1.1059  0.7125
 3711SOL    HW222593   0.545   2.333   7.334 -0.2903 -1.6317  1.2357
 3712SOL     OW22594   0.993   4.116  17.286 -0.2551  0.4473 -0.3068
 3712SOL    HW122595   0.994   4.206  17.317 -0.7937  0.1533  0.5718
 3712SOL    HW222596   0.927   4.071  17.338 -2.1299 -0.0561 -3.1151
 3713SOL     OW22597   3.317   2.509   7.029 -0.1953  0.0052  0.4167
 3713SOL    HW122598   3.343   2.511   6.937 -2.1595  0.9350 -0.1254
 3713SOL    HW222599   3.366   2.430   7.053  1.1256  0.8505  0.5022
 3714SOL     OW22600   3.478   2.604  16.762 -0.2143 -0.0838 -0.2496
 3714SOL    HW122601   3.440   2.591  16.675 -0.2241 -0.2434 -0.2208
 3714SOL    HW222602   3.441   2.531  16.811 -0.2780 -0.8554 -1.4360
 3715SOL     OW22603   1.465   1.280   5.431 -0.4045  0.8101  0.3269
 3715SOL    HW122604   1.542   1.331   5.406  0.3725  0.6051  2.3042
 3715SOL    HW222605   1.485   1.258   5.522  0.6847  0.4990  0.0115
 3716SOL     OW22606   1.065   0.586  15.612  0.4642 -0.5648  0.7858
 3716SOL    HW122607   1.138   0.644  15.634  1.6428 -1.3005 -1.2369
 3716SOL    HW222608   1.107   0.534  15.544 -1.3306  0.1624 -0.8550
 3717SOL     OW22609   3.620   3.827   7.301  0.1714  0.2785  0.2416
 3717SOL    HW122610   3.673   3.779   7.237 -1.6395 -1.6968  0.2062
 3717SOL    HW222611   3.678   3.843   7.375  1.0191 -0.5389 -0.2383
 3718SOL     OW22612   2.254   1.268   4.713 -0.5191  0.1716 -0.1639
 3718SOL    HW122613   2.196   1.302   4.644 -0.9016 -1.0644 -0.4510
 3718SOL    HW222614   2.277   1.350   4.755 -0.0532 -0.0525  0.0137
 3719SOL     OW22615   2.533   3.949   8.931 -0.0755  0.1430 -0.0076
 3719SOL    HW122616   2.579   4.012   8.987 -0.0309 -0.0651  0.1870
 3719SOL    HW222617   2.598   3.943   8.861  2.0132 -4.1428  2.2989
 3720SOL     OW22618   0.217   1.997  14.674 -0.6735  0.3105  0.1341
 3720SOL    HW122619   0.153   1.931  14.645 -0.7291  0.0100  0.9316
 3720SOL    HW222620   0.216   2.061  14.602  0.4050 -0.2367 -0.3712
 3721SOL     OW22621   4.408   2.539  11.737 -0.1330 -0.3956  0.4530
 3721SOL    HW122622   4.475   2.506  11.678  1.6949 -0.4015  2.5182
 3721SOL    HW222623   4.407   2.474  11.807 -2.3731 -0.3141  0.5134
 3722SOL     OW22624   1.140   2.623   5.737  0.3394 -0.4772 -0.1426
 3722SOL    HW122625   1.108   2.540   5.700  1.4638 -0.7611 -0.4892
 3722SOL    HW222626   1.234   2.608   5.720  0.0054 -0.6292 -1.8670
 3723SOL     OW22627   2.155   2.961  11.593 -0.6546 -0.0262 -0.1869
 3723SOL    HW122628   2.154   3.051  11.624 -2.2774 -0.8953  2.2502
 3723SOL    HW222629   2.224   2.976  11.528  1.3915  2.3020  2.5516
 3724SOL     OW22630   4.653   2.550   5.212  0.5301  0.6332 -0.0076
 3724SOL    HW122631   0.005   2.541   5.152  1.1043  0.6386  0.7089
 3724SOL    HW222632   4.606   2.615   5.160 -0.1434 -0.2560 -0.5082
 3725SOL     OW22633   4.004   0.261   3.661 -0.2839 -0.1231  0.2078
 3725SOL    HW122634   3.924   0.209   3.649  2.3555 -3.1472 -3.9068
 3725SOL    HW222635   4.058   0.231   3.588  2.5140  1.2971  1.7021
 3726SOL     OW22636   3.399   3.736  11.357  0.2915  0.1058  0.7291
 3726SOL    HW122637   3.313   3.694  11.354  0.9713 -1.0897 -1.8148
 3726SOL    HW222638   3.435   3.676  11.292 -3.4739 -2.3455  0.8579
 3727SOL     OW22639   4.395   3.494   7.760 -0.4563 -0.0092  0.4481
 3727SOL    HW122640   4.338   3.472   7.686  1.5326 -0.2328 -1.0283
 3727SOL    HW222641   4.335   3.522   7.829 -0.3934  0.6145  0.2569
 3728SOL     OW22642   0.134   0.806   5.068  0.4557 -0.1452  0.7917
 3728SOL    HW122643   0.168   0.835   5.152 -0.1948 -0.6196  1.2247
 3728SOL    HW222644   0.112   0.714   5.082 -0.1583 -0.3611 -1.6562
 3729SOL     OW22645   2.150   1.750   7.010  0.3679  0.1415  0.6053
 3729SOL    HW122646   2.234   1.744   6.964 -0.4168 -0.9963 -0.6761
 3729SOL    HW222647   2.183   1.746   7.100 -0.2604  1.1908  0.8810
 3730SOL     OW22648   2.287   4.655  13.749 -0.7033  0.7684  0.3020
 3730SOL    HW122649   2.213   4.712  13.728 -1.2146 -0.7296 -1.9938
 3730SOL    HW222650   2.259   4.621  13.834 -2.6776  1.3651 -0.1115
 3731SOL     OW22651   0.074   3.829   2.343  0.0083 -0.5249  0.1913
 3731SOL    HW122652   0.103   3.751   2.390  0.4723 -0.2187  0.4040
 3731SOL    HW222653   0.063   3.882   2.422 -0.5946  0.5057 -0.5803
 3732SOL     OW22654   0.864   2.159  17.256  0.4580  0.7402  0.1072
 3732SOL    HW122655   0.855   2.213  17.334  0.7573  2.1157 -0.8161
 3732SOL    HW222656   0.844   2.075  17.298 -0.6645  0.2009 -1.5017
 3733SOL     OW22657   1.221   2.348   3.344  0.4426  0.0570 -0.1826
 3733SOL    HW122658   1.300   2.392   3.311  1.4038 -1.2554  0.3729
 3733SOL    HW222659   1.259   2.260   3.346 -1.6912 -0.8690 -0.5040
 3734SOL     OW22660   0.136   0.522   5.547 -0.7617  0.2059 -0.4588
 3734SOL    HW122661   0.231   0.527   5.551 -0.6768 -0.6431 -1.4923
 3734SOL    HW222662   0.109   0.538   5.637  0.0291  0.3774 -0.2571
 3735SOL     OW22663   1.456   2.820   2.771 -0.3492  0.3577 -0.4434
 3735SOL    HW122664   1.493   2.808   2.684 -3.1701 -0.6893 -1.4974
 3735SOL    HW222665   1.414   2.734   2.768  3.7564 -1.6276 -1.7276
 3736SOL     OW22666   3.309   0.910   4.729 -0.3476  0.0689 -0.5439
 3736SOL    HW122667   3.318   0.931   4.636  0.2096  3.4167  0.2886
 3736SOL    HW222668   3.372   0.973   4.765 -1.5120  0.3521  0.9807
 3737SOL     OW22669   4.335   3.163   3.944  0.2971 -0.4445 -0.2019
 3737SOL    HW122670   4.323   3.238   4.002 -0.8228  0.2488 -1.3256
 3737SOL    HW222671   4.430   3.157   3.932  0.3615  1.6162 -0.7066
 3738SOL     OW22672   3.764   1.776  14.590 -0.5217 -0.5893 -0.0808
 3738SOL    HW122673   3.727   1.702  14.639  2.9030 -1.5008  1.1426
 3738SOL    HW222674   3.834   1.804  14.648 -0.0506 -1.4706 -0.2169
 3739SOL     OW22675   4.700   4.643   1.327  0.0637 -0.5520  0.2123
 3739SOL    HW122676   0.007   4.564   1.370  2.0399  0.6990  1.1243
 3739SOL    HW222677   4.612   4.651   1.364  0.5364 -0.8789  1.3867
 3740SOL     OW22678   3.373   0.512   2.714  0.2127 -0.4184  0.3600
 3740SOL    HW122679   3.392   0.567   2.791 -0.8935  0.0687  0.2857
 3740SOL    HW222680   3.294   0.558   2.684  0.3689  0.1893  0.8593
 3741SOL     OW22681   3.786   0.961   9.225  0.2444  0.4934  0.6060
 3741SOL    HW122682   3.697   0.938   9.197  0.6366  1.1503 -1.1404
 3741SOL    HW222683   3.766   1.043   9.271  2.0804  1.2613  0.0185
 3742SOL     OW22684   2.384   2.372   4.815  0.2247  0.6736  0.7389
 3742SOL    HW122685   2.460   2.353   4.871  0.1663  1.4967  1.0932
 3742SOL    HW222686   2.423   2.448   4.772  0.8602  0.3893  0.8069
 3743SOL     OW22687   2.890   0.511  12.142 -0.1892 -0.4008 -0.0480
 3743SOL    HW122688   2.962   0.523  12.080 -0.0132  0.0223  0.2348
 3743SOL    HW222689   2.825   0.578  12.119  0.6047  1.2856  2.5021
 3744SOL     OW22690   4.524   3.892   1.424  0.1343 -0.6389 -0.4000
 3744SOL    HW122691   4.556   3.952   1.492  2.2291  0.1989 -2.1387
 3744SOL    HW222692   4.445   3.928   1.384  0.2277  1.8546  1.6737
 3745SOL     OW22693   3.217   0.776  15.891  0.0791  0.6658 -0.3724
 3745SOL    HW122694   3.227   0.711  15.961 -1.1954 -1.3007 -2.0057
 3745SOL    HW222695   3.143   0.825  15.927  0.2507  1.0348 -0.5195
 3746SOL     OW22696   1.394   3.262   2.198  0.1093 -0.4723  0.6763
 3746SOL    HW122697   1.481   3.293   2.223 -0.0303 -0.7186  1.4509
 3746SOL    HW222698   1.371   3.342   2.149  3.0709 -0.3289 -0.5160
 3747SOL     OW22699   3.866   0.254   1.758  0.0405 -0.2194 -0.0548
 3747SOL    HW122700   3.957   0.258   1.729  0.1191  0.4528  0.2730
 3747SOL    HW222701   3.836   0.331   1.709 -1.6159 -0.5960  0.3364
 3748SOL     OW22702   0.997   3.331   3.504  0.4602 -0.4066  0.5647
 3748SOL    HW122703   0.995   3.425   3.488  0.5305  0.0867  3.3655
 3748SOL    HW222704   1.073   3.306   3.453 -0.5708 -2.4108  0.0033
 3749SOL     OW22705   1.732   4.635   4.708 -0.3730 -0.1455 -0.5513
 3749SOL    HW122706   1.713   4.655   4.800  2.2330  1.0660 -0.2568
 3749SOL    HW222707   1.823   4.665   4.711  0.4812 -2.8659  0.8098
 3750SOL     OW22708   3.676   0.178   0.933  0.1401  0.0970 -0.1614
 3750SOL    HW122709   3.628   0.145   0.857 -1.8560  1.7971  0.3727
 3750SOL    HW222710   3.764   0.180   0.894  0.1287 -1.3049 -0.2859
 3751SOL     OW22711   1.938   0.059   8.081 -0.0803 -0.3143 -0.6224
 3751SOL    HW122712   1.932   0.139   8.132 -0.1410  1.2351 -3.0630
 3751SOL    HW222713   2.027   0.064   8.046  1.0447  0.9280  2.4269
 3752SOL     OW22714   2.683   2.189   1.205 -0.2958 -0.1950  0.4482
 3752SOL    HW122715   2.730   2.250   1.148 -0.9782 -0.2754 -0.2072
 3752SOL    HW222716   2.589   2.199   1.187 -0.2784  0.1349  0.5321
 3753SOL     OW22717   1.752   4.249   1.538  0.1998 -0.2453 -0.4484
 3753SOL    HW122718   1.722   4.245   1.447  1.6719  0.9270 -0.9845
 3753SOL    HW222719   1.690   4.313   1.575 -1.4421 -2.5118  0.7126
 3754SOL     OW22720   0.542   0.400   6.846  0.6950  0.0238 -0.0563
 3754SOL    HW122721   0.527   0.345   6.769 -0.9863  1.2114 -0.5833
 3754SOL    HW222722   0.454   0.435   6.863  0.7648  0.1981 -0.0500
 3755SOL     OW22723   3.660   3.894   8.209 -0.4738  0.4483 -0.4151
 3755SOL    HW122724   3.636   3.917   8.298  0.3878  0.0439 -0.0758
 3755SOL    HW222725   3.577   3.864   8.171  0.2008  0.9592 -2.2845
 3756SOL     OW22726   3.856   2.134  14.717  0.0152 -0.0050  0.1979
 3756SOL    HW122727   3.820   2.196  14.781  1.3259  2.8284 -1.8053
 3756SOL    HW222728   3.859   2.054  14.768  0.1328  0.2384  0.5726
 3757SOL     OW22729   2.346   0.805   3.746  0.1679 -0.0868  0.6574
 3757SOL    HW122730   2.370   0.841   3.661 -0.7107  1.8811  1.2357
 3757SOL    HW222731   2.339   0.888   3.794 -1.8982 -0.2461  0.6280
 3758SOL     OW22732   2.073   3.295   6.370 -0.8202  0.2609 -0.1845
 3758SOL    HW122733   2.070   3.329   6.280 -0.7716 -1.0691 -0.6874
 3758SOL    HW222734   2.059   3.372   6.425  0.2204 -0.3761  0.9572
 3759SOL     OW22735   2.902   3.328  13.814 -0.4979 -0.3235  0.4981
 3759SOL    HW122736   2.929   3.330  13.906 -0.9261  0.0766  0.6147
 3759SOL    HW222737   2.968   3.267  13.780  1.8577  1.7838  1.2411
 3760SOL     OW22738   0.997   0.946   9.109  0.0528 -0.1084  0.4131
 3760SOL    HW122739   1.087   0.977   9.097 -0.2190  0.2689 -0.6658
 3760SOL    HW222740   0.944   1.016   9.071 -0.4221 -1.0365 -0.6367
 3761SOL     OW22741   4.176   4.507   0.749 -0.0778  0.2173  0.3070
 3761SOL    HW122742   4.211   4.596   0.754 -1.5509  0.8109 -0.0736
 3761SOL    HW222743   4.105   4.513   0.685 -0.3176 -0.7119  0.4917
 3762SOL     OW22744   2.935   1.373   3.110 -0.1331 -0.1090 -0.1769
 3762SOL    HW122745   2.908   1.379   3.018 -1.9424 -3.0568  0.1842
 3762SOL    HW222746   3.024   1.410   3.107 -0.2253 -0.0468 -2.5876
 3763SOL     OW22747   1.808   3.597   5.101 -1.1367 -0.1846  0.3095
 3763SOL    HW122748   1.725   3.574   5.060 -1.7016  1.9621  0.2423
 3763SOL    HW222749   1.794   3.542   5.178 -1.8578 -1.9916 -1.1305
 3764SOL     OW22750   2.063   1.627   8.652  0.6775  0.5086 -0.1852
 3764SOL    HW122751   2.010   1.569   8.598 -0.0005  0.1771  0.8490
 3764SOL    HW222752   2.151   1.613   8.616  1.0747  2.4124  0.0470
 3765SOL     OW22753   2.178   1.549   8.294 -0.1119 -0.1395  0.3409
 3765SOL    HW122754   2.231   1.587   8.224  0.7012  2.1015  2.1615
 3765SOL    HW222755   2.089   1.557   8.259  0.3343 -0.0304 -0.7899
 3766SOL     OW22756   0.605   2.688   0.074 -0.6220  0.2692 -0.0606
 3766SOL    HW122757   0.686   2.639   0.088 -0.7306  0.2650  0.5633
 3766SOL    HW222758   0.652   2.770   0.060  1.8949 -1.3279 -1.0444
 3767SOL     OW22759   0.530   1.553  10.902 -0.1142 -0.1024  0.3265
 3767SOL    HW122760   0.625   1.554  10.891 -0.4562  2.5608 -2.3262
 3767SOL    HW222761   0.510   1.631  10.955 -0.9725  0.2308 -0.4942
 3768SOL     OW22762   1.692   4.145   9.136  0.4168 -0.3052 -0.1732
 3768SOL    HW122763   1.755   4.077   9.115  0.4884 -0.7153  1.3890
 3768SOL    HW222764   1.753   4.219   9.134  1.1048 -0.9280 -2.5070
 3769SOL     OW22765   3.863   3.710  11.513  0.0071 -0.2430 -0.9742
 3769SOL    HW122766   3.920   3.719  11.589 -0.1721  3.1429 -1.2391
 3769SOL    HW222767   3.877   3.616  11.497  2.2405  0.2953 -2.1365
 3770SOL     OW22768   3.472   4.164   7.611  0.4335  0.0432  0.0463
 3770SOL    HW122769   3.414   4.217   7.664  3.7794  2.3355  1.4352
 3770SOL    HW222770   3.515   4.108   7.676  0.6866 -0.7415 -0.7812
 3771SOL     OW22771   1.954   3.256   4.692 -0.0897 -0.3729  0.2867
 3771SOL    HW122772   1.955   3.221   4.781  0.7312  1.1121  0.8693
 3771SOL    HW222773   1.901   3.189   4.648  0.8262 -0.0639 -1.2829
 3772SOL     OW22774   0.899   0.440   8.428  0.0511 -0.1323  0.0974
 3772SOL    HW122775   0.981   0.389   8.426  2.9001  4.4836  0.3175
 3772SOL    HW222776   0.839   0.369   8.452 -0.4193  0.5969  1.0580
 3773SOL     OW22777   4.038   4.380  12.490 -0.2453  0.2061 -0.0088
 3773SOL    HW122778   3.967   4.316  12.494 -1.4769  1.4348 -2.1590
 3773SOL    HW222779   4.106   4.314  12.474 -1.4370 -0.8520 -0.7597
 3774SOL     OW22780   2.599   1.493   6.247 -0.5962  0.8554 -0.7234
 3774SOL    HW122781   2.686   1.506   6.211 -1.4631  1.8854 -2.4669
 3774SOL    HW222782   2.575   1.580   6.278  0.6225  1.6911 -2.1251
 3775SOL     OW22783   3.867   1.966   1.481 -0.3295  0.1782 -0.6755
 3775SOL    HW122784   3.842   1.947   1.390  0.3007  2.6493 -1.3715
 3775SOL    HW222785   3.957   1.995   1.462  0.2681 -1.0010  0.3895
 3776SOL     OW22786   4.542   2.491   7.739  0.1357 -0.0719 -0.2990
 3776SOL    HW122787   4.526   2.526   7.827 -1.6707  1.0128 -1.0545
 3776SOL    HW222788   4.553   2.401   7.768  1.6484  0.5418  1.0301
 3777SOL     OW22789   4.091   3.680   5.458  0.1497 -0.3957  0.3355
 3777SOL    HW122790   4.053   3.758   5.499 -2.4151 -1.2286 -0.4133
 3777SOL    HW222791   4.081   3.693   5.364 -2.4697  2.4905  0.9966
 3778SOL     OW22792   4.512   3.392   1.351 -0.0568  0.6944 -0.5545
 3778SOL    HW122793   4.579   3.323   1.354 -0.6644  0.1522  0.5187
 3778SOL    HW222794   4.526   3.430   1.438  0.2057 -1.4703  0.3713
 3779SOL     OW22795   3.725   0.497   8.950  0.4124 -0.4448  0.0202
 3779SOL    HW122796   3.781   0.570   8.923  0.1435 -0.4123 -0.4495
 3779SOL    HW222797   3.680   0.522   9.031 -0.2632 -0.4992 -0.3386
 3780SOL     OW22798   3.759   2.248  11.150 -0.2331  0.2247  0.8813
 3780SOL    HW122799   3.677   2.294  11.166  0.2122  1.2333  0.2684
 3780SOL    HW222800   3.823   2.314  11.175 -1.2180  1.2091  0.7979
 3781SOL     OW22801   1.819   0.854   8.770 -0.2221  0.1258 -0.5040
 3781SOL    HW122802   1.768   0.780   8.737 -1.3456  1.3255 -1.4604
 3781SOL    HW222803   1.893   0.851   8.709  0.5487  0.7645  0.4018
 3782SOL     OW22804   4.399   3.686   8.853  0.3570  0.0966  0.5339
 3782SOL    HW122805   4.315   3.646   8.828  0.4999  0.8586 -1.1732
 3782SOL    HW222806   4.448   3.606   8.871  1.9696  0.9943  0.1044
 3783SOL     OW22807   3.872   0.627  16.160 -0.1103 -0.2957 -0.0235
 3783SOL    HW122808   3.956   0.669  16.182 -0.5727 -0.4628  2.0435
 3783SOL    HW222809   3.832   0.713  16.149  0.9102  0.3895  1.5616
 3784SOL     OW22810   0.950   2.690  15.009 -0.4406 -0.6145 -0.3968
 3784SOL    HW122811   0.908   2.735  15.081  2.6849  0.7719  0.5721
 3784SOL    HW222812   0.941   2.758  14.943 -2.6456 -0.2484  0.3053
 3785SOL     OW22813   2.453   1.521   2.546 -0.0345  0.4270  0.6593
 3785SOL    HW122814   2.521   1.587   2.535 -0.6650  1.3318  2.3531
 3785SOL    HW222815   2.376   1.578   2.546  0.4438  1.0838 -0.1713
 3786SOL     OW22816   4.156   4.190   8.141  0.5963  0.5329 -0.1154
 3786SOL    HW122817   4.215   4.255   8.181  0.6220  1.7499 -2.1028
 3786SOL    HW222818   4.075   4.223   8.180  0.8843  2.2134 -0.9366
 3787SOL     OW22819   0.254   2.776   2.512  0.1346 -0.5860 -0.5878
 3787SOL    HW122820   0.210   2.858   2.531 -0.6482 -0.4635 -2.9405
 3787SOL    HW222821   0.343   2.804   2.488  0.5381 -1.0063  0.3922
 3788SOL     OW22822   0.339   0.099   5.206 -0.4186 -0.1218 -0.4929
 3788SOL    HW122823   0.374   0.169   5.151 -0.6460  0.4749  0.1184
 3788SOL    HW222824   0.252   0.138   5.209 -0.7345 -0.7828 -0.9690
 3789SOL     OW22825   4.228   1.649   7.611 -0.2549 -0.1092 -0.1631
 3789SOL    HW122826   4.204   1.686   7.695 -0.2774 -0.0054 -0.2161
 3789SOL    HW222827   4.220   1.727   7.556 -0.8777  0.0909  0.2093
 3790SOL     OW22828   4.648   4.006   2.591 -0.3214 -0.1626  0.2572
 3790SOL    HW122829   4.720   3.983   2.650  1.5888 -1.1895 -2.4746
 3790SOL    HW222830   4.621   4.087   2.635 -0.1235  0.0437  0.0032
 3791SOL     OW22831   2.461   1.121   6.048  0.0420  0.5956 -0.4106
 3791SOL    HW122832   2.417   1.189   6.099 -2.4008 -0.8558 -0.5635
 3791SOL    HW222833   2.443   1.157   5.962  0.7869  0.2836 -0.6921
 3792SOL     OW22834   0.080   3.352   1.707 -0.7020  0.0248 -0.4048
 3792SOL    HW122835   0.132   3.293   1.653 -0.9995 -0.3064 -0.3337
 3792SOL    HW222836   0.117   3.341   1.794 -2.2278  1.9090  0.5115
 3793SOL     OW22837   1.351   0.882  14.221 -0.1891  0.2496  0.6628
 3793SOL    HW122838   1.428   0.938  14.224  0.8182 -1.1362  0.7034
 3793SOL    HW222839   1.389   0.812  14.167 -1.2673  0.1283  0.0561
 3794SOL     OW22840   1.394   2.621   7.765  0.0524 -0.1255 -0.5220
 3794SOL    HW122841   1.311   2.656   7.796  0.8707  0.9214  0.4986
 3794SOL    HW222842   1.368   2.557   7.699  4.3593 -0.6966 -1.6373
 3795SOL     OW22843   4.608   2.114   3.946  0.0500  0.6294  0.0006
 3795SOL    HW122844   4.637   2.092   3.858 -0.0014 -0.9864  0.3837
 3795SOL    HW222845   4.685   2.153   3.987  1.4679  0.5002 -2.5849
 3796SOL     OW22846   0.982   1.913   7.714 -0.5959  0.2734 -0.3357
 3796SOL    HW122847   0.962   1.826   7.749 -0.9700  0.9027  1.0061
 3796SOL    HW222848   0.967   1.904   7.620 -0.4946 -2.0073 -0.1307
 3797SOL     OW22849   1.452   0.968   9.532  0.7621  0.3326  0.3458
 3797SOL    HW122850   1.412   0.919   9.460 -1.5696  0.0848  1.8137
 3797SOL    HW222851   1.407   0.925   9.605  0.9103 -1.6521 -0.7357
 3798SOL     OW22852   3.437   1.363   0.077  0.0601  0.4602 -0.5363
 3798SOL    HW122853   3.507   1.407   0.126  0.3647 -0.7681  0.1325
 3798SOL    HW222854   3.377   1.352   0.150 -0.3822  1.5813 -0.7188
 3799SOL     OW22855   3.148   0.642   3.240 -0.4130 -0.4162 -0.9006
 3799SOL    HW122856   3.233   0.604   3.218  1.5048  1.1388  4.0088
 3799SOL    HW222857   3.139   0.713   3.176 -1.8214 -0.5922 -0.9071
 3800SOL     OW22858   2.737   0.242   3.334  0.0707  0.0715 -0.0091
 3800SOL    HW122859   2.680   0.265   3.407  0.9688 -0.2034  0.7805
 3800SOL    HW222860   2.766   0.329   3.309  0.3908  0.0494  0.2969
 3801SOL     OW22861   0.849   2.289  16.903 -0.0636  0.3128 -0.7038
 3801SOL    HW122862   0.942   2.281  16.881  0.2755 -3.9305  2.2630
 3801SOL    HW222863   0.823   2.334  16.822  1.5300  0.5248 -1.1012
 3802SOL     OW22864   2.934   1.946   8.627  0.2441 -0.4043 -0.2092
 3802SOL    HW122865   2.862   1.993   8.585  0.9957  1.2872  0.4045
 3802SOL    HW222866   2.944   1.983   8.714 -0.4664  1.2187 -0.8214
 3803SOL     OW22867   0.324   1.999   6.757 -0.0345 -0.3925 -0.2257
 3803SOL    HW122868   0.394   1.977   6.819  0.1156 -0.7331 -0.5158
 3803SOL    HW222869   0.377   1.971   6.682  1.0744  0.0892  0.3696
 3804SOL     OW22870   0.511   3.045   3.723  0.6072 -0.3152  0.2411
 3804SOL    HW122871   0.530   2.951   3.723 -0.1521 -0.4632 -0.4638
 3804SOL    HW222872   0.418   3.044   3.703  1.1026  1.7970 -2.1988
 3805SOL     OW22873   3.192   2.620   7.316  0.3823  0.2154  0.2703
 3805SOL    HW122874   3.195   2.525   7.323 -0.3687  0.0669 -1.3999
 3805SOL    HW222875   3.254   2.641   7.245 -1.0536  0.9499 -0.7627
 3806SOL     OW22876   4.478   2.257   3.551  0.5201 -0.3732  0.4487
 3806SOL    HW122877   4.473   2.257   3.455 -0.1334  0.5320  0.4800
 3806SOL    HW222878   4.413   2.324   3.572 -0.4369 -1.1300 -0.0129
 3807SOL     OW22879   2.104   4.331   1.522  0.4751 -0.2834  0.4080
 3807SOL    HW122880   2.065   4.259   1.572 -0.2924 -2.2737 -3.0371
 3807SOL    HW222881   2.139   4.385   1.593  2.4678 -0.4696 -0.4241
 3808SOL     OW22882   3.419   3.457   7.875 -1.2038  0.2045  0.3713
 3808SOL    HW122883   3.403   3.545   7.843  1.1368  0.3613 -0.3323
 3808SOL    HW222884   3.370   3.398   7.817  0.0237 -1.8753  1.4685
 3809SOL     OW22885   3.851   4.105   7.666 -0.3335 -0.5939 -0.3076
 3809SOL    HW122886   3.898   4.175   7.620 -0.2127 -0.5326 -0.0919
 3809SOL    HW222887   3.847   4.044   7.593  0.0826 -0.5386 -0.3770
 3810SOL     OW22888   4.359   1.275   6.168  0.0287  0.0200  0.1619
 3810SOL    HW122889   4.407   1.310   6.243 -2.1351 -0.8326  1.9712
 3810SOL    HW222890   4.285   1.232   6.210  1.2766 -0.5355  1.7955
 3811SOL     OW22891   1.287   1.756   0.021 -0.3009 -0.1275 -0.1097
 3811SOL    HW122892   1.358   1.742   0.084 -0.3598 -0.8839 -0.2023
 3811SOL    HW222893   1.216   1.711   0.068  1.4073 -1.8309  0.8535
 3812SOL     OW22894   4.707   0.447  12.080  0.4008 -0.6086 -0.0233
 3812SOL    HW122895   4.700   0.470  11.987 -1.1454  0.7323  0.4321
 3812SOL    HW222896   0.013   0.530  12.117  1.5083 -0.1781 -1.8183
 3813SOL     OW22897   1.583   0.830   3.886  0.0116 -0.1023 -1.0910
 3813SOL    HW122898   1.567   0.766   3.817  0.2159 -1.8633  0.5184
 3813SOL    HW222899   1.502   0.823   3.936 -0.1678 -0.7306 -1.4815
 3814SOL     OW22900   0.440   0.018  13.575 -0.1677 -0.3495  0.0788
 3814SOL    HW122901   0.464   4.682  13.504 -2.3334 -2.5733  1.1935
 3814SOL    HW222902   0.362   4.697  13.608 -1.2198  0.7426 -0.9923
 3815SOL     OW22903   1.360   2.117   3.363  0.1214 -0.0348  0.0214
 3815SOL    HW122904   1.392   2.124   3.452 -1.6254 -1.1231  0.7299
 3815SOL    HW222905   1.316   2.035   3.383  0.5422 -0.4543 -0.8044
 3816SOL     OW22906   2.000   2.669   3.505 -0.6378  0.8272 -0.0919
 3816SOL    HW122907   2.060   2.721   3.451 -0.5173  0.0241 -0.7312
 3816SOL    HW222908   1.928   2.733   3.503 -0.4463  1.0675  0.7202
 3817SOL     OW22909   4.341   0.640   7.837 -0.1316 -0.1587  0.4885
 3817SOL    HW122910   4.395   0.572   7.879  1.0315  0.7537  0.4595
 3817SOL    HW222911   4.346   0.606   7.748  2.4850  0.4361  0.4137
 3818SOL     OW22912   1.635   3.996   9.874  0.3425  0.3696  0.1374
 3818SOL    HW122913   1.672   4.077   9.839  1.6767 -0.1276  0.3825
 3818SOL    HW222914   1.546   4.026   9.889 -0.1290 -1.8339  1.7616
 3819SOL     OW22915   1.694   4.444  16.471  0.1720  0.3763  0.2066
 3819SOL    HW122916   1.692   4.521  16.415 -2.6676  0.4388  0.3728
 3819SOL    HW222917   1.787   4.424  16.456  0.0129  1.2283 -1.8730
 3820SOL     OW22918   1.668   2.561   6.327  0.8854  0.4924  0.6498
 3820SOL    HW122919   1.705   2.630   6.272  1.1032  0.2876  0.5370
 3820SOL    HW222920   1.634   2.612   6.401 -0.4276 -0.4647  0.7081
 3821SOL     OW22921   3.910   2.967   7.680 -0.1766  0.2438 -0.5501
 3821SOL    HW122922   3.985   2.940   7.629 -0.1826  0.6363 -0.7681
 3821SOL    HW222923   3.947   3.050   7.709 -0.7522  0.4025 -0.2520
 3822SOL     OW22924   3.893   3.869   4.822 -0.1360  0.6745 -0.3984
 3822SOL    HW122925   3.894   3.964   4.813 -1.5154  0.6967 -0.2949
 3822SOL    HW222926   3.940   3.863   4.906 -0.4315 -0.8986 -0.3563
 3823SOL     OW22927   1.866   3.693   0.383  0.1416  0.6039  0.0430
 3823SOL    HW122928   1.782   3.732   0.408  0.8148  0.3003  2.7635
 3823SOL    HW222929   1.909   3.761   0.331  1.3199 -1.4859 -1.7009
 3824SOL     OW22930   3.138   3.577   6.803 -0.2218  0.2000  0.1529
 3824SOL    HW122931   3.166   3.575   6.712 -0.1686 -0.9769  0.1897
 3824SOL    HW222932   3.166   3.660   6.843 -0.2012 -0.9048  2.4762
 3825SOL     OW22933   0.308   3.091   0.759 -0.5231  0.0976  0.0641
 3825SOL    HW122934   0.311   3.010   0.707  1.6439  0.0139  0.3238
 3825SOL    HW222935   0.246   3.138   0.704  1.0314  0.8866 -1.0214
 3826SOL     OW22936   3.616   0.457   3.987 -0.4628  0.1352  0.1040
 3826SOL    HW122937   3.660   0.481   4.068  1.7303 -0.3570 -0.9304
 3826SOL    HW222938   3.655   0.374   3.959 -0.9508  0.3335 -1.1603
 3827SOL     OW22939   3.134   0.464   4.518  0.4273 -0.3942 -0.3311
 3827SOL    HW122940   3.068   0.462   4.449  1.1506 -1.0935 -1.0084
 3827SOL    HW222941   3.109   0.545   4.562 -1.4224 -0.9101 -0.4484
 3828SOL     OW22942   0.286   0.739   5.386  0.0909  0.3277 -0.1072
 3828SOL    HW122943   0.327   0.700   5.463 -0.3555  0.9464  0.4436
 3828SOL    HW222944   0.344   0.711   5.315  1.7997  3.0812  0.1871
 3829SOL     OW22945   4.181   0.340   7.360 -0.4476 -0.0857  0.5504
 3829SOL    HW122946   4.220   0.405   7.301  2.3472  0.4305  2.9431
 3829SOL    HW222947   4.222   0.265   7.318  2.5208  1.3820  0.8118
 3830SOL     OW22948   0.544   1.205   0.194  0.4624 -0.3497  0.3443
 3830SOL    HW122949   0.560   1.231   0.104  1.8537  0.0692  0.7065
 3830SOL    HW222950   0.450   1.190   0.203 -0.0443  0.9011 -2.7940
 3831SOL     OW22951   1.979   4.331   1.050  0.4784 -0.1045 -0.1676
 3831SOL    HW122952   2.040   4.405   1.048  0.6843 -0.2940 -1.1984
 3831SOL    HW222953   2.020   4.268   0.991  0.6039 -1.1910  1.0822
 3832SOL     OW22954   0.135   2.937  17.567  0.2812  0.4155  0.1049
 3832SOL    HW122955   0.221   2.978  17.576 -0.0235  1.4431 -1.5806
 3832SOL    HW222956   0.151   2.861  17.623  1.0535 -1.2828 -2.3947
 3833SOL     OW22957   2.105   4.476   2.554 -0.0378  0.3867  0.1720
 3833SOL    HW122958   2.049   4.541   2.511  0.6271  1.2136  0.5677
 3833SOL    HW222959   2.104   4.509   2.644  1.2156 -0.3540  0.4537
 3834SOL     OW22960   1.624   0.946   0.998  0.0782 -0.2141  0.0708
 3834SOL    HW122961   1.631   0.975   0.907 -2.0664 -0.6010 -0.2279
 3834SOL    HW222962   1.569   1.014   1.037  0.3004  0.5482 -0.9499
 3835SOL     OW22963   0.549   1.144   7.185  0.0684  0.0216  0.4633
 3835SOL    HW122964   0.462   1.120   7.154  0.9010  0.4271 -2.1429
 3835SOL    HW222965   0.537   1.167   7.278  1.2092 -0.5370  0.7467
 3836SOL     OW22966   1.698   3.576  15.517  0.7486 -0.1088 -0.6844
 3836SOL    HW122967   1.670   3.513  15.583 -0.8957 -1.3127 -2.5326
 3836SOL    HW222968   1.681   3.663  15.552  5.5503  0.2195  0.8508
 3837SOL     OW22969   4.449   1.771  10.742 -0.1442  0.5556 -0.3383
 3837SOL    HW122970   4.410   1.762  10.655 -1.9943 -1.3312  0.6720
 3837SOL    HW222971   4.376   1.800  10.798 -0.5317 -0.6852 -0.1871
 3838SOL     OW22972   1.786   2.719   5.077 -0.1765  0.2436  0.1173
 3838SOL    HW122973   1.777   2.814   5.078  2.3880  0.4776  2.2254
 3838SOL    HW222974   1.847   2.716   5.151 -0.5436 -0.6827  0.3812
 3839SOL     OW22975   0.503   3.665  10.961  0.1407  0.2456 -0.5324
 3839SOL    HW122976   0.487   3.606  10.887 -1.2133  1.2985 -1.1056
 3839SOL    HW222977   0.581   3.703  10.919 -1.5142  1.3996 -2.6030
 3840SOL     OW22978   0.504   2.892   6.368 -0.2307 -0.3617  0.1735
 3840SOL    HW122979   0.507   2.804   6.406 -0.4101  0.4425  2.0594
 3840SOL    HW222980   0.593   2.905   6.336 -0.3349  2.2597  0.9434
 3841SOL     OW22981   1.704   2.613   5.496  0.2556 -0.2204 -0.5498
 3841SOL    HW122982   1.794   2.604   5.464 -0.1016  1.1878 -1.9362
 3841SOL    HW222983   1.701   2.708   5.487  0.9710 -0.0525  0.9332
 3842SOL     OW22984   4.127   1.522   3.866 -0.1978  0.3601 -0.1955
 3842SOL    HW122985   4.210   1.520   3.818  0.6726  0.1284  1.3412
 3842SOL    HW222986   4.099   1.613   3.867  0.5467  0.5604  1.5683
 3843SOL     OW22987   2.488   0.725   6.247  0.5123  0.3320 -0.5881
 3843SOL    HW122988   2.509   0.783   6.174  0.8332 -1.1485 -1.6792
 3843SOL    HW222989   2.440   0.788   6.301 -1.2182 -0.1337 -1.5758
 3844SOL     OW22990   3.748   2.090   6.118  0.4902 -0.9739 -0.4843
 3844SOL    HW122991   3.677   2.143   6.081  1.6745  2.3731  2.0869
 3844SOL    HW222992   3.713   2.002   6.106 -2.5449  0.0604  0.5305
 3845SOL     OW22993   0.295   1.744   0.003  0.1306 -0.3360  0.2815
 3845SOL    HW122994   0.321   1.681  17.629 -1.6094  0.2743 -0.9631
 3845SOL    HW222995   0.204   1.718   0.018  0.4742 -1.1419  0.9616
 3846SOL     OW22996   4.103   3.034   3.889 -0.4323 -0.2116  0.0637
 3846SOL    HW122997   4.193   3.049   3.916 -0.1291 -2.3257  0.2212
 3846SOL    HW222998   4.065   3.122   3.892  0.5537  0.1450  2.1410
 3847SOL     OW22999   2.811   4.407   5.530  0.1993 -0.0789  0.6055
 3847SOL    HW123000   2.884   4.349   5.507 -1.4204 -1.6396 -0.6018
 3847SOL    HW223001   2.743   4.340   5.538  0.3488 -0.6478 -2.5962
 3848SOL     OW23002   2.671   1.002   6.703  0.3946 -0.1404 -0.1921
 3848SOL    HW123003   2.652   1.090   6.672 -1.4539 -1.0962 -1.7520
 3848SOL    HW223004   2.753   1.013   6.751 -0.1021 -0.3650  0.6976
 3849SOL     OW23005   2.419   1.080   8.962 -0.1465 -0.0422  0.2175
 3849SOL    HW123006   2.510   1.067   8.987 -0.2369  0.0131  0.5781
 3849SOL    HW223007   2.400   1.003   8.908  0.3809 -1.8041  2.5751
 3850SOL     OW23008   1.087   1.072   5.784 -0.4148 -0.2262 -0.2568
 3850SOL    HW123009   1.172   1.063   5.827 -0.6385  0.2276  0.2824
 3850SOL    HW223010   1.035   1.014   5.838 -0.9362 -1.0592 -1.6534
 3851SOL     OW23011   3.241   4.255  12.233 -0.2850 -0.5133  0.5092
 3851SOL    HW123012   3.222   4.226  12.323 -0.2672  0.0325  0.6927
 3851SOL    HW223013   3.334   4.241  12.217 -0.5505 -2.0350  0.3149
 3852SOL     OW23014   0.861   0.039   6.145  0.4365  0.0719 -0.5694
 3852SOL    HW123015   0.872   4.669   6.169  1.2354  0.6712  1.4321
 3852SOL    HW223016   0.802   0.066   6.215  1.3946  2.1127 -0.5500
 3853SOL     OW23017   2.750   4.204  11.551  0.4001  0.1285 -0.0597
 3853SOL    HW123018   2.687   4.262  11.507 -0.0547 -0.4539 -0.1662
 3853SOL    HW223019   2.809   4.271  11.586 -2.3867  1.4436  2.1143
 3854SOL     OW23020   3.794   0.250   5.311  0.0638 -0.4615 -0.2263
 3854SOL    HW123021   3.808   0.274   5.402  0.9214  1.6620 -0.9266
 3854SOL    HW223022   3.763   0.161   5.328  2.3911 -1.5764 -1.9169
 3855SOL     OW23023   2.101   0.671   8.577  0.2471  0.0667  0.5570
 3855SOL    HW123024   2.151   0.752   8.575 -0.4527  0.4439 -2.1201
 3855SOL    HW223025   2.131   0.640   8.663  1.1839 -1.3806 -0.2780
 3856SOL     OW23026   4.621   0.999   3.257  0.0675 -0.0075  0.2167
 3856SOL    HW123027   4.592   0.959   3.175 -0.2376  0.6480  0.0065
 3856SOL    HW223028   4.597   0.927   3.316 -0.4126 -0.6637 -0.7964
 3857SOL     OW23029   3.703   2.027   4.651  0.0791 -0.0657  0.8476
 3857SOL    HW123030   3.648   1.949   4.644 -1.6242  1.3553 -1.3525
 3857SOL    HW223031   3.747   2.010   4.735  2.4442  0.4827 -0.2964
 3858SOL     OW23032   1.537   0.371   1.531 -0.1088  0.8895 -0.0940
 3858SOL    HW123033   1.565   0.366   1.440  1.2849  2.1780  0.2595
 3858SOL    HW223034   1.604   0.430   1.566  1.7844 -1.1963 -0.1824
 3859SOL     OW23035   1.627   0.638  11.973 -0.5227  0.8723  0.1767
 3859SOL    HW123036   1.672   0.583  11.909 -0.0836 -0.8489  1.9605
 3859SOL    HW223037   1.555   0.668  11.918 -1.0379 -1.4086 -0.3938
 3860SOL     OW23038   1.163   1.218  15.786 -0.4604  0.4276  0.6165
 3860SOL    HW123039   1.085   1.273  15.789 -1.0961 -0.5831  2.2715
 3860SOL    HW223040   1.236   1.278  15.803  0.6742 -0.4534 -1.1961
 3861SOL     OW23041   4.507   2.266  15.020  0.2048 -0.1069  0.6075
 3861SOL    HW123042   4.551   2.304  14.943  0.6476 -1.6862  0.0855
 3861SOL    HW223043   4.505   2.173  15.000 -0.3818  0.0353  0.0261
 3862SOL     OW23044   1.521   1.508  13.071 -0.3723  0.5869  0.5694
 3862SOL    HW123045   1.549   1.417  13.076  0.1673  0.7431  0.3779
 3862SOL    HW223046   1.486   1.531  13.157 -2.3948  1.0379 -0.3789
 3863SOL     OW23047   0.283   4.113   4.691 -0.3473  0.3486  0.1920
 3863SOL    HW123048   0.335   4.182   4.649 -1.3593 -0.1647 -1.9104
 3863SOL    HW223049   0.352   4.065   4.737  0.8987  3.4269  1.5251
 3864SOL     OW23050   2.900   3.500  17.663  0.1184 -0.1601  0.2078
 3864SOL    HW123051   2.947   3.520   0.051  0.4288  0.1700 -0.0559
 3864SOL    HW223052   2.816   3.463  17.692 -0.7165  0.1415 -1.7860
 3865SOL     OW23053   3.992   0.340   7.800  0.3109 -0.0209 -0.3314
 3865SOL    HW123054   3.908   0.319   7.759 -0.5054  3.4968 -0.4521
 3865SOL    HW223055   4.049   0.293   7.739  2.6559 -0.0020  1.8697
 3866SOL     OW23056   0.422   4.523   3.370  0.3668  0.7730 -0.4350
 3866SOL    HW123057   0.426   4.492   3.461  1.9002 -0.4294 -0.9136
 3866SOL    HW223058   0.502   4.488   3.331 -0.8515 -1.6057 -0.8173
 3867SOL     OW23059   4.321   3.684   6.601 -0.1812  0.2494 -0.2051
 3867SOL    HW123060   4.390   3.672   6.666  2.1090  1.4225 -2.4058
 3867SOL    HW223061   4.241   3.694   6.652  0.6449  0.3571  1.0697
 3868SOL     OW23062   1.579   0.641   7.965  0.2696 -0.0710  0.2054
 3868SOL    HW123063   1.526   0.573   8.007  0.5401 -0.1359  0.4375
 3868SOL    HW223064   1.663   0.613   8.001  0.7586  2.3575  0.9649
 3869SOL     OW23065   0.541   4.055   2.923 -0.6409 -0.8280 -0.4046
 3869SOL    HW123066   0.623   4.067   2.971 -0.5874  1.6007 -1.0809
 3869SOL    HW223067   0.570   4.057   2.831  3.1574 -1.5560  0.7890
 3870SOL     OW23068   1.590   4.533   9.297  0.6180  0.0213 -0.0159
 3870SOL    HW123069   1.536   4.554   9.221  1.5849  1.3071 -0.3470
 3870SOL    HW223070   1.611   4.441   9.281  3.0817  0.5587  0.0814
 3871SOL     OW23071   4.190   3.919   8.676 -0.2667  0.3938 -0.1001
 3871SOL    HW123072   4.166   3.831   8.705 -1.0533  0.7120  0.2149
 3871SOL    HW223073   4.281   3.915   8.705  0.4332 -0.0555 -2.4002
 3872SOL     OW23074   1.120   2.776   9.531  0.5999  0.5693 -0.7652
 3872SOL    HW123075   1.184   2.793   9.462  2.5057  1.6252  1.2415
 3872SOL    HW223076   1.103   2.682   9.521 -1.0026  1.0628 -2.5529
 3873SOL     OW23077   4.219   1.614   2.732  0.2799  0.2610  0.0606
 3873SOL    HW123078   4.198   1.676   2.662 -0.1553  0.4944  0.3957
 3873SOL    HW223079   4.160   1.543   2.705 -0.4532  0.5779  0.8167
 3874SOL     OW23080   3.644   3.275   7.919 -0.1274  0.2784 -0.0315
 3874SOL    HW123081   3.668   3.297   8.009 -2.0737  2.5155 -0.0705
 3874SOL    HW223082   3.594   3.355   7.909 -0.9198 -0.0895  0.9541
 3875SOL     OW23083   3.221   0.067   8.706  0.0885 -0.1661 -0.0162
 3875SOL    HW123084   3.264   4.710   8.736 -1.0282 -0.3163  1.1862
 3875SOL    HW223085   3.254   0.068   8.616 -1.0298  0.6464 -0.4247
 3876SOL     OW23086   0.576   4.401   7.155 -0.5688  0.2783 -0.4969
 3876SOL    HW123087   0.503   4.340   7.150  0.3037 -0.9042  1.4512
 3876SOL    HW223088   0.527   4.482   7.170  0.9690  0.6936  2.2357
 3877SOL     OW23089   1.602   3.088   7.901 -0.1932  0.7729 -0.1171
 3877SOL    HW123090   1.691   3.122   7.893  0.8131 -0.8032  3.9087
 3877SOL    HW223091   1.570   3.114   7.815  1.0005 -2.0850 -1.4546
 3878SOL     OW23092   3.518   3.288   6.582 -0.3938  0.2319 -0.6130
 3878SOL    HW123093   3.539   3.250   6.667  0.8906  2.2674 -0.0043
 3878SOL    HW223094   3.609   3.286   6.552 -0.1706  1.8684 -0.0292
 3879SOL     OW23095   0.185   1.417   7.277  0.5582  0.9098 -0.0679
 3879SOL    HW123096   0.233   1.403   7.195  0.9464 -1.1711  0.4926
 3879SOL    HW223097   0.249   1.416   7.348  0.3736  0.5148  0.0976
 3880SOL     OW23098   3.002   2.917  13.801 -0.3127  0.3472  0.4708
 3880SOL    HW123099   3.042   2.830  13.798 -0.8359  0.0639  1.4095
 3880SOL    HW223100   2.933   2.900  13.866 -0.1554 -0.3219  0.4593
 3881SOL     OW23101   1.587   0.353   3.864 -0.9247 -0.1540  0.1036
 3881SOL    HW123102   1.499   0.387   3.883 -1.3745 -2.1041  1.5921
 3881SOL    HW223103   1.643   0.384   3.936  0.2272 -0.2809 -0.7545
 3882SOL     OW23104   3.655   0.770   1.638  0.1758 -0.0330 -0.4604
 3882SOL    HW123105   3.730   0.828   1.626  0.7154 -1.0670 -2.0310
 3882SOL    HW223106   3.597   0.815   1.577 -0.9481 -3.1385 -1.6639
 3883SOL     OW23107   0.369   3.333   2.847 -0.7816 -0.2589 -0.1751
 3883SOL    HW123108   0.381   3.348   2.940  0.2292  0.0147 -0.3465
 3883SOL    HW223109   0.431   3.391   2.803 -0.2402 -0.5239  0.2383
 3884SOL     OW23110   2.989   1.231   5.314  0.1365 -0.0243  0.6003
 3884SOL    HW123111   2.900   1.209   5.287 -0.3226  0.9602  1.3007
 3884SOL    HW223112   3.017   1.148   5.352  1.4873  0.4836  0.7143
 3885SOL     OW23113   2.977   0.462   6.226  0.1465  0.2387  0.4560
 3885SOL    HW123114   3.051   0.492   6.173  1.5166  1.1636  2.8877
 3885SOL    HW223115   3.012   0.387   6.273  1.7650  0.1102 -0.9587
 3886SOL     OW23116   4.492   2.655   8.146  0.1932  0.0572 -0.7406
 3886SOL    HW123117   4.551   2.725   8.117 -1.0828 -0.8487 -5.5030
 3886SOL    HW223118   4.555   2.585   8.164 -0.9263 -0.5378  0.9026
 3887SOL     OW23119   4.129   2.361   1.718  0.3956 -0.5118  0.2846
 3887SOL    HW123120   4.126   2.266   1.713 -0.9103 -0.4704  0.2486
 3887SOL    HW223121   4.118   2.374   1.813 -0.8523  0.3842  0.0198
 3888SOL     OW23122   2.249   1.246   3.688 -0.1342 -0.7951  0.6062
 3888SOL    HW123123   2.154   1.260   3.686 -0.1994 -1.2808  0.1905
 3888SOL    HW223124   2.235   1.191   3.766 -2.2540 -0.3510  0.5473
 3889SOL     OW23125   4.067   0.560   3.726  0.0763 -0.0961  0.1920
 3889SOL    HW123126   4.003   0.538   3.658  1.7469  0.6696 -1.6404
 3889SOL    HW223127   4.054   0.497   3.798  1.4047 -0.5644  0.0261
 3890SOL     OW23128   4.176   3.337   2.450  0.1301  0.0998 -0.4599
 3890SOL    HW123129   4.189   3.268   2.385  0.5538 -0.3309  0.0863
 3890SOL    HW223130   4.128   3.403   2.399 -0.4166 -0.2555 -0.4022
 3891SOL     OW23131   1.097   4.429   7.316  0.3928 -0.2449  0.3265
 3891SOL    HW123132   1.021   4.487   7.307  0.3470 -0.2892  0.4217
 3891SOL    HW223133   1.060   4.353   7.361  0.3348 -0.1340  0.4711
 3892SOL     OW23134   2.058   3.147   2.046  0.1123  1.0349  0.2895
 3892SOL    HW123135   2.130   3.093   2.013 -0.4049  0.0352  0.7782
 3892SOL    HW223136   2.099   3.197   2.116  0.1930  5.2585 -2.8051
 3893SOL     OW23137   2.132   2.553  14.284 -0.3517  0.1459  0.3271
 3893SOL    HW123138   2.151   2.496  14.358 -0.9160  0.1346  0.4622
 3893SOL    HW223139   2.043   2.575  14.311 -1.0451 -3.4902  1.0599
 3894SOL     OW23140   0.480   2.244   9.029 -0.5486  0.6587 -0.5717
 3894SOL    HW123141   0.464   2.274   9.119  0.6545  0.8261 -0.4209
 3894SOL    HW223142   0.548   2.179   9.043 -1.4800 -0.2020 -0.0492
 3895SOL     OW23143   4.033   1.570   4.236 -0.6623  0.0623 -0.5478
 3895SOL    HW123144   4.086   1.492   4.219 -0.1473 -0.0094  1.3782
 3895SOL    HW223145   4.086   1.640   4.197 -2.6614  2.9964  1.9812
 3896SOL     OW23146   4.305   0.962   7.928 -0.1713  0.1302  0.1714
 3896SOL    HW123147   4.246   1.034   7.951  0.9658  0.6966  1.2998
 3896SOL    HW223148   4.243   0.890   7.936 -1.2277  0.7091 -2.5693
 3897SOL     OW23149   4.217   4.330  16.969 -0.0194 -0.1507 -0.0329
 3897SOL    HW123150   4.134   4.378  16.968  0.0214 -0.0919 -0.3903
 3897SOL    HW223151   4.188   4.239  16.962 -0.4643  0.0640 -0.9719
 3898SOL     OW23152   3.402   3.691  16.732  0.2185  0.0250 -0.0109
 3898SOL    HW123153   3.310   3.686  16.706  0.0953 -2.2650  0.8905
 3898SOL    HW223154   3.403   3.756  16.802 -0.0489 -1.3533  1.2788
 3899SOL     OW23155   4.517   3.193   7.483  0.1863  0.0646 -0.1723
 3899SOL    HW123156   4.549   3.276   7.517  0.4176 -0.6590  1.3568
 3899SOL    HW223157   4.595   3.143   7.459  0.6454  0.8649 -0.3084
 3900SOL     OW23158   3.897   4.442   8.679  0.0439  0.0396  0.8001
 3900SOL    HW123159   3.877   4.349   8.673  1.7818 -0.2099 -0.9815
 3900SOL    HW223160   3.860   4.475   8.761 -0.8825  0.8003  0.0705
 3901SOL     OW23161   3.180   2.751   5.968 -0.2159  0.3147  0.3151
 3901SOL    HW123162   3.111   2.770   6.032  0.1178  2.4616  0.0348
 3901SOL    HW223163   3.124   2.718   5.898  0.3510 -1.0590  0.5060
 3902SOL     OW23164   0.032   0.796   6.519 -0.9901  0.0395  0.5093
 3902SOL    HW123165   4.702   0.807   6.440 -0.7548 -0.8694  0.2171
 3902SOL    HW223166   4.707   0.731   6.571 -0.7518 -0.1289  0.5185
 3903SOL     OW23167   2.394   0.775   0.481  0.0152  0.3143  0.7188
 3903SOL    HW123168   2.420   0.839   0.415  2.1589  1.5320  2.7438
 3903SOL    HW223169   2.318   0.821   0.516 -0.3445 -1.6282  2.5191
 3904SOL     OW23170   1.128   1.665   7.012 -0.1676  0.0724  0.3677
 3904SOL    HW123171   1.191   1.710   6.957  1.0365 -1.2101  0.7031
 3904SOL    HW223172   1.184   1.590   7.031 -1.5490 -1.2357 -0.7082
 3905SOL     OW23173   2.817   0.351   9.003 -0.8292 -0.3312 -0.0330
 3905SOL    HW123174   2.791   0.408   8.930  0.2920 -0.7761 -0.7820
 3905SOL    HW223175   2.849   0.420   9.061 -0.3764 -0.5337 -0.0434
 3906SOL     OW23176   0.937   0.777  17.089  0.1273  0.1030 -1.1519
 3906SOL    HW123177   1.022   0.787  17.047  1.5310 -0.7008  1.5621
 3906SOL    HW223178   0.928   0.683  17.075  1.4816 -0.4366  1.8089
 3907SOL     OW23179   4.482   3.871   3.470 -0.0993 -0.1538 -0.5933
 3907SOL    HW123180   4.411   3.812   3.445  0.7905 -1.8767  0.9515
 3907SOL    HW223181   4.516   3.918   3.394  0.8652 -1.2726 -0.8332
 3908SOL     OW23182   0.680   0.035   6.348  0.5745  0.0943 -0.0394
 3908SOL    HW123183   0.723   0.073   6.425  0.1862  2.6107 -1.0549
 3908SOL    HW223184   0.606   4.705   6.378  0.4167  1.0682  1.3021
 3909SOL     OW23185   3.068   1.675   9.091  0.3177  0.6244 -0.2650
 3909SOL    HW123186   3.075   1.585   9.121 -2.2956  0.7237  0.6726
 3909SOL    HW223187   3.119   1.720   9.159 -1.1875  0.5386  0.9439
 3910SOL     OW23188   1.382   2.889  12.375  0.0012  0.6024 -0.1946
 3910SOL    HW123189   1.423   2.972  12.351 -1.0760  1.5199  1.1299
 3910SOL    HW223190   1.413   2.827  12.309  1.0953  1.3775 -0.3985
 3911SOL     OW23191   1.399   3.453   1.905  0.8640  0.2813  0.2666
 3911SOL    HW123192   1.350   3.501   1.971  1.2478  1.4862 -0.3358
 3911SOL    HW223193   1.347   3.374   1.887 -2.8422  1.8594  3.9769
 3912SOL     OW23194   3.787   1.895   5.178  0.9056 -0.3665 -0.0035
 3912SOL    HW123195   3.761   1.950   5.252  0.6797  2.7307 -2.4010
 3912SOL    HW223196   3.719   1.900   5.110  0.5272 -1.0600  0.3223
 3913SOL     OW23197   2.011   4.152   9.218  0.0080  0.1723  0.3663
 3913SOL    HW123198   1.952   4.202   9.274 -0.5754 -1.4617  1.2381
 3913SOL    HW223199   2.003   4.066   9.261  1.5495  0.1268  0.5641
 3914SOL     OW23200   1.452   1.582   4.437  0.1666 -0.1093 -0.2107
 3914SOL    HW123201   1.542   1.548   4.438 -0.4209 -1.7546 -2.2201
 3914SOL    HW223202   1.455   1.631   4.355 -0.5077  2.4030  1.2761
 3915SOL     OW23203   0.782   2.821   6.295  0.1129  0.2262  0.5725
 3915SOL    HW123204   0.860   2.829   6.239  0.1296 -1.0183  0.4052
 3915SOL    HW223205   0.747   2.735   6.271  0.0892  0.7219 -1.1361
 3916SOL     OW23206   3.351   0.405   4.211  0.4595 -0.4576 -0.2678
 3916SOL    HW123207   3.401   0.409   4.293 -0.7556  2.0581  0.3429
 3916SOL    HW223208   3.370   0.315   4.182  1.2789 -0.9540  1.7962
 3917SOL     OW23209   0.183   1.483  17.085 -0.0946  0.0351  0.4271
 3917SOL    HW123210   0.272   1.517  17.097  0.8573 -1.9582 -0.9612
 3917SOL    HW223211   0.191   1.399  17.131  1.0310  0.1048  0.3450
 3918SOL     OW23212   3.381   0.329  15.827  0.1867 -0.1524 -0.2174
 3918SOL    HW123213   3.472   0.298  15.833 -0.0286 -1.2626 -3.0380
 3918SOL    HW223214   3.403   0.414  15.789 -1.8803  1.2792  1.7764
 3919SOL     OW23215   2.324   0.294   4.821  0.4278 -0.5849  0.3727
 3919SOL    HW123216   2.359   0.246   4.747  1.4017  1.9367 -0.7837
 3919SOL    HW223217   2.240   0.249   4.828 -0.2483  0.7010  0.6202
 3920SOL     OW23218   0.211   2.189   9.010  0.0212 -0.3886 -0.1158
 3920SOL    HW123219   0.167   2.269   8.982  0.3331  0.3237  1.4437
 3920SOL    HW223220   0.302   2.217   9.002 -0.0590  0.4478  1.8414
 3921SOL     OW23221   2.061   4.372  10.269  0.3137 -0.0261  0.1693
 3921SOL    HW123222   2.003   4.309  10.311 -0.6136  1.6638  1.4050
 3921SOL    HW223223   2.052   4.446  10.329 -1.1264  0.5201 -0.7363
 3922SOL     OW23224   0.306   2.421  14.170  0.7887 -0.4051 -0.2826
 3922SOL    HW123225   0.396   2.418  14.138  0.6765  1.0725 -0.7332
 3922SOL    HW223226   0.301   2.329  14.194 -2.1219 -0.2440 -0.2218
 3923SOL     OW23227   1.226   3.510   0.457  0.0827  0.0992 -0.5076
 3923SOL    HW123228   1.151   3.455   0.433  1.2158 -0.8898 -1.7645
 3923SOL    HW223229   1.246   3.555   0.376  0.0277  1.2366  0.1153
 3924SOL     OW23230   4.542   2.382  12.857 -0.2312  0.8198  0.1766
 3924SOL    HW123231   4.580   2.314  12.912  0.9111  0.6930 -0.7618
 3924SOL    HW223232   4.614   2.393  12.794 -0.5291  0.3803 -0.2352
 3925SOL     OW23233   3.125   0.273   9.115  0.1343  0.8214 -0.5470
 3925SOL    HW123234   3.040   0.269   9.071 -0.7847  0.5801  1.2205
 3925SOL    HW223235   3.189   0.277   9.044 -0.7485 -0.2825 -1.3970
 3926SOL     OW23236   4.532   1.293   5.061  0.0426  0.1498 -0.5989
 3926SOL    HW123237   4.492   1.291   5.148  1.7938 -1.0692  0.1814
 3926SOL    HW223238   4.607   1.351   5.076  0.2362 -0.3078  0.1594
 3927SOL     OW23239   1.665   3.427   1.928  0.8846  0.5895 -0.4591
 3927SOL    HW123240   1.572   3.442   1.912 -0.1735 -2.3462  2.6793
 3927SOL    HW223241   1.686   3.506   1.977  0.0385  0.6011 -0.1135
 3928SOL     OW23242   3.961   2.432   9.110 -0.5036  0.2649  0.0541
 3928SOL    HW123243   4.001   2.519   9.116  2.3287 -1.0029 -0.5250
 3928SOL    HW223244   3.875   2.438   9.153 -0.3715  1.1190  0.1921
 3929SOL     OW23245   0.699   3.510  14.002 -0.1049 -0.1127 -0.2658
 3929SOL    HW123246   0.698   3.584  14.063 -1.1246  0.1575 -0.6200
 3929SOL    HW223247   0.625   3.535  13.947 -0.3085 -0.0912  0.0141
 3930SOL     OW23248   4.256   1.464   3.358  0.5448 -0.2034 -0.1216
 3930SOL    HW123249   4.191   1.415   3.308  1.8307  0.3200 -2.2988
 3930SOL    HW223250   4.250   1.550   3.317  0.5744 -0.3374 -0.4106
 3931SOL     OW23251   1.126   3.857   0.734  0.5317  0.7933  0.1517
 3931SOL    HW123252   1.178   3.861   0.654  0.8891 -0.7616  0.2967
 3931SOL    HW223253   1.116   3.949   0.756  3.1035  0.7907  1.4522
 3932SOL     OW23254   2.116   1.996   6.869  0.2894 -0.1242 -0.1527
 3932SOL    HW123255   2.091   1.917   6.820  1.3864  0.3951 -1.5533
 3932SOL    HW223256   2.122   1.962   6.958 -0.1732  0.3846  0.0718
 3933SOL     OW23257   1.623   1.178  14.810  0.5361 -0.1584 -0.4862
 3933SOL    HW123258   1.608   1.256  14.864 -1.8928 -0.7460 -0.2907
 3933SOL    HW223259   1.703   1.199  14.763 -0.3518  2.5473 -0.7768
 3934SOL     OW23260   0.092   2.122   2.486 -0.6249 -0.4401 -0.2060
 3934SOL    HW123261   0.036   2.196   2.463 -0.7619 -0.3778  0.3318
 3934SOL    HW223262   0.069   2.054   2.423 -3.3945  0.0535  0.2668
 3935SOL     OW23263   4.200   1.907  10.260 -0.1831 -0.2773 -0.2429
 3935SOL    HW123264   4.247   1.840  10.211  0.4817 -0.4644  0.6475
 3935SOL    HW223265   4.228   1.892  10.350 -0.3023 -1.2974 -0.3701
 3936SOL     OW23266   1.394   1.073   7.171 -0.0673 -0.0844  0.0940
 3936SOL    HW123267   1.453   1.017   7.120  1.1320  1.8223 -0.5999
 3936SOL    HW223268   1.458   1.114   7.228  1.2962  0.7986 -2.0927
 3937SOL     OW23269   1.892   3.050   6.074  0.1896  0.3761  0.7944
 3937SOL    HW123270   1.841   3.029   5.996  0.9294  1.4044  0.0354
 3937SOL    HW223271   1.976   3.065   6.030  1.2496  0.4307  2.8425
 3938SOL     OW23272   2.240   2.933  16.243 -0.3833  0.1046  0.4892
 3938SOL    HW123273   2.328   2.929  16.207  0.1051 -0.5463  1.7526
 3938SOL    HW223274   2.201   2.851  16.211  1.7536 -0.2108 -1.2482
 3939SOL     OW23275   1.214   2.045   7.431  0.4428  0.4188  0.7973
 3939SOL    HW123276   1.296   2.063   7.477  0.1152  1.6359  0.9016
 3939SOL    HW223277   1.242   2.052   7.340 -0.2421 -0.6762  0.5068
 3940SOL     OW23278   0.099   3.171   6.272  0.0782 -0.2412  0.5390
 3940SOL    HW123279   0.014   3.151   6.311 -1.3102 -1.8267 -3.2974
 3940SOL    HW223280   0.124   3.085   6.238 -0.5118  0.4764 -1.7582
 3941SOL     OW23281   0.800   3.830   2.811  0.0069 -0.1893 -0.3174
 3941SOL    HW123282   0.732   3.820   2.745 -0.1184 -1.4791 -0.0030
 3941SOL    HW223283   0.755   3.849   2.893  0.3127  1.9560 -0.6633
 3942SOL     OW23284   1.984   0.760   3.979  0.4093  0.1099 -0.2231
 3942SOL    HW123285   1.953   0.850   3.994  0.4298 -0.3290  2.3970
 3942SOL    HW223286   1.996   0.750   3.885 -1.7638  1.5662 -0.6775
 3943SOL     OW23287   0.081   2.170  14.150  0.4614  0.2112 -0.2957
 3943SOL    HW123288   0.060   2.094  14.204 -1.6862  1.6769  0.9232
 3943SOL    HW223289   0.176   2.161  14.150  0.4775  0.4432 -0.8572
 3944SOL     OW23290   3.071   3.174   7.537  0.4113  0.1510  0.4318
 3944SOL    HW123291   3.086   3.099   7.595 -0.5174 -2.1052 -2.2394
 3944SOL    HW223292   2.992   3.216   7.570 -0.5079  0.5639 -2.3741
 3945SOL     OW23293   2.141   3.452   5.247 -0.4073  0.5247 -0.2656
 3945SOL    HW123294   2.159   3.535   5.292 -2.6378  0.1591  1.3041
 3945SOL    HW223295   2.083   3.409   5.310 -1.1514 -1.4984 -2.3776
 3946SOL     OW23296   1.352   4.608   1.370  0.2339  0.2017  0.3274
 3946SOL    HW123297   1.376   4.658   1.448  1.4734 -1.3081  0.9321
 3946SOL    HW223298   1.258   4.623   1.358 -0.1497 -2.9984 -0.7978
 3947SOL     OW23299   0.587   2.608   8.126 -0.0057  0.3178  0.1385
 3947SOL    HW123300   0.538   2.526   8.130  2.4643 -1.0922  0.8168
 3947SOL    HW223301   0.564   2.637   8.215 -0.3300  0.4369  0.0190
 3948SOL     OW23302   2.529   1.104   9.392 -0.2158 -0.0701 -0.0349
 3948SOL    HW123303   2.526   1.029   9.333 -0.3885 -0.7145  0.8031
 3948SOL    HW223304   2.564   1.066   9.472  2.0127 -0.4026 -1.1718
 3949SOL     OW23305   0.022   2.161  11.899 -0.2558  0.1617 -0.1237
 3949SOL    HW123306   0.084   2.133  11.832 -0.4398  0.0931 -0.2662
 3949SOL    HW223307   4.680   2.090  11.893 -0.1081 -0.0807  1.2581
 3950SOL     OW23308   0.865   0.723   9.046 -0.3898  0.0466  0.0252
 3950SOL    HW123309   0.844   0.729   8.953 -1.3006  0.3918  0.2532
 3950SOL    HW223310   0.930   0.792   9.058 -1.1367  0.6638  0.4706
 3951SOL     OW23311   2.098   4.140   5.207 -0.1472  0.2467 -0.4749
 3951SOL    HW123312   2.188   4.109   5.219 -0.6658  0.0336  2.6937
 3951SOL    HW223313   2.085   4.107   5.118 -1.7460 -0.8139  0.1534
 3952SOL     OW23314   1.277   2.954   6.149  0.6821 -0.0720 -0.1169
 3952SOL    HW123315   1.215   3.005   6.201  0.0283  0.1644 -1.1261
 3952SOL    HW223316   1.293   3.020   6.081  1.7713 -1.9192 -1.6415
 3953SOL     OW23317   4.027   0.360   6.804 -0.6465  0.0673  0.0359
 3953SOL    HW123318   4.095   0.358   6.872 -1.5590 -1.1031  0.9095
 3953SOL    HW223319   4.012   0.453   6.786 -2.4006 -0.7907 -2.7369
 3954SOL     OW23320   4.341   0.097  11.381  0.0843 -0.4546  0.6686
 3954SOL    HW123321   4.349   0.173  11.322 -0.3644 -1.6100 -0.8757
 3954SOL    HW223322   4.283   0.037  11.334 -2.5466  0.8374  2.3077
 3955SOL     OW23323   4.127   1.571   5.449 -0.2137  0.1098  0.1435
 3955SOL    HW123324   4.083   1.600   5.369 -0.8075 -0.8256  0.1267
 3955SOL    HW223325   4.103   1.644   5.506 -2.2422 -2.7668  2.9571
 3956SOL     OW23326   3.077   1.874   5.657 -0.0878 -0.1321 -0.1502
 3956SOL    HW123327   3.116   1.800   5.610 -2.0595 -3.2088  3.0397
 3956SOL    HW223328   3.088   1.943   5.592  0.2284 -1.6577 -1.7139
 3957SOL     OW23329   1.055   0.542  14.621  0.7340  0.2923 -0.0278
 3957SOL    HW123330   1.066   0.604  14.549  0.8647  0.0606 -0.2069
 3957SOL    HW223331   0.964   0.557  14.648  0.5636 -1.4325  0.3879
 3958SOL     OW23332   4.433   3.595  11.610 -0.4828 -0.5362  0.0796
 3958SOL    HW123333   4.443   3.515  11.558  0.0394 -1.0681  0.9778
 3958SOL    HW223334   4.488   3.572  11.685 -1.6284 -0.5409  0.9090
 3959SOL     OW23335   4.148   3.210   3.578 -0.0548 -0.6091  0.2181
 3959SOL    HW123336   4.094   3.193   3.501  0.2146 -1.1999  0.1555
 3959SOL    HW223337   4.111   3.151   3.645  0.1146 -0.1287  0.7331
 3960SOL     OW23338   3.148   0.310   5.825  0.1569 -0.9195 -0.5280
 3960SOL    HW123339   3.235   0.273   5.807  0.6360  1.2805 -2.7320
 3960SOL    HW223340   3.095   0.263   5.761 -2.8668  1.2968  0.3694
 3961SOL     OW23341   1.281   2.886   3.325  0.1063  0.4254  0.4667
 3961SOL    HW123342   1.302   2.876   3.232  0.6017  2.1825  0.3782
 3961SOL    HW223343   1.248   2.799   3.343  2.9674 -1.2824 -2.5379
 3962SOL     OW23344   3.299   3.024   2.732  0.6942  0.3139  0.9610
 3962SOL    HW123345   3.323   3.108   2.691  0.6954 -0.2108 -0.1042
 3962SOL    HW223346   3.372   3.004   2.791 -0.9248 -0.9228  2.5305
 3963SOL     OW23347   0.131   2.240  10.121 -0.0454  0.4935  0.6353
 3963SOL    HW123348   0.087   2.288  10.191 -0.3512  0.0511  0.7473
 3963SOL    HW223349   0.170   2.171  10.175  2.8040  0.9603 -0.8521
 3964SOL     OW23350   1.503   2.729   1.944  0.4148 -0.2712 -0.2403
 3964SOL    HW123351   1.471   2.777   1.869  1.5473  2.0306  0.7461
 3964SOL    HW223352   1.422   2.708   1.990  1.3615 -1.2693  1.0062
 3965SOL     OW23353   4.108   4.134  16.765  0.4989 -0.4864 -0.3691
 3965SOL    HW123354   4.193   4.118  16.723  0.8016  0.4498 -0.1135
 3965SOL    HW223355   4.046   4.103  16.699 -1.1344 -1.4977  1.6412
 3966SOL     OW23356   2.503   3.510   6.214  0.5455 -0.1777  0.1927
 3966SOL    HW123357   2.458   3.513   6.129  0.3323 -0.7420  0.2889
 3966SOL    HW223358   2.590   3.495   6.175  0.9761  0.5206  0.8824
 3967SOL     OW23359   3.421   1.681   6.904  0.5843 -0.4360 -0.0728
 3967SOL    HW123360   3.449   1.767   6.872 -0.9965  0.2280  0.3479
 3967SOL    HW223361   3.358   1.652   6.837  0.5591  0.9430 -0.6444
 3968SOL     OW23362   1.964   4.649   2.409  0.1099  0.2243  0.0055
 3968SOL    HW123363   1.882   4.700   2.412 -0.8191 -1.3782  1.8166
 3968SOL    HW223364   1.942   4.606   2.326 -0.1645  1.0186 -0.3361
 3969SOL     OW23365   4.156   1.693   3.253 -0.1574 -0.1013  0.6068
 3969SOL    HW123366   4.090   1.741   3.303  0.4436 -1.0224  2.2795
 3969SOL    HW223367   4.099   1.645   3.193  0.7400 -1.5131  0.8823
 3970SOL     OW23368   0.607   0.561   4.346 -0.0284 -0.1688 -0.2547
 3970SOL    HW123369   0.542   0.500   4.378 -0.3774  1.8727  2.9107
 3970SOL    HW223370   0.665   0.500   4.300 -0.3282 -0.2717 -0.4906
 3971SOL     OW23371   0.199   3.555   3.125  0.1366 -0.1381  0.3196
 3971SOL    HW123372   0.177   3.647   3.141  0.5222 -0.1018  0.6594
 3971SOL    HW223373   0.279   3.561   3.072 -1.5168  0.0278 -2.1506
 3972SOL     OW23374   2.656   0.087   4.287  0.1720  0.1682  0.2077
 3972SOL    HW123375   2.614   0.013   4.243  0.2427  0.2278  0.0438
 3972SOL    HW223376   2.695   0.051   4.367 -1.2950 -0.7967  0.5150
 3973SOL     OW23377   0.158   4.359  11.506  0.6217  0.1795  0.0672
 3973SOL    HW123378   0.191   4.446  11.481  0.4631  0.2652  0.1585
 3973SOL    HW223379   0.208   4.337  11.585 -0.4869 -0.8665  0.4624
 3974SOL     OW23380   1.283   2.574   7.117  0.0153 -0.0182 -0.3668
 3974SOL    HW123381   1.194   2.582   7.150  0.2102 -2.5031  0.7794
 3974SOL    HW223382   1.326   2.655   7.144 -0.9670 -0.3073  2.0372
 3975SOL     OW23383   0.783   2.541   7.146  0.5869 -0.0486  0.7295
 3975SOL    HW123384   0.759   2.621   7.194  1.6128  1.5325 -1.3804
 3975SOL    HW223385   0.852   2.517   7.208  0.2552 -0.8283  0.7976
 3976SOL     OW23386   2.167   1.687   3.910  0.1349  0.1176 -0.0203
 3976SOL    HW123387   2.106   1.729   3.850 -1.4729 -1.5271  0.4340
 3976SOL    HW223388   2.112   1.611   3.934 -0.4824  0.9923  1.3111
 3977SOL     OW23389   2.304   2.744   1.918 -0.7416  0.0728  0.0058
 3977SOL    HW123390   2.272   2.654   1.904 -2.2568  0.5690  0.3210
 3977SOL    HW223391   2.239   2.786   1.861 -2.1026 -2.1035 -0.0729
 3978SOL     OW23392   4.676   0.448   4.154 -0.0026  0.7044  0.1752
 3978SOL    HW123393   0.019   0.386   4.123 -2.6175 -0.9814 -1.9622
 3978SOL    HW223394   4.645   0.473   4.067  0.9480  3.0165  0.4877
 3979SOL     OW23395   1.998   4.204   7.051  0.2142 -0.4709  0.1647
 3979SOL    HW123396   2.049   4.173   6.976  1.0834 -4.8655  2.5468
 3979SOL    HW223397   1.911   4.164   7.048 -0.3557  1.0225 -3.0481
 3980SOL     OW23398   0.352   3.453   7.164  0.1616 -0.4564 -0.2018
 3980SOL    HW123399   0.434   3.407   7.182 -1.6040 -3.6151 -0.1797
 3980SOL    HW223400   0.331   3.399   7.087  0.8254 -2.0440  0.7327
 3981SOL     OW23401   1.906   1.979   2.584  0.3782  0.0368 -0.4900
 3981SOL    HW123402   1.829   1.935   2.548 -0.6767 -0.4699  2.4115
 3981SOL    HW223403   1.973   1.931   2.534  0.0429  0.2655 -1.1643
 3982SOL     OW23404   0.078   1.468   9.757 -0.4032  0.0138  0.5595
 3982SOL    HW123405   0.130   1.504   9.686 -1.5757  1.4974  0.4522
 3982SOL    HW223406   0.140   1.418   9.810  1.3883 -0.1128 -1.7134
 3983SOL     OW23407   0.180   4.527  15.478 -0.5284 -0.4114  0.6213
 3983SOL    HW123408   0.195   4.592  15.410 -2.1704  1.6279  2.2307
 3983SOL    HW223409   0.272   4.511  15.499  0.1419  1.4590 -0.9422
 3984SOL     OW23410   0.482   3.774   6.864 -0.2087  0.5349  0.0073
 3984SOL    HW123411   0.462   3.865   6.846  1.0647  0.7507 -0.2943
 3984SOL    HW223412   0.577   3.764   6.863 -0.4076 -1.3999  0.2191
 3985SOL     OW23413   1.457   0.069  10.321 -0.1799  0.0527 -0.5631
 3985SOL    HW123414   1.408   0.116  10.254  0.1697  1.9771  0.5220
 3985SOL    HW223415   1.446   0.139  10.386 -1.5494 -1.9426  1.3761
 3986SOL     OW23416   4.432   4.211   5.088 -0.3792  0.3671  0.2230
 3986SOL    HW123417   4.419   4.116   5.097  2.0071 -0.1833 -2.2437
 3986SOL    HW223418   4.463   4.213   4.998  1.5424  0.4589  0.8927
 3987SOL     OW23419   1.148   3.039   8.254  0.0317  0.1287 -0.0595
 3987SOL    HW123420   1.201   3.002   8.184  2.5515  2.0618  0.8037
 3987SOL    HW223421   1.156   3.133   8.236 -1.7908 -0.0931 -1.9634
 3988SOL     OW23422   0.067   4.603   9.876  0.4403  0.8028 -0.2531
 3988SOL    HW123423   0.017   4.575   9.800 -0.6713  0.6679  0.5424
 3988SOL    HW223424   0.153   4.612   9.833  0.0572  2.4992 -0.6834
 3989SOL     OW23425   2.339   0.935   6.309 -0.2546 -0.4401 -0.3264
 3989SOL    HW123426   2.265   0.874   6.302  0.2124 -1.1001  0.3412
 3989SOL    HW223427   2.347   0.955   6.216 -1.5415 -0.4012 -0.4226
 3990SOL     OW23428   3.278   3.187   3.665 -0.1580  0.2016 -0.0740
 3990SOL    HW123429   3.213   3.206   3.598  0.5302 -3.0057 -1.6670
 3990SOL    HW223430   3.298   3.273   3.701  2.0950  0.4193 -1.9203
 3991SOL     OW23431   1.419   3.763  13.628 -0.8665  0.0240 -0.3230
 3991SOL    HW123432   1.346   3.761  13.690 -1.5030 -0.2580 -1.0755
 3991SOL    HW223433   1.495   3.781  13.683  0.3304  1.1824 -2.3570
 3992SOL     OW23434   2.959   3.178  15.153  0.2967  0.5268 -0.0611
 3992SOL    HW123435   3.035   3.122  15.134  1.0996  0.6587  2.8096
 3992SOL    HW223436   2.971   3.170  15.247  1.7664 -0.7688 -0.3689
 3993SOL     OW23437   1.019   1.409  16.455 -0.7155  0.1614 -0.2249
 3993SOL    HW123438   1.048   1.483  16.508  0.7562 -0.1048 -0.6756
 3993SOL    HW223439   0.932   1.438  16.427 -0.0733  2.2127 -0.1059
 3994SOL     OW23440   1.459   4.504   0.882  0.4740  0.3046  0.3769
 3994SOL    HW123441   1.554   4.509   0.892  0.4832  2.0695 -0.6598
 3994SOL    HW223442   1.459   4.409   0.893 -1.6093  0.2237 -0.3788
 3995SOL     OW23443   0.989   1.974   5.260 -0.0280 -0.5689  0.0624
 3995SOL    HW123444   0.932   2.019   5.198  2.4695  2.5981  0.0024
 3995SOL    HW223445   1.077   1.976   5.222 -0.9054  0.3164 -1.9207
 3996SOL     OW23446   0.169   0.551  16.102  0.1232  0.0676 -0.8044
 3996SOL    HW123447   0.134   0.577  16.017 -1.8134 -0.2926 -0.1046
 3996SOL    HW223448   0.178   0.631  16.155 -1.5305 -1.5691  1.9437
 3997SOL     OW23449   3.968   2.572   1.695  0.0213  0.0721 -0.0506
 3997SOL    HW123450   3.894   2.525   1.657  0.1751 -0.6849  0.6104
 3997SOL    HW223451   4.032   2.501   1.695 -0.2525 -0.1691 -0.8384
 3998SOL     OW23452   4.573   4.269   3.282 -0.1931  0.6177  0.1894
 3998SOL    HW123453   4.526   4.199   3.237  1.5340 -2.0725  2.5166
 3998SOL    HW223454   4.498   4.315   3.320 -0.8994 -0.0840 -0.3579
 3999SOL     OW23455   0.145   2.427   8.936 -0.0773 -0.2945 -0.3130
 3999SOL    HW123456   0.162   2.419   8.843 -1.6425  0.4065 -0.6634
 3999SOL    HW223457   0.177   2.516   8.955 -1.4691  0.4197 -1.3179
 4000SOL     OW23458   1.761   2.489   1.197  0.4178 -0.4516  0.0089
 4000SOL    HW123459   1.751   2.574   1.155 -0.8868 -0.6753 -0.1481
 4000SOL    HW223460   1.713   2.438   1.131  0.9729  0.2780 -0.9586
 4001SOL     OW23461   2.465   3.709  10.789 -0.3192  0.0545  0.3702
 4001SOL    HW123462   2.470   3.618  10.819 -2.7041 -0.1766  0.0319
 4001SOL    HW223463   2.557   3.729  10.772  0.8427 -3.1771  2.7224
 4002SOL     OW23464   0.405   0.341   5.606  0.5647  0.0797  0.1797
 4002SOL    HW123465   0.365   0.261   5.642  0.9105 -0.0606  0.2563
 4002SOL    HW223466   0.410   0.322   5.513 -0.7895 -1.6848  0.4663
 4003SOL     OW23467   0.514   4.447   6.584 -0.1238 -0.5681  0.3397
 4003SOL    HW123468   0.426   4.414   6.566 -0.0906  0.0129 -0.9034
 4003SOL    HW223469   0.524   4.444   6.679  0.3722  0.4265  0.3188
 4004SOL     OW23470   3.970   1.046   5.423  0.8966 -0.0158  0.6438
 4004SOL    HW123471   4.018   0.964   5.436 -1.0807 -1.1553  0.6512
 4004SOL    HW223472   4.014   1.106   5.483 -0.8007  2.1809 -0.2727
 4005SOL     OW23473   2.779   4.562  14.388  0.7350  0.1958 -0.5933
 4005SOL    HW123474   2.812   4.511  14.462  0.0303  0.2483 -0.2518
 4005SOL    HW223475   2.688   4.560  14.415 -0.4023 -1.1107 -4.4986
 4006SOL     OW23476   0.571   0.798  12.005 -0.3283 -0.4128  0.2320
 4006SOL    HW123477   0.658   0.838  12.003 -0.9271  0.8672  0.0778
 4006SOL    HW223478   0.583   0.730  11.938  1.0774  0.5466 -0.4874
 4007SOL     OW23479   2.172   3.901  11.324 -0.1104  0.1275 -0.0993
 4007SOL    HW123480   2.201   3.948  11.246 -1.4315 -0.7301 -1.1063
 4007SOL    HW223481   2.225   3.822  11.320 -0.1910 -0.0513  2.1593
 4008SOL     OW23482   2.869   3.605   8.083 -0.4065 -0.1926  0.0566
 4008SOL    HW123483   2.825   3.521   8.069  1.3886 -1.0203 -0.5614
 4008SOL    HW223484   2.948   3.583   8.132 -0.7043 -1.0867  0.1280
 4009SOL     OW23485   0.423   3.042   6.137 -0.1772  0.7202  0.2782
 4009SOL    HW123486   0.368   2.977   6.094 -0.2784 -0.6602  2.5055
 4009SOL    HW223487   0.443   2.997   6.218  1.9185 -0.4204 -0.8711
 4010SOL     OW23488   4.531   1.578   6.235 -0.0530  0.2641 -0.2828
 4010SOL    HW123489   4.583   1.577   6.155  0.6243  2.0455  0.1308
 4010SOL    HW223490   4.553   1.663   6.274  1.4616  0.4431 -1.5416
 4011SOL     OW23491   4.335   3.454   8.356 -0.1024  0.3375 -0.2484
 4011SOL    HW123492   4.425   3.483   8.349  0.2195  0.2157  3.8166
 4011SOL    HW223493   4.347   3.362   8.378  0.4179  0.0928 -1.5431
 4012SOL     OW23494   1.888   2.343   6.756  0.2452 -0.5046 -0.1265
 4012SOL    HW123495   1.860   2.323   6.845  0.4709 -0.8518 -0.1335
 4012SOL    HW223496   1.955   2.276   6.741  3.1034  1.9129  1.7469
 4013SOL     OW23497   1.497   0.931  14.913 -0.0064 -0.2467  0.7619
 4013SOL    HW123498   1.557   0.983  14.860  0.8765 -1.8589  0.1430
 4013SOL    HW223499   1.525   0.958  15.000  0.9069  1.7628 -0.1655
 4014SOL     OW23500   0.942   2.128   4.727 -0.2630  0.1760 -0.2076
 4014SOL    HW123501   1.009   2.063   4.746  0.0401  0.2270 -1.0879
 4014SOL    HW223502   0.911   2.089   4.645  2.2911 -2.8653  0.2923
 4015SOL     OW23503   1.023   0.935  15.530 -0.4847  0.2303 -0.0585
 4015SOL    HW123504   1.024   0.897  15.442  0.0098  1.1308 -0.4440
 4015SOL    HW223505   0.933   0.920  15.558 -0.5274 -0.0399 -0.3327
 4016SOL     OW23506   0.778   1.804   6.364  0.2178  0.7748  0.4572
 4016SOL    HW123507   0.842   1.874   6.367  1.0772 -0.1290  3.0762
 4016SOL    HW223508   0.713   1.845   6.307 -1.4463 -2.6670 -0.1551
 4017SOL     OW23509   0.976   2.398   5.608  0.3499 -0.5767 -0.0912
 4017SOL    HW123510   1.028   2.323   5.577  1.6290  0.6441 -0.8836
 4017SOL    HW223511   0.950   2.434   5.523 -0.6552 -0.2018  0.3767
 4018SOL     OW23512   1.926   4.026   9.671  0.2169 -0.3318 -0.5924
 4018SOL    HW123513   1.866   4.086   9.716  0.5251  0.5557 -1.3622
 4018SOL    HW223514   2.015   4.060   9.686 -0.3186  1.1489 -0.8262
 4019SOL     OW23515   1.891   4.029   3.254  0.0834 -0.1760  0.1317
 4019SOL    HW123516   1.870   3.939   3.231  0.6868 -0.6068  1.3175
 4019SOL    HW223517   1.851   4.034   3.340 -2.6587  0.5997 -1.1930
 4020SOL     OW23518   1.598   3.858   3.612 -0.6993  0.4306  0.0525
 4020SOL    HW123519   1.549   3.921   3.664 -2.5619  0.3012 -1.5628
 4020SOL    HW223520   1.659   3.918   3.569  1.4911 -2.2276 -0.5729
 4021SOL     OW23521   3.022   0.021   6.564 -0.4871 -0.0944 -0.0778
 4021SOL    HW123522   2.981   0.108   6.558  2.0861  1.0613 -0.8764
 4021SOL    HW223523   2.997   4.717   6.653  1.8604 -1.5284  0.1523
 4022SOL     OW23524   0.418   4.174   7.081  0.0811 -0.6515  0.1118
 4022SOL    HW123525   0.425   4.102   7.144  3.6696 -0.1476  0.2553
 4022SOL    HW223526   0.444   4.121   7.005  0.8369  1.4695 -1.0871
 4023SOL     OW23527   2.034   0.110   5.424  0.0611  0.6976  0.4261
 4023SOL    HW123528   1.999   0.024   5.400  1.2595  0.5622 -0.7864
 4023SOL    HW223529   2.065   0.098   5.513  2.1595 -0.2478 -0.4251
 4024SOL     OW23530   0.968   2.378  13.262 -0.2809 -0.8036  0.2409
 4024SOL    HW123531   0.935   2.395  13.174  0.2106  2.6276  0.7345
 4024SOL    HW223532   1.059   2.408  13.260  0.1400 -2.0951 -0.1460
 4025SOL     OW23533   2.536   0.827   0.783  0.2835 -0.1906 -0.4717
 4025SOL    HW123534   2.470   0.766   0.751 -0.5626  0.9400 -0.8644
 4025SOL    HW223535   2.494   0.872   0.857 -0.4224 -0.2654 -0.8278
 4026SOL     OW23536   3.238   0.488  12.736  0.0228  0.3089  0.4978
 4026SOL    HW123537   3.159   0.538  12.758 -0.8892 -1.9793  2.3080
 4026SOL    HW223538   3.197   0.422  12.681  1.6656  0.6970 -1.2190
 4027SOL     OW23539   0.678   1.387  17.340  0.0413  0.3844 -0.5050
 4027SOL    HW123540   0.682   1.350  17.252  0.6129  2.0067 -1.1532
 4027SOL    HW223541   0.724   1.323  17.395  1.8191  0.7847 -1.5596
 4028SOL     OW23542   1.090   3.082   6.565  0.5140 -0.2557  0.6077
 4028SOL    HW123543   1.044   2.998   6.558 -0.0963  0.1869 -0.7649
 4028SOL    HW223544   1.046   3.139   6.627  0.7473  1.4367 -0.7853
 4029SOL     OW23545   3.791   1.543   6.137 -0.3957 -0.5387 -0.0699
 4029SOL    HW123546   3.717   1.598   6.112  0.8929  0.6069 -1.4148
 4029SOL    HW223547   3.775   1.464   6.087  2.0219 -1.7919  1.1126
 4030SOL     OW23548   4.637   0.820  10.411  0.1466  0.0090  0.2910
 4030SOL    HW123549   4.657   0.838  10.319 -1.1640 -0.5952 -0.1160
 4030SOL    HW223550   4.672   0.731  10.422 -1.7588 -0.9008 -1.1518
 4031SOL     OW23551   4.272   3.562  15.174 -0.0489 -0.1605 -0.2800
 4031SOL    HW123552   4.214   3.486  15.168 -1.4019  0.9036 -0.5593
 4031SOL    HW223553   4.313   3.551  15.260  2.7558  0.3631 -1.5388
 4032SOL     OW23554   1.808   1.618   2.443 -0.6322 -0.3349  0.7851
 4032SOL    HW123555   1.802   1.522   2.435 -1.9002 -0.2031  0.2421
 4032SOL    HW223556   1.718   1.643   2.459 -1.0530 -1.8406  0.7779
 4033SOL     OW23557   1.940   1.932   4.128 -0.4485  0.2162 -0.3439
 4033SOL    HW123558   1.863   1.904   4.178 -0.5052  0.6442 -0.1942
 4033SOL    HW223559   2.005   1.936   4.198 -3.2411  0.1788  2.2931
 4034SOL     OW23560   0.246   1.060   1.208 -0.1675 -0.0344  0.2180
 4034SOL    HW123561   0.213   1.142   1.171  1.6388  0.6631  0.1609
 4034SOL    HW223562   0.166   1.024   1.248 -0.1743 -0.2931 -0.0272
 4035SOL     OW23563   0.381   3.902   6.414  0.0557  0.9661 -0.2546
 4035SOL    HW123564   0.305   3.872   6.364  0.5161 -0.6734  0.0289
 4035SOL    HW223565   0.390   3.836   6.483  0.8210  0.3852 -0.8964
 4036SOL     OW23566   4.415   1.348   4.161 -0.1580 -0.4283  0.2176
 4036SOL    HW123567   4.322   1.331   4.147  0.0436 -1.1911 -0.1816
 4036SOL    HW223568   4.441   1.415   4.097  0.2049  0.1989  1.0180
 4037SOL     OW23569   2.844   2.981  11.092 -0.3258  0.0188  0.2584
 4037SOL    HW123570   2.936   2.986  11.116 -0.0490  1.5297 -1.1271
 4037SOL    HW223571   2.847   3.035  11.013 -0.3025  2.5416  1.9836
 4038SOL     OW23572   0.670   1.253   6.328 -0.3864 -0.2916 -0.3029
 4038SOL    HW123573   0.682   1.346   6.350  1.1292  0.0262 -2.4388
 4038SOL    HW223574   0.686   1.209   6.411  3.3615 -1.0518 -1.4466
 4039SOL     OW23575   1.796   1.852  17.393  0.1366 -0.2145 -0.3241
 4039SOL    HW123576   1.752   1.884  17.315 -0.3849  0.4540  0.2404
 4039SOL    HW223577   1.755   1.895  17.468  0.1934  3.3594 -2.3742
 4040SOL     OW23578   2.505   3.813  15.694  0.2234 -0.3606  0.3175
 4040SOL    HW123579   2.451   3.741  15.725  1.7707 -1.1919  1.1057
 4040SOL    HW223580   2.581   3.794  15.749  0.6699 -0.2448 -0.2619
 4041SOL     OW23581   1.853   3.517   0.846 -0.0981 -0.0519 -0.2508
 4041SOL    HW123582   1.889   3.606   0.840 -1.7782  0.6992  1.0612
 4041SOL    HW223583   1.934   3.473   0.872 -1.1569 -0.1866  2.7853
 4042SOL     OW23584   2.900   3.362   7.341  0.1041 -0.8635  0.3705
 4042SOL    HW123585   2.939   3.306   7.408  1.2152  0.1760  0.5854
 4042SOL    HW223586   2.823   3.395   7.387 -0.9823 -2.0401 -0.5877
 4043SOL     OW23587   2.919   0.903   4.286 -0.0268  0.1249  0.5791
 4043SOL    HW123588   2.952   0.991   4.267  2.7053 -1.1657 -0.5715
 4043SOL    HW223589   2.864   0.883   4.210  1.9385 -2.3372 -0.1829
 4044SOL     OW23590   4.462   4.009   3.706  0.2613  0.1414  0.2158
 4044SOL    HW123591   4.465   3.957   3.626 -0.8777  1.1189 -0.4688
 4044SOL    HW223592   4.551   4.045   3.712  0.6679 -0.9842  0.9173
 4045SOL     OW23593   3.831   3.291   2.286 -0.7907  0.3842  0.4357
 4045SOL    HW123594   3.841   3.198   2.266 -0.1206  0.8572 -1.5241
 4045SOL    HW223595   3.737   3.290   2.306 -0.7639 -4.3440  0.3286
 4046SOL     OW23596   3.210   2.400  15.214 -0.6222  0.6615  0.4376
 4046SOL    HW123597   3.137   2.396  15.276 -0.3056 -1.3565  0.6752
 4046SOL    HW223598   3.209   2.310  15.182 -0.8406  0.5557  0.7345
 4047SOL     OW23599   3.094   0.853   5.608 -0.0629 -0.2120 -0.2189
 4047SOL    HW123600   3.098   0.758   5.622  0.3578  0.2266  2.6807
 4047SOL    HW223601   3.152   0.859   5.533  1.0178  0.2123  0.6456
 4048SOL     OW23602   0.960   0.936   3.716  0.0829 -0.0958  0.0086
 4048SOL    HW123603   0.938   0.979   3.799  0.4444  2.4961 -1.2548
 4048SOL    HW223604   0.882   0.883   3.696  0.0341 -0.5262  1.3109
 4049SOL     OW23605   3.890   0.723  14.084  0.0299 -0.3522 -0.0793
 4049SOL    HW123606   3.941   0.648  14.054  2.2668  1.6179 -1.1801
 4049SOL    HW223607   3.807   0.698  14.045 -1.1677  1.5486  1.2144
 4050SOL     OW23608   2.354   1.950   5.427  0.1062  0.1376 -0.0796
 4050SOL    HW123609   2.413   1.979   5.357  2.1824  1.0335  2.0371
 4050SOL    HW223610   2.404   1.960   5.508  2.3121  2.5383 -1.7237
 4051SOL     OW23611   2.725   2.365   3.816 -0.0543 -0.0116 -0.0713
 4051SOL    HW123612   2.772   2.290   3.852 -0.3828  0.0003  0.3839
 4051SOL    HW223613   2.793   2.397   3.757  1.7525 -2.7942  0.4928
 4052SOL     OW23614   2.327   4.188   0.066  0.0798  0.5683 -0.2542
 4052SOL    HW123615   2.369   4.120   0.015 -0.1829  0.6064 -0.5242
 4052SOL    HW223616   2.400   4.249   0.074  0.0045  0.3709  1.8768
 4053SOL     OW23617   0.882   3.088   6.136  0.1844  0.5740  0.1584
 4053SOL    HW123618   0.942   3.072   6.209  0.2391  0.8476  0.1753
 4053SOL    HW223619   0.806   3.114   6.187 -0.4118 -2.4644  0.8172
 4054SOL     OW23620   4.058   3.171   2.005 -0.1693 -0.3993  0.0398
 4054SOL    HW123621   4.109   3.096   2.035  1.1667 -0.0251 -1.2581
 4054SOL    HW223622   3.975   3.137   2.038  0.3679 -0.7430  1.0306
 4055SOL     OW23623   4.368   0.642   4.042 -0.6025  0.0282 -0.0106
 4055SOL    HW123624   4.305   0.695   3.994  0.5676  0.7171 -0.7895
 4055SOL    HW223625   4.438   0.705   4.059 -1.0705  0.7010 -0.5331
 4056SOL     OW23626   2.097   2.904   4.165  0.0887 -0.4140 -0.0076
 4056SOL    HW123627   2.068   2.816   4.190 -0.2562 -0.6144 -1.1110
 4056SOL    HW223628   2.064   2.910   4.075  1.2287  1.4626 -0.2923
 4057SOL     OW23629   2.224   4.534   3.106  0.4644  0.4102  0.5846
 4057SOL    HW123630   2.308   4.490   3.093 -0.0898 -0.7811  0.9511
 4057SOL    HW223631   2.241   4.613   3.156  3.8577 -0.1291  0.2799
 4058SOL     OW23632   4.002   3.924   6.085 -0.5164 -0.4258  0.5065
 4058SOL    HW123633   3.937   3.871   6.039 -0.3124  1.4086 -1.9012
 4058SOL    HW223634   3.953   3.964   6.157  0.6633 -0.2714  1.2259
 4059SOL     OW23635   0.226   0.241  13.559 -0.2996  0.0641 -0.6825
 4059SOL    HW123636   0.302   0.185  13.574 -1.4587 -1.0233  1.1182
 4059SOL    HW223637   0.160   0.172  13.561  0.8113 -1.0013 -1.0637
 4060SOL     OW23638   1.325   2.670  12.142 -0.3192 -0.3384  0.3284
 4060SOL    HW123639   1.362   2.585  12.165 -1.4439 -1.6731 -2.7468
 4060SOL    HW223640   1.381   2.715  12.079 -0.6468 -0.7100 -0.2272
 4061SOL     OW23641   4.508   1.389  14.995  0.2923  0.5663 -0.0991
 4061SOL    HW123642   4.469   1.328  14.932  0.8391  0.7153 -0.5813
 4061SOL    HW223643   4.436   1.439  15.034  2.4472  3.9961 -0.5120
 4062SOL     OW23644   0.347   2.080   9.967 -0.4419 -0.0730  0.0484
 4062SOL    HW123645   0.402   2.010   9.931  0.9774  0.0527  1.9986
 4062SOL    HW223646   0.306   2.039  10.043 -1.9814  2.5386  0.6130
 4063SOL     OW23647   4.017   3.351  11.716 -0.2471  0.1845 -0.3050
 4063SOL    HW123648   4.071   3.427  11.737  1.1224 -0.6752 -0.7601
 4063SOL    HW223649   4.079   3.289  11.678 -0.4722 -0.2521  0.0393
 4064SOL     OW23650   3.100   0.813   3.033 -0.4928  0.1153  0.2472
 4064SOL    HW123651   3.076   0.786   2.944  3.2240 -0.4074 -0.6283
 4064SOL    HW223652   3.160   0.883   3.007  0.1632 -0.6765 -0.4012
 4065SOL     OW23653   4.159   2.219  13.622 -0.1734 -0.1017  0.1600
 4065SOL    HW123654   4.160   2.163  13.700  1.5959  0.8643  0.8294
 4065SOL    HW223655   4.234   2.276  13.641 -1.9243  2.3223 -0.2535
 4066SOL     OW23656   0.762   3.784  12.057 -0.1210  0.1530 -0.1802
 4066SOL    HW123657   0.856   3.780  12.075  0.1039  2.1471 -0.9156
 4066SOL    HW223658   0.766   3.810  11.965  1.7561  2.3572  0.5536
 4067SOL     OW23659   1.920   3.088  13.049 -0.2775  0.1382 -0.1881
 4067SOL    HW123660   1.949   3.121  13.134  0.4350  2.6631 -1.3985
 4067SOL    HW223661   2.004   3.088  13.003  1.9161 -1.1767  3.9253
 4068SOL     OW23662   0.614   2.423   3.770 -0.2651 -0.2710 -0.3154
 4068SOL    HW123663   0.584   2.344   3.816 -2.5338  0.7123 -0.1046
 4068SOL    HW223664   0.602   2.391   3.681  0.3016  2.4441 -1.3510
 4069SOL     OW23665   4.552   0.590  15.171 -0.0945  0.5553  0.1472
 4069SOL    HW123666   4.594   0.513  15.209 -1.8310  0.1604  1.2587
 4069SOL    HW223667   4.621   0.656  15.180  0.5152 -0.1359  0.5615
 4070SOL     OW23668   2.858   3.122  14.914  0.3556  0.7812 -0.0844
 4070SOL    HW123669   2.849   3.144  15.007  0.0959  1.2082 -0.2112
 4070SOL    HW223670   2.875   3.028  14.920  2.2813  1.0862 -0.6949
 4071SOL     OW23671   4.365   3.565   4.524  0.2030 -0.1488  0.4579
 4071SOL    HW123672   4.308   3.491   4.543 -0.8114  0.7326  0.7859
 4071SOL    HW223673   4.385   3.601   4.610  2.0068 -2.4241  1.0079
 4072SOL     OW23674   4.384   2.838  11.032  0.1490  0.4434  0.1154
 4072SOL    HW123675   4.463   2.888  11.054  0.1100  0.2232  0.7414
 4072SOL    HW223676   4.419   2.759  10.990  0.8842  0.5232  0.5869
 4073SOL     OW23677   2.361   2.155  16.730 -0.3844 -0.0126 -0.3100
 4073SOL    HW123678   2.320   2.075  16.763  0.6753 -0.8365 -1.0107
 4073SOL    HW223679   2.341   2.156  16.637 -2.2763 -0.4006  0.0722
 4074SOL     OW23680   1.059   0.584  12.964 -0.3463 -0.6554 -0.9399
 4074SOL    HW123681   1.084   0.503  12.919 -0.0582 -1.1172  0.0392
 4074SOL    HW223682   1.057   0.556  13.056 -2.4128  0.9792 -0.4997
 4075SOL     OW23683   3.070   0.871   7.887  0.1230 -0.4130 -0.5664
 4075SOL    HW123684   3.100   0.794   7.839  1.0181  0.1621 -0.9171
 4075SOL    HW223685   3.091   0.841   7.976 -0.2183  2.7026  0.5755
 4076SOL     OW23686   1.044   4.029  11.125 -0.6696  0.1264  0.1869
 4076SOL    HW123687   1.084   4.100  11.175 -0.9691 -0.2522  0.9650
 4076SOL    HW223688   1.045   4.060  11.034  0.8447 -0.7044 -0.0684
 4077SOL     OW23689   1.044   1.394   6.798  0.0531 -0.0497  0.1750
 4077SOL    HW123690   1.099   1.317   6.782 -0.4714 -0.3811 -0.0499
 4077SOL    HW223691   1.095   1.465   6.761 -1.5372  0.7857 -0.4162
 4078SOL     OW23692   3.841   1.172   2.692  0.4911 -0.1725 -0.2644
 4078SOL    HW123693   3.878   1.155   2.605  2.0830  3.1924 -0.2610
 4078SOL    HW223694   3.903   1.231   2.734  1.7893 -0.6214 -1.5380
 4079SOL     OW23695   3.190   3.572  16.471 -0.3404  0.5776 -0.0944
 4079SOL    HW123696   3.285   3.570  16.467 -0.2579  0.4760  1.9236
 4079SOL    HW223697   3.161   3.514  16.401 -2.0872  0.2655  0.8813
 4080SOL     OW23698   1.958   4.655   8.437 -0.1527 -0.3390  0.3219
 4080SOL    HW123699   1.940   4.627   8.347 -0.5178 -0.7568  0.5301
 4080SOL    HW223700   1.963   4.574   8.487  3.0611  0.8788  2.0065
 4081SOL     OW23701   3.613   1.257   3.403  0.2921 -0.7695 -0.8865
 4081SOL    HW123702   3.593   1.267   3.310 -1.4982 -0.7145 -0.4981
 4081SOL    HW223703   3.567   1.334   3.435  1.2820 -1.3376  1.8651
 4082SOL     OW23704   1.547   3.209   7.144 -0.0660 -0.0208  0.4772
 4082SOL    HW123705   1.531   3.144   7.076 -0.4280  1.4278 -0.8112
 4082SOL    HW223706   1.568   3.289   7.096 -1.5404 -0.3916 -0.7968
 4083SOL     OW23707   2.918   0.702   8.763  0.0814 -0.4402 -0.0180
 4083SOL    HW123708   2.915   0.767   8.693  0.1630  1.0265  1.3501
 4083SOL    HW223709   2.945   0.768   8.827  2.4866  0.0854 -1.5952
 4084SOL     OW23710   4.048   0.801  14.281  1.1758 -0.2523  0.1672
 4084SOL    HW123711   4.007   0.800  14.195 -0.6330  0.5394  1.0129
 4084SOL    HW223712   4.092   0.886  14.287  1.6142 -0.5115  0.6204
 4085SOL     OW23713   2.322   2.676  14.728  0.3640  0.4784 -0.0131
 4085SOL    HW123714   2.327   2.696  14.821 -0.0238 -0.1932  0.1506
 4085SOL    HW223715   2.360   2.755  14.691 -0.5833  1.1326  0.4357
 4086SOL     OW23716   0.014   4.461   2.675 -0.3760 -0.4932  0.3000
 4086SOL    HW123717   4.718   4.498   2.762 -1.0691  1.0069 -0.5017
 4086SOL    HW223718   4.684   4.522   2.624 -0.1451 -0.3676  0.2113
 4087SOL     OW23719   3.925   1.817   3.350  0.0454 -0.3599 -0.5238
 4087SOL    HW123720   3.854   1.756   3.373  0.3202 -0.0177  1.2335
 4087SOL    HW223721   3.882   1.859   3.275  0.6810  0.4453 -0.4266
 4088SOL     OW23722   2.484   0.725   6.922 -0.5136  0.0740 -0.7284
 4088SOL    HW123723   2.499   0.723   6.827 -0.3215 -1.7121 -0.6593
 4088SOL    HW223724   2.422   0.653   6.930  0.6881 -0.7920  0.6059
 4089SOL     OW23725   0.475   3.932  12.213  0.0565 -0.6291 -0.2163
 4089SOL    HW123726   0.393   3.941  12.164  0.9886 -2.9648 -2.2375
 4089SOL    HW223727   0.540   3.984  12.167 -1.0097 -0.1750 -1.2299
 4090SOL     OW23728   1.248   4.336   6.955  0.1788 -0.2464 -0.7152
 4090SOL    HW123729   1.266   4.381   7.037 -0.6578  0.8531 -1.1412
 4090SOL    HW223730   1.198   4.403   6.909 -2.0580 -1.7638 -0.4906
 4091SOL     OW23731   3.124   2.444   5.315  0.3211 -0.3378  0.5326
 4091SOL    HW123732   3.098   2.354   5.293 -0.2967 -0.2911  1.0623
 4091SOL    HW223733   3.122   2.478   5.225 -1.5823  0.4318  0.8555
 4092SOL     OW23734   4.338   1.964   3.254  0.0517 -0.3262  0.1435
 4092SOL    HW123735   4.391   2.044   3.254 -0.8639  0.2862 -1.8426
 4092SOL    HW223736   4.280   1.981   3.328  0.5160 -1.6056  0.8077
 4093SOL     OW23737   2.874   4.284  14.925 -0.3474 -0.4320  0.2457
 4093SOL    HW123738   2.955   4.309  14.883 -0.5582  2.2185  1.4546
 4093SOL    HW223739   2.811   4.326  14.866  1.8364 -0.3602 -2.0195
 4094SOL     OW23740   3.940   2.481   7.187  0.0941  0.3841 -0.2674
 4094SOL    HW123741   3.976   2.552   7.134 -0.6068  0.0856 -1.1505
 4094SOL    HW223742   3.889   2.433   7.122 -0.5918  1.2253 -0.3552
 4095SOL     OW23743   3.176   1.911  12.106  0.4370 -0.2954  0.0733
 4095SOL    HW123744   3.238   1.851  12.149  1.0668 -1.8218 -2.9770
 4095SOL    HW223745   3.106   1.896  12.169 -0.1515 -0.0576 -0.5323
 4096SOL     OW23746   1.903   3.500   9.470  0.2001 -1.0082  0.7133
 4096SOL    HW123747   1.866   3.512   9.383  0.5322  1.0497  0.8557
 4096SOL    HW223748   1.997   3.497   9.450  0.1665 -0.7472  0.5260
 4097SOL     OW23749   3.455   1.133   5.340 -0.3759  0.3810  0.3718
 4097SOL    HW123750   3.530   1.073   5.337 -0.4699  0.2621  0.4125
 4097SOL    HW223751   3.436   1.125   5.433  1.5653  1.4957  0.8540
 4098SOL     OW23752   3.574   0.522  11.039 -1.0051  0.5055  0.0592
 4098SOL    HW123753   3.528   0.603  11.017  0.4150  0.6926 -2.1773
 4098SOL    HW223754   3.544   0.529  11.130  0.2353 -1.2082  0.5981
 4099SOL     OW23755   1.526   0.504  16.921 -0.2358  0.1232 -0.0333
 4099SOL    HW123756   1.435   0.510  16.952 -0.8161 -2.4890 -1.2329
 4099SOL    HW223757   1.565   0.561  16.987  1.1233 -0.2087 -0.5500
 4100SOL     OW23758   4.502   3.108  11.821  0.0348 -0.6994 -0.0661
 4100SOL    HW123759   4.534   3.079  11.736  0.5559  2.6257 -1.0124
 4100SOL    HW223760   4.518   3.025  11.866 -0.3542  0.0735  1.4827
 4101SOL     OW23761   0.566   3.426   8.709 -0.0558 -0.4392  0.1159
 4101SOL    HW123762   0.553   3.351   8.650  0.2367 -0.1228 -0.3512
 4101SOL    HW223763   0.635   3.386   8.762  0.2642  1.5167  1.1736
 4102SOL     OW23764   4.123   2.810   3.289 -0.1317 -0.0741 -0.1710
 4102SOL    HW123765   4.085   2.869   3.224 -0.0022 -0.2095 -0.3715
 4102SOL    HW223766   4.152   2.738   3.233 -3.1233 -0.1588 -1.6008
 4103SOL     OW23767   0.575   4.108   3.694 -0.3563 -0.3101  0.5941
 4103SOL    HW123768   0.615   4.058   3.765 -2.3487 -0.3430  1.6861
 4103SOL    HW223769   0.553   4.187   3.743 -0.6805  0.1540 -0.2924
 4104SOL     OW23770   1.989   4.590   5.330 -0.5000 -0.1859 -0.1903
 4104SOL    HW123771   1.938   4.551   5.259 -0.0580 -1.1645  0.0335
 4104SOL    HW223772   2.059   4.525   5.328  0.4318  0.8995 -2.8913
 4105SOL     OW23773   1.964   3.753   0.927 -0.1616  0.5126 -0.1060
 4105SOL    HW123774   1.901   3.772   0.997 -0.8424 -2.0592 -0.0444
 4105SOL    HW223775   2.040   3.802   0.960 -1.9434  3.0052  0.3507
 4106SOL     OW23776   2.964   4.347  12.184 -0.6912  0.5826  0.2514
 4106SOL    HW123777   3.057   4.367  12.174 -0.5066 -1.1422 -1.5127
 4106SOL    HW223778   2.963   4.252  12.198  2.2212  0.5252  0.2124
 4107SOL     OW23779   1.140   1.049   4.472 -0.7347 -0.0092  0.3590
 4107SOL    HW123780   1.069   1.054   4.407 -1.4152 -2.0174  0.9282
 4107SOL    HW223781   1.146   0.954   4.480  1.3646  0.0991 -0.0747
 4108SOL     OW23782   4.339   2.570  14.532  0.7444  0.4791 -0.0372
 4108SOL    HW123783   4.263   2.622  14.556  1.6013  0.7200  2.1796
 4108SOL    HW223784   4.335   2.570  14.437  1.3595  2.1120 -0.0656
 4109SOL     OW23785   0.918   2.541   4.820  0.0004 -0.4647  0.6438
 4109SOL    HW123786   0.920   2.488   4.740  0.1441 -0.6730  0.7857
 4109SOL    HW223787   0.943   2.628   4.787 -2.9578  0.0132 -0.3379
 4110SOL     OW23788   1.273   1.406   4.531  0.2885 -0.1220 -0.2233
 4110SOL    HW123789   1.188   1.450   4.539 -0.9383 -2.5383 -0.1168
 4110SOL    HW223790   1.328   1.480   4.506 -1.9685  1.8391  0.5216
 4111SOL     OW23791   3.988   3.287   4.866 -0.1734  0.6978  0.1303
 4111SOL    HW123792   3.998   3.234   4.946  0.2291 -0.2059 -0.5157
 4111SOL    HW223793   4.076   3.274   4.830 -0.9301 -0.0977 -1.4047
 4112SOL     OW23794   0.220   1.258   5.692  0.2056  0.5471 -0.4874
 4112SOL    HW123795   0.137   1.276   5.647  0.1232  1.2324 -0.0539
 4112SOL    HW223796   0.234   1.164   5.683  0.6545  0.4044  1.7801
 4113SOL     OW23797   2.387   2.951   7.309 -0.3932  0.1567 -0.6759
 4113SOL    HW123798   2.435   2.965   7.227  1.2338  1.1283  0.4491
 4113SOL    HW223799   2.415   3.027   7.359 -0.5660 -0.3133  0.1291
 4114SOL     OW23800   4.116   2.308  16.133  0.7241  0.0204 -0.3940
 4114SOL    HW123801   4.174   2.332  16.205  0.9344 -0.9895 -0.2251
 4114SOL    HW223802   4.173   2.331  16.060  0.7548 -0.2594 -0.4575
 4115SOL     OW23803   1.557   1.562  16.298 -0.1652  0.0038  0.3440
 4115SOL    HW123804   1.492   1.633  16.294  1.1450  1.2480  1.0800
 4115SOL    HW223805   1.636   1.609  16.273  0.2185 -1.4034 -1.0978
 4116SOL     OW23806   2.836   4.231   4.287  0.3937  0.0467 -0.5646
 4116SOL    HW123807   2.780   4.286   4.232 -0.9207 -1.0599 -0.3162
 4116SOL    HW223808   2.781   4.153   4.284  1.6274 -0.9484  2.2751
 4117SOL     OW23809   1.313   2.141   6.856 -0.3008 -0.0641 -0.0842
 4117SOL    HW123810   1.337   2.189   6.776 -3.4195  0.3585 -0.7914
 4117SOL    HW223811   1.268   2.217   6.893  0.2791  0.4328 -0.3959
 4118SOL     OW23812   0.749   3.362   7.606  0.0490 -0.9709  0.0996
 4118SOL    HW123813   0.692   3.299   7.650 -0.2671 -1.4246 -0.9681
 4118SOL    HW223814   0.804   3.303   7.555 -2.7359 -2.5386 -1.0801
 4119SOL     OW23815   1.478   1.516  17.516  0.0505 -0.1535  0.1937
 4119SOL    HW123816   1.451   1.594  17.466 -1.1762 -1.3979 -1.0767
 4119SOL    HW223817   1.570   1.537  17.529 -0.4465  0.7949  2.3261
 4120SOL     OW23818   2.011   0.626   4.378  0.0297 -0.2023  0.5150
 4120SOL    HW123819   2.006   0.538   4.341  1.7092  0.6363 -1.7122
 4120SOL    HW223820   2.070   0.666   4.315 -1.7996  2.0721  0.2720
 4121SOL     OW23821   0.666   0.382   7.580 -0.2111  0.4012 -0.5948
 4121SOL    HW123822   0.580   0.342   7.588  1.1597 -1.8180  2.9424
 4121SOL    HW223823   0.684   0.425   7.663  2.2012  0.6541 -1.2348
 4122SOL     OW23824   2.747   3.432   3.749 -0.2453 -0.6718 -0.1033
 4122SOL    HW123825   2.728   3.499   3.683 -0.8831 -1.5349 -0.8001
 4122SOL    HW223826   2.733   3.355   3.694  3.2597 -1.7592  0.4987
 4123SOL     OW23827   3.093   3.130  13.702 -0.5740  0.0466 -0.0758
 4123SOL    HW123828   3.047   3.050  13.729  1.3145 -1.0143 -0.0636
 4123SOL    HW223829   3.059   3.145  13.614  2.0440  0.2447 -1.0390
 4124SOL     OW23830   3.960   3.836  16.405 -0.1554  0.0883 -0.9904
 4124SOL    HW123831   3.926   3.872  16.323 -0.4719  1.1949 -0.3689
 4124SOL    HW223832   3.922   3.748  16.393 -1.5149  0.4800  0.5385
 4125SOL     OW23833   1.092   2.376   8.301  0.1444 -0.0435  0.0111
 4125SOL    HW123834   1.078   2.314   8.230  0.2377  0.8181 -0.7605
 4125SOL    HW223835   1.130   2.319   8.368  0.5976  1.3894  0.9774
 4126SOL     OW23836   4.341   4.432   3.393 -0.2460 -0.8167  0.4227
 4126SOL    HW123837   4.338   4.493   3.319  1.5709 -0.2397  0.8051
 4126SOL    HW223838   4.251   4.438   3.424 -0.8154 -0.2725 -1.3247
 4127SOL     OW23839   2.318   3.995   5.298 -0.2675 -0.6977 -0.1926
 4127SOL    HW123840   2.388   3.945   5.340  0.7935  0.5516 -0.4831
 4127SOL    HW223841   2.284   3.928   5.238  0.7440 -0.1530 -1.3819
 4128SOL     OW23842   4.155   4.346   5.478 -0.4632  0.4300 -0.0388
 4128SOL    HW123843   4.141   4.355   5.384  0.5305 -0.1794 -0.2442
 4128SOL    HW223844   4.238   4.298   5.487 -1.3582 -0.7844  1.8228
 4129SOL     OW23845   4.301   4.484   1.212  0.5340  0.7660 -0.5281
 4129SOL    HW123846   4.242   4.476   1.137 -1.3497  1.0283  0.9256
 4129SOL    HW223847   4.370   4.542   1.178 -0.8196  1.6616 -1.7831
 4130SOL     OW23848   3.414   1.614   9.411 -0.1897  0.6868 -0.1550
 4130SOL    HW123849   3.462   1.619   9.494  1.5517 -0.7781 -1.0537
 4130SOL    HW223850   3.481   1.652   9.353 -0.6876  0.4147 -0.9048
 4131SOL     OW23851   4.582   2.713   8.533 -0.6027 -1.2110 -0.1131
 4131SOL    HW123852   4.489   2.695   8.520 -1.2925  1.6718  0.8199
 4131SOL    HW223853   4.612   2.632   8.574  1.6931  0.4793  1.5279
 4132SOL     OW23854   0.135   4.588   8.527  0.2468 -0.3823  0.0016
 4132SOL    HW123855   0.101   4.516   8.474  0.6705 -1.0384  0.6217
 4132SOL    HW223856   0.069   4.658   8.518 -1.0552 -1.9255 -2.1927
 4133SOL     OW23857   3.958   4.564   0.578 -0.3525  0.3149 -0.6959
 4133SOL    HW123858   4.001   4.526   0.502  1.6512 -2.2621  1.7166
 4133SOL    HW223859   3.898   4.501   0.618 -3.0068  3.4231  0.2247
 4134SOL     OW23860   0.206   3.638   3.418  0.0011  0.1108 -0.5113
 4134SOL    HW123861   0.274   3.655   3.483 -1.5333 -0.2054  1.1927
 4134SOL    HW223862   0.126   3.617   3.468 -0.5796 -1.0298 -1.9489
 4135SOL     OW23863   2.174   3.176   7.535  0.5832  0.3040  0.0501
 4135SOL    HW123864   2.142   3.242   7.474 -2.6113 -0.5204  0.8290
 4135SOL    HW223865   2.093   3.126   7.545  0.5154 -0.1032 -2.4177
 4136SOL     OW23866   2.109   1.392   0.663  0.2592  0.2490 -0.2097
 4136SOL    HW123867   2.047   1.350   0.723 -0.0859  1.4367  0.2754
 4136SOL    HW223868   2.121   1.478   0.705  2.0327 -0.7229  1.2548
 4137SOL     OW23869   2.356   4.678   1.648  0.8789  0.2265  0.4389
 4137SOL    HW123870   2.296   4.722   1.589  0.8450 -0.9528 -0.4153
 4137SOL    HW223871   2.442   4.706   1.619  1.2088 -0.7143  0.4938
 4138SOL     OW23872   0.142   1.672   6.936  0.4227 -0.9116  0.1433
 4138SOL    HW123873   0.161   1.598   6.993 -0.1154 -0.8680  0.3884
 4138SOL    HW223874   0.229   1.683   6.899 -0.0490  1.0544 -0.3904
 4139SOL     OW23875   3.295   2.183   6.791 -0.1358  0.5752 -0.4441
 4139SOL    HW123876   3.296   2.144   6.703 -0.6418 -1.6956  0.5385
 4139SOL    HW223877   3.367   2.246   6.788  1.4959 -1.1585  2.3296
 4140SOL     OW23878   0.783   3.881   4.445 -0.1065 -0.4200 -0.0843
 4140SOL    HW123879   0.866   3.834   4.433 -0.1153 -0.0910 -1.4231
 4140SOL    HW223880   0.821   3.968   4.454  0.9046 -0.9878  1.1566
 4141SOL     OW23881   2.810   0.508   6.426  0.3744  0.3592  0.2101
 4141SOL    HW123882   2.753   0.528   6.352  2.2152  2.6111 -0.5873
 4141SOL    HW223883   2.893   0.525   6.380 -0.0354  0.4290 -0.4967
 4142SOL     OW23884   0.376   2.649   2.148 -0.5616  0.1836 -0.0938
 4142SOL    HW123885   0.342   2.567   2.184  0.8631  0.3497  1.6908
 4142SOL    HW223886   0.468   2.629   2.128 -0.5686 -0.6416  0.6990
 4143SOL     OW23887   0.457   0.710  12.302 -0.0307 -0.0950  0.2260
 4143SOL    HW123888   0.521   0.670  12.243 -0.4615 -0.8051  0.2376
 4143SOL    HW223889   0.376   0.723  12.252 -0.0213  2.0468  0.7635
 4144SOL     OW23890   3.261   0.628  13.147  0.1133  0.1675  0.9049
 4144SOL    HW123891   3.179   0.596  13.108 -0.6681  0.3988  2.3529
 4144SOL    HW223892   3.273   0.553  13.205  1.3981  0.3641  0.8921
 4145SOL     OW23893   1.363   2.196   2.009 -0.3466  0.4478  0.0737
 4145SOL    HW123894   1.412   2.138   1.950  1.1699  0.4005  1.3738
 4145SOL    HW223895   1.322   2.250   1.942 -1.8214  1.0716  1.4884
 4146SOL     OW23896   2.806   0.249   3.746  0.6623 -0.1451 -0.0680
 4146SOL    HW123897   2.815   0.187   3.819  1.9286  0.6698  0.4762
 4146SOL    HW223898   2.718   0.280   3.769  1.3427  0.8490  1.2616
 4147SOL     OW23899   0.424   1.494   4.325 -0.3298  0.5407 -0.4713
 4147SOL    HW123900   0.374   1.518   4.403 -0.3534  0.9284 -0.6053
 4147SOL    HW223901   0.501   1.550   4.331  0.0126 -0.0808  0.9531
 4148SOL     OW23902   2.933   4.411   4.449 -0.0668 -0.0419  0.3799
 4148SOL    HW123903   2.942   4.467   4.372 -1.5319 -2.2777 -1.4344
 4148SOL    HW223904   2.892   4.343   4.395  1.0022  0.3503 -0.8990
 4149SOL     OW23905   0.537   1.229   4.304  0.0572  0.0916 -0.3962
 4149SOL    HW123906   0.500   1.217   4.391  2.6316  0.6057  0.7563
 4149SOL    HW223907   0.505   1.318   4.290 -0.3373  0.1499  0.8842
 4150SOL     OW23908   2.503   3.235   6.867 -0.1069  0.1398 -0.0221
 4150SOL    HW123909   2.445   3.264   6.797 -0.9148  2.1469  1.4826
 4150SOL    HW223910   2.580   3.211   6.815 -1.5897 -2.2308 -1.1257
 4151SOL     OW23911   1.926   2.886  11.901  0.2770  0.4295  0.0369
 4151SOL    HW123912   2.008   2.920  11.937 -0.4980  1.7988  0.5085
 4151SOL    HW223913   1.879   2.959  11.861 -1.3416 -1.1472 -0.9250
 4152SOL     OW23914   3.580   0.666   6.681  0.1127  0.3493 -0.4507
 4152SOL    HW123915   3.517   0.673   6.753 -0.1853 -1.1125 -0.5619
 4152SOL    HW223916   3.596   0.572   6.674  1.5054  0.4956  0.6529
 4153SOL     OW23917   4.447   2.667   5.703 -0.0691  0.0083  0.8037
 4153SOL    HW123918   4.456   2.672   5.799  0.1607  3.5876  0.5978
 4153SOL    HW223919   4.475   2.754   5.675  2.2895 -0.8314  0.5586
 4154SOL     OW23920   2.801   0.322   5.600 -0.0781 -0.0468  0.0232
 4154SOL    HW123921   2.801   0.265   5.676 -0.8828 -0.7003 -0.4710
 4154SOL    HW223922   2.877   0.282   5.558 -1.6280 -1.7893 -1.0775
 4155SOL     OW23923   0.663   3.134   5.202 -0.3060 -0.1021 -0.4721
 4155SOL    HW123924   0.750   3.141   5.162  0.5043  0.7389  1.4301
 4155SOL    HW223925   0.677   3.198   5.272 -1.3460 -0.9343  0.4874
 4156SOL     OW23926   0.340   3.766   7.930 -0.6056 -0.1897  0.0497
 4156SOL    HW123927   0.339   3.824   7.854 -0.2429  0.0749  0.2501
 4156SOL    HW223928   0.253   3.791   7.961 -0.1512 -0.2499  1.3552
 4157SOL     OW23929   4.317   1.228   3.488  0.6831  0.0171 -0.0040
 4157SOL    HW123930   4.306   1.168   3.414 -1.5452 -0.2971  0.5898
 4157SOL    HW223931   4.301   1.308   3.439  0.7934  1.2925  2.0498
 4158SOL     OW23932   4.224   0.868   3.879  0.1008  0.2431 -0.5733
 4158SOL    HW123933   4.208   0.943   3.822  1.0357  1.8700  1.3034
 4158SOL    HW223934   4.256   0.804   3.815 -1.3140  0.0766 -1.1158
 4159SOL     OW23935   1.089   4.685   5.172 -0.0510  0.1244 -0.1147
 4159SOL    HW123936   1.113   4.701   5.263  2.5379  0.6317 -0.9110
 4159SOL    HW223937   1.111   0.048   5.134 -1.2334  0.4574 -0.0628
 4160SOL     OW23938   1.581   3.141   4.573 -0.1848 -0.9539 -0.4917
 4160SOL    HW123939   1.596   3.222   4.623  1.6182 -2.6829  1.7823
 4160SOL    HW223940   1.665   3.099   4.589  1.0990  2.4105  1.7028
 4161SOL     OW23941   1.603   3.692   9.045  0.2452 -0.6681 -0.2895
 4161SOL    HW123942   1.688   3.733   9.029  0.1619 -0.6325 -0.6421
 4161SOL    HW223943   1.572   3.680   8.955 -2.0170  1.0342  0.2554
 4162SOL     OW23944   0.872   0.196  13.713  0.8120 -0.4486  0.5304
 4162SOL    HW123945   0.835   0.242  13.638  0.4972  1.2074  1.6832
 4162SOL    HW223946   0.786   0.176  13.749  0.4062 -0.3242 -0.3999
 4163SOL     OW23947   1.294   3.577   4.630 -0.5242  0.3338  0.1419
 4163SOL    HW123948   1.246   3.656   4.655 -2.2640 -0.6887 -0.0109
 4163SOL    HW223949   1.225   3.520   4.596 -0.4809  0.6195 -0.4392
 4164SOL     OW23950   4.621   3.727   3.813 -0.5815 -0.1283 -0.2787
 4164SOL    HW123951   4.649   3.812   3.782  1.3477 -0.4732  0.5393
 4164SOL    HW223952   4.643   3.727   3.906  1.7746  0.9934 -0.8599
 4165SOL     OW23953   1.544   0.769   5.422  0.1675  0.6005  0.5028
 4165SOL    HW123954   1.539   0.819   5.341  0.8282  0.9325  0.6692
 4165SOL    HW223955   1.485   0.699   5.396  2.2112 -0.0007 -2.5803
 4166SOL     OW23956   2.780   0.668   2.250  0.1289 -0.1189 -0.5232
 4166SOL    HW123957   2.794   0.713   2.167  1.3404  0.2952 -0.0842
 4166SOL    HW223958   2.863   0.677   2.298  0.2727  1.4115 -1.0711
 4167SOL     OW23959   2.379   4.170   5.092  0.0068  0.5866  0.0288
 4167SOL    HW123960   2.386   4.112   5.168  2.1286  0.7949  0.0067
 4167SOL    HW223961   2.461   4.219   5.083  1.8369 -2.5030 -0.4624
 4168SOL     OW23962   4.312   2.357   1.196 -0.0825 -0.5063  0.7292
 4168SOL    HW123963   4.270   2.273   1.212 -1.6183  0.4642  1.8602
 4168SOL    HW223964   4.286   2.399   1.278 -1.2182 -1.5319  0.8827
 4169SOL     OW23965   2.935   4.205   4.951 -0.1440  0.0244  0.6752
 4169SOL    HW123966   2.964   4.225   4.861 -3.1166  0.3470 -0.2091
 4169SOL    HW223967   2.966   4.115   4.961  2.0842  0.6512 -0.5850
 4170SOL     OW23968   0.164   1.579   3.490 -0.6974 -0.3275  0.4783
 4170SOL    HW123969   0.228   1.551   3.556 -0.3816 -0.8631 -0.0591
 4170SOL    HW223970   0.213   1.562   3.410  0.7304 -1.0709  1.5087
 4171SOL     OW23971   2.727   0.719  12.080 -0.2517  0.3007 -0.1567
 4171SOL    HW123972   2.721   0.798  12.134  2.4441  2.1298 -2.5474
 4171SOL    HW223973   2.640   0.678  12.088 -1.0126  2.2175  1.5218
 4172SOL     OW23974   3.149   2.188  12.073 -0.1070 -0.0041 -0.3239
 4172SOL    HW123975   3.065   2.215  12.037 -0.4928 -1.1693 -0.3152
 4172SOL    HW223976   3.137   2.093  12.083 -2.2915  0.3698  0.5304
 4173SOL     OW23977   4.039   4.173  17.456 -0.0852  0.2257 -0.1378
 4173SOL    HW123978   4.062   4.262  17.482 -0.6925  0.3064  0.1141
 4173SOL    HW223979   4.107   4.156  17.390 -1.3978  2.2297 -2.0281
 4174SOL     OW23980   1.404   3.920   6.720 -0.1667  0.6655  0.1550
 4174SOL    HW123981   1.363   3.843   6.760  1.1631  0.3418  0.9154
 4174SOL    HW223982   1.337   3.988   6.719 -1.2202 -0.3669  0.4243
 4175SOL     OW23983   2.860   3.894   2.721 -0.3081 -0.1852 -0.2215
 4175SOL    HW123984   2.789   3.861   2.665 -0.2698 -0.6221 -0.0119
 4175SOL    HW223985   2.874   3.976   2.673 -2.5882 -0.5333 -1.5197
 4176SOL     OW23986   3.896   2.569   2.963 -0.1061  0.2859  0.0435
 4176SOL    HW123987   3.877   2.506   2.895  1.4522  1.9115 -1.8892
 4176SOL    HW223988   3.957   2.528   3.024 -0.7108 -2.8492 -1.4627
 4177SOL     OW23989   2.735   4.547   8.513  0.4662 -0.5655 -0.7836
 4177SOL    HW123990   2.751   4.455   8.533 -0.8264 -0.4935  0.5539
 4177SOL    HW223991   2.668   4.548   8.445  1.2876  1.1542 -1.5729
 4178SOL     OW23992   3.660   3.625   2.710 -0.6699 -0.0979 -0.2426
 4178SOL    HW123993   3.647   3.676   2.630  1.3420  1.6593  0.5703
 4178SOL    HW223994   3.576   3.581   2.724 -1.2169  0.6278 -1.3245
 4179SOL     OW23995   3.153   1.376   8.476 -0.2436 -0.3965 -0.3455
 4179SOL    HW123996   3.099   1.453   8.459  0.0173 -0.3238 -0.8562
 4179SOL    HW223997   3.093   1.340   8.540 -1.1762  1.5172 -0.1556
 4180SOL     OW23998   0.280   1.130   7.725  0.0170  0.4820  0.0384
 4180SOL    HW123999   0.365   1.170   7.708  0.0917  0.0330 -0.6725
 4180SOL    HW224000   0.244   1.198   7.782  0.4880 -0.4633  1.4596
 4181SOL     OW24001   2.233   4.051   2.782 -1.1074 -0.7180  0.0728
 4181SOL    HW124002   2.223   4.002   2.700 -1.2063 -2.5040  1.1389
 4181SOL    HW224003   2.322   4.080   2.761 -1.0761  1.1235  2.7883
 4182SOL     OW24004   1.730   2.250   0.477 -0.4142  0.5213  0.6390
 4182SOL    HW124005   1.722   2.314   0.406  1.1591 -1.8605 -1.6660
 4182SOL    HW224006   1.775   2.181   0.429  0.3394  1.4245  0.0382
 4183SOL     OW24007   3.978   4.459   7.934 -0.1854 -0.1169 -0.1264
 4183SOL    HW124008   4.029   4.473   8.014  0.3365 -0.4160 -0.4107
 4183SOL    HW224009   3.928   4.377   7.943 -1.7129  0.6618 -1.5498
 4184SOL     OW24010   1.356   1.377   6.002  0.2182 -0.5796 -0.4987
 4184SOL    HW124011   1.279   1.391   5.948 -0.4509  1.6779  1.0431
 4184SOL    HW224012   1.316   1.301   6.045 -0.9952  0.2733 -0.1238
 4185SOL     OW24013   0.397   1.334  15.455 -0.2137 -0.0042  0.3120
 4185SOL    HW124014   0.420   1.422  15.427  0.6768 -0.6524 -1.0060
 4185SOL    HW224015   0.485   1.295  15.456 -0.3821 -0.3779  0.7721
 4186SOL     OW24016   1.663   2.117  10.991  0.3776 -0.1739  0.7721
 4186SOL    HW124017   1.721   2.182  11.030 -0.1984  0.6502  0.2631
 4186SOL    HW224018   1.712   2.037  11.009  1.5086  0.8887  2.4549
 4187SOL     OW24019   4.092   1.332  14.410  0.8870 -0.2550 -0.0519
 4187SOL    HW124020   4.105   1.419  14.372  2.2739 -0.7684 -0.7926
 4187SOL    HW224021   4.080   1.350  14.503 -0.7632 -0.2823 -0.2681
 4188SOL     OW24022   0.273   1.712   6.270 -0.4271 -0.5648  0.3715
 4188SOL    HW124023   0.325   1.793   6.276 -1.8383  0.4104 -0.6379
 4188SOL    HW224024   0.311   1.675   6.190  0.7455  2.0329 -0.2847
 4189SOL     OW24025   2.632   4.336   9.086 -0.4770  0.4888  0.2980
 4189SOL    HW124026   2.662   4.382   9.165 -1.0063  1.2540  0.0507
 4189SOL    HW224027   2.655   4.401   9.021  1.0676  1.4356  1.7866
 4190SOL     OW24028   3.546   1.780   4.681  0.1718 -0.2489 -0.1560
 4190SOL    HW124029   3.613   1.741   4.625  0.1339 -1.0894  0.3800
 4190SOL    HW224030   3.474   1.771   4.617 -0.2551  2.0694  0.0179
 4191SOL     OW24031   0.885   0.877   2.867 -0.1314  0.2298  0.2550
 4191SOL    HW124032   0.841   0.929   2.800 -1.2198 -0.5752  0.3240
 4191SOL    HW224033   0.958   0.931   2.895  0.8765 -0.9485 -0.0821
 4192SOL     OW24034   1.740   3.804   6.370  0.6652  0.1163  0.4414
 4192SOL    HW124035   1.726   3.723   6.321  0.3363  0.3671  0.1242
 4192SOL    HW224036   1.651   3.813   6.403  0.2989  1.1272 -0.8288
 4193SOL     OW24037   4.015   4.302   5.987 -0.1246  0.3612 -0.5681
 4193SOL    HW124038   4.078   4.258   6.044 -0.3786  0.3196 -0.3152
 4193SOL    HW224039   4.060   4.294   5.903 -1.1638  1.1376 -1.2052
 4194SOL     OW24040   2.369   1.252   2.449 -0.4522 -0.1533 -0.0954
 4194SOL    HW124041   2.387   1.337   2.489  1.1174  0.2260 -1.6010
 4194SOL    HW224042   2.398   1.256   2.358  0.1934  1.7510  0.1881
 4195SOL     OW24043   3.010   3.216   3.020 -0.0769  0.1673  0.3402
 4195SOL    HW124044   2.958   3.287   3.058 -2.5033 -0.7973 -1.1598
 4195SOL    HW224045   2.974   3.217   2.932 -1.4062 -2.8736  0.8474
 4196SOL     OW24046   1.364   2.739   4.119 -0.5963 -0.5517 -0.4488
 4196SOL    HW124047   1.442   2.698   4.083 -1.0384  0.2749 -2.3683
 4196SOL    HW224048   1.333   2.808   4.059 -0.6887  0.8219  1.1753
 4197SOL     OW24049   2.461   2.866  14.609 -0.4400 -0.3927 -0.3816
 4197SOL    HW124050   2.475   2.942  14.666  1.1349 -0.9370 -0.0533
 4197SOL    HW224051   2.415   2.905  14.535 -2.2842  1.8638  1.9341
 4198SOL     OW24052   3.348   2.532   6.206 -0.2998  0.2299 -0.0782
 4198SOL    HW124053   3.319   2.468   6.272  1.1616  0.6407  0.9642
 4198SOL    HW224054   3.333   2.617   6.247  5.9984  0.4574  1.7134
 4199SOL     OW24055   4.108   3.840   0.447  0.6463  1.2591 -0.4433
 4199SOL    HW124056   4.062   3.763   0.415 -1.2524  2.0957  0.2575
 4199SOL    HW224057   4.148   3.869   0.365  1.6672 -2.1128 -1.1480
 4200SOL     OW24058   1.611   3.542  12.451  0.3079  0.1498 -0.1609
 4200SOL    HW124059   1.703   3.529  12.477  0.7788  3.2630 -0.2780
 4200SOL    HW224060   1.622   3.554  12.357  1.3488 -1.1591 -0.2054
 4201SOL     OW24061   1.496   0.555   3.348 -0.1932  0.1309  0.2799
 4201SOL    HW124062   1.493   0.459   3.351  1.4422  0.1304  2.9325
 4201SOL    HW224063   1.482   0.574   3.256  0.7534 -2.4535 -0.4184
 4202SOL     OW24064   0.388   0.298   2.936  0.0062 -0.5342 -0.4449
 4202SOL    HW124065   0.402   0.271   2.845  1.2355 -0.1797 -0.3591
 4202SOL    HW224066   0.321   0.366   2.926 -0.1208 -0.8994 -2.0498
 4203SOL     OW24067   2.546   4.240   0.977  0.2695 -0.1657  1.0919
 4203SOL    HW124068   2.598   4.261   1.054 -1.5809  2.5472  1.5936
 4203SOL    HW224069   2.535   4.145   0.988 -1.6913  0.0080  0.6636
 4204SOL     OW24070   1.289   4.490   5.829  0.0659  0.1718  0.0870
 4204SOL    HW124071   1.363   4.432   5.845  1.5331  2.0531  0.0421
 4204SOL    HW224072   1.308   4.579   5.859 -1.6317  0.1931  1.0890
 4205SOL     OW24073   4.607   3.874   8.874  0.3608 -0.3638 -0.7067
 4205SOL    HW124074   4.539   3.815   8.842  0.0128  0.6084 -1.7198
 4205SOL    HW224075   4.638   3.816   8.944  0.7729 -0.0375 -0.6209
 4206SOL     OW24076   1.355   4.420  14.206  0.5718 -0.2854  0.6346
 4206SOL    HW124077   1.347   4.332  14.168 -0.0634 -0.7438  1.8195
 4206SOL    HW224078   1.304   4.471  14.143  2.0512  0.3872 -0.0145
 4207SOL     OW24079   3.167   1.965   4.572  0.3212 -0.0395 -0.4067
 4207SOL    HW124080   3.097   2.030   4.586  0.4569  0.5694 -2.6181
 4207SOL    HW224081   3.153   1.915   4.652  1.2958  0.6643  0.2005
 4208SOL     OW24082   1.616   3.742  10.745 -0.5648  0.0176  0.1593
 4208SOL    HW124083   1.635   3.679  10.676 -0.2850 -1.1035  1.2612
 4208SOL    HW224084   1.615   3.688  10.824 -1.6970 -1.5454 -0.9384
 4209SOL     OW24085   3.227   1.371   6.772  0.0634  0.1440  0.3150
 4209SOL    HW124086   3.260   1.300   6.717 -1.1302  2.6901 -3.5993
 4209SOL    HW224087   3.246   1.343   6.862  0.8233 -3.3658 -0.9308
 4210SOL     OW24088   2.490   3.977   4.710  0.2795  0.7542 -1.0011
 4210SOL    HW124089   2.550   4.030   4.658  0.9762 -1.3770 -2.3666
 4210SOL    HW224090   2.414   4.032   4.729  1.0412  1.9558 -1.4470
 4211SOL     OW24091   1.871   3.058   3.482 -0.0146 -0.4186 -0.5593
 4211SOL    HW124092   1.844   2.970   3.454 -0.2601 -1.1554  2.0510
 4211SOL    HW224093   1.796   3.091   3.531  0.7090 -2.7847  2.1537
 4212SOL     OW24094   3.183   3.427   6.356 -0.2882 -0.0736  0.4257
 4212SOL    HW124095   3.229   3.509   6.370  1.4948 -1.3998  2.3931
 4212SOL    HW224096   3.218   3.382   6.433 -1.7330  1.1999  1.8286
 4213SOL     OW24097   0.414   3.635   1.525 -0.4004 -0.2645 -0.0665
 4213SOL    HW124098   0.398   3.612   1.617  0.7331  2.0455  0.7074
 4213SOL    HW224099   0.327   3.655   1.491 -0.5517  1.1622  1.1816
 4214SOL     OW24100   3.097   0.274  14.514 -0.4379  0.4184  0.1115
 4214SOL    HW124101   3.149   0.315  14.445 -0.1961 -1.3025 -0.7275
 4214SOL    HW224102   3.061   0.195  14.474 -0.9753 -0.1473  1.7250
 4215SOL     OW24103   1.304   2.193  11.776  0.3956  0.3520 -0.2810
 4215SOL    HW124104   1.229   2.141  11.745 -0.0413  0.5985  0.3503
 4215SOL    HW224105   1.377   2.133  11.761 -0.4678 -0.9069  0.4690
 4216SOL     OW24106   2.238   3.246  15.737  0.2567 -0.4205 -0.0752
 4216SOL    HW124107   2.242   3.319  15.675 -1.4068  1.3380  1.8496
 4216SOL    HW224108   2.175   3.290  15.795  0.2212 -1.8700  0.9799
 4217SOL     OW24109   0.328   2.335   7.639  0.3265  0.4659  0.4571
 4217SOL    HW124110   0.393   2.307   7.703 -0.5951  0.5460  1.4164
 4217SOL    HW224111   0.314   2.424   7.671  1.6982  0.6913  0.4130
 4218SOL     OW24112   2.696   1.370  14.945 -0.5556 -1.2615 -0.2121
 4218SOL    HW124113   2.690   1.450  14.998 -1.1208 -1.0708 -0.5713
 4218SOL    HW224114   2.604   1.352  14.925 -0.3244 -0.5788 -1.8714
 4219SOL     OW24115   2.998   0.482   5.116 -0.4170 -0.1419  0.0907
 4219SOL    HW124116   2.976   0.428   5.192 -1.2447  0.3440  0.2041
 4219SOL    HW224117   2.983   0.569   5.152 -1.1357 -1.0148  1.8800
 4220SOL     OW24118   2.881   0.159  15.292 -0.0286 -0.3302 -0.5005
 4220SOL    HW124119   2.829   0.133  15.216 -0.7014 -0.2600 -0.0606
 4220SOL    HW224120   2.856   0.252  15.292 -0.7122 -0.5222 -0.4807
 4221SOL     OW24121   3.446   2.262   4.566  0.2109 -0.3020 -0.2088
 4221SOL    HW124122   3.429   2.300   4.480 -1.6553  0.1569  0.3691
 4221SOL    HW224123   3.535   2.294   4.581 -0.6267  3.3266 -3.0092
 4222SOL     OW24124   0.244   2.693   6.631 -0.3925 -0.1482  0.1644
 4222SOL    HW124125   0.299   2.673   6.555  2.2103  1.7495  1.5617
 4222SOL    HW224126   0.300   2.755   6.677  0.7173 -0.1127 -1.2229
 4223SOL     OW24127   4.405   4.419   2.152  0.6793  0.5739 -0.4677
 4223SOL    HW124128   4.361   4.335   2.168 -1.8299  2.1739  0.9735
 4223SOL    HW224129   4.365   4.463   2.227 -0.2619  0.0281 -0.6441
 4224SOL     OW24130   3.616   4.557  13.388  0.6025  0.1970  0.0121
 4224SOL    HW124131   3.555   4.484  13.392  0.4100  0.3415 -0.2875
 4224SOL    HW224132   3.645   4.545  13.297 -1.0996 -1.1137 -0.3471
 4225SOL     OW24133   0.543   1.012   3.832  0.0952  0.5333  0.4174
 4225SOL    HW124134   0.510   1.066   3.760 -1.3392 -0.5613  0.2686
 4225SOL    HW224135   0.606   1.076   3.864 -0.1068  0.9693 -0.0497
 4226SOL     OW24136   0.110   4.127   7.672 -0.6402 -0.2569  0.2379
 4226SOL    HW124137   0.120   4.068   7.746  0.4445 -1.8305 -1.1575
 4226SOL    HW224138   0.192   4.176   7.678 -0.6934  0.1974 -2.4685
 4227SOL     OW24139   1.678   0.547   8.295  0.5077  0.3181  0.0385
 4227SOL    HW124140   1.677   0.452   8.283  0.9032  0.0484  2.1371
 4227SOL    HW224141   1.740   0.583   8.233 -0.6210  1.2125 -0.5725
 4228SOL     OW24142   1.014   2.508   9.506 -1.0708  0.3618  0.2966
 4228SOL    HW124143   0.923   2.516   9.480 -0.5965  1.8060 -0.8913
 4228SOL    HW224144   0.997   2.452   9.582  1.6854  0.1911  0.7796
 4229SOL     OW24145   0.406   1.519  17.614 -0.0050 -0.0927  0.5210
 4229SOL    HW124146   0.483   1.526  17.557  0.0039  0.7028  0.6324
 4229SOL    HW224147   0.398   1.425  17.598 -1.2682  0.1154 -0.0568
 4230SOL     OW24148   2.092   3.072   5.388  0.7149  0.3009  0.5080
 4230SOL    HW124149   2.001   3.101   5.388  0.6765  0.2078 -1.8476
 4230SOL    HW224150   2.124   3.124   5.462 -0.3108  0.1361  1.0553
 4231SOL     OW24151   4.692   0.734   7.342 -0.7386  0.0120  0.6590
 4231SOL    HW124152   4.694   0.661   7.403  1.7851 -0.2978  0.1799
 4231SOL    HW224153   0.046   0.707   7.292  0.4886  1.8017  1.5717
 4232SOL     OW24154   0.552   3.453   2.686  0.4703 -0.2380  0.0294
 4232SOL    HW124155   0.552   3.543   2.652 -0.8234 -0.5710 -0.8164
 4232SOL    HW224156   0.519   3.405   2.610  0.8426 -1.0303  0.3692
 4233SOL     OW24157   3.799   0.476   5.112 -0.0962 -0.0565 -0.0131
 4233SOL    HW124158   3.797   0.397   5.166  2.0037  0.0974  0.2700
 4233SOL    HW224159   3.890   0.505   5.118 -0.3207  0.3825  1.3157
 4234SOL     OW24160   1.860   3.965   5.280  0.0362  0.1078  0.4577
 4234SOL    HW124161   1.949   3.989   5.253 -0.4166  1.2265 -0.0149
 4234SOL    HW224162   1.837   3.894   5.220  2.3345 -0.3766  0.1622
 4235SOL     OW24163   3.996   0.350   5.964 -0.2449 -0.5773  0.3992
 4235SOL    HW124164   3.912   0.324   5.927  0.0756  0.0596 -0.7983
 4235SOL    HW224165   3.979   0.303   6.045  1.1749 -0.4581  0.7772
 4236SOL     OW24166   0.431   0.429   5.305 -0.4176 -0.4058  0.5247
 4236SOL    HW124167   0.339   0.408   5.321 -0.3390 -0.2154  1.2035
 4236SOL    HW224168   0.415   0.498   5.240 -0.8063 -0.5762  0.4379
 4237SOL     OW24169   0.895   0.878  17.436 -0.2478  0.7465 -0.5586
 4237SOL    HW124170   0.954   0.839  17.371 -1.1345  1.6702 -1.8989
 4237SOL    HW224171   0.962   0.915  17.494 -0.0138 -3.6097  1.9657
 4238SOL     OW24172   0.811   3.391  15.145 -0.0172 -0.3003  0.6642
 4238SOL    HW124173   0.906   3.392  15.144 -0.0588  2.9113 -0.7926
 4238SOL    HW224174   0.793   3.472  15.193  1.2577  0.0155  0.5948
 4239SOL     OW24175   1.065   0.711  16.251  0.0333  0.5307 -0.4307
 4239SOL    HW124176   0.984   0.661  16.251  0.2930  0.1164 -0.3352
 4239SOL    HW224177   1.071   0.742  16.160 -2.1824  0.1985 -0.6757
 4240SOL     OW24178   1.625   0.790   7.694 -0.2511 -0.8822 -0.4697
 4240SOL    HW124179   1.596   0.756   7.779  0.4722  0.0256  0.1495
 4240SOL    HW224180   1.553   0.846   7.666  0.7107  0.7328  0.2682
 4241SOL     OW24181   0.658   2.785   7.786  0.4887  0.3095  0.1075
 4241SOL    HW124182   0.722   2.720   7.757  0.1495 -0.0381  0.1239
 4241SOL    HW224183   0.625   2.812   7.701  0.3375  0.9905  0.3842
 4242SOL     OW24184   2.555   2.641   6.197 -0.3520  0.3926 -0.1725
 4242SOL    HW124185   2.482   2.663   6.139  1.7047  2.0061 -2.1528
 4242SOL    HW224186   2.528   2.553   6.223  1.0115 -0.4253 -1.5402
 4243SOL     OW24187   0.432   4.234  12.383 -0.2385 -0.1539  0.0680
 4243SOL    HW124188   0.521   4.259  12.357 -0.1273 -1.0578 -0.3841
 4243SOL    HW224189   0.420   4.143  12.356 -1.8859  0.1305 -0.1507
 4244SOL     OW24190   1.166   1.722   4.988  0.4676 -0.5528  1.4689
 4244SOL    HW124191   1.086   1.742   4.939 -0.3023  0.0238  2.9714
 4244SOL    HW224192   1.193   1.805   5.027 -1.6045  0.2251  1.2296
 4245SOL     OW24193   2.250   1.710   7.245  0.1011 -0.0435 -0.2720
 4245SOL    HW124194   2.283   1.762   7.319 -1.2792  0.9286 -0.3456
 4245SOL    HW224195   2.320   1.646   7.238 -0.0454 -0.4590  1.9078
 4246SOL     OW24196   1.113   3.587   4.199 -0.4800 -0.1853  0.7182
 4246SOL    HW124197   1.191   3.586   4.144  0.5943  1.6533  2.2030
 4246SOL    HW224198   1.136   3.497   4.224 -0.8265 -0.3693  0.3671
 4247SOL     OW24199   4.360   3.856   3.046  0.0717 -0.2154  0.2812
 4247SOL    HW124200   4.284   3.877   2.993 -0.6895 -1.9406  0.6928
 4247SOL    HW224201   4.341   3.763   3.051  0.7177 -0.3379  0.5401
 4248SOL     OW24202   1.804   0.865   8.232 -0.1784  0.6583 -0.7822
 4248SOL    HW124203   1.710   0.861   8.215 -0.4609 -2.1883  1.4718
 4248SOL    HW224204   1.827   0.947   8.188 -1.9959  0.8713 -1.3372
 4249SOL     OW24205   4.403   1.414   7.077  0.6762  0.3281  0.4786
 4249SOL    HW124206   4.440   1.385   7.160  1.6494  0.7203  0.1865
 4249SOL    HW224207   4.468   1.477   7.044  1.1918 -0.3693  0.1468
 4250SOL     OW24208   4.689   3.157   5.041  0.4095 -0.5880 -0.3096
 4250SOL    HW124209   0.005   3.082   4.997 -2.1032 -0.4959 -2.6270
 4250SOL    HW224210   0.043   3.198   5.082  1.6434 -0.5500 -2.6577
 4251SOL     OW24211   4.315   2.467   8.382  0.2234 -0.1914 -0.2658
 4251SOL    HW124212   4.266   2.391   8.351  0.5163  1.2940 -4.3907
 4251SOL    HW224213   4.275   2.485   8.467 -0.1223 -2.6557  0.0865
 4252SOL     OW24214   1.861   2.260   4.154  0.4603 -0.0943  0.2034
 4252SOL    HW124215   1.907   2.201   4.213 -0.2962  1.1944  2.0618
 4252SOL    HW224216   1.925   2.276   4.084  1.0987  0.5513  0.9348
 4253SOL     OW24217   4.665   2.853   7.161  0.0829  0.5270 -0.0058
 4253SOL    HW124218   4.666   2.784   7.227  0.5706 -1.0799 -1.6846
 4253SOL    HW224219   4.620   2.805   7.091  0.6231  3.4777 -2.3805
 4254SOL     OW24220   4.287   0.596   3.499 -0.0305 -0.1407 -0.2565
 4254SOL    HW124221   4.294   0.514   3.548  1.5844 -0.2924 -0.7439
 4254SOL    HW224222   4.202   0.585   3.458 -0.1219 -0.0427 -0.0943
 4255SOL     OW24223   4.383   4.295   2.741  0.3579 -0.5613 -0.2424
 4255SOL    HW124224   4.360   4.268   2.829 -0.4875  0.4857 -0.1457
 4255SOL    HW224225   4.311   4.357   2.733  1.9157  1.4084  0.8363
 4256SOL     OW24226   0.065   0.794   0.209  0.2628  0.3261 -0.4065
 4256SOL    HW124227   0.125   0.829   0.276  0.3893 -0.5859 -0.0463
 4256SOL    HW224228   0.069   0.701   0.231 -0.9889  0.6730  1.2945
 4257SOL     OW24229   2.351   0.275  11.163  0.4777  0.0230 -0.2964
 4257SOL    HW124230   2.296   0.242  11.234 -0.7337  3.0026  0.1382
 4257SOL    HW224231   2.398   0.348  11.203  1.1440  0.2337 -1.4797
 4258SOL     OW24232   0.442   1.116   4.575  0.0595 -0.8371 -0.2589
 4258SOL    HW124233   0.517   1.070   4.613  1.9762  1.3383 -1.3887
 4258SOL    HW224234   0.406   1.163   4.651 -1.4556 -0.1844 -1.3830
 4259SOL     OW24235   0.759   2.418   9.452 -0.0133 -0.1892 -0.0132
 4259SOL    HW124236   0.708   2.488   9.491  1.2717  1.7321 -1.7722
 4259SOL    HW224237   0.736   2.436   9.360  0.2043 -1.8033 -0.3937
 4260SOL     OW24238   3.681   1.807   2.805 -0.4049  0.6497  0.1966
 4260SOL    HW124239   3.761   1.819   2.754 -0.6703  0.3824 -0.2819
 4260SOL    HW224240   3.683   1.712   2.818  0.1413  0.6085 -0.1798
 4261SOL     OW24241   3.363   0.578  15.748  0.5379 -0.3089  0.4391
 4261SOL    HW124242   3.386   0.634  15.673  1.8429 -0.6572  0.5943
 4261SOL    HW224243   3.332   0.646  15.808  1.5448 -0.3157  0.9489
 4262SOL     OW24244   3.922   2.276   5.973 -0.2479 -0.5718  0.1219
 4262SOL    HW124245   3.888   2.225   6.046 -2.5613 -0.0996 -0.6267
 4262SOL    HW224246   3.900   2.218   5.900 -2.3145 -0.4188  0.6412
 4263SOL     OW24247   0.839   1.077  10.474 -0.1248 -0.2754  0.2756
 4263SOL    HW124248   0.930   1.059  10.453 -0.1974  1.7008 -1.7404
 4263SOL    HW224249   0.836   1.148  10.538  0.6352  0.0665 -0.0650
 4264SOL     OW24250   3.784   3.860   4.152  0.3593  0.1547 -0.0103
 4264SOL    HW124251   3.832   3.795   4.102  0.6011  1.3859 -1.3746
 4264SOL    HW224252   3.716   3.815   4.203 -0.0720  1.5223  0.6294
 4265SOL     OW24253   2.331   0.731   4.432  0.2041  0.3068  0.2374
 4265SOL    HW124254   2.303   0.739   4.523  0.3792  0.1661  0.3022
 4265SOL    HW224255   2.265   0.785   4.387  0.0533  1.0842  1.3854
 4266SOL     OW24256   0.168   0.576   8.879  0.3122 -0.0334 -0.0242
 4266SOL    HW124257   0.230   0.624   8.824  1.7779 -0.7597  1.0057
 4266SOL    HW224258   0.165   0.638   8.952  0.4244  0.2556 -0.2671
 4267SOL     OW24259   3.353   4.036   4.477 -0.4486  0.2683 -0.4736
 4267SOL    HW124260   3.439   4.027   4.437 -1.0749 -0.1570 -1.7299
 4267SOL    HW224261   3.302   4.094   4.420  0.0325  0.8501 -0.3066
 4268SOL     OW24262   3.341   2.135   5.309  0.2510 -0.2659 -0.8292
 4268SOL    HW124263   3.293   2.171   5.234 -2.5976 -1.3662  0.4477
 4268SOL    HW224264   3.395   2.067   5.269  0.5260 -1.3839  1.4615
 4269SOL     OW24265   3.027   4.003   7.393 -0.0338  0.3495  0.1701
 4269SOL    HW124266   3.122   4.010   7.385  0.1378  0.7106  2.4748
 4269SOL    HW224267   3.021   3.929   7.454 -1.7280 -0.6243 -1.1521
 4270SOL     OW24268   3.022   0.397  16.582 -0.1801 -0.4132 -0.1984
 4270SOL    HW124269   3.076   0.349  16.519  0.5680 -0.0410  0.1605
 4270SOL    HW224270   3.070   0.367  16.659  0.1792 -0.6481 -0.5119
 4271SOL     OW24271   2.364   0.521   8.539 -0.4777 -0.3892 -0.0121
 4271SOL    HW124272   2.347   0.436   8.500  0.1318  0.2537 -1.6741
 4271SOL    HW224273   2.297   0.575   8.498 -0.7864 -0.0152  0.9809
 4272SOL     OW24274   2.326   0.663   5.788 -0.1887 -0.1679  0.3838
 4272SOL    HW124275   2.290   0.602   5.724 -0.6426  1.8812 -1.3136
 4272SOL    HW224276   2.291   0.632   5.872  0.6270  0.3553  0.9191
 4273SOL     OW24277   2.712   3.948  13.530  0.2733  0.4755 -0.2560
 4273SOL    HW124278   2.784   3.916  13.475  0.3215  0.4655 -0.1874
 4273SOL    HW224279   2.715   4.042  13.516  0.7653  0.6216  0.7632
 4274SOL     OW24280   2.545   4.264   2.916  0.4940  0.1007 -0.0905
 4274SOL    HW124281   2.539   4.345   2.966  0.8341  0.7456 -1.1099
 4274SOL    HW224282   2.621   4.286   2.862  0.2141  0.9774 -0.1299
 4275SOL     OW24283   4.368   0.345   3.580 -0.1786  0.5498  0.2691
 4275SOL    HW124284   4.425   0.284   3.628 -0.7765  0.8925  1.4216
 4275SOL    HW224285   4.286   0.297   3.566  0.6938 -1.3670  1.6002
 4276SOL     OW24286   0.975   3.594   2.734  0.1677 -0.7995  0.1166
 4276SOL    HW124287   0.916   3.520   2.720 -1.2204  0.5890 -1.4254
 4276SOL    HW224288   0.940   3.661   2.675  0.4991 -0.3731  0.4083
 4277SOL     OW24289   1.998   2.958   6.739  0.4167 -0.3164  0.0021
 4277SOL    HW124290   2.048   3.014   6.679 -0.8269 -0.8559 -1.5339
 4277SOL    HW224291   1.953   2.905   6.673 -1.7276  0.0146  1.2133
 4278SOL     OW24292   1.399   1.563   3.173  0.5705 -0.4888 -0.4029
 4278SOL    HW124293   1.341   1.495   3.208 -0.6922  1.3764  1.1412
 4278SOL    HW224294   1.343   1.574   3.096 -0.2072  0.2971  0.2649
 4279SOL     OW24295   2.260   4.579   6.415 -0.0047 -0.1652 -0.2982
 4279SOL    HW124296   2.318   4.544   6.482  1.1177 -2.7640 -2.6384
 4279SOL    HW224297   2.187   4.520   6.435  0.3214 -0.3487  0.3658
 4280SOL     OW24298   0.207   1.045  10.135  0.2308  0.2161  0.3142
 4280SOL    HW124299   0.271   0.974  10.135  1.2058  1.0981  1.5882
 4280SOL    HW224300   0.151   1.034  10.058  0.5995  0.4819  0.0145
 4281SOL     OW24301   3.840   3.454  10.840  0.2825  0.2147  0.2688
 4281SOL    HW124302   3.766   3.457  10.901  0.8832  1.3129  0.9346
 4281SOL    HW224303   3.841   3.548  10.823 -0.8088  0.0804 -0.5088
 4282SOL     OW24304   3.894   4.282   2.402  0.5242 -0.3864 -0.1496
 4282SOL    HW124305   3.839   4.350   2.363  1.2198 -0.5733 -1.4445
 4282SOL    HW224306   3.850   4.207   2.361  0.1477  0.0345 -0.5096
 4283SOL     OW24307   2.899   0.912   4.660 -0.3364  0.6607 -0.3491
 4283SOL    HW124308   2.845   0.948   4.730 -1.0683  0.8841 -1.0309
 4283SOL    HW224309   2.857   0.946   4.581 -0.7677  0.5314 -0.1729
 4284SOL     OW24310   2.274   2.864   5.370 -0.5966  0.1480 -0.1691
 4284SOL    HW124311   2.248   2.799   5.435  0.0231  0.4146  0.3404
 4284SOL    HW224312   2.212   2.932   5.398  0.2631  0.2375  1.5579
 4285SOL     OW24313   0.595   2.840  14.675 -0.5941 -0.3531 -0.3931
 4285SOL    HW124314   0.606   2.818  14.582 -0.2622 -1.4189 -0.1008
 4285SOL    HW224315   0.508   2.880  14.667  0.1390  1.4239  0.5555
 4286SOL     OW24316   2.401   0.157   4.402 -0.1002 -0.6857  0.4264
 4286SOL    HW124317   2.471   0.159   4.337 -1.5146 -0.7666 -1.1123
 4286SOL    HW224318   2.356   0.240   4.385 -0.3191 -1.3408 -2.2481
 4287SOL     OW24319   4.292   3.178   1.793 -0.3595  0.3826  0.1105
 4287SOL    HW124320   4.249   3.262   1.779  0.1459  0.9561  1.9853
 4287SOL    HW224321   4.229   3.150   1.859 -0.5213  3.5375  1.2945
 4288SOL     OW24322   2.670   3.760  11.340  0.0452 -0.6523 -0.2262
 4288SOL    HW124323   2.646   3.827  11.404 -0.1319 -0.7287 -0.2133
 4288SOL    HW224324   2.685   3.683  11.394 -0.7789  0.3800  1.4759
 4289SOL     OW24325   2.099   2.336  14.527 -0.0810 -0.5360  0.4339
 4289SOL    HW124326   2.056   2.257  14.561 -0.3104 -0.0450  1.2822
 4289SOL    HW224327   2.072   2.409  14.582 -1.9751 -0.2467 -0.8780
 4290SOL     OW24328   1.608   4.027   6.115 -0.1116 -0.2420 -0.2253
 4290SOL    HW124329   1.585   4.082   6.040  0.9310  0.0105 -0.3714
 4290SOL    HW224330   1.595   4.082   6.193  0.9037 -0.6776  0.2610
 4291SOL     OW24331   1.409   2.499   3.530 -0.4058 -0.4518 -0.4033
 4291SOL    HW124332   1.503   2.507   3.546 -0.5143  0.0012  0.0036
 4291SOL    HW224333   1.412   2.492   3.434  1.8692 -0.8573 -0.3050
 4292SOL     OW24334   3.318   2.945  11.325 -0.0195 -0.0034 -0.5227
 4292SOL    HW124335   3.280   2.857  11.330  0.6497 -0.1981  1.1424
 4292SOL    HW224336   3.411   2.926  11.315 -0.1679  0.2509 -2.2458
 4293SOL     OW24337   4.648   2.380   4.601 -0.3219 -0.1182 -0.4075
 4293SOL    HW124338   4.641   2.395   4.695  0.6843 -0.7766 -0.2317
 4293SOL    HW224339   4.693   2.462   4.580 -0.4424  0.0462 -0.0357
 4294SOL     OW24340   4.239   1.890   7.439  0.2258 -0.3916 -0.0446
 4294SOL    HW124341   4.254   1.924   7.350  0.7993 -0.9829 -0.1773
 4294SOL    HW224342   4.143   1.896   7.437  0.3303  0.9913 -1.7525
 4295SOL     OW24343   0.909   4.388  16.758 -0.4800 -0.2597  0.4016
 4295SOL    HW124344   0.939   4.478  16.743  0.1418 -0.0951  2.6440
 4295SOL    HW224345   0.903   4.349  16.670  4.2248  0.6574 -0.2916
 4296SOL     OW24346   2.875   3.593   5.859  0.0655  0.5626  0.1532
 4296SOL    HW124347   2.934   3.531   5.902  1.3437  2.3170  0.9257
 4296SOL    HW224348   2.911   3.678   5.881 -0.7229  0.5043  1.6979
 4297SOL     OW24349   3.050   2.475   6.663 -0.0793 -0.8556 -0.5550
 4297SOL    HW124350   3.061   2.570   6.667 -1.0146 -0.8357  1.4111
 4297SOL    HW224351   3.000   2.451   6.741  1.8497  0.2269  0.9829
 4298SOL     OW24352   0.618   2.876   8.048  0.4932 -0.4601 -0.0123
 4298SOL    HW124353   0.602   2.783   8.067 -0.4652  0.0274  1.5392
 4298SOL    HW224354   0.607   2.873   7.953 -2.4850 -0.0995  0.3151
 4299SOL     OW24355   2.425   4.092  15.741 -0.1246 -0.6055 -0.1940
 4299SOL    HW124356   2.334   4.067  15.724 -0.3787  1.3069 -1.7484
 4299SOL    HW224357   2.475   4.015  15.715 -3.7425 -2.7406 -0.8076
 4300SOL     OW24358   3.781   1.556   1.628 -0.1459  0.5480 -0.4141
 4300SOL    HW124359   3.778   1.638   1.678 -0.3511 -0.3845  1.1031
 4300SOL    HW224360   3.859   1.507   1.653 -0.1784  0.9639  0.4892
 4301SOL     OW24361   3.574   1.192   7.288  0.3906  1.0994 -0.0427
 4301SOL    HW124362   3.606   1.115   7.242 -0.3466  0.2754  0.8297
 4301SOL    HW224363   3.653   1.227   7.331  0.5526 -1.1217  1.4476
 4302SOL     OW24364   2.815   0.040   8.778  0.8058  0.4561  0.2907
 4302SOL    HW124365   2.863   0.117   8.808  0.6485  1.1607 -1.3095
 4302SOL    HW224366   2.830   0.053   8.685  0.2659  0.1063  0.1537
 4303SOL     OW24367   2.611   1.082   3.370 -0.1381 -0.1158  0.4177
 4303SOL    HW124368   2.517   1.098   3.362 -0.5036 -1.6359  1.6569
 4303SOL    HW224369   2.636   1.166   3.332  3.6063 -0.1919  2.7061
 4304SOL     OW24370   3.592   2.600   3.073  0.2647 -0.1571  0.0960
 4304SOL    HW124371   3.497   2.584   3.075  0.5313 -1.6156  1.1294
 4304SOL    HW224372   3.619   2.559   2.991 -0.2660  0.2584 -0.2816
 4305SOL     OW24373   0.215   1.355   4.234 -0.1373  0.1476  0.9731
 4305SOL    HW124374   0.284   1.419   4.254 -0.4153  0.7435  0.0479
 4305SOL    HW224375   0.141   1.414   4.219  0.1269  0.9585  2.8391
 4306SOL     OW24376   4.024   4.423   4.875  0.3188 -0.1622 -0.3565
 4306SOL    HW124377   4.115   4.441   4.851  0.7112 -0.1390  1.1791
 4306SOL    HW224378   4.007   4.496   4.934 -0.8400 -0.7579  0.0477
 4307SOL     OW24379   1.391   4.103   5.077 -0.2330 -0.2486 -0.0765
 4307SOL    HW124380   1.467   4.160   5.092  0.4656 -0.9292 -1.0207
 4307SOL    HW224381   1.323   4.169   5.086  0.3879  0.2348  1.0493
 4308SOL     OW24382   1.399   0.948   3.057 -0.1904 -0.8283  0.1350
 4308SOL    HW124383   1.466   0.911   3.000 -0.3576  0.0096 -0.5967
 4308SOL    HW224384   1.430   0.927   3.146  1.3423  0.2190 -0.1477
 4309SOL     OW24385   0.841   2.702   9.154  0.3315  0.1577  0.4179
 4309SOL    HW124386   0.840   2.644   9.078  1.9529 -1.3823  1.5626
 4309SOL    HW224387   0.780   2.649   9.205 -0.0138  0.5645  0.4319
 4310SOL     OW24388   0.976   0.163   9.011 -0.1531 -0.6113  0.5493
 4310SOL    HW124389   0.983   0.256   9.032 -1.2508 -0.6236  0.9722
 4310SOL    HW224390   0.984   0.120   9.096  1.1966 -0.3730  0.5428
 4311SOL     OW24391   3.150   4.417  14.070 -0.3636  0.0095  0.1138
 4311SOL    HW124392   3.229   4.411  14.016  0.3761  0.9103  1.1045
 4311SOL    HW224393   3.126   4.330  14.101  0.1228  0.7539  2.5337
 4312SOL     OW24394   3.448   2.620   3.671 -0.7151 -0.6537  0.2307
 4312SOL    HW124395   3.446   2.568   3.751  0.2170 -1.9483 -0.5877
 4312SOL    HW224396   3.357   2.643   3.653 -0.9444 -0.6538  1.4175
 4313SOL     OW24397   1.146   1.844   8.479 -0.1754  0.6038  0.4974
 4313SOL    HW124398   1.233   1.819   8.447 -0.4242  1.7057 -1.0495
 4313SOL    HW224399   1.091   1.772   8.449  1.0408 -0.6930  1.3740
 4314SOL     OW24400   1.698   0.100  13.075  0.0582 -0.0425 -0.3820
 4314SOL    HW124401   1.622   0.079  13.130  1.3400 -0.8113  1.1038
 4314SOL    HW224402   1.744   0.017  13.068 -0.2471 -0.2351 -0.1287
 4315SOL     OW24403   1.188   4.236   5.192  0.3016  0.2424  0.0508
 4315SOL    HW124404   1.093   4.228   5.202  0.3738 -1.5197 -0.6847
 4315SOL    HW224405   1.209   4.158   5.243  2.0909  0.1574 -0.8135
 4316SOL     OW24406   3.943   2.516   5.086  0.3771  0.0998  0.1078
 4316SOL    HW124407   4.024   2.513   5.136  0.9879  0.0673 -0.8856
 4316SOL    HW224408   3.885   2.455   5.131  1.0266  0.2272  1.0917
 4317SOL     OW24409   1.638   4.403   6.365  0.4801  1.1402  0.0207
 4317SOL    HW124410   1.630   4.470   6.297  0.8723  0.8812 -0.2840
 4317SOL    HW224411   1.630   4.452   6.447  0.4517  1.1113  0.0352
 4318SOL     OW24412   3.663   1.479  10.546 -0.1353  0.0201 -0.2915
 4318SOL    HW124413   3.740   1.526  10.579 -0.6098 -0.2300  1.1674
 4318SOL    HW224414   3.701   1.427  10.476  1.4231  0.6753  0.0604
 4319SOL     OW24415   3.691   4.640   5.317  0.4582 -0.2954 -0.3608
 4319SOL    HW124416   3.649   4.645   5.231  1.2748  1.3047 -0.6740
 4319SOL    HW224417   3.616   4.658   5.374  1.2746 -2.4637  1.3984
 4320SOL     OW24418   1.037   0.129  16.129 -0.0269  0.6149 -0.2399
 4320SOL    HW124419   0.992   0.087  16.056  2.2543 -0.3805 -1.0727
 4320SOL    HW224420   1.047   0.217  16.094 -0.2215  0.0943 -1.5902
 4321SOL     OW24421   3.137   3.897   8.914  0.5940 -0.8356 -0.2884
 4321SOL    HW124422   3.167   3.820   8.865  0.0604 -1.0807 -0.2280
 4321SOL    HW224423   3.203   3.903   8.983  0.5120  1.6380 -0.4284
 4322SOL     OW24424   0.633   1.828  10.169 -0.4614  0.5964 -0.2636
 4322SOL    HW124425   0.685   1.801  10.245 -0.1831  1.6922 -0.0736
 4322SOL    HW224426   0.657   1.757  10.108 -0.9283 -1.7054  2.2239
 4323SOL     OW24427   2.125   4.102   6.826  0.0252 -0.1093 -0.1671
 4323SOL    HW124428   2.185   4.166   6.788  0.2999  0.3441  1.0249
 4323SOL    HW224429   2.041   4.125   6.786  0.3189  0.2482 -0.5732
 4324SOL     OW24430   0.225   1.263   9.576  0.5130  0.1495  0.1524
 4324SOL    HW124431   0.290   1.302   9.518 -0.3032 -0.3828 -1.1398
 4324SOL    HW224432   0.275   1.184   9.595  2.1949  0.9661 -0.9515
 4325SOL     OW24433   2.239   0.031   8.306  0.0410 -0.2055 -0.1967
 4325SOL    HW124434   2.192   0.105   8.345 -0.5179 -0.1027 -1.0422
 4325SOL    HW224435   2.253   4.700   8.383 -2.1969 -0.2486  0.1798
 4326SOL     OW24436   4.696   1.314  14.729  0.1687  0.2011  0.1062
 4326SOL    HW124437   0.030   1.332  14.654  1.7112 -0.7823  1.0371
 4326SOL    HW224438   0.037   1.316  14.801  2.0189  2.3152 -1.5973
 4327SOL     OW24439   4.092   3.507   4.380  0.5359 -0.1605  0.1991
 4327SOL    HW124440   4.041   3.452   4.321 -0.4383  0.2281  0.6767
 4327SOL    HW224441   4.048   3.495   4.464  0.8614 -0.2733  0.3552
 4328SOL     OW24442   0.905   0.267   4.901  0.1232  0.0025 -0.4610
 4328SOL    HW124443   0.838   0.201   4.884 -0.7450  0.1423  2.4171
 4328SOL    HW224444   0.882   0.328   4.832 -0.1202 -0.5353 -0.8541
 4329SOL     OW24445   3.390   1.294  10.535  0.2739  0.6655  0.2248
 4329SOL    HW124446   3.391   1.370  10.593 -0.8071 -0.7486  2.0881
 4329SOL    HW224447   3.363   1.339  10.455 -1.3507  0.3475  0.6070
 4330SOL     OW24448   0.152   2.520   2.379 -0.0328  0.7555  0.2876
 4330SOL    HW124449   0.162   2.609   2.414  0.2148  0.0494  2.0153
 4330SOL    HW224450   0.243   2.490   2.379 -0.7312 -1.3954 -2.4675
 4331SOL     OW24451   0.535   2.517   8.936 -0.1414  0.9676  0.2987
 4331SOL    HW124452   0.541   2.422   8.933  0.9817  1.0302  0.5975
 4331SOL    HW224453   0.549   2.537   8.844  1.2576 -0.2028  0.2595
 4332SOL     OW24454   3.901   1.398   9.606 -0.1831 -0.3426  0.1588
 4332SOL    HW124455   3.878   1.341   9.533 -1.2001 -0.0650  0.2584
 4332SOL    HW224456   3.907   1.344   9.685 -1.2984  0.0241  0.4971
 4333SOL     OW24457   1.018   3.499   3.055  0.2939  0.3990  0.1542
 4333SOL    HW124458   1.110   3.483   3.079 -0.0335 -0.6508  0.7453
 4333SOL    HW224459   1.009   3.430   2.989 -1.9284  1.2131 -0.3879
 4334SOL     OW24460   1.053   1.044  10.872 -0.3556 -0.5712 -0.6962
 4334SOL    HW124461   1.028   0.989  10.798 -3.2542 -0.4777  0.2378
 4334SOL    HW224462   0.984   1.028  10.936  0.8998 -0.6798  0.6530
 4335SOL     OW24463   3.421   4.635   3.900 -0.0491 -0.0921  0.4104
 4335SOL    HW124464   3.362   4.567   3.934 -1.5661  0.8450 -0.3515
 4335SOL    HW224465   3.360   4.701   3.868  0.0041  1.0229  2.5611
 4336SOL     OW24466   4.388   0.011   6.450  0.0528 -0.1369 -0.0627
 4336SOL    HW124467   4.477   0.043   6.466  0.3021 -1.1386  0.5730
 4336SOL    HW224468   4.397   4.639   6.461  0.2525 -0.1008  0.0864
 4337SOL     OW24469   3.846   0.065   8.230 -0.5352  0.5850  0.2593
 4337SOL    HW124470   3.838   0.129   8.301  1.6224 -0.6023  1.5739
 4337SOL    HW224471   3.926   0.082   8.180 -1.2206  1.0590 -0.6623
 4338SOL     OW24472   4.468   3.159   7.770  0.1030 -0.6399 -0.6604
 4338SOL    HW124473   4.451   3.149   7.676 -1.9327 -0.8613 -0.2765
 4338SOL    HW224474   4.502   3.071   7.787 -0.1860 -0.6724 -0.2503
 4339SOL     OW24475   1.776   3.655  15.160 -0.2688  0.6623 -1.0530
 4339SOL    HW124476   1.868   3.632  15.171 -0.5583  0.3518  0.8305
 4339SOL    HW224477   1.742   3.584  15.214  2.0234  1.4125  1.4183
 4340SOL     OW24478   4.103   4.235   0.473  0.0993  0.8219 -0.3817
 4340SOL    HW124479   4.070   4.176   0.405 -1.9435  0.7842  0.6432
 4340SOL    HW224480   4.154   4.301   0.426 -0.2005  1.1640 -0.2304
 4341SOL     OW24481   2.445   3.842  13.519 -0.0636 -0.4905  0.2687
 4341SOL    HW124482   2.534   3.873  13.538 -0.0997 -1.3057  1.7336
 4341SOL    HW224483   2.411   3.910  13.461 -1.1916 -0.5360  0.8959
 4342SOL     OW24484   4.517   2.194   3.295  0.4235 -0.4756  1.0951
 4342SOL    HW124485   4.517   2.232   3.207  0.2981 -0.7077  0.9942
 4342SOL    HW224486   4.581   2.122   3.294  0.2695 -0.6069  0.6309
 4343SOL     OW24487   1.576   0.338  11.495 -0.1900  0.2307  0.0990
 4343SOL    HW124488   1.638   0.290  11.550 -1.5313 -1.8742 -0.2001
 4343SOL    HW224489   1.635   0.412  11.484 -0.0652  0.1018 -0.0758
 4344SOL     OW24490   0.687   2.127   2.346 -0.3657 -0.3545  0.2301
 4344SOL    HW124491   0.606   2.154   2.304  0.7137 -0.4704 -1.9520
 4344SOL    HW224492   0.673   2.170   2.431 -1.7586  2.0055 -1.2129
 4345SOL     OW24493   0.252   2.324   4.431 -0.2491  0.0074  0.2054
 4345SOL    HW124494   0.176   2.273   4.459  1.8066 -1.8318  2.4097
 4345SOL    HW224495   0.219   2.413   4.444 -2.9265 -1.0831  0.8176
 4346SOL     OW24496   1.798   0.564   6.656  0.1813  0.0762  0.3459
 4346SOL    HW124497   1.833   0.549   6.744 -0.2406  0.5271  0.5891
 4346SOL    HW224498   1.708   0.578   6.684 -0.0159 -2.4123  0.9589
 4347SOL     OW24499   4.484   4.269   1.310  0.4425 -0.3534  0.4285
 4347SOL    HW124500   4.425   4.339   1.281  0.6017 -0.3043  0.2315
 4347SOL    HW224501   4.424   4.195   1.300  2.2533 -1.4814 -1.9058
 4348SOL     OW24502   3.736   3.149   8.220  0.3223 -0.0963 -0.1006
 4348SOL    HW124503   3.831   3.153   8.214  0.2573  0.8154 -0.5481
 4348SOL    HW224504   3.725   3.239   8.252 -0.8858 -0.6349  0.9876
 4349SOL     OW24505   2.093   2.193   6.681  0.0286 -0.0558 -0.1944
 4349SOL    HW124506   2.061   2.144   6.606  2.6624 -2.2439  0.0865
 4349SOL    HW224507   2.115   2.117   6.735 -0.6613  0.9878  1.5628
 4350SOL     OW24508   4.592   3.546  12.001  0.1039 -0.1470 -0.0651
 4350SOL    HW124509   4.545   3.467  11.976  0.4315  0.3558 -2.2517
 4350SOL    HW224510   4.608   3.527  12.094 -0.3803 -0.1174  0.0255
 4351SOL     OW24511   4.411   3.647   2.311 -0.0984 -0.2595  0.0865
 4351SOL    HW124512   4.419   3.607   2.398  2.5211 -0.4739 -0.2309
 4351SOL    HW224513   4.431   3.739   2.323 -0.3249 -0.2533  0.4011
 4352SOL     OW24514   2.605   2.477  17.023 -0.1103 -0.1903 -0.2672
 4352SOL    HW124515   2.512   2.497  17.006 -0.8177 -2.1207  1.3468
 4352SOL    HW224516   2.638   2.545  16.964 -1.1458  2.3144  2.0038
 4353SOL     OW24517   3.402   2.462   8.318  0.6418 -0.4997 -0.0297
 4353SOL    HW124518   3.472   2.497   8.263  1.1340 -1.3653  0.0393
 4353SOL    HW224519   3.454   2.462   8.399  0.5561  0.3568  0.0284
 4354SOL     OW24520   4.607   0.271   4.834  0.1871  0.3455  0.1928
 4354SOL    HW124521   4.560   0.220   4.768  1.7197  1.2753 -1.5971
 4354SOL    HW224522   4.642   0.348   4.789  0.7003  0.7336  1.2600
 4355SOL     OW24523   0.167   2.795  15.735 -0.2197  0.1254 -0.3193
 4355SOL    HW124524   0.228   2.843  15.680  1.4991  0.4154  1.8518
 4355SOL    HW224525   0.088   2.812  15.685 -0.2440  1.0452  0.0253
 4356SOL     OW24526   3.375   1.439   7.301  0.5109 -0.1577  0.8828
 4356SOL    HW124527   3.444   1.377   7.325 -1.4699 -2.1828  1.3019
 4356SOL    HW224528   3.303   1.411   7.357 -0.9218  0.6782 -0.5634
 4357SOL     OW24529   2.647   1.597   5.667  0.6592 -0.0518  0.0888
 4357SOL    HW124530   2.639   1.532   5.738  0.2170 -0.0807  0.0129
 4357SOL    HW224531   2.728   1.646   5.679 -0.0139  0.9566  0.5908
 4358SOL     OW24532   3.448   2.680   5.788 -0.0520  0.5376  0.2400
 4358SOL    HW124533   3.394   2.738   5.841 -0.8984  1.3395 -1.4990
 4358SOL    HW224534   3.390   2.674   5.712 -1.7672 -0.3720  1.6536
 4359SOL     OW24535   1.169   2.602  16.905  0.1512 -0.6356 -0.0162
 4359SOL    HW124536   1.110   2.589  16.979 -0.5033  1.7437 -0.1307
 4359SOL    HW224537   1.185   2.511  16.880 -2.2050 -0.7760 -1.0408
 4360SOL     OW24538   1.427   4.602   4.302  0.2861  0.2967 -0.4222
 4360SOL    HW124539   1.509   4.584   4.347 -0.6702 -1.3988  0.6705
 4360SOL    HW224540   1.386   4.517   4.320  0.7196 -0.7503 -4.2632
 4361SOL     OW24541   1.402   4.555  15.896 -0.5725  0.2570 -0.1730
 4361SOL    HW124542   1.313   4.564  15.860 -0.7782  0.8200  0.4666
 4361SOL    HW224543   1.454   4.576  15.818 -2.2275  1.8264 -0.8528
 4362SOL     OW24544   2.713   2.378   7.750 -0.6181 -0.1419  0.2320
 4362SOL    HW124545   2.638   2.380   7.809 -1.7824 -1.4170 -1.1974
 4362SOL    HW224546   2.689   2.435   7.676 -1.0288 -0.1578  0.3548
 4363SOL     OW24547   0.398   1.831  14.804  0.1572  0.2076  0.0264
 4363SOL    HW124548   0.372   1.813  14.895  0.4346  1.4315  0.3533
 4363SOL    HW224549   0.338   1.899  14.775 -0.5195 -0.5292 -0.3002
 4364SOL     OW24550   2.192   2.702   7.065  0.5105  0.3477 -0.3730
 4364SOL    HW124551   2.193   2.709   6.970 -0.5020 -2.6159 -0.6199
 4364SOL    HW224552   2.144   2.783   7.084 -0.2095 -0.4585  1.2427
 4365SOL     OW24553   4.497   3.865   8.257 -0.4142  0.2427 -0.0774
 4365SOL    HW124554   4.533   3.785   8.219  1.5089  2.1794 -2.3604
 4365SOL    HW224555   4.574   3.898   8.303 -1.5813 -1.0438  2.7802
 4366SOL     OW24556   0.985   2.187   8.119  0.2953 -0.1508 -0.1429
 4366SOL    HW124557   0.945   2.102   8.135 -0.0908  0.1646  0.5671
 4366SOL    HW224558   1.063   2.168   8.066 -0.4676  0.7731 -1.6054
 4367SOL     OW24559   4.221   4.181  12.447  0.5546 -0.4038 -0.0196
 4367SOL    HW124560   4.213   4.088  12.425 -2.8196  0.0958 -0.9071
 4367SOL    HW224561   4.299   4.172  12.502 -0.1185 -0.1411  0.9763
 4368SOL     OW24562   2.623   4.583  17.595  0.3134 -0.3085  0.1342
 4368SOL    HW124563   2.669   4.564  17.513 -0.6334  0.0420 -0.4669
 4368SOL    HW224564   2.600   4.675  17.586 -0.8378 -0.5721  0.4023
 4369SOL     OW24565   4.422   1.418   6.407 -0.1120  0.4764 -0.1227
 4369SOL    HW124566   4.457   1.446   6.492 -0.2291  0.7301 -0.1559
 4369SOL    HW224567   4.455   1.489   6.351 -2.0595  2.0567  0.7329
 4370SOL     OW24568   1.941   0.099   4.774  0.2998 -0.0721  0.1532
 4370SOL    HW124569   2.004   0.135   4.836 -0.1715 -0.5669  0.9268
 4370SOL    HW224570   1.996   0.088   4.696 -0.4134  1.3341 -0.5395
 4371SOL     OW24571   2.185   3.780   8.102  0.5559  0.2379 -0.3867
 4371SOL    HW124572   2.119   3.753   8.038  1.3394 -1.9401 -0.2521
 4371SOL    HW224573   2.216   3.699   8.142 -0.5627  0.1534  0.3032
 4372SOL     OW24574   3.133   1.151   1.819 -0.0778 -1.3264  0.0076
 4372SOL    HW124575   3.184   1.073   1.842  1.3126 -0.3578  0.2616
 4372SOL    HW224576   3.077   1.160   1.896 -1.6211 -2.7236 -0.9654
 4373SOL     OW24577   3.057   3.353  15.875  0.5342 -0.2153  0.0695
 4373SOL    HW124578   3.093   3.303  15.948 -1.7129 -1.6975  0.1573
 4373SOL    HW224579   3.131   3.351  15.815 -0.1480  1.6567 -0.8540
 4374SOL     OW24580   2.621   1.008   7.719  0.2077  0.0927 -0.0032
 4374SOL    HW124581   2.657   0.920   7.710 -1.3616 -0.4745 -0.8155
 4374SOL    HW224582   2.544   1.010   7.662  1.5280  0.8422 -1.7284
 4375SOL     OW24583   3.084   1.614   3.564  0.0392 -0.2591  0.3896
 4375SOL    HW124584   3.009   1.623   3.623 -0.9319  0.2948 -0.9297
 4375SOL    HW224585   3.037   1.611   3.481  1.8857 -1.0565 -0.6124
 4376SOL     OW24586   1.750   4.142   8.327  0.4626 -0.0281  0.1360
 4376SOL    HW124587   1.730   4.079   8.396 -3.6652  1.6672  0.4656
 4376SOL    HW224588   1.666   4.188   8.324  1.0108  1.1386  2.7488
 4377SOL     OW24589   4.360   0.819  17.252 -0.1824  0.4515 -0.1667
 4377SOL    HW124590   4.283   0.796  17.304 -1.6093  0.4621 -2.3061
 4377SOL    HW224591   4.428   0.838  17.317  1.1532  0.2508 -1.5169
 4378SOL     OW24592   0.631   0.181   5.263 -0.8357  0.5556 -0.2363
 4378SOL    HW124593   0.613   0.261   5.314  0.8901  0.8192 -0.0506
 4378SOL    HW224594   0.573   0.194   5.188 -1.5397 -3.0548 -0.2881
 4379SOL     OW24595   0.667   1.138   0.578  0.1979  0.2933 -0.4850
 4379SOL    HW124596   0.627   1.059   0.614  0.2016 -0.7801 -2.8458
 4379SOL    HW224597   0.593   1.188   0.545 -0.2251  1.7709  2.7317
 4380SOL     OW24598   1.174   4.084   8.139  0.5713 -0.1042 -0.1869
 4380SOL    HW124599   1.214   4.151   8.196  1.1461 -1.7070  1.3091
 4380SOL    HW224600   1.097   4.134   8.113  1.0363  0.2482 -0.8946
 4381SOL     OW24601   0.062   2.494   4.970  0.2042  0.4158 -0.3581
 4381SOL    HW124602   0.039   2.570   4.918  1.9090  0.3714 -1.1737
 4381SOL    HW224603   4.722   2.427   4.942  0.0962  0.9739 -1.4396
 4382SOL     OW24604   2.155   2.597   4.933 -0.0196  0.4607  0.0060
 4382SOL    HW124605   2.130   2.505   4.925 -1.5590  0.6695  2.2771
 4382SOL    HW224606   2.243   2.593   4.969  0.7639  0.1371 -1.9047
 4383SOL     OW24607   1.672   0.041  16.569 -0.2564 -0.3130 -0.1140
 4383SOL    HW124608   1.754   0.071  16.529  0.3716  0.0131  1.4138
 4383SOL    HW224609   1.696   0.021  16.660  1.1629 -0.6095 -0.5422
 4384SOL     OW24610   0.186   2.628  13.522 -0.1659 -0.1057 -0.4071
 4384SOL    HW124611   0.186   2.721  13.546  0.1424 -0.0182 -0.7406
 4384SOL    HW224612   0.159   2.630  13.430 -1.3087  0.2711 -0.0547
 4385SOL     OW24613   4.294   3.176   3.244 -0.1314  0.0317  0.3011
 4385SOL    HW124614   4.202   3.151   3.254  0.0836 -0.7833  0.2194
 4385SOL    HW224615   4.287   3.272   3.251  0.4524  0.1329 -0.4631
 4386SOL     OW24616   1.782   2.708   3.154  0.2577 -0.5802 -0.1257
 4386SOL    HW124617   1.771   2.622   3.113 -2.7392 -0.1799 -0.0957
 4386SOL    HW224618   1.876   2.720   3.137  0.1286 -0.8017 -1.0233
 4387SOL     OW24619   2.557   1.876  12.114  0.2118  0.1665  0.1369
 4387SOL    HW124620   2.546   1.840  12.025 -0.4787  1.1844 -0.1901
 4387SOL    HW224621   2.488   1.843  12.170 -0.4085 -2.9012 -2.4210
 4388SOL     OW24622   2.848   0.319   9.507  0.3708 -0.0243  0.3747
 4388SOL    HW124623   2.841   0.405   9.467 -1.0076 -0.3990 -0.1611
 4388SOL    HW224624   2.758   0.289   9.519  0.1352  0.6838  0.3850
 4389SOL     OW24625   3.388   3.768  12.801 -0.4181 -0.3796 -0.0395
 4389SOL    HW124626   3.332   3.789  12.876 -0.1643  0.4487 -0.0836
 4389SOL    HW224627   3.390   3.673  12.803  1.9742 -0.4191 -3.7439
 4390SOL     OW24628   1.008   3.174  12.694  0.0000  0.0373  0.4811
 4390SOL    HW124629   1.092   3.204  12.659 -0.4343  0.7975  0.0877
 4390SOL    HW224630   0.954   3.244  12.657  0.8921  0.2176 -0.4859
 4391SOL     OW24631   0.413   3.353   3.622  0.1528  0.0881  0.1011
 4391SOL    HW124632   0.448   3.302   3.549 -0.7680  1.6445 -1.4261
 4391SOL    HW224633   0.321   3.329   3.632  0.2827 -0.0560  0.9686
 4392SOL     OW24634   2.091   1.887   8.404  0.1160  0.2886 -0.2148
 4392SOL    HW124635   2.186   1.878   8.408  0.3062  2.7787  0.7167
 4392SOL    HW224636   2.074   1.861   8.313  0.0364  1.7515 -0.6200
 4393SOL     OW24637   1.624   0.553   0.728 -0.3457  0.6442 -0.4381
 4393SOL    HW124638   1.590   0.543   0.639 -1.8072  2.4174 -0.0752
 4393SOL    HW224639   1.607   0.470   0.771  0.9748  0.1608 -0.8355
 4394SOL     OW24640   0.818   3.076   6.817  0.1539  0.1020  0.1892
 4394SOL    HW124641   0.762   3.128   6.874  1.1534  0.6133  0.7101
 4394SOL    HW224642   0.761   3.003   6.794 -1.1646  0.8197  1.1686
 4395SOL     OW24643   1.031   1.610   0.124 -0.6058 -0.2209 -0.0635
 4395SOL    HW124644   1.081   1.528   0.122  0.1481  0.2332  0.1260
 4395SOL    HW224645   0.978   1.590   0.200 -0.3232 -2.6369 -0.4870
 4396SOL     OW24646   2.731   3.193   6.730  0.8962 -0.3996  0.0857
 4396SOL    HW124647   2.788   3.161   6.800  2.2100 -1.7045 -1.5865
 4396SOL    HW224648   2.746   3.128   6.662 -1.0199 -2.2256  1.4403
 4397SOL     OW24649   4.297   2.452   3.565  0.1324 -0.1193  0.9811
 4397SOL    HW124650   4.227   2.421   3.507 -0.1102 -0.7066  1.5824
 4397SOL    HW224651   4.303   2.539   3.526 -0.7679  0.1467  1.4257
 4398SOL     OW24652   3.433   3.398  12.442  0.1861  0.5345  0.4517
 4398SOL    HW124653   3.422   3.437  12.355  0.6254  0.6338  0.4462
 4398SOL    HW224654   3.463   3.312  12.410  1.2568  1.1118 -0.0844
 4399SOL     OW24655   1.606   3.455   9.877  0.2739 -0.3700  0.3057
 4399SOL    HW124656   1.552   3.484   9.951 -1.2152  1.2774 -1.4532
 4399SOL    HW224657   1.694   3.489   9.890 -0.3679  1.5501 -0.4722
 4400SOL     OW24658   0.995   0.474  15.854 -0.2160 -0.0974  0.2465
 4400SOL    HW124659   1.027   0.522  15.777 -2.9371 -1.2857 -1.6106
 4400SOL    HW224660   1.011   0.383  15.831 -2.1473 -0.3932  0.0548
 4401SOL     OW24661   2.884   0.571  14.306 -0.0927 -0.2914  0.1155
 4401SOL    HW124662   2.806   0.579  14.252 -0.8543 -2.0169  0.9510
 4401SOL    HW224663   2.913   0.483  14.281 -0.8161 -0.3980 -0.3364
 4402SOL     OW24664   4.059   3.943   3.812 -0.3611 -0.3466 -0.0587
 4402SOL    HW124665   4.123   3.881   3.775 -0.2451  0.4139 -1.1581
 4402SOL    HW224666   4.029   3.991   3.734 -2.0733  0.3204  1.0138
 4403SOL     OW24667   1.488   1.885  14.855 -0.3477 -0.0130 -0.1678
 4403SOL    HW124668   1.437   1.846  14.784  0.5873  0.0084 -0.8452
 4403SOL    HW224669   1.577   1.855  14.836 -0.8529 -2.6220  1.5628
 4404SOL     OW24670   1.263   0.944   8.168 -0.5730  0.2679  0.4078
 4404SOL    HW124671   1.171   0.919   8.181 -0.3195 -0.5229  0.7021
 4404SOL    HW224672   1.275   1.015   8.230  0.1401  2.1415 -1.8975
 4405SOL     OW24673   3.877   2.271   0.247  0.0467 -0.3693  0.3114
 4405SOL    HW124674   3.864   2.181   0.279 -1.5020 -0.6862 -1.1823
 4405SOL    HW224675   3.791   2.309   0.267  0.6303  1.4775 -0.7085
 4406SOL     OW24676   1.632   1.686   3.534  0.0156  0.3632  0.2254
 4406SOL    HW124677   1.674   1.768   3.509 -0.6745  0.5561 -0.3074
 4406SOL    HW224678   1.711   1.645   3.569 -0.2254 -0.4648 -0.1875
 4407SOL     OW24679   1.616   3.799   2.927  0.4645 -0.1393 -0.5377
 4407SOL    HW124680   1.678   3.738   2.887  1.6041 -0.0787  1.1374
 4407SOL    HW224681   1.628   3.889   2.897 -0.9454  0.2240  0.0297
 4408SOL     OW24682   4.101   2.004  17.626  0.2409 -0.3413 -0.2652
 4408SOL    HW124683   4.079   2.045   0.017  0.1527 -2.0619  0.5746
 4408SOL    HW224684   4.048   2.045  17.558  0.1662 -0.1947 -0.1199
 4409SOL     OW24685   2.680   4.344   1.206 -0.4079  0.3415 -0.0048
 4409SOL    HW124686   2.662   4.434   1.180  3.3605  0.7650 -1.2120
 4409SOL    HW224687   2.775   4.348   1.222 -0.8615  1.7039  2.2860
 4410SOL     OW24688   0.070   3.329   3.506 -0.4626  0.1850 -0.0903
 4410SOL    HW124689   0.046   3.335   3.413  1.9583  1.2469 -0.6480
 4410SOL    HW224690   0.041   3.410   3.546  0.1824 -0.1518  1.0543
 4411SOL     OW24691   0.660   2.165   9.633  0.1269 -0.6660 -0.2767
 4411SOL    HW124692   0.572   2.201   9.623 -0.9051 -2.6587  1.7239
 4411SOL    HW224693   0.717   2.236   9.661  0.7285 -0.6167 -1.5896
 4412SOL     OW24694   0.092   1.064   8.149 -0.0179 -0.1529 -0.1458
 4412SOL    HW124695   0.085   0.979   8.105 -1.2205  0.5264 -1.2580
 4412SOL    HW224696   0.137   1.054   8.233 -0.3761 -1.9909 -0.1603
 4413SOL     OW24697   1.066   2.918   1.406 -0.0755  0.0390 -0.0577
 4413SOL    HW124698   1.006   2.871   1.349 -0.4053 -0.3462  0.6067
 4413SOL    HW224699   1.096   2.981   1.341 -1.1614  0.9246  0.2890
 4414SOL     OW24700   2.866   1.649   2.879 -0.3757  0.4860 -0.1945
 4414SOL    HW124701   2.843   1.567   2.837  2.6987  0.2521 -1.4094
 4414SOL    HW224702   2.828   1.714   2.821  0.4987 -0.6749 -2.0579
 4415SOL     OW24703   1.025   4.424   0.864  0.1192  0.9243  0.3456
 4415SOL    HW124704   1.020   4.520   0.860 -1.2910  0.8870  1.1614
 4415SOL    HW224705   1.043   4.394   0.953  1.2903 -1.2843 -0.6632
 4416SOL     OW24706   2.395   0.845   3.475  0.4041  0.0582 -0.2421
 4416SOL    HW124707   2.490   0.835   3.482  0.3758  0.1222  0.2162
 4416SOL    HW224708   2.375   0.816   3.386  1.6812  0.9132 -0.8061
 4417SOL     OW24709   1.496   2.808  16.222  0.0622 -0.1813 -0.3371
 4417SOL    HW124710   1.445   2.884  16.198 -0.1159 -0.4352 -0.7574
 4417SOL    HW224711   1.524   2.813  16.313 -0.1399  0.4819 -0.3188
 4418SOL     OW24712   1.372   0.253   7.201  0.2939  0.5272 -0.1107
 4418SOL    HW124713   1.379   0.343   7.233 -1.2022  0.7992 -0.5167
 4418SOL    HW224714   1.291   0.254   7.149 -0.6333  0.3927  1.3129
 4419SOL     OW24715   3.769   0.835   7.800 -0.8115 -0.0277 -0.3463
 4419SOL    HW124716   3.832   0.896   7.762 -0.1398 -0.7766 -0.4331
 4419SOL    HW224717   3.823   0.755   7.797  0.3956  0.7600  0.4784
 4420SOL     OW24718   3.528   2.236   3.155 -0.1082 -0.3098  0.2090
 4420SOL    HW124719   3.570   2.191   3.228  0.9364 -0.8652 -0.7312
 4420SOL    HW224720   3.555   2.328   3.161  1.2266 -0.5540 -1.8630
 4421SOL     OW24721   4.632   3.082  15.237 -0.5092 -0.3986 -0.0668
 4421SOL    HW124722   4.590   3.012  15.186 -0.7208  0.2177 -0.7383
 4421SOL    HW224723   4.716   3.066  15.193  0.0069  1.0307  0.4229
 4422SOL     OW24724   1.528   0.112   5.466  0.1478  0.1889 -0.2412
 4422SOL    HW124725   1.488   0.051   5.404  1.1552 -1.0996  0.3942
 4422SOL    HW224726   1.453   0.168   5.488  0.3368  0.7405 -0.9901
 4423SOL     OW24727   0.785   3.054  12.560  0.7489 -0.3699  0.8422
 4423SOL    HW124728   0.828   3.030  12.642  3.2380  0.2651 -0.2823
 4423SOL    HW224729   0.855   3.062  12.496 -0.6382  3.0383 -0.2714
 4424SOL     OW24730   1.233   3.758  13.429 -0.0158  0.3997 -0.3878
 4424SOL    HW124731   1.222   3.850  13.408  0.2937  0.7727  1.0410
 4424SOL    HW224732   1.323   3.762  13.461  0.9512  0.8371 -3.2407
 4425SOL     OW24733   0.181   0.282   3.280 -0.5447  0.2714 -0.6949
 4425SOL    HW124734   0.208   0.354   3.337 -0.4359  0.3727 -0.8729
 4425SOL    HW224735   0.260   0.242   3.244 -0.2942 -0.0314  0.2058
 4426SOL     OW24736   1.648   4.480  10.758  0.1918  0.7366  0.4096
 4426SOL    HW124737   1.636   4.495  10.851  0.4439  0.1938  0.5335
 4426SOL    HW224738   1.590   4.547  10.723  0.2921  1.3083  1.3403
 4427SOL     OW24739   1.556   3.552   3.174 -0.1279  0.3180  0.5375
 4427SOL    HW124740   1.474   3.569   3.127 -0.7107  1.3654  1.9188
 4427SOL    HW224741   1.551   3.635   3.222 -3.2937 -0.0043  0.8009
 4428SOL     OW24742   2.251   3.612   6.663 -0.3141 -0.6891 -0.2720
 4428SOL    HW124743   2.207   3.666   6.728  1.2898  0.2589  0.0209
 4428SOL    HW224744   2.336   3.654   6.670 -0.8972  0.0585  2.3946
 4429SOL     OW24745   4.519   4.559   1.949  0.0432 -0.2976 -0.2892
 4429SOL    HW124746   4.481   4.510   2.022  1.0852  0.7248  0.9389
 4429SOL    HW224747   4.613   4.544   1.960 -0.0513  0.4724  1.5155
 4430SOL     OW24748   2.921   3.783  11.883 -0.2357 -0.9885 -0.3670
 4430SOL    HW124749   2.977   3.811  11.955  0.3749 -2.3175 -0.3432
 4430SOL    HW224750   2.851   3.849  11.881  1.1661  0.4289 -3.1496
 4431SOL     OW24751   1.763   4.177   0.976  0.1950 -0.0698 -0.3598
 4431SOL    HW124752   1.830   4.236   1.012 -1.5303  0.6050  1.7840
 4431SOL    HW224753   1.768   4.181   0.881  0.7971  0.6301 -0.3003
 4432SOL     OW24754   3.944   0.641   8.337  0.0992 -0.1379  0.8462
 4432SOL    HW124755   3.869   0.618   8.282  2.6823 -3.1485 -1.4051
 4432SOL    HW224756   3.985   0.561   8.369  1.0744 -0.9991 -2.5321
 4433SOL     OW24757   1.814   3.126   8.833 -0.5937  0.2862  0.0337
 4433SOL    HW124758   1.882   3.135   8.766 -1.6351  6.4595 -0.2312
 4433SOL    HW224759   1.857   3.064   8.891 -0.8086 -0.6631 -0.8229
 4434SOL     OW24760   1.532   1.510   6.161 -0.3995 -0.1824 -0.3671
 4434SOL    HW124761   1.468   1.472   6.102 -0.2679 -0.4125 -0.3622
 4434SOL    HW224762   1.508   1.602   6.152  2.1160  0.2533 -2.8109
 4435SOL     OW24763   3.891   3.887  12.045  0.2345 -0.1482 -0.1760
 4435SOL    HW124764   3.972   3.836  12.036 -0.0941 -0.3631 -1.9263
 4435SOL    HW224765   3.919   3.967  12.089  3.0979  0.1299 -2.4770
 4436SOL     OW24766   3.404   2.217   9.384 -0.3154 -0.5323  0.2438
 4436SOL    HW124767   3.369   2.305   9.397 -0.1211 -0.8455  2.8384
 4436SOL    HW224768   3.494   2.248   9.386 -0.5091 -0.0178  0.9751
 4437SOL     OW24769   4.195   3.830   7.800 -0.0822 -0.0533 -0.4018
 4437SOL    HW124770   4.194   3.922   7.828 -1.2311  0.3845 -1.9179
 4437SOL    HW224771   4.239   3.787   7.874  1.4639  0.4176 -1.0386
 4438SOL     OW24772   2.414   0.907   8.073  0.1310  0.0597  0.1693
 4438SOL    HW124773   2.325   0.887   8.102 -0.1898  1.5110  0.1825
 4438SOL    HW224774   2.463   0.841   8.122  2.1482  1.6764  0.3357
 4439SOL     OW24775   0.560   3.534   5.901  0.4277 -0.2630 -0.2491
 4439SOL    HW124776   0.485   3.479   5.881  0.9742 -0.9489 -0.4457
 4439SOL    HW224777   0.623   3.467   5.927  1.9680  0.4451 -2.0898
 4440SOL     OW24778   1.741   0.959  14.050 -0.2485  0.0933 -0.0235
 4440SOL    HW124779   1.661   0.981  14.099 -0.0069  3.0851 -1.0072
 4440SOL    HW224780   1.710   0.994  13.967  3.8477  0.7904 -1.2429
 4441SOL     OW24781   2.887   3.220  16.111  0.0711  0.3496 -0.0656
 4441SOL    HW124782   2.828   3.190  16.043 -1.5892 -0.4815  1.7316
 4441SOL    HW224783   2.932   3.290  16.064  1.0756 -0.6708 -0.6211
 4442SOL     OW24784   0.684   3.296   0.408  0.7165 -0.1277 -0.0856
 4442SOL    HW124785   0.664   3.362   0.474  2.0601  1.3148 -1.1046
 4442SOL    HW224786   0.601   3.254   0.387 -0.3159  2.6911 -1.6737
 4443SOL     OW24787   2.829   2.178  12.261  0.4950  0.7162 -0.2667
 4443SOL    HW124788   2.910   2.188  12.310 -1.0597  0.3450  2.3568
 4443SOL    HW224789   2.820   2.083  12.270 -1.5296  0.8471 -0.8463
 4444SOL     OW24790   2.183   4.133   1.832  0.0477 -0.1570 -0.2441
 4444SOL    HW124791   2.104   4.185   1.827  0.6195  0.8309  0.9578
 4444SOL    HW224792   2.149   4.057   1.880 -0.5937  0.0666 -0.3586
 4445SOL     OW24793   1.914   1.023   3.640 -0.0392 -0.6824 -0.4657
 4445SOL    HW124794   1.956   0.946   3.678 -0.3106 -0.2093  0.7923
 4445SOL    HW224795   1.955   1.095   3.688 -0.0360 -0.9510 -0.0671
 4446SOL     OW24796   0.653   4.076   2.687  0.3023 -0.2523  0.4430
 4446SOL    HW124797   0.703   4.037   2.615  1.0505 -0.9464  1.3386
 4446SOL    HW224798   0.693   4.163   2.685 -1.2522  0.4196 -2.1755
 4447SOL     OW24799   1.497   3.170   0.618  0.5695  0.3791  0.2579
 4447SOL    HW124800   1.462   3.241   0.564 -3.1111 -1.7824 -0.2146
 4447SOL    HW224801   1.585   3.163   0.582  0.6068 -2.3067  0.8771
 4448SOL     OW24802   0.359   2.833   5.736  0.0562  0.5702 -0.3482
 4448SOL    HW124803   0.380   2.776   5.663  1.9935 -0.7210  1.2331
 4448SOL    HW224804   0.376   2.918   5.696  0.1683  0.4707 -0.5100
 4449SOL     OW24805   1.551   2.541  10.178 -0.0295 -0.3126 -0.0985
 4449SOL    HW124806   1.523   2.628  10.206 -1.3627 -0.7994  0.1142
 4449SOL    HW224807   1.641   2.539  10.207  0.0002 -0.1862 -0.1837
 4450SOL     OW24808   1.790   1.078  14.362 -0.0411 -0.8085  0.2012
 4450SOL    HW124809   1.842   1.000  14.383  1.4971 -0.0304 -0.7354
 4450SOL    HW224810   1.802   1.120  14.448  1.8703 -0.4798 -0.2087
 4451SOL     OW24811   1.099   1.127   3.195 -0.0604  0.3635 -0.0166
 4451SOL    HW124812   1.134   1.066   3.259 -0.1213  2.1368  1.7007
 4451SOL    HW224813   1.119   1.080   3.113  0.6083 -0.2754  0.5224
 4452SOL     OW24814   1.822   3.633   2.827  0.0830 -0.5543 -0.3315
 4452SOL    HW124815   1.901   3.615   2.776  0.0509 -1.6800  0.0173
 4452SOL    HW224816   1.822   3.569   2.898  1.4232 -1.6857 -1.3495
 4453SOL     OW24817   0.052   2.779  17.246 -0.0178  1.0947 -0.0760
 4453SOL    HW124818   4.721   2.853  17.277  1.0032  1.7100  0.2477
 4453SOL    HW224819   0.067   2.803  17.155 -0.3322  0.8438 -0.1929
 4454SOL     OW24820   2.735   0.130   9.876 -0.3047  0.3220  0.2294
 4454SOL    HW124821   2.713   0.202   9.935 -0.8377  1.7338 -1.6931
 4454SOL    HW224822   2.831   0.140   9.881 -0.4028  0.7099  1.2371
 4455SOL     OW24823   4.606   1.340   6.723 -0.4242 -0.1584  0.1492
 4455SOL    HW124824   4.645   1.266   6.676 -0.5394 -0.0499 -0.1192
 4455SOL    HW224825   4.677   1.358   6.784  0.1454 -0.3738 -0.4504
 4456SOL     OW24826   2.880   4.527   0.108  0.1719  0.3119  0.6215
 4456SOL    HW124827   2.810   4.582   0.143 -1.0585 -0.2066 -1.0638
 4456SOL    HW224828   2.914   4.570   0.029 -1.0251  0.8579  0.4091
 4457SOL     OW24829   0.583   4.057   7.570 -0.4171  0.1847  0.0580
 4457SOL    HW124830   0.621   4.065   7.483  3.2217  1.2057  1.7831
 4457SOL    HW224831   0.631   4.118   7.625  0.3120 -0.8591  0.5907
 4458SOL     OW24832   1.032   2.905  12.790  0.9471 -0.0240 -0.2935
 4458SOL    HW124833   1.029   2.992  12.748 -0.3320  0.7074  1.3214
 4458SOL    HW224834   1.126   2.896  12.805  0.8321 -0.8541 -0.0996
 4459SOL     OW24835   3.527   0.819  12.850 -0.0406 -0.4664  0.4527
 4459SOL    HW124836   3.607   0.816  12.798  0.4615  2.5041  1.0787
 4459SOL    HW224837   3.507   0.913  12.848 -1.2988 -0.7090  1.1644
 4460SOL     OW24838   3.929   2.879   8.463 -0.1525  0.1106 -0.1404
 4460SOL    HW124839   3.876   2.828   8.524  0.5811 -0.9144 -0.3497
 4460SOL    HW224840   3.894   2.966   8.480 -0.1599  0.2811 -1.0137
 4461SOL     OW24841   1.036   4.003   7.219 -0.0271 -0.3123 -0.4002
 4461SOL    HW124842   1.120   4.013   7.175 -0.0991 -1.5000 -0.8098
 4461SOL    HW224843   0.977   4.034   7.150  0.4656  1.9221  0.2164
 4462SOL     OW24844   4.454   1.766   3.778  0.3250  0.5348  0.3002
 4462SOL    HW124845   4.441   1.854   3.743  0.6826  0.7420  0.6733
 4462SOL    HW224846   4.547   1.752   3.761  0.1435  0.1463 -0.3686
 4463SOL     OW24847   3.154   4.506   7.780  0.3790  0.1297 -0.0662
 4463SOL    HW124848   3.222   4.573   7.787 -1.4041  1.9300  0.1076
 4463SOL    HW224849   3.127   4.499   7.872  0.2978  0.3926 -0.0689
 4464SOL     OW24850   4.637   2.990  10.519 -0.0664  0.2039  0.0063
 4464SOL    HW124851   4.625   3.021  10.609  2.9845  1.2286  0.0739
 4464SOL    HW224852   4.701   3.050  10.481 -2.4340  1.1094 -2.5316
 4465SOL     OW24853   4.357   2.440  15.185  0.4503  0.2790 -0.1156
 4465SOL    HW124854   4.415   2.516  15.194 -0.5253  0.7850  1.7722
 4465SOL    HW224855   4.421   2.380  15.148  0.1751 -0.0316 -0.0840
 4466SOL     OW24856   0.610   3.765  13.721  0.0463 -0.1554 -0.3272
 4466SOL    HW124857   0.663   3.698  13.678 -1.6364  0.7337 -3.8319
 4466SOL    HW224858   0.566   3.703  13.779  0.9007  0.1515  0.6370
 4467SOL     OW24859   1.722   4.580   2.729  0.4872  0.0191 -0.0777
 4467SOL    HW124860   1.670   4.659   2.726 -0.3395 -0.5530 -0.9329
 4467SOL    HW224861   1.769   4.583   2.645 -1.1605 -0.9293 -1.0347
 4468SOL     OW24862   1.949   1.321   9.159  0.0019 -0.4005 -0.6695
 4468SOL    HW124863   2.013   1.271   9.108  1.5369 -0.2564  1.1263
 4468SOL    HW224864   1.992   1.401   9.186 -0.5831 -0.0212 -0.8616
 4469SOL     OW24865   1.310   3.050   4.553 -0.0520  0.1035 -0.1625
 4469SOL    HW124866   1.392   3.097   4.564 -0.1559  0.4003 -0.6498
 4469SOL    HW224867   1.318   3.010   4.466  0.8330  1.8716 -0.8726
 4470SOL     OW24868   3.439   3.469  16.436 -0.4258  0.2893 -0.6284
 4470SOL    HW124869   3.479   3.516  16.362 -2.3185  0.9194 -1.2318
 4470SOL    HW224870   3.518   3.478  16.489 -1.1984 -2.9901  1.1064
 4471SOL     OW24871   4.146   1.118   7.410  0.5395  0.5427 -0.6823
 4471SOL    HW124872   4.208   1.065   7.460  0.0315 -0.7052 -1.3551
 4471SOL    HW224873   4.156   1.071   7.327 -0.8157 -2.0226  0.6057
 4472SOL     OW24874   3.978   0.475   8.027  0.9632  0.3292 -0.0727
 4472SOL    HW124875   4.069   0.486   8.053  0.6884 -0.8923  1.4625
 4472SOL    HW224876   3.981   0.406   7.961  0.1846  0.1397  0.0848
 4473SOL     OW24877   2.797   0.392   8.505 -0.6155  0.2296  0.3424
 4473SOL    HW124878   2.854   0.396   8.581  0.0292 -1.1827 -0.0590
 4473SOL    HW224879   2.791   0.297   8.493 -2.5587  0.2749  0.9228
 4474SOL     OW24880   4.386   1.897  17.277 -0.0647 -0.3548 -0.5265
 4474SOL    HW124881   4.325   1.948  17.225  0.8137  0.9553 -0.2734
 4474SOL    HW224882   4.367   1.941  17.360 -2.2388 -0.2489 -1.0922
 4475SOL     OW24883   1.141   4.048   7.652  0.5730  0.2218 -0.2040
 4475SOL    HW124884   1.115   4.008   7.735  1.1828 -0.6931 -0.4642
 4475SOL    HW224885   1.147   4.138   7.685 -0.7086  1.1451 -2.4378
 4476SOL     OW24886   0.173   2.212   7.244  0.1571 -0.4006  0.5347
 4476SOL    HW124887   0.234   2.144   7.213 -0.5738 -0.2108 -1.3164
 4476SOL    HW224888   0.237   2.262   7.295  1.1218  0.2118 -1.2766
 4477SOL     OW24889   0.553   2.787   3.342 -0.2793 -0.1298 -0.2030
 4477SOL    HW124890   0.597   2.719   3.291  1.3527  0.4109  0.5003
 4477SOL    HW224891   0.617   2.857   3.354 -2.1867  1.3227  1.6788
 4478SOL     OW24892   3.602   0.774  16.175 -0.5800  0.1124 -0.0184
 4478SOL    HW124893   3.628   0.798  16.264 -1.3668  0.0628  0.2239
 4478SOL    HW224894   3.670   0.824  16.129 -1.4293  0.0409 -1.3269
 4479SOL     OW24895   0.880   2.941  15.924  0.1119 -0.2643 -0.0705
 4479SOL    HW124896   0.882   2.919  15.831  0.1614 -1.9995  0.3483
 4479SOL    HW224897   0.968   2.919  15.954 -0.9307 -2.5255  1.2915
 4480SOL     OW24898   3.262   0.546  17.559  0.5025  0.2619  0.3987
 4480SOL    HW124899   3.297   0.552  17.470  0.8814 -1.2329  0.4436
 4480SOL    HW224900   3.167   0.554  17.545  0.5170 -2.8873 -1.4017
 4481SOL     OW24901   2.363   0.232   9.567  0.8723  0.6193  0.4463
 4481SOL    HW124902   2.372   0.237   9.472  0.0601 -2.8156  0.1852
 4481SOL    HW224903   2.443   0.186   9.594  0.1800  1.1694  3.4151
 4482SOL     OW24904   4.163   1.516   6.392  0.6042  0.5143 -0.2932
 4482SOL    HW124905   4.135   1.556   6.309  0.3654  0.8451 -0.0552
 4482SOL    HW224906   4.246   1.474   6.371 -0.2825 -0.6452 -1.4766
 4483SOL     OW24907   3.394   3.196  15.274  0.6627  0.2023  0.1014
 4483SOL    HW124908   3.410   3.289  15.261 -1.4751  0.3372 -1.6435
 4483SOL    HW224909   3.307   3.181  15.236  0.6670 -0.0318  0.1826
 4484SOL     OW24910   1.611   1.823  17.615  0.2350 -0.3648 -0.0173
 4484SOL    HW124911   1.521   1.799  17.639  0.3896  0.2646  1.1976
 4484SOL    HW224912   1.662   1.749  17.648 -1.1219 -0.5843  1.5739
 4485SOL     OW24913   0.593   2.318  12.425 -0.3203 -0.3330 -0.1174
 4485SOL    HW124914   0.609   2.235  12.381  1.0193  0.6707 -1.5210
 4485SOL    HW224915   0.522   2.346  12.367 -0.0133 -0.5266 -0.5886
 4486SOL     OW24916   0.505   1.817   2.311 -1.0849 -0.3682 -0.8001
 4486SOL    HW124917   0.537   1.885   2.371 -0.5039 -1.2682 -0.0811
 4486SOL    HW224918   0.509   1.740   2.368  1.4892  0.3376 -0.0056
 4487SOL     OW24919   2.134   4.324  16.445 -0.2361 -0.0340  0.3775
 4487SOL    HW124920   2.115   4.403  16.496  0.8340  1.3031 -1.2635
 4487SOL    HW224921   2.165   4.258  16.506 -1.7040 -0.3717  0.7730
 4488SOL     OW24922   0.809   0.239  15.499  0.1018  0.8736 -0.6378
 4488SOL    HW124923   0.797   0.328  15.534 -0.2217 -1.0309  4.1509
 4488SOL    HW224924   0.887   0.252  15.445  1.6047 -0.6423  1.1823
 4489SOL     OW24925   1.579   4.219   9.498 -0.2701  0.6592  0.6007
 4489SOL    HW124926   1.566   4.270   9.578  0.3239 -0.8757  1.6828
 4489SOL    HW224927   1.596   4.130   9.532  4.1457  1.0125 -0.6447
 4490SOL     OW24928   3.909   2.505   1.221 -0.2401 -0.5088  0.1545
 4490SOL    HW124929   3.944   2.594   1.224  0.0229 -0.4545 -3.5948
 4490SOL    HW224930   3.817   2.524   1.203  0.2100 -0.4251 -2.1204
 4491SOL     OW24931   0.898   0.606   0.975  0.4205  1.0774 -0.3415
 4491SOL    HW124932   0.823   0.618   1.033  1.4758 -1.6930  1.6272
 4491SOL    HW224933   0.866   0.525   0.936  1.1171 -1.6621  4.7454
 4492SOL     OW24934   2.137   4.289   0.549  0.3562 -0.4518  0.3492
 4492SOL    HW124935   2.130   4.206   0.502 -0.3435 -0.3481  0.2788
 4492SOL    HW224936   2.050   4.323   0.528  0.3881 -0.1773  0.6668
 4493SOL     OW24937   0.659   3.183   8.814  0.3842  0.3945 -0.1039
 4493SOL    HW124938   0.695   3.096   8.831  0.7392  0.7741  1.0990
 4493SOL    HW224939   0.688   3.186   8.723 -0.2175 -2.3195 -0.3802
 4494SOL     OW24940   4.113   4.364  14.267  0.5028 -1.2703 -0.0778
 4494SOL    HW124941   4.036   4.331  14.314 -0.6064  3.7793  1.6717
 4494SOL    HW224942   4.133   4.451  14.302 -0.1732 -1.2507  0.2505
 4495SOL     OW24943   3.658   3.512   5.545 -0.5717 -0.0856  0.2251
 4495SOL    HW124944   3.678   3.503   5.452 -1.1804  1.1235 -0.0206
 4495SOL    HW224945   3.631   3.603   5.552  1.1665  0.2814  2.1546
 4496SOL     OW24946   2.899   0.926   8.630 -0.2127  0.0425  0.2193
 4496SOL    HW124947   2.839   0.999   8.612  0.7974  0.7640 -0.2047
 4496SOL    HW224948   2.968   0.953   8.570 -0.9303  1.0223 -0.1716
 4497SOL     OW24949   4.468   3.931  15.388 -0.0920  0.2855  0.4883
 4497SOL    HW124950   4.411   3.955  15.315  1.0079  1.4329  0.0046
 4497SOL    HW224951   4.552   3.919  15.343 -1.4611 -0.3281 -1.8923
 4498SOL     OW24952   1.657   3.920   2.158 -0.4253 -0.3374  0.0216
 4498SOL    HW124953   1.590   3.987   2.144  0.0887 -0.1461 -1.6083
 4498SOL    HW224954   1.627   3.888   2.243  4.8282 -0.1548  1.9266
 4499SOL     OW24955   1.325   1.486  16.559 -0.0817  0.2518  0.0437
 4499SOL    HW124956   1.261   1.557  16.559  0.5203  0.7885  2.5204
 4499SOL    HW224957   1.290   1.434  16.632 -0.7802  0.5254 -0.0901
 4500SOL     OW24958   1.402   4.133   3.037  0.2291  0.1370 -0.0305
 4500SOL    HW124959   1.433   4.205   2.982  1.5875  0.5406  1.2355
 4500SOL    HW224960   1.418   4.167   3.125  0.3768  2.2640 -0.8803
 4501SOL     OW24961   2.088   4.093  15.268  0.1752  0.0927 -0.1719
 4501SOL    HW124962   2.024   4.023  15.283 -0.0871  0.6795  1.4199
 4501SOL    HW224963   2.079   4.088  15.173  1.5629  0.9838 -0.3446
 4502SOL     OW24964   0.252   1.567  15.018  0.4629  0.1256 -0.0632
 4502SOL    HW124965   0.271   1.622  15.094  0.5913  1.0354 -0.7499
 4502SOL    HW224966   0.188   1.506  15.055 -0.6801  1.6578  0.4791
 4503SOL     OW24967   0.723   0.511   6.616  0.4059  0.3472  0.0906
 4503SOL    HW124968   0.655   0.569   6.580 -0.2767 -0.2879  0.3551
 4503SOL    HW224969   0.690   0.496   6.705 -3.6912  1.4698 -1.2098
 4504SOL     OW24970   3.592   0.287   3.578  0.6998 -0.1830 -0.2242
 4504SOL    HW124971   3.515   0.245   3.616  1.8409 -1.4258  0.6994
 4504SOL    HW224972   3.664   0.227   3.599  0.8881  0.2598  0.3933
 4505SOL     OW24973   3.013   3.480   4.193 -0.4392 -0.9216  0.0301
 4505SOL    HW124974   2.966   3.450   4.115  0.9809  0.4389 -1.3721
 4505SOL    HW224975   3.072   3.406   4.209  1.5910  0.2587 -1.9261
 4506SOL     OW24976   1.708   0.679   6.041 -0.3094  0.3549 -0.3804
 4506SOL    HW124977   1.661   0.698   6.122  0.3365  0.9484 -0.1486
 4506SOL    HW224978   1.774   0.616   6.068 -0.2908 -0.0066 -1.2481
 4507SOL     OW24979   3.764   2.395   2.790 -0.5374 -0.0589  0.4583
 4507SOL    HW124980   3.780   2.460   2.722  0.5860 -1.9443 -1.1009
 4507SOL    HW224981   3.709   2.336   2.740 -0.2230  1.0227 -1.1440
 4508SOL     OW24982   4.409   1.606   8.117  0.3063 -0.6822 -0.2072
 4508SOL    HW124983   4.422   1.661   8.040  1.5113  1.1694  1.3302
 4508SOL    HW224984   4.337   1.657   8.155  0.7145  1.0511 -1.8120
 4509SOL     OW24985   2.827   1.582   8.863  0.2194 -0.1125  0.2753
 4509SOL    HW124986   2.898   1.642   8.846 -0.2841  0.2066 -0.6881
 4509SOL    HW224987   2.873   1.504   8.832  0.1741 -0.5197  1.2207
 4510SOL     OW24988   2.670   4.252   5.034 -0.2683 -0.5218  0.0871
 4510SOL    HW124989   2.626   4.307   4.968 -1.4237 -0.0507  1.2487
 4510SOL    HW224990   2.758   4.249   4.997  0.2065 -2.7535  1.3915
 4511SOL     OW24991   1.881   3.990  13.128 -0.7308 -0.3804  0.0872
 4511SOL    HW124992   1.903   3.932  13.200 -1.9151 -2.0626 -0.8990
 4511SOL    HW224993   1.786   3.987  13.135 -0.5946 -0.7434  1.8143
 4512SOL     OW24994   3.634   2.118   3.365 -0.0645  0.5785 -0.5727
 4512SOL    HW124995   3.669   2.122   3.454 -0.8342  1.9726 -0.3195
 4512SOL    HW224996   3.715   2.098   3.318 -1.2627 -0.7240 -2.0799
 4513SOL     OW24997   2.054   0.843   7.582  1.2023  0.1408 -0.2369
 4513SOL    HW124998   2.033   0.845   7.676  0.3948 -1.4638 -0.3872
 4513SOL    HW224999   2.017   0.924   7.546  0.4546 -0.6735 -1.3127
 4514SOL     OW25000   4.454   3.614   4.803  0.3643 -0.3486  0.3802
 4514SOL    HW125001   4.539   3.572   4.792 -0.2556 -1.0818 -1.6018
 4514SOL    HW225002   4.478   3.694   4.849 -2.9116  0.6718  0.3300
 4515SOL     OW25003   3.856   0.730   4.181  0.4941  0.5673  0.0994
 4515SOL    HW125004   3.882   0.716   4.090  2.0062  0.4530  0.5482
 4515SOL    HW225005   3.774   0.774   4.159  0.2344  1.1728  2.3051
 4516SOL     OW25006   3.196   2.372   3.808 -0.1805 -0.1812  0.0034
 4516SOL    HW125007   3.262   2.424   3.854  0.1106 -0.8821  0.3907
 4516SOL    HW225008   3.117   2.379   3.861 -1.6463  1.5344 -2.4334
 4517SOL     OW25009   3.574   1.755   1.823 -0.0506 -0.3648 -0.3683
 4517SOL    HW125010   3.660   1.777   1.786 -0.7454 -0.1917 -1.8676
 4517SOL    HW225011   3.544   1.834   1.868  1.2585  0.3561 -0.7699
 4518SOL     OW25012   1.753   3.328   4.121  0.0176  0.0909 -0.3202
 4518SOL    HW125013   1.678   3.303   4.175  0.4036 -0.3739  0.0026
 4518SOL    HW225014   1.814   3.254   4.128  2.5323  1.9349 -3.0887
 4519SOL     OW25015   2.004   3.392   5.488  0.1475 -0.5143 -0.1740
 4519SOL    HW125016   2.018   3.473   5.537  0.2223 -0.4716 -0.2651
 4519SOL    HW225017   1.911   3.395   5.465  0.4141  0.4028 -1.1679
 4520SOL     OW25018   3.732   2.092   1.851  0.2876 -0.3990 -0.4407
 4520SOL    HW125019   3.782   2.027   1.801 -1.7883 -0.8895 -1.9024
 4520SOL    HW225020   3.643   2.059   1.841  0.0494  0.3704 -0.8613
 4521SOL     OW25021   2.759   3.824   7.293 -0.2566  0.3853  0.2901
 4521SOL    HW125022   2.848   3.805   7.321 -1.6226 -4.9979  0.9906
 4521SOL    HW225023   2.752   3.918   7.278  0.0132  0.2590 -0.5698
 4522SOL     OW25024   2.444   0.427   0.589  0.0449 -0.3188 -0.1098
 4522SOL    HW125025   2.457   0.336   0.617 -2.2473 -0.3230  0.8943
 4522SOL    HW225026   2.531   0.468   0.586 -0.4137  0.5849 -1.0287
 4523SOL     OW25027   1.761   0.794   4.724 -0.2202  0.0393  0.5700
 4523SOL    HW125028   1.821   0.815   4.796 -1.0650  0.8613  1.0244
 4523SOL    HW225029   1.678   0.835   4.744 -0.7312 -0.6643 -0.1029
 4524SOL     OW25030   3.924   0.187   0.807  0.0614 -0.1701  0.0191
 4524SOL    HW125031   4.001   0.205   0.862 -0.3111  0.5945  0.2814
 4524SOL    HW225032   3.974   0.179   0.726  0.0298 -1.3825  0.1227
 4525SOL     OW25033   3.135   0.184   0.754  0.0473  0.5382 -0.2596
 4525SOL    HW125034   3.164   0.274   0.770 -0.7193  0.8877 -0.8242
 4525SOL    HW225035   3.144   0.180   0.659  1.5223  0.6413 -0.1239
 4526SOL     OW25036   4.559   0.055  15.742  0.7163 -0.2704 -0.4379
 4526SOL    HW125037   4.636   0.057  15.686  1.0382 -0.1561  0.0139
 4526SOL    HW225038   4.483   0.079  15.689  0.3100  0.4034  0.4455
 4527SOL     OW25039   2.591   0.839   2.472 -0.1377  0.1214 -0.8807
 4527SOL    HW125040   2.664   0.827   2.532 -0.5670 -1.0950 -0.5901
 4527SOL    HW225041   2.601   0.931   2.448 -0.8825 -0.1319 -2.1639
 4528SOL     OW25042   3.151   2.064   5.477  0.0103 -0.2658 -0.5073
 4528SOL    HW125043   3.221   2.106   5.427  0.4858  0.9026  1.1316
 4528SOL    HW225044   3.095   2.035   5.405  0.3577  0.1270 -0.9419
 4529SOL     OW25045   3.960   1.730   4.448  0.3299  0.3841 -0.2578
 4529SOL    HW125046   3.865   1.730   4.435 -0.0218  0.4108  2.2631
 4529SOL    HW225047   3.989   1.664   4.386  1.8272  1.5534 -0.8178
 4530SOL     OW25048   1.605   4.169   8.862  0.2197  0.6218  0.3927
 4530SOL    HW125049   1.602   4.118   8.943 -0.4151  1.0975  0.6668
 4530SOL    HW225050   1.540   4.124   8.809 -0.2618 -0.1062  1.6042
 4531SOL     OW25051   1.659   1.536   4.930 -0.2988 -0.4849 -0.3319
 4531SOL    HW125052   1.572   1.498   4.921 -1.0430  1.0488  0.3723
 4531SOL    HW225053   1.677   1.544   4.836 -0.1588 -0.7051 -0.3232
 4532SOL     OW25054   3.935   1.279   6.565 -0.2208  0.0571  0.7358
 4532SOL    HW125055   3.944   1.190   6.531  0.3586  0.0097  1.0144
 4532SOL    HW225056   4.000   1.289   6.634  0.1527 -0.6774  0.4927
 4533SOL     OW25057   3.524   3.563   6.654 -0.1311  0.3780 -0.0322
 4533SOL    HW125058   3.489   3.494   6.710  0.5487 -0.5721 -0.7740
 4533SOL    HW225059   3.544   3.506   6.580  1.1623  2.4994 -1.3384
 4534SOL     OW25060   4.479   4.462  14.236 -0.0176 -0.0338 -0.4582
 4534SOL    HW125061   4.387   4.474  14.214 -0.3607 -2.0448 -0.1369
 4534SOL    HW225062   4.522   4.486  14.154 -2.3975  1.4698 -1.2541
 4535SOL     OW25063   0.517   2.834   4.888  0.4555  0.0742  0.4557
 4535SOL    HW125064   0.600   2.879   4.871  0.4943 -0.3814 -0.5581
 4535SOL    HW225065   0.548   2.747   4.912  0.7756  0.3847  1.1901
 4536SOL     OW25066   2.994   3.670   8.558 -0.0866 -0.2853  0.6029
 4536SOL    HW125067   2.961   3.759   8.541 -0.2751 -0.4963 -0.0963
 4536SOL    HW225068   3.025   3.650   8.470  1.2986 -0.9119  1.2386
 4537SOL     OW25069   2.454   2.405  11.137 -0.7995  0.0439  0.1388
 4537SOL    HW125070   2.481   2.380  11.049  0.1763 -1.3835  0.8468
 4537SOL    HW225071   2.432   2.496  11.116 -2.8925 -1.2924 -3.3684
 4538SOL     OW25072   1.571   3.031   6.406  0.2109 -0.1033 -0.1317
 4538SOL    HW125073   1.663   3.028   6.381  0.0254 -2.4572 -0.5950
 4538SOL    HW225074   1.527   3.027   6.320 -1.6139  0.1798  0.7770
 4539SOL     OW25075   0.398   2.166   5.975 -0.0761  0.1157  0.0584
 4539SOL    HW125076   0.473   2.204   5.930  1.0861  1.7402  3.3564
 4539SOL    HW225077   0.338   2.158   5.901  3.1120 -2.5639 -2.2088
 4540SOL     OW25078   0.395   4.632   5.022  0.0823  0.2774 -0.4984
 4540SOL    HW125079   0.331   4.669   4.962  0.4568  0.5288 -0.7441
 4540SOL    HW225080   0.389   4.706   5.082  0.0619  0.1025 -0.2817
 4541SOL     OW25081   4.083   2.401   1.421 -0.3635 -0.3121  0.4729
 4541SOL    HW125082   4.026   2.439   1.355  0.5954  0.5230  0.1287
 4541SOL    HW225083   4.104   2.481   1.469 -1.3360  0.5132 -0.5114
 4542SOL     OW25084   3.427   3.380  17.465  0.1573  0.1294  0.0522
 4542SOL    HW125085   3.438   3.303  17.410 -0.6590  1.0815 -1.4634
 4542SOL    HW225086   3.355   3.346  17.518  1.4262 -0.7490  1.2081
 4543SOL     OW25087   2.684   1.468   4.330 -0.9073  0.1948 -0.2346
 4543SOL    HW125088   2.615   1.421   4.378 -0.2017  1.1778  1.7342
 4543SOL    HW225089   2.641   1.548   4.300  0.1380  1.0978  0.7103
 4544SOL     OW25090   1.404   1.739   4.681 -0.0397 -0.1027  0.2884
 4544SOL    HW125091   1.393   1.707   4.592 -1.0029 -2.3628  1.2346
 4544SOL    HW225092   1.500   1.741   4.680 -0.0417 -0.5762 -0.5294
 4545SOL     OW25093   1.559   0.717  17.116 -0.3286 -0.4174 -0.0577
 4545SOL    HW125094   1.504   0.761  17.052  0.2085  3.0208  1.8839
 4545SOL    HW225095   1.506   0.717  17.196  1.1865  0.4079  0.9556
 4546SOL     OW25096   2.517   4.499   5.906 -0.5662 -0.1047  0.2629
 4546SOL    HW125097   2.600   4.455   5.923  0.8446  2.1765 -0.7444
 4546SOL    HW225098   2.461   4.436   5.952 -0.7328  0.3165  0.6356
 4547SOL     OW25099   3.582   3.345   2.497 -0.6074 -0.3136 -0.1806
 4547SOL    HW125100   3.562   3.263   2.452 -2.4049  0.7301 -1.3059
 4547SOL    HW225101   3.502   3.393   2.475 -0.1273  1.5324  2.1714
 4548SOL     OW25102   2.550   2.245   9.305 -0.2892 -0.5443  0.0795
 4548SOL    HW125103   2.576   2.323   9.355 -1.8922  0.7978 -1.1698
 4548SOL    HW225104   2.489   2.282   9.241 -1.1841 -0.5266  0.9499
 4549SOL     OW25105   3.180   3.739   7.584  0.0053  0.0244  0.3699
 4549SOL    HW125106   3.118   3.785   7.641  0.3703  1.3673 -0.3199
 4549SOL    HW225107   3.123   3.683   7.531  1.1130 -0.0768 -0.6994
 4550SOL     OW25108   2.537   3.003   7.072  0.0997  0.5940  0.3096
 4550SOL    HW125109   2.558   3.094   7.053  0.8241  0.9523  2.7494
 4550SOL    HW225110   2.538   2.966   6.984  1.0674 -2.1010  1.4655
 4551SOL     OW25111   2.816   4.560   8.025 -0.2204  0.1839 -0.1503
 4551SOL    HW125112   2.837   4.652   8.040  3.1041 -0.9529  2.0957
 4551SOL    HW225113   2.873   4.508   8.081 -0.6425 -1.0890 -0.8929
 4552SOL     OW25114   0.376   3.105   2.242  0.1473 -0.4866 -0.1291
 4552SOL    HW125115   0.343   3.044   2.177 -1.4599  0.4109 -0.1522
 4552SOL    HW225116   0.298   3.161   2.249  0.6034 -0.2641  3.2022
 4553SOL     OW25117   1.073   3.836   1.077 -0.0391 -0.0042 -0.1157
 4553SOL    HW125118   1.049   3.900   1.144  0.6749  1.3309 -1.1290
 4553SOL    HW225119   1.166   3.857   1.068  0.3873 -1.2301  1.3582
 4554SOL     OW25120   2.356   2.580  11.720  0.1630 -0.2945  0.1601
 4554SOL    HW125121   2.268   2.614  11.736 -0.0171 -0.0707 -1.2671
 4554SOL    HW225122   2.398   2.573  11.806  1.4955  0.1100 -0.4603
 4555SOL     OW25123   3.884   1.193  16.131  0.6835  0.2380 -0.0815
 4555SOL    HW125124   3.833   1.217  16.208 -0.3872  0.4726 -0.8704
 4555SOL    HW225125   3.845   1.257  16.072  1.2901 -0.8953 -1.7156
 4556SOL     OW25126   1.908   1.505   6.436 -0.0260 -0.5014  0.3954
 4556SOL    HW125127   1.878   1.460   6.356  2.5201 -0.0832 -0.8147
 4556SOL    HW225128   1.998   1.471   6.438 -0.1563 -0.8228  0.8244
 4557SOL     OW25129   4.162   3.984   2.483 -0.7451  0.1672  0.3402
 4557SOL    HW125130   4.143   3.916   2.418  0.4880  0.6428 -0.5351
 4557SOL    HW225131   4.237   3.941   2.524 -1.5747 -1.5497  0.0400
 4558SOL     OW25132   3.953   2.059   2.423  0.3036 -0.4921 -0.6395
 4558SOL    HW125133   4.040   2.018   2.426  0.3234 -0.4797 -0.9504
 4558SOL    HW225134   3.982   2.148   2.445  0.9490 -1.0034  0.5484
 4559SOL     OW25135   3.664   3.832   9.321 -0.6423  0.2169 -0.5102
 4559SOL    HW125136   3.732   3.833   9.389  0.6028  0.2335 -1.7470
 4559SOL    HW225137   3.676   3.746   9.280 -0.3909 -0.0472  0.1261
 4560SOL     OW25138   0.657   0.748   9.217  0.8014  0.7679 -0.6555
 4560SOL    HW125139   0.610   0.806   9.157 -0.2196  0.0964 -0.4972
 4560SOL    HW225140   0.734   0.736   9.162 -0.9956  1.7028 -3.3686
 4561SOL     OW25141   0.867   4.679   8.534 -0.0473 -0.3994 -0.1138
 4561SOL    HW125142   0.890   4.650   8.623  1.4597  1.6475  0.1794
 4561SOL    HW225143   0.787   4.630   8.519 -0.6818  0.1673  1.4017
 4562SOL     OW25144   4.285   1.548   8.508  0.1337  0.0001  0.3578
 4562SOL    HW125145   4.291   1.452   8.504 -1.8481  0.1011 -4.1753
 4562SOL    HW225146   4.370   1.573   8.470  0.0070  0.3926  0.3327
 4563SOL     OW25147   3.014   1.138   3.224 -0.2265  0.3265 -0.1715
 4563SOL    HW125148   3.106   1.127   3.200  0.3671  0.2760  2.1366
 4563SOL    HW225149   2.989   1.216   3.174  3.7050  2.4609  1.1861
 4564SOL     OW25150   2.820   4.295   0.905  0.0999  0.0738 -0.2299
 4564SOL    HW125151   2.803   4.389   0.920 -1.3876 -0.1966 -0.2315
 4564SOL    HW225152   2.734   4.258   0.922  0.0747  0.4522  0.4956
 4565SOL     OW25153   3.871   0.205   1.445  0.0310 -0.6214  0.1157
 4565SOL    HW125154   3.846   0.126   1.493 -0.2911  0.8722  2.3668
 4565SOL    HW225155   3.792   0.257   1.431 -1.4481 -2.8795 -0.0316
 4566SOL     OW25156   2.754   1.080   8.810 -0.1416 -0.3051  0.2941
 4566SOL    HW125157   2.800   0.998   8.792  2.6729  1.3893 -0.2530
 4566SOL    HW225158   2.723   1.059   8.898 -0.0933  2.7360  1.0403
 4567SOL     OW25159   1.664   2.891  10.940 -0.2849  0.3907  0.0692
 4567SOL    HW125160   1.753   2.875  10.906 -0.6656 -2.7157  0.4962
 4567SOL    HW225161   1.607   2.876  10.865 -1.0344 -2.1619  1.1424
 4568SOL     OW25162   1.392   0.671  14.938 -0.3504 -0.0841  0.1583
 4568SOL    HW125163   1.303   0.706  14.942  0.3618  1.4469  2.2202
 4568SOL    HW225164   1.433   0.755  14.921  1.2168 -0.7350  0.6945
 4569SOL     OW25165   0.974   1.464  17.533 -0.2421  0.1089 -0.2139
 4569SOL    HW125166   1.067   1.442  17.539  0.3718  2.5801 -0.4610
 4569SOL    HW225167   0.942   1.377  17.512 -1.1143  0.4438 -0.2823
 4570SOL     OW25168   1.486   1.258   4.342  0.1143  0.3650  0.2103
 4570SOL    HW125169   1.440   1.174   4.337  0.9001 -0.0316 -0.3209
 4570SOL    HW225170   1.444   1.304   4.415 -2.4325 -1.0296 -0.3664
 4571SOL     OW25171   2.686   4.041   6.368  0.2847  0.6682 -0.4816
 4571SOL    HW125172   2.720   4.113   6.422 -2.8196  0.8846  1.1576
 4571SOL    HW225173   2.616   4.015   6.427  0.3305  0.9053 -0.3190
 4572SOL     OW25174   1.980   3.551   8.253  0.1071  0.1063  0.2802
 4572SOL    HW125175   2.004   3.497   8.178 -0.3106  0.2865  0.0141
 4572SOL    HW225176   2.068   3.571   8.286  0.8546 -1.4909 -0.7355
 4573SOL     OW25177   1.588   0.791  16.537  0.0105 -0.5632 -0.0551
 4573SOL    HW125178   1.495   0.778  16.521 -0.1406  0.5145 -0.1007
 4573SOL    HW225179   1.621   0.705  16.563  1.0769 -0.1045  0.1486
 4574SOL     OW25180   0.565   2.088  10.157 -0.3343  0.0870  0.2842
 4574SOL    HW125181   0.606   2.002  10.167  1.1626  0.7426 -0.1303
 4574SOL    HW225182   0.485   2.062  10.111 -0.0312 -0.3162 -0.0146
 4575SOL     OW25183   3.281   2.516   3.100 -0.3274  0.5269 -0.6246
 4575SOL    HW125184   3.225   2.539   3.026 -2.3521  0.4106  0.8615
 4575SOL    HW225185   3.269   2.421   3.111  1.6871  0.1430 -1.7217
 4576SOL     OW25186   0.694   0.709   9.586  0.0823  0.3466  0.2241
 4576SOL    HW125187   0.651   0.725   9.670  0.1045  0.6032  0.1866
 4576SOL    HW225188   0.686   0.613   9.580  2.3580  0.0764  1.5977
 4577SOL     OW25189   2.878   4.540   3.034  0.0672 -0.1864 -0.0577
 4577SOL    HW125190   2.838   4.486   3.103 -1.6338 -1.5475 -2.0959
 4577SOL    HW225191   2.876   4.621   3.085  1.8998 -1.2934  1.7908
 4578SOL     OW25192   4.056   2.512   6.004  0.1749 -0.5477  0.5000
 4578SOL    HW125193   4.140   2.483   5.969  0.0140 -0.4171  0.0127
 4578SOL    HW225194   4.007   2.431   5.988 -1.1914  0.6087 -1.2021
 4579SOL     OW25195   2.285   2.852   9.559 -0.0106  0.0810 -0.3863
 4579SOL    HW125196   2.248   2.933   9.525 -0.6503 -0.7312 -1.6048
 4579SOL    HW225197   2.211   2.808   9.601 -0.8782 -1.3092 -3.3832
 4580SOL     OW25198   0.941   3.388  12.543  0.2776 -0.0217  0.0386
 4580SOL    HW125199   0.871   3.441  12.505 -1.0217 -1.8559 -0.1676
 4580SOL    HW225200   0.989   3.350  12.469 -0.5191  2.2542 -1.6405
 4581SOL     OW25201   0.919   0.474   9.384  0.0922  0.4740  0.7021
 4581SOL    HW125202   0.840   0.468   9.438  0.2751 -1.0701  0.8034
 4581SOL    HW225203   0.952   0.387   9.408 -1.4599 -0.4857 -0.6702
 4582SOL     OW25204   2.564   1.766   6.288  0.1056 -0.0722 -0.2523
 4582SOL    HW125205   2.504   1.818   6.342 -1.9096 -3.4097  0.7483
 4582SOL    HW225206   2.565   1.819   6.208  3.1265  0.7973  0.3501
 4583SOL     OW25207   4.522   2.890  17.357 -0.1388  0.0458 -0.1283
 4583SOL    HW125208   4.440   2.890  17.406  0.2902 -2.6681  0.6055
 4583SOL    HW225209   4.553   2.973  17.393  0.4509  0.0922 -0.7534
 4584SOL     OW25210   4.082   3.266   3.051 -0.2530 -0.2205 -0.2486
 4584SOL    HW125211   3.996   3.291   3.019 -0.4475 -0.9817 -0.3214
 4584SOL    HW225212   4.067   3.267   3.146  0.6153  1.8331 -0.1408
 4585SOL     OW25213   2.727   3.210   3.589  0.5480 -0.6380  0.4932
 4585SOL    HW125214   2.669   3.138   3.566 -1.9546  1.2979  0.8337
 4585SOL    HW225215   2.794   3.161   3.637  1.2420  2.3158  2.4892
 4586SOL     OW25216   3.030   0.576   6.702 -0.0128 -0.2098  0.1065
 4586SOL    HW125217   3.097   0.582   6.634  0.3540  1.1078  0.6033
 4586SOL    HW225218   3.065   0.501   6.751 -0.1596  0.8557  1.8122
 4587SOL     OW25219   3.859   3.441   6.267 -0.3373  0.1362  0.3201
 4587SOL    HW125220   3.836   3.522   6.313  0.2497  0.2000  0.4945
 4587SOL    HW225221   3.797   3.380   6.308  0.1217 -1.2646 -1.1029
 4588SOL     OW25222   1.243   2.016   5.570  0.7793  0.3363 -0.1763
 4588SOL    HW125223   1.191   2.092   5.546 -0.0016 -0.1439  0.0009
 4588SOL    HW225224   1.180   1.958   5.613  0.2383  0.8554 -0.2809
 4589SOL     OW25225   4.030   4.214  10.833  0.5461 -0.1051 -0.0926
 4589SOL    HW125226   4.123   4.211  10.858  0.2898 -0.3083  0.8276
 4589SOL    HW225227   3.989   4.164  10.903 -0.6376  0.2140 -0.5685
 4590SOL     OW25228   3.305   3.445   4.727 -0.0505  0.0435 -0.3260
 4590SOL    HW125229   3.331   3.535   4.746 -0.0043 -0.3940  1.6303
 4590SOL    HW225230   3.217   3.468   4.698  0.0047 -0.0484 -0.5653
 4591SOL     OW25231   2.868   3.084   8.811  0.4806  0.0981 -0.6803
 4591SOL    HW125232   2.779   3.056   8.788  0.7500 -0.8397 -0.6112
 4591SOL    HW225233   2.859   3.179   8.820  1.3683  0.0067  1.1599
 4592SOL     OW25234   0.687   1.825   3.063 -0.7027 -0.4474 -0.0334
 4592SOL    HW125235   0.684   1.862   2.975 -1.8726 -0.2442  0.0914
 4592SOL    HW225236   0.634   1.890   3.109 -0.0452  0.1140 -0.0708
 4593SOL     OW25237   0.255   1.219  16.993  0.5135 -0.6858  0.0464
 4593SOL    HW125238   0.289   1.145  16.943  1.2643 -0.7689  0.6858
 4593SOL    HW225239   0.296   1.286  16.939  2.3835  0.4562  2.8866
 4594SOL     OW25240   2.493   0.434   3.665  0.1726 -0.0213  0.2293
 4594SOL    HW125241   2.437   0.442   3.587 -0.6055 -0.8061  0.7066
 4594SOL    HW225242   2.539   0.518   3.666 -0.5559  0.4119 -1.6358
 4595SOL     OW25243   2.052   1.480  11.274  0.2042  0.5862 -0.0287
 4595SOL    HW125244   1.973   1.439  11.308  1.0744 -1.4008 -0.3787
 4595SOL    HW225245   2.104   1.414  11.227 -0.8672  1.2200 -2.1176
 4596SOL     OW25246   4.519   0.773   5.929  0.0821  0.1714 -1.2132
 4596SOL    HW125247   4.507   0.862   5.963 -0.7310 -1.0033  1.5269
 4596SOL    HW225248   4.476   0.795   5.846  1.3879  1.8726 -1.4350
 4597SOL     OW25249   0.416   1.148   8.548 -0.0977  0.8928  0.0894
 4597SOL    HW125250   0.386   1.235   8.522 -2.9066 -0.7782 -2.1835
 4597SOL    HW225251   0.395   1.096   8.471 -0.8916 -0.3235  1.1379
 4598SOL     OW25252   3.614   0.379   2.776  0.5606  0.8755  0.6611
 4598SOL    HW125253   3.639   0.405   2.865 -0.7073 -2.1104  1.9039
 4598SOL    HW225254   3.551   0.444   2.746 -1.6367 -0.9647  1.3037
 4599SOL     OW25255   4.430   4.121   3.110 -0.2647  0.2424  0.3321
 4599SOL    HW125256   4.353   4.154   3.065 -1.1665 -1.1140  0.8648
 4599SOL    HW225257   4.442   4.034   3.072  1.6202  0.6477 -0.0337
 4600SOL     OW25258   0.577   0.438   3.049  0.2866 -0.1517 -0.2847
 4600SOL    HW125259   0.498   0.401   3.011  0.3335  0.5162 -1.0441
 4600SOL    HW225260   0.572   0.521   3.001 -0.6517 -0.4204 -0.6379
 4601SOL     OW25261   1.649   1.688   5.438 -0.2517 -0.1528 -0.0659
 4601SOL    HW125262   1.692   1.603   5.437 -0.5848 -0.3226  0.0680
 4601SOL    HW225263   1.584   1.681   5.508  0.4742  0.0862  0.6302
 4602SOL     OW25264   1.337   0.244  15.410 -0.3989 -0.3507  0.5177
 4602SOL    HW125265   1.327   0.151  15.431  0.1932 -0.6291 -0.4124
 4602SOL    HW225266   1.381   0.234  15.325  1.3337  0.7599  1.2903
 4603SOL     OW25267   1.358   0.003   1.024  0.2835  0.1147 -0.4163
 4603SOL    HW125268   1.363   4.631   1.016 -1.3399 -0.1108  1.2279
 4603SOL    HW225269   1.311   0.031   0.946 -1.4543  0.9571  0.9375
 4604SOL     OW25270   1.096   4.026   8.475  0.0459 -0.0893 -0.5123
 4604SOL    HW125271   1.006   4.059   8.484  0.6609  1.1884  0.9052
 4604SOL    HW225272   1.081   3.961   8.406 -2.7496 -0.5048  0.4728
 4605SOL     OW25273   4.664   2.622   3.766  0.3678 -0.5357 -0.3401
 4605SOL    HW125274   0.003   2.671   3.820  0.0668  0.7925 -1.2061
 4605SOL    HW225275   4.586   2.674   3.787  1.2935  0.4508  0.6188
 4606SOL     OW25276   0.421   3.141  14.417  0.2531 -0.5048  0.2899
 4606SOL    HW125277   0.438   3.191  14.496 -1.9113  2.5643 -1.1684
 4606SOL    HW225278   0.416   3.210  14.351  0.3790 -0.6439  0.1357
 4607SOL     OW25279   1.368   0.585   0.071  0.1660  0.0202 -0.3212
 4607SOL    HW125280   1.406   0.571  17.676 -0.6617 -1.8447 -0.3811
 4607SOL    HW225281   1.446   0.610   0.120 -0.4840  0.1691  0.6263
 4608SOL     OW25282   1.837   1.921   9.089 -0.2659 -0.1822  0.1316
 4608SOL    HW125283   1.799   1.968   9.164  0.1293 -0.1463  0.3069
 4608SOL    HW225284   1.928   1.946   9.104 -0.1052 -1.2379  0.8890
 4609SOL     OW25285   2.043   2.358  13.549  0.2877 -0.8410 -0.4851
 4609SOL    HW125286   2.102   2.374  13.476 -1.1835  0.7556 -1.3489
 4609SOL    HW225287   2.030   2.444  13.588  0.3196 -2.2727  2.6681
 4610SOL     OW25288   2.306   3.478   7.549 -0.3350 -0.6349  0.2603
 4610SOL    HW125289   2.243   3.432   7.493  0.3531 -1.0216 -0.1955
 4610SOL    HW225290   2.375   3.493   7.484 -0.9283 -3.2402 -1.0093
 4611SOL     OW25291   2.435   2.598   5.699  0.1468 -0.7125 -0.1622
 4611SOL    HW125292   2.432   2.683   5.743 -1.2004 -0.9996  0.3189
 4611SOL    HW225293   2.391   2.547   5.768  0.3164  0.4239  0.7776
 4612SOL     OW25294   0.781   3.108  16.123 -0.0308  0.5425  0.5713
 4612SOL    HW125295   0.768   3.171  16.053 -3.1815  1.5548  2.1105
 4612SOL    HW225296   0.823   3.037  16.073 -1.3968 -0.0781  0.3223
 4613SOL     OW25297   4.033   2.396   3.898  0.5653  0.0694  0.0819
 4613SOL    HW125298   3.999   2.471   3.849  0.4207 -0.2179 -0.2606
 4613SOL    HW225299   4.085   2.347   3.834  2.0832  1.7677  0.0155
 4614SOL     OW25300   1.247   3.048  12.553 -0.0340 -0.4390 -0.0668
 4614SOL    HW125301   1.291   2.991  12.489 -0.2156 -0.8924  0.2154
 4614SOL    HW225302   1.299   3.036  12.632 -1.1279 -2.1560  0.4064
 4615SOL     OW25303   1.582   3.920   4.353 -0.9961  0.0304 -0.2133
 4615SOL    HW125304   1.572   4.013   4.371 -0.1586  0.1330 -0.2778
 4615SOL    HW225305   1.662   3.934   4.304  0.9981 -1.1494  2.6587
 4616SOL     OW25306   1.508   2.984   5.547  0.2262 -0.1326 -0.3130
 4616SOL    HW125307   1.455   2.965   5.624 -0.3652  0.5711 -0.5329
 4616SOL    HW225308   1.510   3.080   5.546 -0.4676 -0.1224 -1.9759
 4617SOL     OW25309   0.686   3.892   6.558 -0.0657  0.2129  0.4300
 4617SOL    HW125310   0.676   3.823   6.624  2.9552  0.1435  0.8047
 4617SOL    HW225311   0.687   3.973   6.609  1.8932  1.2769 -1.3025
 4618SOL     OW25312   4.182   3.590  11.726  0.3524  0.1187 -0.1817
 4618SOL    HW125313   4.257   3.614  11.672  0.5216 -1.6343 -0.7337
 4618SOL    HW225314   4.129   3.670  11.724  1.0626  0.6109  0.5021
 4619SOL     OW25315   0.694   4.704   6.902 -0.3213  0.2038  0.0079
 4619SOL    HW125316   0.715   4.627   6.954  2.0482  2.2805  2.0928
 4619SOL    HW225317   0.642   0.033   6.964 -0.7619 -1.1165  0.7335
 4620SOL     OW25318   1.268   4.559   5.568  1.1047 -0.3300 -0.1685
 4620SOL    HW125319   1.337   4.558   5.501  1.1587  0.5462 -0.1238
 4620SOL    HW225320   1.313   4.529   5.647  0.7330  1.9897  0.9064
 4621SOL     OW25321   3.258   4.499  12.074  0.5186 -0.0124  0.0167
 4621SOL    HW125322   3.245   4.416  12.119 -1.3620 -0.0467 -0.5684
 4621SOL    HW225323   3.274   4.552  12.152  0.5838  0.2126 -0.1471
 4622SOL     OW25324   3.313   0.624   2.345  0.3650  0.0306  0.4545
 4622SOL    HW125325   3.303   0.540   2.301 -0.3350  1.3515 -1.8549
 4622SOL    HW225326   3.326   0.683   2.271 -2.8011  0.6496  0.4219
 4623SOL     OW25327   1.632   3.446  15.247  0.6212  0.3987 -0.3861
 4623SOL    HW125328   1.579   3.373  15.278 -0.6589  1.8317  0.8238
 4623SOL    HW225329   1.669   3.469  15.333  0.2017 -1.7349  0.3766
 4624SOL     OW25330   4.386   3.628   5.260  0.1175 -0.2969  0.1739
 4624SOL    HW125331   4.414   3.547   5.219  1.0897  1.1261 -1.9431
 4624SOL    HW225332   4.350   3.690   5.197 -2.6189  1.1769  3.1491
 4625SOL     OW25333   2.099   4.365   6.469  0.1496 -0.2424 -0.2917
 4625SOL    HW125334   2.033   4.375   6.538 -0.4692 -0.2855 -0.8753
 4625SOL    HW225335   2.042   4.327   6.402 -0.5065  1.5367 -0.7442
 4626SOL     OW25336   2.975   0.886   9.022  0.2808  0.0630 -0.3292
 4626SOL    HW125337   3.068   0.911   9.023 -0.0182  0.9998  2.6456
 4626SOL    HW225338   2.948   0.918   9.108  0.0535  0.3983 -0.5273
 4627SOL     OW25339   3.648   2.426   7.397  0.6341  0.0128 -0.4907
 4627SOL    HW125340   3.703   2.351   7.372 -0.8555 -0.7200 -1.6005
 4627SOL    HW225341   3.652   2.487   7.324  0.8093  1.6272  0.8680
 4628SOL     OW25342   4.718   2.814   8.117  0.2957 -0.5734  0.3663
 4628SOL    HW125343   0.011   2.779   8.205 -1.4032  0.2564  1.0164
 4628SOL    HW225344   0.049   2.893   8.106  0.0903 -0.3052  1.2822
 4629SOL     OW25345   0.394   1.112  14.065  0.0858  0.2761  0.0242
 4629SOL    HW125346   0.423   1.059  13.990  0.1432 -0.3311  0.4779
 4629SOL    HW225347   0.472   1.102  14.119  0.8559  0.1067 -1.1209
 4630SOL     OW25348   0.642   1.892  17.427 -0.4084  0.8496 -0.7575
 4630SOL    HW125349   0.622   1.800  17.443  1.0860  0.8567  1.0828
 4630SOL    HW225350   0.737   1.894  17.436 -0.4034  1.6253 -0.9501
 4631SOL     OW25351   4.559   4.129   4.229 -0.5490  0.5951 -0.3256
 4631SOL    HW125352   4.642   4.145   4.184 -0.1000 -3.8694 -1.1632
 4631SOL    HW225353   4.571   4.190   4.302  1.2847  0.4543 -0.4969
 4632SOL     OW25354   2.208   0.192   8.726  0.7055 -0.1486 -0.3141
 4632SOL    HW125355   2.299   0.165   8.738  0.3979 -1.0936 -0.0257
 4632SOL    HW225356   2.168   0.199   8.813  1.6578  2.7585 -0.1209
 4633SOL     OW25357   3.665   1.509  11.704 -0.2812 -0.0631  0.0020
 4633SOL    HW125358   3.712   1.435  11.666 -1.3571 -0.2987 -0.8914
 4633SOL    HW225359   3.629   1.547  11.624 -1.1081 -0.4157  0.2033
 4634SOL     OW25360   4.277   4.078   6.008 -0.6403 -0.4878 -0.8269
 4634SOL    HW125361   4.343   4.011   5.989 -0.1149  0.3183 -1.8309
 4634SOL    HW225362   4.201   4.021   6.018 -2.8235  3.1335  2.8022
 4635SOL     OW25363   0.732   1.522   8.076 -0.3107 -0.0718 -0.2240
 4635SOL    HW125364   0.728   1.543   7.983  3.0888 -0.3987 -0.4604
 4635SOL    HW225365   0.642   1.497   8.097  0.1642 -0.7610  0.9563
 4636SOL     OW25366   2.709   2.997   4.003 -0.1949 -0.0159  0.3881
 4636SOL    HW125367   2.655   3.051   3.946  2.2934 -0.6154 -2.5604
 4636SOL    HW225368   2.666   2.985   4.088  0.3008 -0.4518  0.5825
 4637SOL     OW25369   1.896   0.630   8.136  0.5768  0.7310  0.3312
 4637SOL    HW125370   1.944   0.649   8.055 -0.4932  0.1800 -0.4222
 4637SOL    HW225371   1.883   0.720   8.167  1.6212  0.2813  2.0403
 4638SOL     OW25372   0.007   0.238   5.072 -0.0582  0.3715  0.3269
 4638SOL    HW125373   4.688   0.160   5.108  0.9403 -0.6135 -0.6594
 4638SOL    HW225374   4.684   0.253   4.989  0.1456 -2.4710 -0.2957
 4639SOL     OW25375   2.260   3.734   7.786 -0.0368 -0.1127 -0.3476
 4639SOL    HW125376   2.183   3.688   7.818 -0.0576  1.7205  2.2529
 4639SOL    HW225377   2.235   3.825   7.803 -1.2780 -0.2351 -1.5013
 4640SOL     OW25378   0.856   4.195   1.435 -0.2340 -0.2149  0.6169
 4640SOL    HW125379   0.793   4.264   1.416  1.1826  0.7147 -0.7154
 4640SOL    HW225380   0.800   4.118   1.439  1.4712 -1.3826  1.6040
 4641SOL     OW25381   1.173   3.346   7.874  1.0432 -0.0845  0.0651
 4641SOL    HW125382   1.259   3.376   7.847  0.9263 -0.4012 -0.6460
 4641SOL    HW225383   1.187   3.254   7.854  2.9041  0.8001 -2.6557
 4642SOL     OW25384   2.066   2.762   5.183 -0.0323  0.5246 -0.2720
 4642SOL    HW125385   2.079   2.737   5.092 -0.0152 -0.5148  0.0181
 4642SOL    HW225386   2.147   2.800   5.216 -0.3138  2.0254 -1.2862
 4643SOL     OW25387   0.092   3.828  16.396 -0.2674 -0.1420  0.1837
 4643SOL    HW125388   0.182   3.812  16.368 -0.9465  0.3950 -2.2664
 4643SOL    HW225389   0.085   3.755  16.458  0.9134 -0.0415  0.4193
 4644SOL     OW25390   2.500   1.770  11.872  0.3599  0.1429 -0.1031
 4644SOL    HW125391   2.537   1.698  11.821  0.8065  0.4389 -0.2022
 4644SOL    HW225392   2.499   1.834  11.801 -0.5044 -0.1148 -0.3209
 4645SOL     OW25393   3.729   2.367   6.690  0.4383 -0.3342  0.6638
 4645SOL    HW125394   3.713   2.422   6.613 -1.7078 -1.0547  0.6032
 4645SOL    HW225395   3.655   2.308   6.682  0.6698 -0.4898 -0.2810
 4646SOL     OW25396   2.618   0.931   5.130  0.1483 -0.1676 -0.3008
 4646SOL    HW125397   2.600   0.857   5.187  1.8975 -1.3454 -1.2952
 4646SOL    HW225398   2.587   0.905   5.043 -1.5588 -4.4132  1.6167
 4647SOL     OW25399   0.052   0.121   8.845 -0.2389 -0.3615 -0.1794
 4647SOL    HW125400   0.094   0.206   8.859  0.5217 -0.9658  1.2192
 4647SOL    HW225401   4.720   0.109   8.923 -1.0729  1.0910 -0.5594
 4648SOL     OW25402   1.727   0.569   7.541 -0.0141  0.2788 -0.1124
 4648SOL    HW125403   1.679   0.637   7.587 -1.6391 -0.4097 -0.7927
 4648SOL    HW225404   1.804   0.563   7.598  0.4531  1.4279 -0.6198
 4649SOL     OW25405   1.508   3.127  12.325  0.7754  0.2212  0.1660
 4649SOL    HW125406   1.548   3.127  12.412  2.4809 -1.8164 -0.6246
 4649SOL    HW225407   1.574   3.091  12.266 -0.8190  2.7324 -3.1689
 4650SOL     OW25408   0.452   3.323   2.477 -0.3854  0.1517 -0.1227
 4650SOL    HW125409   0.437   3.384   2.404 -1.1283 -2.4222 -2.1165
 4650SOL    HW225410   0.362   3.292   2.478 -0.4923  0.4246 -0.9958
 4651SOL     OW25411   0.165   4.188   8.030  0.0677  0.6850 -0.0371
 4651SOL    HW125412   0.243   4.195   7.976  0.1746 -0.7375 -0.0665
 4651SOL    HW225413   0.198   4.164   8.117 -1.6512 -0.9689  0.1598
 4652SOL     OW25414   1.050   3.313   0.384  0.0780  0.2732  0.5416
 4652SOL    HW125415   1.026   3.302   0.292  1.4162  1.5875  0.0466
 4652SOL    HW225416   1.004   3.242   0.428 -0.3265  1.4247  1.9660
 4653SOL     OW25417   3.073   2.517   7.638 -0.0996 -0.4378 -0.1035
 4653SOL    HW125418   3.073   2.605   7.601  0.7623  0.2933  1.6645
 4653SOL    HW225419   3.046   2.520   7.729 -0.2174  1.0822 -0.1994
 4654SOL     OW25420   4.627   4.159   2.853 -0.0821  0.0779  0.5579
 4654SOL    HW125421   4.537   4.183   2.832  0.5860  2.0094 -0.0461
 4654SOL    HW225422   4.654   4.219   2.923 -0.1047  1.2600 -0.4480
 4655SOL     OW25423   4.278   2.481   7.118 -0.6501  0.2075  0.1280
 4655SOL    HW125424   4.211   2.429   7.163 -0.3020  1.9812  2.6662
 4655SOL    HW225425   4.250   2.482   7.027  2.4725 -0.3526 -0.8312
 4656SOL     OW25426   0.561   3.797   2.250 -0.1174  0.7358  0.5109
 4656SOL    HW125427   0.510   3.870   2.215 -1.4806 -0.8011 -0.7365
 4656SOL    HW225428   0.592   3.760   2.168 -1.1841 -1.5312  1.1107
 4657SOL     OW25429   2.784   0.273   7.875 -0.0354 -0.7957 -0.3729
 4657SOL    HW125430   2.818   0.269   7.785  0.6078 -1.0481 -0.1179
 4657SOL    HW225431   2.820   0.189   7.906  1.2021 -0.9117 -2.0902
 4658SOL     OW25432   2.085   3.346   6.094  0.4575  0.3523  0.0291
 4658SOL    HW125433   2.112   3.260   6.064 -0.7261  0.1252 -0.3892
 4658SOL    HW225434   2.061   3.398   6.018 -0.2506  2.1045  1.4380
 4659SOL     OW25435   3.782   2.881  16.648 -0.5400  0.0516  0.3228
 4659SOL    HW125436   3.780   2.973  16.623  0.2923  0.7850  2.9267
 4659SOL    HW225437   3.720   2.856  16.580 -0.5578  1.5474 -0.1946
 4660SOL     OW25438   2.138   2.363   7.627 -0.3823 -0.2996  0.4955
 4660SOL    HW125439   2.055   2.352   7.672 -2.0897  0.3161 -2.5143
 4660SOL    HW225440   2.147   2.459   7.622  3.4478 -0.6185  0.9687
 4661SOL     OW25441   0.997   1.003  12.397 -0.2100  0.2509 -0.1013
 4661SOL    HW125442   0.903   1.016  12.404 -0.0588  0.9970  0.5350
 4661SOL    HW225443   1.018   0.983  12.488  3.5226 -1.7931 -1.4049
 4662SOL     OW25444   1.163   3.228  10.355 -0.0515  0.5262  0.4240
 4662SOL    HW125445   1.143   3.320  10.374 -0.3145  0.3403  1.0318
 4662SOL    HW225446   1.109   3.190  10.424  0.9768  0.4729  1.1986
 4663SOL     OW25447   1.555   1.011   4.700  0.1311 -0.0917 -0.2044
 4663SOL    HW125448   1.645   1.042   4.707  0.8415 -2.6697  2.2040
 4663SOL    HW225449   1.499   1.088   4.695 -0.7967 -0.7396  0.1983
 4664SOL     OW25450   2.655   4.619   0.222 -0.1892  0.5967 -0.3113
 4664SOL    HW125451   2.604   4.617   0.303  0.5874  2.1385  0.2176
 4664SOL    HW225452   2.580   4.616   0.163  0.5704  0.4429 -1.2625
 4665SOL     OW25453   3.979   0.695   6.548 -0.4592 -0.0239 -0.3230
 4665SOL    HW125454   4.070   0.720   6.533 -0.1128 -1.3659 -0.5099
 4665SOL    HW225455   3.983   0.663   6.638  0.0035  1.3935  0.1531
 4666SOL     OW25456   3.031   3.162  16.554  0.1537  0.3858 -1.3543
 4666SOL    HW125457   3.040   3.117  16.471  0.4085 -0.8351 -0.6678
 4666SOL    HW225458   3.113   3.211  16.559  0.0812  0.3732  0.0252
 4667SOL     OW25459   2.674   0.739   7.641 -0.2931  0.0241 -0.6374
 4667SOL    HW125460   2.652   0.653   7.676 -0.4046  0.7731  1.1312
 4667SOL    HW225461   2.651   0.730   7.549  1.1445  1.8394 -1.1718
 4668SOL     OW25462   0.232   3.675  12.338  0.3084 -0.4647 -0.0715
 4668SOL    HW125463   0.187   3.668  12.253  1.4104 -0.3632 -0.6609
 4668SOL    HW225464   0.204   3.590  12.371 -1.5606 -0.1734 -0.8622
 4669SOL     OW25465   0.846   0.317   6.311  0.2970 -0.2806 -0.5168
 4669SOL    HW125466   0.903   0.386   6.276 -1.8494  2.6069  1.6675
 4669SOL    HW225467   0.906   0.289   6.381 -0.0933  0.5808  0.1594
 4670SOL     OW25468   0.785   1.963   9.332  0.1453  0.1913 -0.2181
 4670SOL    HW125469   0.872   1.923   9.337 -0.8295 -2.0482 -0.8068
 4670SOL    HW225470   0.803   2.044   9.379 -1.5942  0.9318 -0.8216
 4671SOL     OW25471   3.062   4.333   1.070  0.9629 -0.1088  0.0771
 4671SOL    HW125472   2.992   4.347   1.007  0.7481  1.9542  0.7806
 4671SOL    HW225473   3.041   4.395   1.140  1.5375  0.3731 -0.1836
 4672SOL     OW25474   0.770   3.611   1.523 -0.3448  0.2864  0.3101
 4672SOL    HW125475   0.718   3.636   1.600  2.6416 -0.0421  2.4693
 4672SOL    HW225476   0.803   3.522   1.538 -2.4407 -0.2402  1.7900
 4673SOL     OW25477   3.281   1.407   9.886  0.5883 -0.7124  0.1553
 4673SOL    HW125478   3.336   1.477   9.920 -0.6677  0.9374 -1.2280
 4673SOL    HW225479   3.304   1.332   9.941  0.7712 -1.1804 -0.5592
 4674SOL     OW25480   4.467   4.331   6.946  0.2613  0.4497  0.0158
 4674SOL    HW125481   4.481   4.411   6.895  1.7057  0.1873 -0.0008
 4674SOL    HW225482   4.433   4.277   6.875  1.2245  0.8294 -0.7366
 4675SOL     OW25483   3.737   3.534   4.350 -0.0608  0.3270  0.0261
 4675SOL    HW125484   3.642   3.542   4.358 -0.0735 -0.0694  0.3092
 4675SOL    HW225485   3.763   3.508   4.438  1.5449  1.6640 -0.0692
 4676SOL     OW25486   0.352   2.717   1.890 -0.7153  0.3419  0.1019
 4676SOL    HW125487   0.361   2.692   1.982  0.1774 -0.2985 -0.1530
 4676SOL    HW225488   0.433   2.763   1.872  0.2332 -1.1024  0.6391
 4677SOL     OW25489   4.481   0.755   7.161 -0.1783 -0.2908  0.3714
 4677SOL    HW125490   4.540   0.723   7.228  1.3957  1.1863 -0.3192
 4677SOL    HW225491   4.460   0.846   7.184  0.8836 -0.3415  1.5160
 4678SOL     OW25492   2.701   2.788   5.263  0.5072 -0.4307  0.0580
 4678SOL    HW125493   2.735   2.877   5.261 -1.2315  0.2079 -0.3743
 4678SOL    HW225494   2.685   2.778   5.357 -2.5820  0.9867 -0.3176
 4679SOL     OW25495   2.895   1.102   8.394  0.0263 -0.6915  0.4531
 4679SOL    HW125496   2.988   1.118   8.376  0.2190 -0.0391  2.0862
 4679SOL    HW225497   2.878   1.055   8.312 -2.3155  0.3419  0.3563
 4680SOL     OW25498   1.191   3.701  13.791  0.3988  0.4664  0.4766
 4680SOL    HW125499   1.096   3.712  13.797  0.2852  0.4756 -1.2314
 4680SOL    HW225500   1.210   3.733  13.879 -2.8835 -0.3545  1.4756
 4681SOL     OW25501   2.285   1.434   4.112  0.1696  0.1507 -0.3976
 4681SOL    HW125502   2.244   1.517   4.135 -0.6563  0.1671 -1.9195
 4681SOL    HW225503   2.371   1.464   4.085  0.5313 -1.9607 -1.6709
 4682SOL     OW25504   3.716   2.270   8.408 -0.3549 -0.1218 -0.3076
 4682SOL    HW125505   3.751   2.237   8.325  0.2542 -0.6336  0.1524
 4682SOL    HW225506   3.785   2.332   8.432 -1.3635  0.2788  1.5068
 4683SOL     OW25507   3.627   3.209   3.047  0.3223  0.1820  1.1074
 4683SOL    HW125508   3.536   3.237   3.038 -0.5902 -2.4466  2.1906
 4683SOL    HW225509   3.632   3.139   3.112 -1.0272 -0.5415  0.4105
 4684SOL     OW25510   2.222   2.376  16.232 -0.2160 -0.1657  0.2295
 4684SOL    HW125511   2.223   2.380  16.137  0.1522 -0.9791  0.2017
 4684SOL    HW225512   2.292   2.440  16.245 -0.7727  1.0937 -2.9155
 4685SOL     OW25513   1.431   3.948  10.802 -0.1396 -0.3844 -0.2112
 4685SOL    HW125514   1.484   3.869  10.802  1.2256  0.5344 -0.1057
 4685SOL    HW225515   1.380   3.945  10.883 -1.3006 -0.4964 -0.9381
 4686SOL     OW25516   1.808   4.277   9.392  0.1330 -0.1713 -0.1167
 4686SOL    HW125517   1.821   4.313   9.480 -0.8261 -3.1417  1.2469
 4686SOL    HW225518   1.732   4.223   9.413  0.0406  0.9665  2.5926
 4687SOL     OW25519   1.372   1.851   8.791 -0.0018 -0.0642  0.3017
 4687SOL    HW125520   1.315   1.775   8.790 -1.6204  1.2023 -2.3393
 4687SOL    HW225521   1.320   1.925   8.760 -3.3441 -2.5025  0.2049
 4688SOL     OW25522   0.949   0.154   6.817  0.3466  0.3174  0.7880
 4688SOL    HW125523   0.894   0.078   6.798  0.7760  0.6269 -1.6050
 4688SOL    HW225524   0.927   0.161   6.910 -2.0737  1.4931  0.1299
 4689SOL     OW25525   3.928   0.239  13.685  0.0971 -0.0578  0.2091
 4689SOL    HW125526   3.954   0.254  13.594  1.8883 -1.1978  0.5420
 4689SOL    HW225527   3.856   0.179  13.668  1.2910 -1.3251 -0.3294
 4690SOL     OW25528   3.143   1.373   5.143 -0.7709  0.0746 -0.0097
 4690SOL    HW125529   3.225   1.324   5.143 -1.3566 -0.8928  2.5358
 4690SOL    HW225530   3.094   1.319   5.205 -0.8804 -0.7308 -0.7990
 4691SOL     OW25531   0.538   4.047  16.503 -0.2711 -0.1503  0.0100
 4691SOL    HW125532   0.617   4.099  16.484 -1.7152  1.9166 -0.3034
 4691SOL    HW225533   0.479   4.054  16.428  1.2289  1.0597 -1.0706
 4692SOL     OW25534   2.122   0.015   9.369 -0.7529  0.1739  0.0896
 4692SOL    HW125535   2.167   4.708   9.448  0.7971 -0.8299 -1.1631
 4692SOL    HW225536   2.055   4.670   9.360  0.9586 -1.6910  1.1109
 4693SOL     OW25537   2.391   3.620   1.351  0.4803  0.4129 -0.3372
 4693SOL    HW125538   2.440   3.586   1.276  1.9282  0.2302  0.6924
 4693SOL    HW225539   2.444   3.590   1.425 -0.5765 -0.9158 -0.1038
 4694SOL     OW25540   0.166   3.623  15.481 -0.6460  0.1907 -0.2233
 4694SOL    HW125541   0.208   3.545  15.516  0.3984  0.7853 -0.1448
 4694SOL    HW225542   0.127   3.592  15.399 -1.1297  0.3648 -0.0605
 4695SOL     OW25543   1.246   3.368   4.305  0.6776  0.4002 -0.1413
 4695SOL    HW125544   1.336   3.353   4.334  0.6181  2.8631  1.3601
 4695SOL    HW225545   1.229   3.295   4.245 -0.2549 -1.2816  2.1663
 4696SOL     OW25546   2.800   2.691   8.510 -0.5714  0.3731 -0.6257
 4696SOL    HW125547   2.869   2.672   8.573  0.9362  2.0899 -1.7232
 4696SOL    HW225548   2.864   2.713   8.442  0.1492 -0.6758 -0.2725
 4697SOL     OW25549   1.518   4.294   5.247  0.1085 -0.3789  0.5922
 4697SOL    HW125550   1.437   4.280   5.297 -0.0526 -0.1286  0.3997
 4697SOL    HW225551   1.590   4.265   5.304  1.0019 -0.3924 -0.5600
 4698SOL     OW25552   2.983   1.616   6.755 -0.3255 -0.6807  0.3743
 4698SOL    HW125553   2.976   1.675   6.831  1.7905  0.5200 -0.3842
 4698SOL    HW225554   2.915   1.657   6.702 -0.1645 -1.0941 -0.1543
 4699SOL     OW25555   2.550   3.717   7.401  0.0709  0.2403 -0.3159
 4699SOL    HW125556   2.488   3.752   7.337 -1.1118 -2.0397 -0.4194
 4699SOL    HW225557   2.634   3.742   7.363  1.0054 -2.4398 -0.0527
 4700SOL     OW25558   4.072   4.500   1.378  0.5552  0.1555 -0.7799
 4700SOL    HW125559   4.162   4.512   1.349  0.4209  1.0265 -0.8209
 4700SOL    HW225560   4.092   4.453   1.460 -0.9047  1.5107  0.3570
 4701SOL     OW25561   1.916   2.299   7.241 -0.0137 -0.0516  0.0568
 4701SOL    HW125562   1.914   2.240   7.316 -0.1633  2.3375  1.9207
 4701SOL    HW225563   1.851   2.251   7.189  0.5310  1.1289 -1.7248
 4702SOL     OW25564   0.887   4.185   8.561  0.3067 -0.4536  0.2488
 4702SOL    HW125565   0.880   4.253   8.628 -2.1367 -0.3398 -0.1276
 4702SOL    HW225566   0.804   4.144   8.539 -0.5629  0.8769  1.0528
 4703SOL     OW25567   4.099   3.537  13.925  0.2942 -0.4425 -0.2526
 4703SOL    HW125568   4.006   3.515  13.931  0.0173  0.4380 -1.2330
 4703SOL    HW225569   4.093   3.623  13.883  0.9510  0.3692  1.3044
 4704SOL     OW25570   3.983   1.314  10.411  0.0963 -0.0635 -0.4184
 4704SOL    HW125571   4.000   1.381  10.345  0.9321  0.4326  0.3110
 4704SOL    HW225572   4.071   1.294  10.443 -0.4369 -1.9511 -0.1477
 4705SOL     OW25573   2.582   3.377   4.642 -0.1034  0.1677 -0.6617
 4705SOL    HW125574   2.632   3.452   4.675 -2.4217  1.3622  0.1731
 4705SOL    HW225575   2.501   3.421   4.617 -0.0978  0.7720  0.3872
 4706SOL     OW25576   4.156   1.365   5.732  0.0888 -0.2650  0.1734
 4706SOL    HW125577   4.226   1.301   5.743  1.3719  1.1678  0.3322
 4706SOL    HW225578   4.161   1.349   5.638  0.2371 -0.4206  0.2088
 4707SOL     OW25579   3.785   1.618   4.929 -0.2392 -0.1670 -0.2888
 4707SOL    HW125580   3.846   1.626   4.857  1.1526  1.5689  1.0887
 4707SOL    HW225581   3.845   1.592   4.999  0.2510 -0.1819 -0.7166
 4708SOL     OW25582   2.572   2.466   6.613  0.2998 -0.2279 -0.2705
 4708SOL    HW125583   2.544   2.496   6.699  0.8850 -0.0632 -0.1314
 4708SOL    HW225584   2.504   2.504   6.557  0.7623 -1.5695 -1.7484
 4709SOL     OW25585   2.664   2.267   5.336 -0.1891 -0.0692  0.6091
 4709SOL    HW125586   2.719   2.344   5.347  1.6342 -1.2437 -0.2227
 4709SOL    HW225587   2.619   2.260   5.420 -3.0527 -0.1612 -0.9502
 4710SOL     OW25588   3.873   2.003   4.858 -0.2206  0.9675 -0.0761
 4710SOL    HW125589   3.910   2.070   4.916  0.3319  0.0284  0.6472
 4710SOL    HW225590   3.784   1.994   4.890  0.6432 -1.1754  1.7175
 4711SOL     OW25591   0.273   0.013   4.309 -0.7686 -0.7762 -0.6007
 4711SOL    HW125592   0.311   0.098   4.331 -1.0577 -1.1427  1.2630
 4711SOL    HW225593   0.246   0.047   4.223  0.0643  1.0943 -0.0975
 4712SOL     OW25594   1.060   1.018  17.610 -0.3198  0.0057  0.3113
 4712SOL    HW125595   1.042   0.983   0.004  0.3085  2.4798  1.4646
 4712SOL    HW225596   1.140   1.070  17.619 -1.3768  1.6488  0.2998
 4713SOL     OW25597   3.182   3.538   1.903 -1.0968  0.2328 -0.3228
 4713SOL    HW125598   3.244   3.472   1.933 -1.8418 -0.5606 -0.5081
 4713SOL    HW225599   3.237   3.577   1.836 -0.3734 -1.1058 -0.5203
 4714SOL     OW25600   3.844   2.196   0.616  0.3687 -0.2777 -0.2484
 4714SOL    HW125601   3.769   2.255   0.615  1.6484  1.3658  0.7047
 4714SOL    HW225602   3.914   2.260   0.606  1.1929 -1.1519 -0.0673
 4715SOL     OW25603   1.811   1.076   5.384  0.2803  0.1920 -0.0426
 4715SOL    HW125604   1.766   1.069   5.469 -3.0654 -0.0765 -1.8369
 4715SOL    HW225605   1.873   1.145   5.409  0.5952 -0.4758  1.0150
 4716SOL     OW25606   4.632   1.530   3.605 -0.1067  0.4469 -0.4049
 4716SOL    HW125607   4.631   1.439   3.633  0.2543  1.0131  1.4573
 4716SOL    HW225608   4.718   1.527   3.564 -0.3347  0.2685 -0.8665
 4717SOL     OW25609   3.449   2.525   2.806  0.4523 -0.3479  0.3246
 4717SOL    HW125610   3.374   2.561   2.759 -0.5610 -1.1294  1.3356
 4717SOL    HW225611   3.422   2.439   2.838  0.7070 -1.1857 -1.7209
 4718SOL     OW25612   4.693   0.079   6.423 -0.6700  0.8143 -0.4745
 4718SOL    HW125613   0.044   0.074   6.483 -0.9154  2.1522 -0.0733
 4718SOL    HW225614   4.690   4.710   6.396 -0.9998  0.4695  0.7219
 4719SOL     OW25615   3.427   0.830   3.320  0.1214 -0.0674 -0.0376
 4719SOL    HW125616   3.434   0.736   3.307  2.2241  0.0075  0.5595
 4719SOL    HW225617   3.434   0.853   3.227 -0.6297  2.3864  0.4991
 4720SOL     OW25618   0.419   4.570  13.088  0.4790 -0.2610 -0.1720
 4720SOL    HW125619   0.377   4.617  13.016 -1.7934 -0.3365  1.0897
 4720SOL    HW225620   0.473   4.517  13.029 -1.1663 -0.9560 -1.0737
 4721SOL     OW25621   2.826   0.800   5.944 -0.4641  0.2620 -0.0863
 4721SOL    HW125622   2.736   0.814   5.973 -0.1671 -1.3776  1.6301
 4721SOL    HW225623   2.873   0.785   6.026 -0.8505  2.8875  0.6194
 4722SOL     OW25624   0.479   0.396  13.045 -0.0318  0.2127 -0.3646
 4722SOL    HW125625   0.478   0.334  12.972  0.3202  0.2742 -0.4226
 4722SOL    HW225626   0.402   0.371  13.096  0.9944 -1.8047  0.2149
 4723SOL     OW25627   1.509   2.858   5.195 -0.7291  0.2666 -0.2851
 4723SOL    HW125628   1.513   2.764   5.176  1.0190  0.2154  0.2612
 4723SOL    HW225629   1.601   2.873   5.217 -0.9964  1.2655  0.1455
 4724SOL     OW25630   4.246   2.260   6.922  0.5642  0.8184 -0.2878
 4724SOL    HW125631   4.192   2.321   6.870 -0.7707  0.8608  1.1517
 4724SOL    HW225632   4.181   2.191   6.937 -0.5209  2.2927  1.8074
 4725SOL     OW25633   2.535   2.397  10.858  0.2677  0.7119 -0.4093
 4725SOL    HW125634   2.583   2.479  10.849  0.9897  0.4757  1.2440
 4725SOL    HW225635   2.567   2.349  10.782 -0.5562  0.4634 -0.5975
 4726SOL     OW25636   2.546   1.239  13.499  0.5874  0.7017  0.0215
 4726SOL    HW125637   2.524   1.203  13.413 -1.0446  1.8336 -0.0303
 4726SOL    HW225638   2.522   1.168  13.558  2.0598 -0.6688 -1.0122
 4727SOL     OW25639   0.100   1.811   3.922  0.0840  0.6292 -0.0410
 4727SOL    HW125640   0.063   1.726   3.898  0.3229  0.4525  0.2126
 4727SOL    HW225641   0.048   1.874   3.871  1.0756  0.9596 -0.6423
 4728SOL     OW25642   0.080   3.613  16.814 -0.3245 -0.2035 -0.4770
 4728SOL    HW125643   0.149   3.597  16.879 -1.3689 -1.6447  0.3080
 4728SOL    HW225644   0.003   3.612  16.872 -0.0986 -0.6783 -0.1847
 4729SOL     OW25645   3.959   2.190   5.036 -0.1251  0.1732 -0.4611
 4729SOL    HW125646   3.908   2.197   5.116  2.4481 -2.6707  1.4539
 4729SOL    HW225647   4.047   2.187   5.074 -0.2644 -3.9523 -0.4372
 4730SOL     OW25648   1.384   4.116   7.973  0.0716 -0.1786  0.1748
 4730SOL    HW125649   1.407   4.179   7.905 -0.6995 -1.3891 -1.1962
 4730SOL    HW225650   1.295   4.142   7.999  0.5703  2.7669 -1.0154
 4731SOL     OW25651   0.667   3.312  14.418  0.2482  0.1150 -0.0367
 4731SOL    HW125652   0.703   3.223  14.415 -1.9461 -0.7827  0.7125
 4731SOL    HW225653   0.705   3.352  14.495  0.4481 -5.2296  2.6727
 4732SOL     OW25654   3.196   3.935   7.968  0.2734  0.2065 -0.1234
 4732SOL    HW125655   3.114   3.905   8.008  0.5537  0.5644  0.7291
 4732SOL    HW225656   3.169   4.024   7.948 -1.8704 -1.4515 -4.5090
 4733SOL     OW25657   3.894   0.302   1.141 -0.3124  0.0616  0.3341
 4733SOL    HW125658   3.969   0.242   1.154 -0.1901 -0.1035 -1.1680
 4733SOL    HW225659   3.840   0.276   1.216  0.7472 -0.7760  0.8243
 4734SOL     OW25660   4.544   0.941   0.209 -0.3217  0.3814 -0.6458
 4734SOL    HW125661   4.557   0.999   0.284 -0.6858  0.4767 -0.6546
 4734SOL    HW225662   4.617   0.882   0.222 -0.7073  0.2405  0.8573
 4735SOL     OW25663   2.288   1.184   0.558  0.2523 -0.2102 -0.1752
 4735SOL    HW125664   2.336   1.240   0.497 -1.6867  0.2522 -1.2986
 4735SOL    HW225665   2.240   1.254   0.603 -0.9755 -0.2531 -1.3982
 4736SOL     OW25666   3.562   2.329   4.170  0.0855 -0.4921 -0.3469
 4736SOL    HW125667   3.596   2.272   4.101 -3.2026 -1.5263 -1.1128
 4736SOL    HW225668   3.638   2.385   4.187 -1.1559  0.1863  3.0940
 4737SOL     OW25669   3.613   2.822   2.304  0.1441  0.0468  0.5305
 4737SOL    HW125670   3.534   2.823   2.359 -0.4945  0.3384 -0.3811
 4737SOL    HW225671   3.566   2.821   2.220 -1.6310 -0.5155  1.5296
 4738SOL     OW25672   2.103   0.783   7.990  0.4170 -0.3704 -0.2924
 4738SOL    HW125673   2.095   0.853   7.926  0.0739 -1.6356 -1.6275
 4738SOL    HW225674   2.142   0.827   8.066 -0.3789  1.2650 -0.8341
 4739SOL     OW25675   1.066   1.680   1.075  0.0750 -0.2925  0.1163
 4739SOL    HW125676   1.002   1.616   1.044  3.4373 -2.0958 -3.1182
 4739SOL    HW225677   1.072   1.651   1.166  0.0965 -0.3864  0.0858
 4740SOL     OW25678   2.112   0.359   8.938  0.3872 -0.1556  0.5005
 4740SOL    HW125679   2.022   0.376   8.965  0.1986 -0.0437 -0.2217
 4740SOL    HW225680   2.138   0.447   8.964 -0.1214 -0.3404  1.6601
 4741SOL     OW25681   2.865   0.075   8.468 -0.4368  0.0616 -0.1601
 4741SOL    HW125682   2.959   0.066   8.452 -0.2647  2.5870 -0.5429
 4741SOL    HW225683   2.831   4.709   8.455  0.3980 -0.4721  1.3504
 4742SOL     OW25684   0.782   1.506   4.317 -0.1173 -0.1146 -0.4473
 4742SOL    HW125685   0.790   1.551   4.401  0.0485 -0.5406 -0.2320
 4742SOL    HW225686   0.777   1.572   4.249 -1.3085  0.8295  0.5616
 4743SOL     OW25687   0.402   4.181   1.072 -0.2440  0.0605  0.1086
 4743SOL    HW125688   0.309   4.180   1.095 -0.0023 -0.3965  1.0874
 4743SOL    HW225689   0.414   4.185   0.977 -0.5088  2.1500  0.1627
 4744SOL     OW25690   0.865   1.644   3.101 -0.2986 -0.6276 -0.4765
 4744SOL    HW125691   0.821   1.611   3.024 -1.2479 -1.5011  0.4525
 4744SOL    HW225692   0.799   1.710   3.121  1.2486  1.1140 -1.0935
 4745SOL     OW25693   0.777   0.914   5.405 -0.3560  0.2528 -0.6686
 4745SOL    HW125694   0.864   0.951   5.422  0.0905  0.2541 -2.9356
 4745SOL    HW225695   0.792   0.860   5.327  0.7592  0.5324 -0.6590
 4746SOL     OW25696   2.563   4.238   9.459 -0.2367  0.9995  0.5600
 4746SOL    HW125697   2.613   4.245   9.540 -1.2234 -0.3855  1.2928
 4746SOL    HW225698   2.510   4.162   9.484  0.1700  1.1626  1.9106
 4747SOL     OW25699   3.976   1.142   3.951 -0.5539  0.5066  0.2944
 4747SOL    HW125700   3.931   1.118   3.869 -1.7454  0.6441  0.9084
 4747SOL    HW225701   4.004   1.052   3.969 -1.6016 -0.1558 -1.3153
 4748SOL     OW25702   4.048   1.573   6.149  0.3817 -0.2058 -0.2943
 4748SOL    HW125703   3.953   1.573   6.163  0.5107 -0.9342  0.5968
 4748SOL    HW225704   4.049   1.569   6.054 -2.0701 -2.3744 -0.2466
 4749SOL     OW25705   0.311   0.551   3.508  0.0797 -0.5791  0.4222
 4749SOL    HW125706   0.279   0.641   3.500  0.0758 -0.8820 -2.7193
 4749SOL    HW225707   0.248   0.490   3.548 -1.1592  0.5817  0.2610
 4750SOL     OW25708   1.719   1.339   3.712  0.1846 -0.2774  0.0723
 4750SOL    HW125709   1.712   1.315   3.620  1.2902  1.1999 -0.4032
 4750SOL    HW225710   1.649   1.292   3.757 -0.1875  0.8812  0.7102
 4751SOL     OW25711   3.411   0.922  13.170  0.7710 -0.0130  0.2888
 4751SOL    HW125712   3.420   0.998  13.228  0.8720 -0.7684  1.2721
 4751SOL    HW225713   3.499   0.886  13.173 -0.0291 -1.8856  1.8803
 4752SOL     OW25714   1.372   0.017   2.485 -0.0284  0.4845  0.0757
 4752SOL    HW125715   1.418   4.657   2.505  0.2957 -0.0333 -2.8673
 4752SOL    HW225716   1.284   4.705   2.501  0.0435 -0.0928 -0.7851
 4753SOL     OW25717   4.213   3.472   7.552 -0.1297 -0.0899 -0.4324
 4753SOL    HW125718   4.123   3.444   7.569 -1.3245  3.3374 -1.0163
 4753SOL    HW225719   4.242   3.402   7.494 -1.0419 -1.5571  0.9074
 4754SOL     OW25720   1.995   4.630   4.167 -0.0055  0.0294  0.2665
 4754SOL    HW125721   2.081   4.641   4.207  0.8576  1.5522 -2.0606
 4754SOL    HW225722   1.998   4.538   4.140  3.5756  0.9387 -2.3912
 4755SOL     OW25723   2.538   0.774   6.638  0.2283  0.1734 -0.1489
 4755SOL    HW125724   2.574   0.863   6.639 -0.3686  0.3796  2.1507
 4755SOL    HW225725   2.621   0.728   6.638  0.4747  0.6751  3.5672
 4756SOL     OW25726   2.697   3.166  11.307 -0.1296 -0.2461  0.2939
 4756SOL    HW125727   2.676   3.083  11.264 -0.8946  0.9025 -1.5716
 4756SOL    HW225728   2.748   3.139  11.383 -0.0957  1.1644  0.7654
 4757SOL     OW25729   0.833   0.931   2.435 -0.4171 -0.2425 -0.4170
 4757SOL    HW125730   0.906   0.871   2.425  0.4811  0.8457 -0.4435
 4757SOL    HW225731   0.757   0.883   2.402 -0.2565 -0.5539 -0.3265
 4758SOL     OW25732   2.824   1.002   8.146 -0.1753 -0.2801 -0.3003
 4758SOL    HW125733   2.782   0.921   8.175 -1.2742  0.6636  0.7224
 4758SOL    HW225734   2.857   0.986   8.058 -1.3623  0.4209 -0.8822
 4759SOL     OW25735   0.191   4.311  12.437 -0.6600  0.4724  0.5299
 4759SOL    HW125736   0.282   4.286  12.424 -0.7588  0.4994 -0.1877
 4759SOL    HW225737   0.139   4.259  12.375  0.5618 -1.7816  1.3727
 4760SOL     OW25738   4.689   1.227   8.603  0.4118  0.0107 -0.5120
 4760SOL    HW125739   4.695   1.283   8.525 -1.4871 -0.7755 -1.2089
 4760SOL    HW225740   4.602   1.250   8.636 -0.1887 -2.7957 -0.1879
 4761SOL     OW25741   1.914   1.522  10.155  0.0449 -0.6846 -0.2972
 4761SOL    HW125742   1.845   1.586  10.140  0.7572 -0.2270 -1.7024
 4761SOL    HW225743   1.917   1.518  10.250 -0.1618 -2.7666 -0.3627
 4762SOL     OW25744   4.585   2.562  12.555 -0.7179  0.0594 -0.0022
 4762SOL    HW125745   4.588   2.646  12.601  0.2866  0.7558 -1.3373
 4762SOL    HW225746   4.649   2.519  12.611 -1.7948 -0.2610  0.9808
 4763SOL     OW25747   1.527   0.568   9.878  0.4064 -0.5532  0.0608
 4763SOL    HW125748   1.620   0.593   9.876  0.1156  0.6196  1.9931
 4763SOL    HW225749   1.513   0.545   9.786 -2.5506  1.7609 -0.0644
 4764SOL     OW25750   0.721   2.787   9.657  0.3691 -0.1249  0.5861
 4764SOL    HW125751   0.767   2.806   9.575 -0.3739  0.5819  0.3319
 4764SOL    HW225752   0.677   2.709   9.624 -2.6838  0.9140  2.1408
 4765SOL     OW25753   0.524   4.500  16.993  0.0414  0.0686 -0.1603
 4765SOL    HW125754   0.490   4.537  17.075 -0.9775  0.3907 -0.7308
 4765SOL    HW225755   0.445   4.452  16.970  0.5094 -0.6015 -0.3581
 4766SOL     OW25756   4.702   0.950   4.884 -0.2497  0.6396  0.1099
 4766SOL    HW125757   0.022   0.901   4.954 -1.3909  3.4049  2.7676
 4766SOL    HW225758   4.709   0.878   4.821 -0.3323  0.2453  0.5581
 4767SOL     OW25759   4.024   1.931   1.866  0.8232  0.0433  0.0282
 4767SOL    HW125760   4.031   1.855   1.923 -0.7166  0.4238  0.7075
 4767SOL    HW225761   4.108   1.942   1.821  1.2730 -0.4371  0.7507
 4768SOL     OW25762   0.606   1.974  11.468 -0.2945 -0.0437 -0.2866
 4768SOL    HW125763   0.573   1.906  11.527  2.4550 -1.7635 -0.7147
 4768SOL    HW225764   0.650   2.029  11.532 -0.6196  0.6869 -0.7020
 4769SOL     OW25765   3.751   2.379   7.681 -1.2083 -0.0664  0.1925
 4769SOL    HW125766   3.699   2.318   7.734  0.9038 -2.2210 -0.2537
 4769SOL    HW225767   3.714   2.385   7.593 -0.9352 -1.5612 -0.0156
 4770SOL     OW25768   2.820   2.519   8.830  0.0908 -0.2271  0.1095
 4770SOL    HW125769   2.888   2.516   8.763 -0.3106 -1.3688 -0.2408
 4770SOL    HW225770   2.821   2.609   8.862 -2.8191 -0.3265  0.4782
 4771SOL     OW25771   0.095   4.565   5.963 -0.6579  0.1992 -0.6012
 4771SOL    HW125772   0.109   4.631   5.895  2.1314 -0.2304 -0.4574
 4771SOL    HW225773   0.003   4.540   5.966 -0.3256 -0.8296  1.0240
 4772SOL     OW25774   4.115   3.852   4.240  0.0033 -0.0822 -0.6624
 4772SOL    HW125775   4.210   3.837   4.241  0.1114  0.8052  0.8738
 4772SOL    HW225776   4.080   3.789   4.177  0.7718  0.1614 -1.3510
 4773SOL     OW25777   2.260   4.095   6.024  0.2858 -0.1257 -0.2759
 4773SOL    HW125778   2.262   4.179   6.068 -1.6032 -0.8962  1.2712
 4773SOL    HW225779   2.173   4.111   5.985  1.2322  1.5719 -1.6998
 4774SOL     OW25780   0.064   4.132   7.020 -0.0744 -0.3125  0.4084
 4774SOL    HW125781   0.100   4.143   7.108 -0.6887  1.2869  0.4574
 4774SOL    HW225782   0.061   4.037   7.012  1.2878 -0.2553 -0.6731
 4775SOL     OW25783   1.067   0.775   2.158  0.2279 -0.2943  0.3397
 4775SOL    HW125784   1.030   0.766   2.246  1.6465 -1.7993  0.7904
 4775SOL    HW225785   1.153   0.811   2.177  0.5703 -0.2478 -1.2287
 4776SOL     OW25786   2.868   3.481   6.438 -0.2302  0.3879 -0.1585
 4776SOL    HW125787   2.897   3.558   6.390  0.4539 -0.0009 -0.3732
 4776SOL    HW225788   2.958   3.458   6.462 -0.3607 -0.3173 -0.3491
 4777SOL     OW25789   3.237   4.422   2.468  0.3166 -0.0105  0.0125
 4777SOL    HW125790   3.247   4.498   2.410 -0.3751 -0.0819 -0.2069
 4777SOL    HW225791   3.145   4.432   2.491 -0.0138  0.9947 -1.7634
 4778SOL     OW25792   2.329   3.852   3.213 -0.1069  0.0294 -0.2052
 4778SOL    HW125793   2.286   3.767   3.223  0.6910 -0.3108  0.3490
 4778SOL    HW225794   2.262   3.909   3.251 -0.8821 -0.6942 -0.4897
 4779SOL     OW25795   1.288   0.536  17.021  0.4115 -0.0495  0.1986
 4779SOL    HW125796   1.240   0.521  17.102 -2.9931  0.8607 -1.6478
 4779SOL    HW225797   1.257   0.621  16.990  0.0626 -1.3116 -2.9067
 4780SOL     OW25798   0.052   3.881  17.128  0.1202  0.2087  0.5422
 4780SOL    HW125799   0.030   3.969  17.159 -1.4138 -0.4218  1.2488
 4780SOL    HW225800   0.142   3.897  17.101  0.4554  1.3383  2.3313
 4781SOL     OW25801   0.855   4.015   2.500  0.4183 -0.0476 -0.3175
 4781SOL    HW125802   0.868   3.924   2.474 -0.8600  0.0462 -1.3062
 4781SOL    HW225803   0.921   4.025   2.569  0.3520  1.5287 -0.4734
 4782SOL     OW25804   4.029   0.518   3.365 -0.0330 -0.4693 -0.4424
 4782SOL    HW125805   4.046   0.432   3.327 -0.2235 -0.2886 -0.9301
 4782SOL    HW225806   3.938   0.498   3.387  0.1197  1.1812  1.6790
 4783SOL     OW25807   1.856   1.830   3.421  0.0238 -0.1257 -0.2266
 4783SOL    HW125808   1.824   1.885   3.492 -0.7855 -0.4892 -0.3064
 4783SOL    HW225809   1.811   1.857   3.341 -2.4422 -1.3175  0.7510
 4784SOL     OW25810   1.707   0.804   2.594  0.1003  0.2233  0.5403
 4784SOL    HW125811   1.744   0.817   2.682  2.0832 -0.2499 -0.2203
 4784SOL    HW225812   1.771   0.849   2.539  1.9029 -0.4201  2.0976
 4785SOL     OW25813   1.167   3.643   8.274 -0.1078 -0.6060  0.4433
 4785SOL    HW125814   1.246   3.597   8.246  0.4502 -0.6466  2.1306
 4785SOL    HW225815   1.146   3.616   8.363 -0.6433  0.9663  0.7904
 4786SOL     OW25816   3.987   2.617   7.433 -0.3245 -0.2343  0.5892
 4786SOL    HW125817   4.050   2.581   7.497  3.0478  1.5618 -1.6964
 4786SOL    HW225818   4.008   2.565   7.355  0.0671  0.9105 -0.0620
 4787SOL     OW25819   2.227   1.313  13.434 -0.4690  0.2464  0.4832
 4787SOL    HW125820   2.232   1.313  13.530 -1.3790  0.2908  0.5311
 4787SOL    HW225821   2.253   1.403  13.412  1.7361 -0.0606  1.8114
 4788SOL     OW25822   0.983   3.772   5.508  0.2852  0.3215 -0.2545
 4788SOL    HW125823   0.933   3.849   5.481  0.3609  0.1687 -0.8246
 4788SOL    HW225824   0.932   3.732   5.579 -0.1832  1.1560 -0.1187
 4789SOL     OW25825   3.648   2.518   2.187  0.1725  0.1072  0.0302
 4789SOL    HW125826   3.733   2.476   2.202 -0.6455 -2.0084 -1.2164
 4789SOL    HW225827   3.651   2.525   2.092  1.6338  0.2540  0.0931
 4790SOL     OW25828   1.741   0.511   0.028 -0.2092  0.1824 -0.1477
 4790SOL    HW125829   1.697   0.427   0.015 -1.6607  0.9492 -0.1461
 4790SOL    HW225830   1.690   0.556   0.095  0.1878  0.1829  0.1536
 4791SOL     OW25831   1.337   1.912  10.724  0.0985 -0.2199 -0.1710
 4791SOL    HW125832   1.292   1.959  10.654  0.8443 -0.6976 -0.9728
 4791SOL    HW225833   1.336   1.830  10.674  3.4191  0.6262 -1.6282
 4792SOL     OW25834   3.836   3.964   7.415 -0.0368 -0.0787  0.0488
 4792SOL    HW125835   3.805   4.035   7.359 -0.3545 -0.4280 -0.2210
 4792SOL    HW225836   3.921   3.949   7.374 -0.0103 -0.9384  0.3976
 4793SOL     OW25837   1.212   0.083   3.928 -0.2775  0.0599  0.4607
 4793SOL    HW125838   1.296   0.118   3.898 -1.2532  0.3891 -1.9352
 4793SOL    HW225839   1.210   0.085   4.024  3.3332  2.4019  0.5053
 4794SOL     OW25840   2.524   3.223   3.377 -0.2550  0.4019 -0.1497
 4794SOL    HW125841   2.543   3.282   3.450 -0.9544 -1.0230  1.1865
 4794SOL    HW225842   2.606   3.176   3.365 -1.1450 -1.3816  0.7963
 4795SOL     OW25843   3.281   3.206  10.764 -0.0712  0.0525 -0.5379
 4795SOL    HW125844   3.197   3.230  10.802 -0.9617  1.3861 -3.3303
 4795SOL    HW225845   3.290   3.112  10.775  0.5983  0.1582 -0.1902
 4796SOL     OW25846   0.989   2.631   6.011  0.7100 -0.1325  0.3363
 4796SOL    HW125847   1.070   2.655   5.967  0.3879 -1.3493 -0.9375
 4796SOL    HW225848   0.998   2.537   6.027  2.7650  0.3990  2.2117
 4797SOL     OW25849   1.318   2.635   2.645 -0.0992  0.3387 -0.0873
 4797SOL    HW125850   1.318   2.603   2.555  0.3706  0.1822 -0.0306
 4797SOL    HW225851   1.226   2.610   2.656 -0.3117  1.8321  1.6242
 4798SOL     OW25852   0.443   2.984   7.262 -0.0903 -0.4409 -0.6940
 4798SOL    HW125853   0.388   3.062   7.258  0.6168  0.0594 -0.6862
 4798SOL    HW225854   0.495   3.006   7.339 -0.4288 -1.7374 -0.1014
 4799SOL     OW25855   4.393   2.696  16.839 -0.4002  0.0308  0.2674
 4799SOL    HW125856   4.445   2.616  16.850 -0.1070  0.1457 -0.2668
 4799SOL    HW225857   4.435   2.755  16.901 -0.3162 -0.4266  0.6468
 4800SOL     OW25858   0.518   1.134  11.943 -0.1993 -0.3525  0.4028
 4800SOL    HW125859   0.440   1.122  11.997 -0.9786 -1.9977 -1.1135
 4800SOL    HW225860   0.566   1.189  12.006  0.9908  0.4670 -1.2110
 4801SOL     OW25861   2.110   2.328  16.664  0.2524 -0.2427 -0.0681
 4801SOL    HW125862   2.205   2.319  16.654 -0.0626 -3.3713 -0.2490
 4801SOL    HW225863   2.098   2.277  16.744  2.6628 -1.1266 -0.2441
 4802SOL     OW25864   3.118   3.426   8.601 -0.0631  0.1055 -0.0085
 4802SOL    HW125865   3.097   3.372   8.525 -0.4677 -1.3297  1.1269
 4802SOL    HW225866   3.069   3.507   8.586 -0.1853  0.6403  3.2429
 4803SOL     OW25867   4.233   4.370   8.368  0.1152  0.9777 -0.3178
 4803SOL    HW125868   4.162   4.433   8.383  0.1348  1.0591 -0.5507
 4803SOL    HW225869   4.260   4.354   8.458  2.2287 -2.0208 -1.4781
 4804SOL     OW25870   4.625   0.124   4.202  0.0743  0.1115  0.1637
 4804SOL    HW125871   4.599   0.209   4.238  0.3266  0.6558 -0.9547
 4804SOL    HW225872   4.590   0.124   4.113 -0.2600 -1.8641  0.2754
 4805SOL     OW25873   3.416   3.109   6.142 -0.1961 -0.2912 -0.0562
 4805SOL    HW125874   3.424   3.072   6.055  0.3483 -0.3960  0.0345
 4805SOL    HW225875   3.464   3.043   6.192  0.0294 -0.7585 -0.8980
 4806SOL     OW25876   3.142   0.357   6.850 -0.2442 -0.3568 -0.1722
 4806SOL    HW125877   3.199   0.321   6.783 -0.1575 -1.1264  0.3150
 4806SOL    HW225878   3.174   0.316   6.931 -1.8067 -1.4173 -0.0857
 4807SOL     OW25879   0.949   2.243   6.122  0.3353 -0.1456 -0.5077
 4807SOL    HW125880   0.985   2.306   6.184  2.1625 -0.3643 -1.3419
 4807SOL    HW225881   1.023   2.203   6.075  0.7488  0.7036 -0.5807
 4808SOL     OW25882   3.034   2.215  10.866  0.3705 -0.6585  0.3289
 4808SOL    HW125883   2.940   2.207  10.880  0.3790 -0.4290  0.5105
 4808SOL    HW225884   3.056   2.294  10.816 -2.4859 -0.2518 -0.3081
 4809SOL     OW25885   1.739   3.414   5.415  0.5505  0.5173 -0.2716
 4809SOL    HW125886   1.672   3.410   5.347 -0.8465  2.4993  1.0231
 4809SOL    HW225887   1.681   3.435   5.488  0.7721 -0.4875  0.2051
 4810SOL     OW25888   2.204   2.797   0.420  0.4654 -0.5218 -0.8395
 4810SOL    HW125889   2.173   2.840   0.500  1.6746  1.3029 -1.3418
 4810SOL    HW225890   2.159   2.851   0.355 -2.1151 -3.6696 -1.6732
 4811SOL     OW25891   0.478   3.719   7.592  0.0604 -0.4824  0.2340
 4811SOL    HW125892   0.420   3.663   7.643 -0.3600 -1.2535 -1.1005
 4811SOL    HW225893   0.413   3.753   7.530  1.4646  1.2573 -0.2997
 4812SOL     OW25894   3.508   4.301   3.956  0.1945 -0.3392 -0.3666
 4812SOL    HW125895   3.548   4.344   4.031 -0.4622 -1.0703  0.4070
 4812SOL    HW225896   3.447   4.240   3.998  0.2598 -0.1847 -0.0473
 4813SOL     OW25897   1.771   3.251   2.454  0.2882 -0.7183 -0.2817
 4813SOL    HW125898   1.821   3.275   2.532 -1.0685 -1.6381  0.8669
 4813SOL    HW225899   1.829   3.194   2.403 -0.5793 -0.5128 -1.4938
 4814SOL     OW25900   1.552   2.586   5.271  0.2255  0.2096  0.1465
 4814SOL    HW125901   1.492   2.637   5.325  2.2228  1.8713  0.7803
 4814SOL    HW225902   1.627   2.582   5.330  0.8795 -1.3910 -0.7887
 4815SOL     OW25903   1.867   3.962   6.000  0.0538  0.5810  0.1842
 4815SOL    HW125904   1.777   3.996   6.007 -0.3147 -0.1888 -0.8991
 4815SOL    HW225905   1.878   3.967   5.906  1.0106  2.4858  0.3948
 4816SOL     OW25906   4.142   4.563   4.539 -0.4872 -0.3547  0.1392
 4816SOL    HW125907   4.203   4.618   4.589  1.9058 -1.8842 -1.1173
 4816SOL    HW225908   4.185   4.478   4.548 -1.4482 -0.7866  0.6782
 4817SOL     OW25909   1.363   3.021   8.086 -0.2496  0.3672 -0.1827
 4817SOL    HW125910   1.453   3.034   8.055 -0.6135  0.0802 -1.3641
 4817SOL    HW225911   1.321   3.042   8.003 -1.1869 -1.1051 -0.0815
 4818SOL     OW25912   4.003   1.814   5.944  0.2712 -0.2946  0.1707
 4818SOL    HW125913   4.017   1.725   5.914 -0.9519  0.6426 -3.0998
 4818SOL    HW225914   3.938   1.837   5.878  0.4669 -0.5065 -0.0939
 4819SOL     OW25915   3.226   1.966  14.325  0.2175 -0.2531 -0.5555
 4819SOL    HW125916   3.179   1.907  14.383  1.7564 -0.7865  0.1356
 4819SOL    HW225917   3.315   1.936  14.342 -0.1894 -0.0959  1.8666
 4820SOL     OW25918   0.306   2.766   4.725 -0.4510  0.5900  0.1998
 4820SOL    HW125919   0.363   2.772   4.649  0.8381  1.0279  1.1881
 4820SOL    HW225920   0.351   2.827   4.784  0.1320  0.0059  0.3550
 4821SOL     OW25921   4.484   2.307   5.779 -0.7012  0.3940  0.3148
 4821SOL    HW125922   4.551   2.359   5.733  0.3198  0.2061  1.5781
 4821SOL    HW225923   4.532   2.249   5.838  1.0349  0.4496 -1.0508
 4822SOL     OW25924   2.275   1.725   5.308 -0.2440  0.5798  0.1452
 4822SOL    HW125925   2.334   1.667   5.358 -0.0369  0.8858  0.2571
 4822SOL    HW225926   2.275   1.800   5.367  0.6573  0.2258  0.6022
 4823SOL     OW25927   3.446   3.997   6.554  0.0340  0.5109  0.2509
 4823SOL    HW125928   3.375   4.061   6.556 -0.6554 -0.2801  1.0449
 4823SOL    HW225929   3.417   3.933   6.618  0.2878 -0.7050 -0.8546
 4824SOL     OW25930   1.662   2.949   4.806 -0.7051 -0.8228 -0.5035
 4824SOL    HW125931   1.583   2.895   4.793 -1.1098  0.0106 -1.4801
 4824SOL    HW225932   1.669   2.947   4.901  5.8881  0.2527 -1.0264
 4825SOL     OW25933   1.700   1.418   5.442  0.1977 -0.3388 -0.0043
 4825SOL    HW125934   1.791   1.426   5.471  0.3691  1.9972 -1.1658
 4825SOL    HW225935   1.715   1.436   5.349  0.7151  3.6770  0.8604
 4826SOL     OW25936   4.141   3.913  10.331 -0.6454  0.4971  0.0171
 4826SOL    HW125937   4.160   3.820  10.344 -0.6026  0.4217 -0.5529
 4826SOL    HW225938   4.177   3.946  10.413 -2.1714  1.9085  0.1211
 4827SOL     OW25939   3.019   0.182   9.943 -0.1204 -0.5586  0.0283
 4827SOL    HW125940   3.065   0.250   9.993  1.4463 -2.7893  1.6275
 4827SOL    HW225941   3.058   0.106   9.986  1.2185  0.8873  1.4114
 4828SOL     OW25942   4.268   2.166   7.529  0.0451 -0.6109  0.1447
 4828SOL    HW125943   4.271   2.071   7.517  0.4533 -0.4401 -1.0583
 4828SOL    HW225944   4.183   2.174   7.572  0.0084  0.1237 -0.0692
 4829SOL     OW25945   3.281   2.010   2.480 -0.0563  0.4801 -0.2082
 4829SOL    HW125946   3.210   1.983   2.538 -0.0830  0.8477 -0.0708
 4829SOL    HW225947   3.266   1.956   2.403 -1.0342  2.2290 -1.2176
 4830SOL     OW25948   4.017   4.495  15.951 -0.1937  0.3528  0.3923
 4830SOL    HW125949   4.077   4.423  15.967  0.5897  0.5931 -1.4194
 4830SOL    HW225950   3.939   4.470  16.001 -0.8699 -0.4590 -1.0677
 4831SOL     OW25951   3.888   1.079   6.871  0.3095  0.2642  0.0833
 4831SOL    HW125952   3.955   1.110   6.809  0.3609 -0.4697 -0.2282
 4831SOL    HW225953   3.902   1.134   6.949  1.9092 -1.8895  1.2973
 4832SOL     OW25954   1.075   0.727   4.514  0.1381  0.2110 -0.0935
 4832SOL    HW125955   1.104   0.693   4.599 -0.8578 -1.1563 -0.3076
 4832SOL    HW225956   1.012   0.662   4.483 -0.3673  1.0733 -0.8692
 4833SOL     OW25957   1.858   4.059   8.784 -0.1176 -0.6270 -0.2580
 4833SOL    HW125958   1.770   4.093   8.769  0.1771 -0.2444 -1.1777
 4833SOL    HW225959   1.851   4.030   8.875  0.6608  2.4508  0.7727
 4834SOL     OW25960   0.849   0.892   8.204 -0.2431 -0.2339 -0.7767
 4834SOL    HW125961   0.923   0.900   8.265 -0.4005  2.1132 -0.8928
 4834SOL    HW225962   0.843   0.797   8.213  0.8576 -0.2202  0.1178
 4835SOL     OW25963   0.234   2.915   3.547 -0.6272 -0.3893  0.2142
 4835SOL    HW125964   0.154   2.906   3.496  0.6375  1.2017 -2.0880
 4835SOL    HW225965   0.281   2.833   3.533  1.3859  0.8092 -0.2194
 4836SOL     OW25966   1.381   3.016   9.166 -0.1077 -0.2003 -0.4729
 4836SOL    HW125967   1.430   3.094   9.139  3.3852 -1.7915  1.2685
 4836SOL    HW225968   1.358   2.964   9.089 -0.1817 -0.1611 -0.4777
 4837SOL     OW25969   1.830   1.200   3.176 -0.7422  0.2409  0.0465
 4837SOL    HW125970   1.773   1.207   3.100  0.3297 -0.2028 -0.8031
 4837SOL    HW225971   1.786   1.129   3.222 -0.7869  1.1148  1.3412
 4838SOL     OW25972   0.557   1.469   5.947 -0.2916 -0.2928 -0.3845
 4838SOL    HW125973   0.591   1.394   5.898  0.1069  0.2983 -1.0019
 4838SOL    HW225974   0.463   1.448   5.943 -0.3423 -0.0388 -0.5116
 4839SOL     OW25975   2.463   1.618   3.190 -0.2406  0.0527  0.1656
 4839SOL    HW125976   2.469   1.586   3.279  2.7618  0.4675  0.1127
 4839SOL    HW225977   2.414   1.548   3.146 -0.5783  1.0075 -0.9955
 4840SOL     OW25978   4.219   2.145  11.231 -0.1733 -0.0145  0.1847
 4840SOL    HW125979   4.224   2.153  11.136 -0.3620  0.4102  0.2080
 4840SOL    HW225980   4.210   2.052  11.248  2.7022 -0.5717 -1.3571
 4841SOL     OW25981   1.725   1.330   6.595  0.4898 -1.0029  0.3053
 4841SOL    HW125982   1.694   1.316   6.505  0.4514  0.6424  0.0709
 4841SOL    HW225983   1.785   1.401   6.576 -1.6025  0.6840 -0.0095
 4842SOL     OW25984   2.787   0.854  14.654  0.8156  0.3464  0.0864
 4842SOL    HW125985   2.802   0.933  14.706  1.1324  0.0373  0.4652
 4842SOL    HW225986   2.708   0.887  14.611  0.2344 -0.4425  0.5635
 4843SOL     OW25987   2.893   1.296  16.257 -0.1364  0.0344 -0.1167
 4843SOL    HW125988   2.799   1.283  16.271 -0.2821 -0.2334 -1.3446
 4843SOL    HW225989   2.902   1.386  16.226  0.0572  0.3336  0.7974
 4844SOL     OW25990   2.743   1.935   7.099  0.0241  0.2252  0.2037
 4844SOL    HW125991   2.823   1.898   7.062  0.4615  2.7366 -1.3456
 4844SOL    HW225992   2.766   2.025   7.120 -0.2899  0.4395 -0.3801
 4845SOL     OW25993   4.062   0.761   6.210 -0.2721  0.2141  0.1337
 4845SOL    HW125994   3.996   0.829   6.221 -0.1085  0.7442 -2.1713
 4845SOL    HW225995   4.045   0.738   6.119  1.2770 -0.8172  0.1064
 4846SOL     OW25996   1.071   4.609   2.548 -0.6134  0.4216  0.2657
 4846SOL    HW125997   0.990   4.656   2.565 -1.3553  0.1280 -2.4195
 4846SOL    HW225998   1.041   4.572   2.465 -0.4628 -1.3613  1.0185
 4847SOL     OW25999   2.581   1.203   6.545 -0.3495  0.5375  0.1474
 4847SOL    HW126000   2.645   1.199   6.474 -1.5927 -1.5945 -0.8360
 4847SOL    HW226001   2.585   1.299   6.545 -2.5535  0.6149  1.0198
 4848SOL     OW26002   3.460   2.799   6.914 -0.5041  0.3717  0.6028
 4848SOL    HW126003   3.408   2.865   6.868  0.5670  0.4414 -0.5351
 4848SOL    HW226004   3.404   2.723   6.902  1.5290 -0.8139 -1.4260
 4849SOL     OW26005   1.192   4.135   6.062  0.4495  0.4736 -0.2519
 4849SOL    HW126006   1.144   4.201   6.012  0.3446 -1.1957 -2.3270
 4849SOL    HW226007   1.224   4.074   5.996 -0.4848 -0.3509  0.0438
 4850SOL     OW26008   1.782   0.976   4.035  0.3138  0.7749  0.0481
 4850SOL    HW126009   1.778   0.960   4.129 -0.9249  0.7315 -0.0034
 4850SOL    HW226010   1.716   0.917   3.997  0.6391  2.0177 -2.3969
 4851SOL     OW26011   2.550   0.996  13.956  0.2049 -0.1139 -0.1307
 4851SOL    HW126012   2.540   0.902  13.968  1.6256 -0.4497 -1.6560
 4851SOL    HW226013   2.578   1.030  14.041  1.6676 -1.8274  0.0534
 4852SOL     OW26014   3.949   3.502   2.393  0.0313  0.3859  0.2731
 4852SOL    HW126015   3.886   3.548   2.338 -1.1871 -0.8805  0.6075
 4852SOL    HW226016   3.908   3.416   2.383  0.4827  0.3330 -1.1065
 4853SOL     OW26017   0.636   4.308  14.234  0.1039 -0.7100 -0.0253
 4853SOL    HW126018   0.642   4.247  14.161 -1.7580  2.8599 -3.2261
 4853SOL    HW226019   0.690   4.271  14.304 -2.5129 -3.8828  0.3041
 4854SOL     OW26020   1.484   2.066  16.542 -0.1426  0.1073 -0.0114
 4854SOL    HW126021   1.525   2.005  16.603  2.6563  0.8529 -1.1357
 4854SOL    HW226022   1.563   2.097  16.497 -1.3294 -1.7546 -3.3770
 4855SOL     OW26023   4.259   3.420   2.860  0.4377 -0.0962  0.2678
 4855SOL    HW126024   4.300   3.477   2.925  0.2290  0.6144 -0.2305
 4855SOL    HW226025   4.279   3.472   2.782  0.8259 -1.5211 -0.5865
 4856SOL     OW26026   0.672   2.606  15.394 -0.4665  0.3595  0.1153
 4856SOL    HW126027   0.688   2.512  15.399  0.5073  0.4740 -0.7017
 4856SOL    HW226028   0.609   2.630  15.462  2.9111 -0.4110  3.5245
 4857SOL     OW26029   3.595   3.425   2.160 -0.2687  0.3050 -0.1609
 4857SOL    HW126030   3.525   3.392   2.103 -0.5991 -1.0214  1.0247
 4857SOL    HW226031   3.548   3.420   2.243  0.9025 -3.3317  0.2824
 4858SOL     OW26032   2.263   2.054  11.560 -0.0271  0.0488  0.7091
 4858SOL    HW126033   2.174   2.047  11.595  0.1876 -0.7510  1.1149
 4858SOL    HW226034   2.241   2.063  11.468  1.2545  1.1419  0.5116
 4859SOL     OW26035   3.090   3.411  15.160  0.3535  0.8112  0.2754
 4859SOL    HW126036   3.061   3.459  15.237 -1.3199 -3.0856  2.0503
 4859SOL    HW226037   3.036   3.333  15.168 -0.2312  1.1144 -0.7662
 4860SOL     OW26038   4.318   2.524  15.474 -0.5574  0.0146  0.2724
 4860SOL    HW126039   4.413   2.530  15.488 -0.3877 -0.7187 -0.5739
 4860SOL    HW226040   4.315   2.575  15.393 -0.9592 -0.5368 -0.0620
 4861SOL     OW26041   0.105   1.534  10.365  0.7673  0.1186  0.5151
 4861SOL    HW126042   0.132   1.454  10.322 -1.6013 -1.9560  2.8842
 4861SOL    HW226043   0.184   1.577  10.330  0.4425  1.7603  1.7627
 4862SOL     OW26044   1.115   1.687  17.445  0.8993  0.1338  0.6332
 4862SOL    HW126045   1.066   1.613  17.480  0.3086 -0.0612 -0.6241
 4862SOL    HW226046   1.176   1.701  17.518 -0.7574  0.4981  1.9429
 4863SOL     OW26047   0.106   4.560  12.499  0.0669 -0.6461 -0.2905
 4863SOL    HW126048   0.147   4.476  12.478  1.1999  0.6485 -3.3021
 4863SOL    HW226049   0.068   4.589  12.416  3.0102  1.0795 -1.0507
 4864SOL     OW26050   3.147   2.626  13.078 -0.0977 -0.0561 -0.0933
 4864SOL    HW126051   3.071   2.612  13.021  0.5733  0.7620 -1.1869
 4864SOL    HW226052   3.211   2.571  13.032 -0.0005  0.1098 -0.1602
 4865SOL     OW26053   0.977   3.596   7.635  0.2915 -0.1257  0.3588
 4865SOL    HW126054   0.937   3.518   7.597 -0.9649 -0.3066  2.0470
 4865SOL    HW226055   0.900   3.653   7.639  0.0240 -0.4899  0.3607
 4866SOL     OW26056   3.642   3.218   1.903 -0.2198 -0.0552 -0.0641
 4866SOL    HW126057   3.718   3.178   1.945 -0.4140 -1.8255 -1.3580
 4866SOL    HW226058   3.571   3.204   1.965  0.8532 -0.8427  0.9747
 4867SOL     OW26059   0.093   2.772  12.724  0.0563 -0.2742 -0.2205
 4867SOL    HW126060   0.004   2.804  12.710 -0.6322 -1.2997  1.7907
 4867SOL    HW226061   0.124   2.818  12.802  1.3472  0.0363 -0.9039
 4868SOL     OW26062   2.001   0.016   4.503  0.3440 -0.1106  0.1690
 4868SOL    HW126063   2.083   0.001   4.456  0.5159  4.0130 -0.7961
 4868SOL    HW226064   1.936   4.690   4.452 -0.6325  0.2038  1.0935
 4869SOL     OW26065   3.816   0.052   4.579  0.8800 -0.3362  0.2151
 4869SOL    HW126066   3.808   4.707   4.647 -1.5611 -0.4296 -0.1547
 4869SOL    HW226067   3.860   0.119   4.631 -3.9219  1.2446  2.2052
 4870SOL     OW26068   4.539   2.688   5.958 -0.7659 -0.1441 -0.2436
 4870SOL    HW126069   4.515   2.779   5.975 -1.0605 -0.2484 -0.0918
 4870SOL    HW226070   4.576   2.654   6.039 -1.9633 -0.4681  0.1738
 4871SOL     OW26071   1.403   1.962   7.018 -0.0783  0.0319 -0.1014
 4871SOL    HW126072   1.494   1.959   6.989  0.4531  0.3339  1.5892
 4871SOL    HW226073   1.373   2.021   6.948  3.1897  2.0365  0.2040
 4872SOL     OW26074   1.479   1.856   3.717 -0.2501 -0.5883 -0.0642
 4872SOL    HW126075   1.476   1.785   3.781  0.4295  1.5032  2.2848
 4872SOL    HW226076   1.478   1.801   3.638  4.6958 -1.3891  0.4383
 4873SOL     OW26077   4.403   0.365   6.723 -0.2540  0.0185 -0.4259
 4873SOL    HW126078   4.345   0.383   6.649 -2.1888 -0.9917  0.8416
 4873SOL    HW226079   4.482   0.354   6.669 -0.9224 -2.9996 -0.8211
 4874SOL     OW26080   2.867   2.387   1.122  0.4337 -0.1983  0.5948
 4874SOL    HW126081   2.895   2.387   1.214  1.6570  2.7273  0.2317
 4874SOL    HW226082   2.864   2.480   1.099  0.1760  0.0129  1.4815
 4875SOL     OW26083   3.292   2.951   1.779  0.5639  0.1662 -0.5157
 4875SOL    HW126084   3.327   3.025   1.728  1.4953  0.9357  1.2531
 4875SOL    HW226085   3.363   2.887   1.769 -0.8111 -1.2383 -1.2643
 4876SOL     OW26086   0.724   1.377   3.185  0.5214 -0.0521 -0.0910
 4876SOL    HW126087   0.797   1.440   3.187  1.7467 -1.5430  2.3225
 4876SOL    HW226088   0.770   1.299   3.153 -0.3962 -1.3411  1.7208
 4877SOL     OW26089   1.547   1.121   3.829 -0.2286 -0.3476  0.4351
 4877SOL    HW126090   1.546   1.103   3.735  3.8704 -0.5841  0.4583
 4877SOL    HW226091   1.553   1.032   3.863 -0.5645 -0.1574  1.0004
 4878SOL     OW26092   0.686   4.337   2.326  0.4536  0.1789 -0.2192
 4878SOL    HW126093   0.692   4.280   2.249  0.2669  0.5264 -0.4972
 4878SOL    HW226094   0.658   4.421   2.289 -2.1999 -0.9118 -0.6248
 4879SOL     OW26095   1.451   2.175   3.103 -0.3006  0.0085  0.0646
 4879SOL    HW126096   1.415   2.171   3.191 -1.3326  1.1822 -0.2882
 4879SOL    HW226097   1.374   2.217   3.064 -2.0232 -1.5843  1.7491
 4880SOL     OW26098   3.392   1.745   6.457  0.1441 -0.0517  0.5327
 4880SOL    HW126099   3.479   1.745   6.495 -0.0490 -1.8244  0.9633
 4880SOL    HW226100   3.334   1.695   6.514 -0.1482 -1.4605 -1.0037
 4881SOL     OW26101   2.120   1.207   5.152 -0.4530  0.4532 -0.0927
 4881SOL    HW126102   2.135   1.159   5.233 -2.0371 -0.6406 -0.4515
 4881SOL    HW226103   2.166   1.160   5.083  0.4634  0.3395  0.5943
 4882SOL     OW26104   1.667   4.214   5.944  0.4212  0.2897  0.8796
 4882SOL    HW126105   1.737   4.279   5.945  0.8392 -0.1521 -0.1916
 4882SOL    HW226106   1.639   4.215   5.853  0.2596 -3.5385  0.8852
 4883SOL     OW26107   2.075   1.153   0.958 -0.0026  0.2418 -0.2835
 4883SOL    HW126108   2.047   1.155   1.050 -0.0417 -0.3425 -0.2878
 4883SOL    HW226109   2.000   1.198   0.918  0.1796  1.2616  0.5178
 4884SOL     OW26110   0.222   3.189   7.762  0.5285 -0.3078 -0.0627
 4884SOL    HW126111   0.237   3.129   7.690 -0.8023  0.3165 -0.8678
 4884SOL    HW226112   0.200   3.134   7.837 -0.0042 -0.0442 -0.0216
 4885SOL     OW26113   1.981   1.759  11.485  0.0459 -0.0589  0.6555
 4885SOL    HW126114   1.932   1.838  11.508 -2.3956 -1.2014 -0.6661
 4885SOL    HW226115   1.973   1.721  11.572 -2.6354 -0.0909  0.3958
 4886SOL     OW26116   1.773   2.594   4.360 -0.0945 -0.2818 -0.2464
 4886SOL    HW126117   1.810   2.591   4.272  1.5213 -0.9215  0.4459
 4886SOL    HW226118   1.679   2.596   4.344 -0.0819 -0.4135 -0.3339
 4887SOL     OW26119   2.534   2.500   3.259  0.6674 -0.1007  0.4019
 4887SOL    HW126120   2.619   2.458   3.271 -0.1291 -2.0154 -0.6905
 4887SOL    HW226121   2.493   2.444   3.192  2.4418  1.0775 -1.6777
 4888SOL     OW26122   1.945   0.389   2.346 -0.4945  0.0249  0.1758
 4888SOL    HW126123   1.998   0.310   2.354 -0.0068  0.6264  2.9660
 4888SOL    HW226124   2.010   0.458   2.359 -2.0996  1.5429  0.2134
 4889SOL     OW26125   2.665   3.030   5.794  0.2374  0.2089  0.2291
 4889SOL    HW126126   2.673   3.092   5.721 -0.7306  0.1035  0.0315
 4889SOL    HW226127   2.743   3.047   5.847  0.1251  1.2024  0.0745
 4890SOL     OW26128   2.805   2.530   8.153  0.1165 -0.7765  0.0415
 4890SOL    HW126129   2.840   2.511   8.240 -2.9854 -1.4495  1.1270
 4890SOL    HW226130   2.732   2.469   8.144 -1.2790  0.6326  1.9162
 4891SOL     OW26131   3.400   4.703   7.833 -0.1368  0.4091  0.0841
 4891SOL    HW126132   3.465   4.635   7.850 -1.4038 -0.4900  1.3729
 4891SOL    HW226133   3.421   0.017   7.747 -3.2289 -1.1161 -1.3226
 4892SOL     OW26134   3.085   2.309   0.762 -0.3444  0.5948 -0.1773
 4892SOL    HW126135   3.101   2.357   0.681 -4.3832  1.1947 -0.5807
 4892SOL    HW226136   3.042   2.373   0.818 -0.5429  0.3672 -0.0719
 4893SOL     OW26137   0.379   0.887   6.200 -0.3461 -0.2391  0.3846
 4893SOL    HW126138   0.338   0.894   6.114  1.6990  0.9115 -0.5054
 4893SOL    HW226139   0.387   0.973   6.242 -0.9740 -0.2548  0.5319
 4894SOL     OW26140   4.330   0.210   1.481  0.3499  0.2633  0.1571
 4894SOL    HW126141   4.387   0.136   1.501 -1.4105 -1.4281 -1.1671
 4894SOL    HW226142   4.392   0.284   1.481 -0.1094  0.6440 -2.3096
 4895SOL     OW26143   1.055   1.349   5.925 -0.0570  0.1554 -0.0011
 4895SOL    HW126144   1.102   1.296   5.990  2.7375  0.6346 -1.6170
 4895SOL    HW226145   1.001   1.278   5.891  1.7855 -0.9661 -0.5798
 4896SOL     OW26146   2.587   1.252   7.331  0.1585  0.0978 -0.3720
 4896SOL    HW126147   2.674   1.232   7.297  0.2414  2.3879 -1.5144
 4896SOL    HW226148   2.525   1.203   7.277  0.0168 -0.8651  0.6720
 4897SOL     OW26149   0.771   1.576   2.859 -0.3144 -0.5322  0.2036
 4897SOL    HW126150   0.805   1.606   2.775 -1.2206  1.0654  0.4251
 4897SOL    HW226151   0.703   1.515   2.830 -0.9336  1.4237 -2.4459
 4898SOL     OW26152   1.477   3.091   0.896  0.5159 -0.2483  0.1177
 4898SOL    HW126153   1.483   3.118   0.804 -0.4557  0.4262  0.2570
 4898SOL    HW226154   1.397   3.039   0.890  0.6226 -0.0409 -3.3353
 4899SOL     OW26155   2.084   4.080   8.066  0.0358  0.3603 -0.0977
 4899SOL    HW126156   2.049   4.015   8.127  0.6373 -0.8586 -1.0597
 4899SOL    HW226157   2.104   4.157   8.120 -0.4661  1.1021 -0.9636
 4900SOL     OW26158   0.083   4.194   5.528 -0.8237 -0.4537 -0.0775
 4900SOL    HW126159   0.007   4.175   5.582 -1.3210  1.8361  0.0390
 4900SOL    HW226160   0.103   4.111   5.485 -0.4537  0.8065 -2.3640
 4901SOL     OW26161   4.016   0.968   9.973  0.6824 -0.2780  0.1534
 4901SOL    HW126162   4.018   0.974  10.069 -2.6318 -0.7701  0.2478
 4901SOL    HW226163   4.105   0.943   9.949  0.7925  0.6442 -0.3913
 4902SOL     OW26164   2.725   0.799  12.878  0.4170 -0.0707 -0.3536
 4902SOL    HW126165   2.674   0.875  12.849  1.0747  1.0085  1.2801
 4902SOL    HW226166   2.723   0.757  12.792 -1.9965  0.2768 -0.4787
 4903SOL     OW26167   3.220   0.997  16.856  0.2829 -0.8322 -0.0914
 4903SOL    HW126168   3.210   1.030  16.767  0.1084 -1.6686 -0.3899
 4903SOL    HW226169   3.135   0.955  16.869 -0.4646  1.2079  1.5611
 4904SOL     OW26170   0.826   2.742   2.547  0.6110  0.1122  0.3584
 4904SOL    HW126171   0.847   2.739   2.453  0.0521  0.4806  0.2263
 4904SOL    HW226172   0.742   2.697   2.540  1.0467 -0.9057  1.7978
 4905SOL     OW26173   3.708   0.923   7.055  0.0108  0.1541  0.1435
 4905SOL    HW126174   3.763   0.977   6.998 -1.1486  1.8911  0.6540
 4905SOL    HW226175   3.761   0.861   7.104  1.2823  1.1370  0.0239
 4906SOL     OW26176   0.813   0.647   7.634  0.1451  0.1647 -0.4342
 4906SOL    HW126177   0.861   0.578   7.588 -0.4124  0.4012 -1.3721
 4906SOL    HW226178   0.870   0.724   7.641 -1.6748  1.1431  3.2666
 4907SOL     OW26179   1.713   4.176  10.787  0.2487 -0.5067  0.2582
 4907SOL    HW126180   1.677   4.264  10.800 -0.9337 -0.9214 -0.1507
 4907SOL    HW226181   1.671   4.161  10.702 -1.0085 -0.7046  0.9203
 4908SOL     OW26182   1.342   1.027   6.271  0.1292 -0.2482 -0.0327
 4908SOL    HW126183   1.426   1.053   6.233 -0.6373  2.3263 -0.0046
 4908SOL    HW226184   1.360   1.020   6.365 -1.1284 -0.4258  0.1907
 4909SOL     OW26185   2.712   0.506   4.655  0.1350 -0.1281 -0.2531
 4909SOL    HW126186   2.619   0.524   4.664  0.0801 -0.9263  0.7692
 4909SOL    HW226187   2.743   0.563   4.725  0.7453  0.4563 -0.9964
 4910SOL     OW26188   0.271   1.765   8.417 -0.3877 -0.3909  0.3405
 4910SOL    HW126189   0.227   1.771   8.333 -0.8319 -1.6640  0.4777
 4910SOL    HW226190   0.194   1.777   8.472 -0.9703  2.3249 -1.0896
 4911SOL     OW26191   2.432   2.805   3.955 -0.0789  0.0683  0.0875
 4911SOL    HW126192   2.458   2.829   4.044 -0.2309  1.2625 -0.2029
 4911SOL    HW226193   2.443   2.887   3.909  0.4035 -0.7342 -1.2255
 4912SOL     OW26194   3.898   3.442   5.259  0.8198  0.1956 -0.1210
 4912SOL    HW126195   3.923   3.363   5.306  0.3374 -0.6743 -1.3415
 4912SOL    HW226196   3.977   3.497   5.259  0.8235  0.2088  2.0084
 4913SOL     OW26197   1.302   2.743   6.573  0.4841 -0.0070 -0.4618
 4913SOL    HW126198   1.227   2.765   6.628  0.5864 -3.6866  1.1757
 4913SOL    HW226199   1.266   2.753   6.485  3.5345  2.2511 -1.4549
 4914SOL     OW26200   1.207   4.367   0.626 -0.3167 -0.1797  0.3231
 4914SOL    HW126201   1.169   4.340   0.709 -0.0547  2.0634  1.1718
 4914SOL    HW226202   1.223   4.461   0.639  0.9683  0.0135 -2.5843
 4915SOL     OW26203   1.097   0.577   7.287  0.9799  0.0056 -0.1403
 4915SOL    HW126204   1.192   0.577   7.279  0.8953 -0.7805 -1.2864
 4915SOL    HW226205   1.063   0.650   7.235  0.5972 -0.7450 -0.9491
 4916SOL     OW26206   0.711   0.450   8.712 -0.2118  0.1353  0.2098
 4916SOL    HW126207   0.627   0.465   8.669  0.2332 -0.1841 -0.7512
 4916SOL    HW226208   0.756   0.390   8.654 -0.4827 -0.7058  0.8620
 4917SOL     OW26209   2.138   1.024   5.380  0.3390 -0.4932 -0.5249
 4917SOL    HW126210   2.068   0.962   5.365  0.1588 -0.8207  1.5829
 4917SOL    HW226211   2.215   0.976   5.351  1.2909 -0.8119  2.4623
 4918SOL     OW26212   0.131   2.885  13.576 -0.2979 -0.7229 -0.1082
 4918SOL    HW126213   0.155   2.975  13.553  0.2025 -0.5475  1.0717
 4918SOL    HW226214   0.043   2.887  13.614  0.2458  2.2934  1.0044
 4919SOL     OW26215   2.355   0.570  13.798  0.2656  0.5136  0.4359
 4919SOL    HW126216   2.270   0.571  13.756  0.9529  1.7898 -0.9214
 4919SOL    HW226217   2.350   0.491  13.853  1.6178  0.1365  0.0167
 4920SOL     OW26218   2.728   4.163  10.752  0.1868  0.4169  0.0696
 4920SOL    HW126219   2.793   4.092  10.753  0.3120  0.5282 -0.3436
 4920SOL    HW226220   2.649   4.114  10.775  0.8717  1.3830  4.5678
 4921SOL     OW26221   4.086   3.400   2.172  0.1558  0.1633 -0.0458
 4921SOL    HW126222   4.021   3.394   2.242 -2.0955 -0.7104 -2.2031
 4921SOL    HW226223   4.062   3.318   2.130 -0.9313  0.3881  0.1489
 4922SOL     OW26224   3.870   3.198   7.365  0.6304  0.1894  0.1013
 4922SOL    HW126225   3.781   3.181   7.396  0.7412  1.2297  1.0006
 4922SOL    HW226226   3.905   3.110   7.373 -2.4188 -0.9916  0.7243
 4923SOL     OW26227   0.500   0.014   3.975  0.3063 -0.7053 -0.0522
 4923SOL    HW126228   0.585   4.692   3.982  0.5775 -0.2974 -0.7711
 4923SOL    HW226229   0.520   0.068   3.899  4.3664 -1.5047  0.4206
 4924SOL     OW26230   4.714   3.219   5.617  0.3052  0.8679  0.4090
 4924SOL    HW126231   0.036   3.135   5.605 -2.1303 -0.0578 -2.4309
 4924SOL    HW226232   4.710   3.225   5.712 -3.1078 -1.1533  0.3990
 4925SOL     OW26233   3.449   1.426   5.904 -0.2233 -0.1024 -0.2375
 4925SOL    HW126234   3.519   1.440   5.840  2.2068 -2.5596  1.8493
 4925SOL    HW226235   3.424   1.516   5.922  2.2085  0.6041 -0.3441
 4926SOL     OW26236   1.579   3.461   4.493  0.2675 -1.0331 -0.0134
 4926SOL    HW126237   1.516   3.476   4.563 -0.3773 -1.6416 -0.4700
 4926SOL    HW226238   1.612   3.548   4.469 -0.2032 -0.0299  2.9709
 4927SOL     OW26239   4.342   2.966   1.625  0.0200 -0.1387 -0.0039
 4927SOL    HW126240   4.327   3.052   1.665 -2.8953 -1.3602  1.5622
 4927SOL    HW226241   4.366   2.913   1.701  1.1960 -1.6306 -1.4186
 4928SOL     OW26242   2.666   2.094   3.944 -0.3832 -0.0030  0.1612
 4928SOL    HW126243   2.582   2.122   3.982 -0.3119 -0.2444  0.4970
 4928SOL    HW226244   2.646   2.004   3.916 -1.2749  0.3315 -0.2746
 4929SOL     OW26245   4.125   1.718   7.024 -0.0111 -0.7188 -0.2066
 4929SOL    HW126246   4.212   1.751   7.005  0.4856 -0.7852  1.8673
 4929SOL    HW226247   4.069   1.767   6.964  1.7712  0.4366 -0.9126
 4930SOL     OW26248   4.402   3.622  15.402 -0.1477 -0.5589  0.6699
 4930SOL    HW126249   4.487   3.583  15.420 -0.1812  0.1139  2.3075
 4930SOL    HW226250   4.405   3.707  15.446  0.0793  0.4738 -1.3263
 4931SOL     OW26251   3.091   0.548  11.967 -0.3561  0.2690  0.0070
 4931SOL    HW126252   3.035   0.571  11.892  1.3837  1.3453 -0.9627
 4931SOL    HW226253   3.111   0.456  11.951  0.3486  0.6474 -1.2936
 4932SOL     OW26254   3.215   0.222   8.401 -0.1239 -0.6306 -0.6606
 4932SOL    HW126255   3.255   0.240   8.486 -2.3297  2.3479 -0.2710
 4932SOL    HW226256   3.222   0.127   8.392 -1.3280 -0.5540 -2.3622
 4933SOL     OW26257   3.680   1.903   9.774 -0.0060  0.3665 -0.1967
 4933SOL    HW126258   3.637   1.920   9.858  2.2489 -1.1740  1.2628
 4933SOL    HW226259   3.685   1.808   9.778 -0.1972  0.4112  1.2583
 4934SOL     OW26260   0.373   2.326   5.046 -0.2363  0.6890  0.3077
 4934SOL    HW126261   0.366   2.382   4.969  0.6995  1.6977  0.9453
 4934SOL    HW226262   0.455   2.351   5.089  0.4801  0.5467 -0.9942
 4935SOL     OW26263   4.422   4.036  17.395 -0.0640  0.0476 -0.0767
 4935SOL    HW126264   4.379   3.959  17.432 -0.0015 -0.0603 -0.2310
 4935SOL    HW226265   4.511   4.035  17.432  0.4985  2.4872 -1.3809
 4936SOL     OW26266   3.553   2.591  14.980 -0.1548 -0.8403  0.4488
 4936SOL    HW126267   3.557   2.614  14.887 -0.1810 -1.6088  0.2592
 4936SOL    HW226268   3.516   2.503  14.981 -2.7716  0.2615 -0.2388
 4937SOL     OW26269   3.563   1.569   7.736 -0.9214  0.1374  0.6230
 4937SOL    HW126270   3.469   1.568   7.717 -0.7289  1.7446 -0.4638
 4937SOL    HW226271   3.581   1.662   7.719 -1.0334  0.0101 -0.1758
 4938SOL     OW26272   2.658   0.902  14.246  0.0037 -0.3122 -0.6505
 4938SOL    HW126273   2.694   0.990  14.235  0.5388 -0.5449 -0.7613
 4938SOL    HW226274   2.601   0.915  14.321  4.5201 -2.1821  3.1378
 4939SOL     OW26275   4.339   2.713   7.665  0.2603 -0.0150 -0.1662
 4939SOL    HW126276   4.337   2.720   7.761 -1.8337 -1.1198 -0.1200
 4939SOL    HW226277   4.303   2.625   7.657  2.0466 -0.7532  0.0404
 4940SOL     OW26278   1.776   3.806   7.343  0.0964 -0.4142  0.0985
 4940SOL    HW126279   1.752   3.799   7.435  0.7586  2.1379  0.4743
 4940SOL    HW226280   1.870   3.817   7.355  0.1340 -0.5984 -0.0295
 4941SOL     OW26281   1.446   0.576   8.602  0.5749  0.3289  0.0446
 4941SOL    HW126282   1.439   0.621   8.517  1.0656  0.3518  0.0145
 4941SOL    HW226283   1.541   0.567   8.614  0.6753  2.9007  1.0146
 4942SOL     OW26284   3.487   1.597   9.668 -0.0852  0.0233 -0.1064
 4942SOL    HW126285   3.543   1.642   9.731 -1.9679  0.7302  1.0613
 4942SOL    HW226286   3.404   1.613   9.713 -0.8375 -1.6179 -0.9179
 4943SOL     OW26287   2.688   3.573   4.875 -0.3527 -0.0861  1.0392
 4943SOL    HW126288   2.736   3.634   4.931 -0.9419 -0.7992  2.3352
 4943SOL    HW226289   2.602   3.612   4.886 -0.6346  0.3894 -2.9072
 4944SOL     OW26290   1.113   3.668  17.482  0.0793 -0.3809 -0.1155
 4944SOL    HW126291   1.201   3.691  17.453 -0.5973  0.7592 -1.2555
 4944SOL    HW226292   1.072   3.751  17.506  2.6017  1.1907 -1.3210
 4945SOL     OW26293   4.390   0.477   7.614 -0.0588 -0.5974  0.2777
 4945SOL    HW126294   4.339   0.438   7.543 -1.1850 -0.4941  1.0404
 4945SOL    HW226295   4.472   0.427   7.617  0.6091  0.5482  1.5580
 4946SOL     OW26296   2.308   0.862   2.672  0.0169 -0.1780  0.0004
 4946SOL    HW126297   2.348   0.948   2.663 -1.9032  0.5776 -1.5218
 4946SOL    HW226298   2.248   0.863   2.597  0.8978 -0.1441 -0.7007
 4947SOL     OW26299   4.515   3.567   3.314 -0.5834 -0.2502  0.0437
 4947SOL    HW126300   4.424   3.552   3.287 -0.0821 -1.1646 -1.1206
 4947SOL    HW226301   4.493   3.559   3.407  0.9600 -1.1973  0.3171
 4948SOL     OW26302   1.587   1.117   6.730  0.2402  0.1378 -0.1749
 4948SOL    HW126303   1.631   1.032   6.723 -0.2800 -0.0608 -0.9396
 4948SOL    HW226304   1.655   1.172   6.689  0.1530  0.6638  0.3866
 4949SOL     OW26305   4.133   3.881   2.868 -0.3542  0.2790  0.0894
 4949SOL    HW126306   4.078   3.866   2.944 -0.2554  0.3626  0.1763
 4949SOL    HW226307   4.069   3.856   2.801 -1.4372  1.2714  0.7623
 4950SOL     OW26308   3.034   1.943   3.222 -0.2581 -1.3785 -0.6342
 4950SOL    HW126309   3.093   2.008   3.261 -0.3383 -2.1995  0.8507
 4950SOL    HW226310   2.947   1.981   3.222  0.6744  0.7511 -0.9287
 4951SOL     OW26311   1.674   3.064   3.182 -0.2103 -0.4888  0.3195
 4951SOL    HW126312   1.642   3.025   3.102 -0.5424 -0.2527  0.3374
 4951SOL    HW226313   1.761   3.085   3.147 -0.3225 -0.5534  0.0038
 4952SOL     OW26314   3.172   4.573   5.683 -0.6349  0.6374  0.0067
 4952SOL    HW126315   3.202   4.484   5.697 -0.5999  0.2772 -2.2780
 4952SOL    HW226316   3.167   4.613   5.769 -0.7807  2.0381 -0.6539
 4953SOL     OW26317   3.025   2.243   6.536 -0.2235 -0.4085  0.0550
 4953SOL    HW126318   3.045   2.328   6.574  2.0072  0.0129 -2.0168
 4953SOL    HW226319   2.996   2.196   6.614  0.6569  0.4426  0.8943
 4954SOL     OW26320   1.662   3.971   8.517 -0.1922 -0.1603 -0.0952
 4954SOL    HW126321   1.594   3.967   8.584  1.9847 -1.1779  2.0506
 4954SOL    HW226322   1.699   3.882   8.515 -1.2967 -0.6607  1.4465
 4955SOL     OW26323   3.282   4.143  11.030 -0.1833  0.2416 -0.8021
 4955SOL    HW126324   3.329   4.192  11.097 -0.9485 -0.2140  0.0757
 4955SOL    HW226325   3.286   4.055  11.068  0.0995  0.3855 -0.5012
 4956SOL     OW26326   3.677   1.850   6.819  1.0151 -0.0379  0.5421
 4956SOL    HW126327   3.682   1.811   6.906 -0.2914  1.4863  1.2761
 4956SOL    HW226328   3.701   1.784   6.753 -0.5988 -0.2894  0.1933
 4957SOL     OW26329   1.859   0.364   2.612 -0.5848 -0.0911 -0.4874
 4957SOL    HW126330   1.777   0.386   2.567 -0.3459  1.4671 -0.1759
 4957SOL    HW226331   1.918   0.413   2.555 -0.3953  1.2270  0.8270
 4958SOL     OW26332   3.650   2.017   6.449 -0.2513 -0.4750 -0.0338
 4958SOL    HW126333   3.591   2.023   6.373  1.7073  3.0172 -1.2548
 4958SOL    HW226334   3.719   1.973   6.399 -2.4176 -0.8626 -2.7093
 4959SOL     OW26335   2.406   1.492  12.899  0.3414 -0.2275  0.0368
 4959SOL    HW126336   2.477   1.552  12.874 -0.1777 -0.2442 -1.5096
 4959SOL    HW226337   2.345   1.526  12.833 -1.3102 -1.9383  0.6758
 4960SOL     OW26338   0.141   3.806  10.429  0.0427  0.1311  0.1828
 4960SOL    HW126339   0.156   3.880  10.487 -0.9338  1.5040 -1.3238
 4960SOL    HW226340   0.146   3.732  10.490 -1.8665 -1.2395 -1.3230
 4961SOL     OW26341   4.625   0.893  10.145  0.2312 -0.0497 -0.0065
 4961SOL    HW126342   4.661   0.861  10.062 -0.3805 -1.9850  0.4728
 4961SOL    HW226343   4.601   0.984  10.129  1.9058  0.2672 -0.7609
 4962SOL     OW26344   3.257   4.537   2.950 -0.3446 -0.0588  0.3931
 4962SOL    HW126345   3.287   4.524   3.040  0.6111 -2.5235 -0.2639
 4962SOL    HW226346   3.231   4.448   2.927  1.5226  0.0385 -2.1567
 4963SOL     OW26347   1.564   1.943   7.508 -0.7918  0.4380 -0.6752
 4963SOL    HW126348   1.554   1.862   7.557  0.5467  1.4329  1.2766
 4963SOL    HW226349   1.564   1.908   7.419  0.0593 -0.4681 -0.3121
 4964SOL     OW26350   3.962   2.771  12.902 -0.5690 -0.3966 -0.2982
 4964SOL    HW126351   3.977   2.677  12.892  0.0248 -0.6176  2.6031
 4964SOL    HW226352   4.005   2.796  12.984 -3.1701  2.1726  0.2504
 4965SOL     OW26353   3.823   1.364   3.722  0.7043  0.1084  0.4969
 4965SOL    HW126354   3.734   1.331   3.732  0.6829  0.6437  2.2618
 4965SOL    HW226355   3.865   1.279   3.708  1.8828  0.6397  0.7414
 4966SOL     OW26356   0.820   0.006   9.701 -0.1465 -0.1694  0.1467
 4966SOL    HW126357   0.801   4.638   9.678 -1.6919  0.4734 -1.0968
 4966SOL    HW226358   0.882   0.001   9.774 -0.7713 -0.2390  0.6714
 4967SOL     OW26359   1.147   0.264   8.512 -0.5196 -0.2936  0.7948
 4967SOL    HW126360   1.108   0.259   8.600 -0.3375 -0.6186  0.8590
 4967SOL    HW226361   1.234   0.289   8.542  0.6933 -1.8874 -1.4475
 4968SOL     OW26362   2.781   0.504   3.275 -0.1891  0.5615  0.5313
 4968SOL    HW126363   2.819   0.591   3.277  3.9619 -1.2222 -0.7910
 4968SOL    HW226364   2.758   0.488   3.184  0.6502  0.8953  0.2578
 4969SOL     OW26365   1.333   0.568  10.413 -0.1733  0.5713 -0.0904
 4969SOL    HW126366   1.242   0.539  10.404  0.0943 -0.0727 -0.6888
 4969SOL    HW226367   1.323   0.651  10.367 -1.3074  0.2616 -0.4057
 4970SOL     OW26368   4.383   2.094   2.355  0.4367  0.1124  0.0499
 4970SOL    HW126369   4.464   2.046   2.373 -0.1501 -1.6479 -1.8812
 4970SOL    HW226370   4.407   2.129   2.269  1.0092  0.1851  0.2368
 4971SOL     OW26371   2.396   4.656   2.521  0.6835 -0.6688 -0.5687
 4971SOL    HW126372   2.486   4.667   2.488  0.8349 -2.1982 -0.6809
 4971SOL    HW226373   2.338   4.654   2.445  0.0368  1.0494 -0.1026
 4972SOL     OW26374   2.848   0.355   4.377 -0.0840 -0.1390 -0.5413
 4972SOL    HW126375   2.907   0.362   4.302  0.9241  0.3661  0.3130
 4972SOL    HW226376   2.818   0.265   4.368  2.4576 -1.1148  0.8846
 4973SOL     OW26377   0.877   4.701   2.178  0.4605  0.5951  0.7158
 4973SOL    HW126378   0.949   4.683   2.238  0.5692  3.1155  1.3549
 4973SOL    HW226379   0.912   4.656   2.101  1.6174  1.0161  0.9973
 4974SOL     OW26380   0.962   0.888   1.648 -1.1643 -0.1738 -0.1398
 4974SOL    HW126381   1.054   0.861   1.641 -0.3843  2.9028 -1.6672
 4974SOL    HW226382   0.941   0.898   1.741 -0.3338  0.7069 -0.0549
 4975SOL     OW26383   3.173   4.198   3.391 -0.5256  0.2091 -0.2901
 4975SOL    HW126384   3.172   4.123   3.332  1.6548  0.7449 -1.0425
 4975SOL    HW226385   3.081   4.221   3.395 -0.5080  0.3942 -0.9405
 4976SOL     OW26386   4.442   2.724   3.250  0.0112  0.2075  0.7126
 4976SOL    HW126387   4.471   2.660   3.184 -1.8956  2.1470 -1.9915
 4976SOL    HW226388   4.452   2.800   3.193  1.3542 -1.9323 -1.8980
 4977SOL     OW26389   4.340   1.056   0.059  0.3254 -0.4985 -0.1209
 4977SOL    HW126390   4.419   1.020   0.100 -0.7311 -0.7342  1.7068
 4977SOL    HW226391   4.326   1.137   0.108 -0.6368 -0.3552 -0.6307
 4978SOL     OW26392   3.130   2.864   9.256  0.0126  0.5025 -0.4429
 4978SOL    HW126393   3.189   2.878   9.330 -0.5350 -1.4502  0.3651
 4978SOL    HW226394   3.085   2.949   9.250  0.5462  0.7737 -0.6228
 4979SOL     OW26395   1.977   1.693   7.278  0.0587  0.5071 -0.1430
 4979SOL    HW126396   1.958   1.599   7.282 -0.4387  0.6615  0.8721
 4979SOL    HW226397   2.073   1.699   7.275  0.2015 -1.5816  0.3856
 4980SOL     OW26398   4.104   2.227   7.977 -0.0804 -0.1391  0.0130
 4980SOL    HW126399   4.167   2.288   8.016  0.9393  0.9206 -3.2736
 4980SOL    HW226400   4.141   2.150   8.019 -2.6097 -1.9297 -1.0709
 4981SOL     OW26401   0.798   1.190  10.722  0.2085  0.1700  0.9889
 4981SOL    HW126402   0.729   1.243  10.762 -1.3487 -1.9157  1.0377
 4981SOL    HW226403   0.756   1.105  10.724  0.9458 -0.1864  1.2213
 4982SOL     OW26404   3.625   3.155   4.377 -0.5537  0.6100  0.2755
 4982SOL    HW126405   3.534   3.139   4.402 -0.9570  1.2650 -0.7859
 4982SOL    HW226406   3.638   3.232   4.432  1.9594 -0.5516  1.3134
 4983SOL     OW26407   4.680   3.434   5.432 -0.2635 -0.1866  0.1495
 4983SOL    HW126408   0.027   3.501   5.426 -0.7975  0.5455  2.2312
 4983SOL    HW226409   4.717   3.369   5.492  1.0578  1.4555  1.1354
 4984SOL     OW26410   1.141   3.716  17.090 -0.3357 -0.1914  0.0877
 4984SOL    HW126411   1.138   3.792  17.149  1.0464  0.1642 -0.3013
 4984SOL    HW226412   1.065   3.731  17.034 -1.2614 -0.7347  1.1879
 4985SOL     OW26413   0.587   0.116   7.137  1.0577  0.1133 -0.1714
 4985SOL    HW126414   0.646   0.135   7.209  0.6916  1.1082 -0.1340
 4985SOL    HW226415   0.531   0.194   7.135  1.9242  0.7442 -0.0582
 4986SOL     OW26416   4.554   3.756  15.123  0.0431  0.0442 -0.6389
 4986SOL    HW126417   4.629   3.810  15.150 -0.1912  0.3387 -0.5721
 4986SOL    HW226418   4.578   3.668  15.151  1.0478  0.3975 -0.3896
 4987SOL     OW26419   1.234   4.428   7.959 -0.0511 -0.0111  0.5358
 4987SOL    HW126420   1.198   4.448   8.045  1.2358  1.6261  0.7034
 4987SOL    HW226421   1.224   4.518   7.927  0.0517 -0.5396 -0.9982
 4988SOL     OW26422   2.710   1.029   0.222 -0.3333  0.2030 -0.2867
 4988SOL    HW126423   2.748   1.004   0.138  2.0889 -1.4033  1.3019
 4988SOL    HW226424   2.693   1.124   0.221  0.8007  0.3933 -1.0562
 4989SOL     OW26425   4.305   3.601   4.235  0.1748  0.0979  0.5265
 4989SOL    HW126426   4.345   3.630   4.317 -2.7662  0.2664  1.9353
 4989SOL    HW226427   4.226   3.565   4.277  0.4233 -3.3527 -1.9019
 4990SOL     OW26428   3.326   0.280   8.155 -0.4813 -0.4797  0.0826
 4990SOL    HW126429   3.279   0.280   8.239 -2.4342  2.2525 -1.0210
 4990SOL    HW226430   3.350   0.372   8.140 -0.6581 -0.2560  1.1757
 4991SOL     OW26431   0.501   0.126  10.134 -0.0449 -0.3409 -0.2454
 4991SOL    HW126432   0.561   0.076  10.078 -0.8792 -1.0164 -0.5350
 4991SOL    HW226433   0.563   0.184  10.179 -1.0470  3.3332 -3.6269
 4992SOL     OW26434   2.780   1.048   5.884 -1.0515  0.3833 -0.0775
 4992SOL    HW126435   2.789   0.954   5.897  1.9033  0.2511 -2.9222
 4992SOL    HW226436   2.698   1.043   5.834 -0.3035 -2.1206 -1.0139
 4993SOL     OW26437   3.248   0.824   3.776  0.5171 -0.7726  0.7421
 4993SOL    HW126438   3.262   0.837   3.870 -1.1445 -0.4095  0.9423
 4993SOL    HW226439   3.308   0.888   3.738 -1.1311  1.3879  1.7949
 4994SOL     OW26440   3.510   4.033   4.931 -0.2492 -0.2750 -0.2795
 4994SOL    HW126441   3.500   3.945   4.967 -1.3317  0.3291  0.9085
 4994SOL    HW226442   3.456   4.086   4.991  2.3467 -0.9867  2.6671
 4995SOL     OW26443   0.248   4.407   6.618  0.0976  0.1303  0.0696
 4995SOL    HW126444   0.238   4.331   6.561 -1.5367 -0.6924  1.4541
 4995SOL    HW226445   0.234   4.364   6.703 -0.1748  2.1431  1.0434
 4996SOL     OW26446   1.831   3.317   8.268  0.7884  0.3755  0.0487
 4996SOL    HW126447   1.854   3.410   8.261 -0.4823  0.7379  0.6426
 4996SOL    HW226448   1.781   3.311   8.349 -1.0264 -2.3778 -1.2649
 4997SOL     OW26449   3.476   0.741   0.955  0.1668  0.0827 -0.6620
 4997SOL    HW126450   3.560   0.748   0.999  0.3404 -0.2419 -0.9419
 4997SOL    HW226451   3.496   0.705   0.868 -1.4486  0.5241 -1.2293
 4998SOL     OW26452   2.281   3.764   5.111 -0.2164 -0.7344 -0.2503
 4998SOL    HW126453   2.359   3.747   5.060  0.5918 -0.3316  0.8558
 4998SOL    HW226454   2.212   3.742   5.049 -1.6872 -1.5494  1.6528
 4999SOL     OW26455   4.632   3.176   8.283 -0.4289 -0.1722 -0.5617
 4999SOL    HW126456   4.651   3.101   8.339  1.6720  1.4386  0.8658
 4999SOL    HW226457   4.714   3.202   8.241 -0.2862  0.7549  0.2884
 5000SOL     OW26458   3.420   2.937   4.767 -0.0713  0.2514 -0.1074
 5000SOL    HW126459   3.331   2.914   4.794  0.9758 -1.9872  1.3724
 5000SOL    HW226460   3.422   2.932   4.672  1.7063 -2.1874  0.0581
 5001SOL     OW26461   3.212   0.668   7.764  0.4501 -0.2563 -0.1896
 5001SOL    HW126462   3.196   0.574   7.775 -0.4122 -0.1835 -0.8328
 5001SOL    HW226463   3.194   0.676   7.670 -0.8440 -4.2880 -0.3065
 5002SOL     OW26464   1.675   2.995  12.166  0.1798  0.3404  0.0854
 5002SOL    HW126465   1.743   2.959  12.223 -0.1433  0.4633  0.5468
 5002SOL    HW226466   1.730   3.048  12.108 -0.7320  2.2887  1.0058
 5003SOL     OW26467   2.156   3.111  12.956  0.0990 -0.1928 -0.6141
 5003SOL    HW126468   2.168   3.024  12.918 -2.3355 -0.8221  0.0690
 5003SOL    HW226469   2.243   3.116  12.995  0.1476 -3.0764 -0.3029
 5004SOL     OW26470   1.571   3.013   2.941  0.1727 -0.4889 -0.6758
 5004SOL    HW126471   1.525   2.947   2.889 -1.8559  1.2651 -1.0768
 5004SOL    HW226472   1.603   3.069   2.870  0.7541 -1.0729 -0.8727
 5005SOL     OW26473   3.294   3.085   7.178 -0.2556  0.2924  0.5709
 5005SOL    HW126474   3.267   3.078   7.087 -2.5450  2.3874  1.0952
 5005SOL    HW226475   3.210   3.061   7.217 -0.2268  0.4449  0.7241
 5006SOL     OW26476   4.636   0.652   6.130 -0.3822  0.6063  0.2361
 5006SOL    HW126477   4.600   0.678   6.046 -0.5047  2.4407  0.8429
 5006SOL    HW226478   4.624   0.730   6.184  0.5772  0.3717  0.7843
 5007SOL     OW26479   3.654   1.440   5.133 -0.7443 -0.1911 -0.0150
 5007SOL    HW126480   3.713   1.381   5.180 -0.5035 -0.3050 -0.4587
 5007SOL    HW226481   3.690   1.464   5.048  1.2407  0.4481  1.0091
 5008SOL     OW26482   3.385   3.801   6.735 -0.0145  0.4564 -0.3348
 5008SOL    HW126483   3.458   3.742   6.718 -0.6301 -0.3726 -0.1147
 5008SOL    HW226484   3.415   3.863   6.802 -0.8171  0.7003 -0.1901
 5009SOL     OW26485   1.079   3.263  13.924 -0.4390  0.7773  0.2551
 5009SOL    HW126486   1.092   3.313  13.843 -1.0272  0.8102  0.1790
 5009SOL    HW226487   1.123   3.183  13.895  1.2938  0.4571  3.7333
 5010SOL     OW26488   2.792   4.333  14.573  0.1651 -0.4239 -0.0133
 5010SOL    HW126489   2.740   4.358  14.649  0.8493 -2.9459  1.2748
 5010SOL    HW226490   2.732   4.266  14.540 -0.9741 -0.6123  2.4912
 5011SOL     OW26491   2.116   0.197   3.154 -0.7124  0.0117 -1.0103
 5011SOL    HW126492   2.067   0.278   3.168 -1.3732 -0.8035  1.3970
 5011SOL    HW226493   2.049   0.129   3.148  1.6976 -2.5401  1.0900
 5012SOL     OW26494   0.361   1.381   2.447  0.0024 -0.0967 -0.0738
 5012SOL    HW126495   0.414   1.388   2.368 -0.0033 -1.4925 -0.1886
 5012SOL    HW226496   0.350   1.286   2.448 -2.1334  0.1380  0.5837
 5013SOL     OW26497   2.468   2.237   7.327 -0.0248 -0.2940 -0.0101
 5013SOL    HW126498   2.446   2.240   7.421 -0.5614 -0.9844 -0.1148
 5013SOL    HW226499   2.388   2.284   7.301  0.2804  0.0101 -0.3870
 5014SOL     OW26500   4.168   2.901   2.079  0.4474  0.1018  0.4253
 5014SOL    HW126501   4.147   2.851   2.001 -0.3637  0.4163  0.4381
 5014SOL    HW226502   4.195   2.835   2.142  0.3012 -0.0962  0.2808
 5015SOL     OW26503   3.472   3.875  15.083 -0.3168 -0.1570  0.2782
 5015SOL    HW126504   3.379   3.870  15.108 -0.8419  2.6798 -1.1335
 5015SOL    HW226505   3.485   3.780  15.072 -1.5280 -0.5706  2.4718
 5016SOL     OW26506   0.288   0.505   6.886  0.4981 -0.4913 -0.1774
 5016SOL    HW126507   0.279   0.600   6.882  2.8325 -0.2408  0.1759
 5016SOL    HW226508   0.220   0.482   6.823  1.4533  0.0532 -1.4161
 5017SOL     OW26509   2.508   2.311   3.060 -0.0466 -0.3983 -0.0328
 5017SOL    HW126510   2.558   2.230   3.061  3.9942  2.0968  1.4584
 5017SOL    HW226511   2.511   2.329   2.966 -3.2845  1.9959  0.3234
 5018SOL     OW26512   2.930   3.849   7.637  0.2605  0.9398  0.3071
 5018SOL    HW126513   2.842   3.812   7.642  1.0178 -0.6152  2.0011
 5018SOL    HW226514   2.926   3.918   7.703 -0.3806  2.3263 -1.1700
 5019SOL     OW26515   2.451   3.578   7.920 -0.1289 -0.2849 -0.2799
 5019SOL    HW126516   2.390   3.505   7.923 -1.9704  1.2719  0.2540
 5019SOL    HW226517   2.393   3.635   7.869  0.0627  0.5519  0.4214
 5020SOL     OW26518   3.421   2.518   6.756 -0.1252 -0.3399 -0.3403
 5020SOL    HW126519   3.447   2.436   6.714  1.6333 -0.2358  0.5677
 5020SOL    HW226520   3.409   2.572   6.678  1.8446 -0.5729 -0.7882
 5021SOL     OW26521   3.168   1.827   2.297 -0.7770  0.2551 -0.3083
 5021SOL    HW126522   3.084   1.781   2.302 -0.8897  0.5615  0.6772
 5021SOL    HW226523   3.229   1.754   2.282 -1.1110 -0.1446  0.2701
 5022SOL     OW26524   1.298   2.399  12.151  0.7117  0.4492  0.6330
 5022SOL    HW126525   1.388   2.368  12.145  0.4577  0.0300 -1.3289
 5022SOL    HW226526   1.275   2.336  12.220  0.4192  0.3816  0.4772
 5023SOL     OW26527   4.562   1.802  17.549  0.7074 -0.0397 -0.2056
 5023SOL    HW126528   4.595   1.766  17.467 -1.6297  1.0831 -1.6279
 5023SOL    HW226529   4.486   1.852  17.518 -0.1448 -0.1247  1.7580
 5024SOL     OW26530   4.442   0.617   4.663 -0.0047  0.0306 -0.1010
 5024SOL    HW126531   4.512   0.682   4.672  0.0922 -0.0815 -0.0390
 5024SOL    HW226532   4.400   0.647   4.582  0.2105  1.8143  0.4514
 5025SOL     OW26533   3.363   3.458   1.604 -0.4235 -0.0197 -0.0801
 5025SOL    HW126534   3.308   3.536   1.612  0.6930  0.9685 -2.0862
 5025SOL    HW226535   3.393   3.445   1.694  0.1219  0.6578 -0.1617
 5026SOL     OW26536   2.583   4.211   7.121  0.0234 -0.5754  0.3690
 5026SOL    HW126537   2.557   4.261   7.198  0.0434 -0.6987  0.4566
 5026SOL    HW226538   2.649   4.159   7.168  0.3368 -0.1701  0.3685
 5027SOL     OW26539   2.378   1.301  10.873 -0.1689  0.0165 -0.1207
 5027SOL    HW126540   2.431   1.222  10.869  0.4287  0.5291 -2.2552
 5027SOL    HW226541   2.423   1.363  10.816  0.6409  0.8788  1.4552
 5028SOL     OW26542   0.810   2.257   9.172  0.2654 -0.7186 -0.1517
 5028SOL    HW126543   0.836   2.238   9.082 -1.1013 -0.1304 -0.6654
 5028SOL    HW226544   0.890   2.233   9.219  0.0581  0.8184  1.0217
 5029SOL     OW26545   4.626   0.851   1.219 -0.0797  0.0848 -0.1442
 5029SOL    HW126546   4.659   0.825   1.304 -1.4044 -0.4822  0.2003
 5029SOL    HW226547   4.624   0.947   1.222  3.7618  0.1631 -0.3823
 5030SOL     OW26548   1.168   2.895   7.582  0.4507  0.4972  0.0957
 5030SOL    HW126549   1.261   2.882   7.565  0.6048 -2.0173  3.0818
 5030SOL    HW226550   1.142   2.805   7.602 -2.5249  1.0424 -1.3141
 5031SOL     OW26551   1.753   0.349   7.912 -0.2731  0.7354  0.2628
 5031SOL    HW126552   1.779   0.436   7.881  0.5266 -0.1622 -1.5872
 5031SOL    HW226553   1.797   0.342   7.996  0.7898  0.1507 -0.3415
 5032SOL     OW26554   0.770   1.119   0.309 -0.2857 -0.5724  0.1941
 5032SOL    HW126555   0.748   1.105   0.401  1.1620  0.5322  0.7096
 5032SOL    HW226556   0.687   1.093   0.270  0.6429  0.4055 -2.4207
 5033SOL     OW26557   4.667   1.272   9.313  0.0625 -0.3102  0.2867
 5033SOL    HW126558   4.596   1.318   9.269  0.7569 -0.6872 -1.1998
 5033SOL    HW226559   4.661   1.316   9.399 -3.0137  0.2956 -0.2241
 5034SOL     OW26560   1.052   2.044   3.260 -0.4930  0.1169 -0.1606
 5034SOL    HW126561   1.099   1.965   3.231 -1.3593  0.1568 -1.6967
 5034SOL    HW226562   1.079   2.054   3.351  0.0358 -1.2636 -0.1611
 5035SOL     OW26563   0.507   3.407   6.435  0.1665 -0.2862  0.5240
 5035SOL    HW126564   0.467   3.400   6.522 -1.1942 -2.1372 -0.2417
 5035SOL    HW226565   0.444   3.359   6.382  0.9537  1.6104 -2.1271
 5036SOL     OW26566   3.804   0.140  14.045 -0.7753 -0.0126 -0.1854
 5036SOL    HW126567   3.878   0.193  14.018  0.9449 -1.6974  1.2887
 5036SOL    HW226568   3.833   0.124  14.134  0.0139  0.0571 -0.4296
 5037SOL     OW26569   4.227   2.553   0.927 -0.1248 -0.5251 -0.2502
 5037SOL    HW126570   4.235   2.460   0.947 -1.9685 -0.7567 -0.5770
 5037SOL    HW226571   4.289   2.589   0.991  0.7183 -1.4762 -0.5440
 5038SOL     OW26572   4.044   2.180   7.237  0.3007 -0.4674  0.4634
 5038SOL    HW126573   3.949   2.173   7.250 -0.1177 -0.6949 -2.7770
 5038SOL    HW226574   4.058   2.162   7.144 -2.8526  1.1558 -0.3329
 5039SOL     OW26575   3.257   4.526  15.920 -0.0010 -0.2904 -0.0107
 5039SOL    HW126576   3.256   4.617  15.891  0.3880 -0.0077  0.8479
 5039SOL    HW226577   3.303   4.537  16.003  0.4130 -1.1065 -0.1328
 5040SOL     OW26578   0.062   2.366   1.799  0.2675  0.3003  0.5775
 5040SOL    HW126579   0.074   2.343   1.707  0.3484  1.6719  0.2518
 5040SOL    HW226580   0.155   2.358   1.823 -0.0121 -0.6845  1.3397
 5041SOL     OW26581   3.181   1.497  15.554  0.6037 -0.2190  0.7333
 5041SOL    HW126582   3.243   1.521  15.485 -0.6380 -2.3967 -1.1885
 5041SOL    HW226583   3.247   1.451  15.606  0.8822 -1.0534 -0.3494
 5042SOL     OW26584   2.052   3.377  15.916  0.1280 -0.2689 -0.3920
 5042SOL    HW126585   1.969   3.424  15.910  0.0303 -0.4426 -0.4116
 5042SOL    HW226586   2.094   3.445  15.969 -1.2558  0.4281 -0.2129
 5043SOL     OW26587   3.079   2.196   9.074  0.3402  0.0877 -0.2790
 5043SOL    HW126588   3.059   2.242   9.156  4.2710  0.7854  0.2975
 5043SOL    HW226589   3.172   2.172   9.076 -0.4795 -2.8731  2.4009
 5044SOL     OW26590   0.690   2.126  11.686 -0.7004  0.1864  0.4359
 5044SOL    HW126591   0.746   2.191  11.728  0.5479 -0.6743  0.0960
 5044SOL    HW226592   0.638   2.093  11.759  1.5492 -0.6249  1.6809
 5045SOL     OW26593   2.020   3.977   5.015  0.0651 -0.4712  0.1020
 5045SOL    HW126594   2.039   3.890   4.980  1.7858 -0.9411  2.1457
 5045SOL    HW226595   1.948   3.995   4.956 -0.3891  0.4551  0.9382
 5046SOL     OW26596   0.953   0.615   2.910  0.3117 -0.1843 -0.3432
 5046SOL    HW126597   0.895   0.559   2.858 -2.5990  1.0644  1.5444
 5046SOL    HW226598   0.914   0.702   2.906  0.5360 -0.0836 -0.2865
 5047SOL     OW26599   3.502   2.090  16.196 -0.3857  0.6621  0.7726
 5047SOL    HW126600   3.561   2.162  16.215 -0.0798  1.1935 -2.1090
 5047SOL    HW226601   3.418   2.125  16.227  0.2609  2.5831  0.2945
 5048SOL     OW26602   2.773   4.098   2.336  0.0396  0.5698  0.7333
 5048SOL    HW126603   2.759   4.088   2.242  4.2963 -1.2989  0.3136
 5048SOL    HW226604   2.691   4.139   2.361 -1.4265 -1.1557 -1.2424
 5049SOL     OW26605   1.151   1.848   6.268 -0.3699  0.3316 -0.1365
 5049SOL    HW126606   1.139   1.800   6.350  0.0071 -1.4465 -1.1132
 5049SOL    HW226607   1.088   1.920   6.275 -1.3671 -0.5183 -0.4058
 5050SOL     OW26608   3.340   2.304   5.718 -0.8650 -0.4489  0.0133
 5050SOL    HW126609   3.314   2.325   5.808  1.5670  0.5569  0.4744
 5050SOL    HW226610   3.295   2.365   5.660  0.0569  0.4450  0.2596
 5051SOL     OW26611   1.315   3.736   4.921  0.0236  0.1412  0.2017
 5051SOL    HW126612   1.269   3.789   4.855 -0.1940  0.4106  0.5688
 5051SOL    HW226613   1.339   3.805   4.983  0.2991  0.1629  0.0677
 5052SOL     OW26614   4.314   3.813  17.527  0.1295  0.3316  0.1468
 5052SOL    HW126615   4.394   3.765  17.507  0.7801  1.3698  0.2781
 5052SOL    HW226616   4.255   3.738  17.534 -0.9539  1.0749 -0.9802
 5053SOL     OW26617   4.080   1.616   6.723 -0.3181  0.5914 -0.1965
 5053SOL    HW126618   4.167   1.640   6.691  0.0072 -0.8819 -0.3875
 5053SOL    HW226619   4.057   1.560   6.649 -0.0481 -1.4148  1.2279
 5054SOL     OW26620   2.276   2.416   8.263  0.0369 -0.0392 -0.3147
 5054SOL    HW126621   2.219   2.341   8.276 -0.1991  0.3721  0.9442
 5054SOL    HW226622   2.248   2.451   8.178 -0.2915 -1.2938 -0.7177
 5055SOL     OW26623   2.596   0.481   6.259 -0.4635 -0.1667 -0.1808
 5055SOL    HW126624   2.522   0.428   6.290  0.5523  0.1961  2.8499
 5055SOL    HW226625   2.553   0.565   6.245 -0.5127  0.1315  1.7425
 5056SOL     OW26626   0.935   4.195   5.270  0.2572 -0.1682  0.2674
 5056SOL    HW126627   0.862   4.175   5.212  1.0708 -0.7203 -0.5659
 5056SOL    HW226628   0.937   4.114   5.321  0.6884 -0.2341  0.1508
 5057SOL     OW26629   1.075   2.227  15.306 -0.2615 -0.4366 -0.3215
 5057SOL    HW126630   1.097   2.206  15.397 -1.5604  2.2269  0.6040
 5057SOL    HW226631   1.076   2.137  15.273 -0.2785 -1.1340  1.5991
 5058SOL     OW26632   1.780   1.674   0.056 -0.3718  0.0563  0.7420
 5058SOL    HW126633   1.850   1.612   0.077 -0.7118 -0.6470 -0.1945
 5058SOL    HW226634   1.841   1.738   0.021  0.1644 -0.8254  0.0490
 5059SOL     OW26635   3.337   2.935   3.795 -0.1759  0.4442  0.0154
 5059SOL    HW126636   3.320   3.019   3.751 -2.9310 -0.4060 -0.5997
 5059SOL    HW226637   3.310   2.883   3.719 -2.4123  0.8386  0.5326
 5060SOL     OW26638   0.533   3.668   6.123  0.3241  0.0282  0.2928
 5060SOL    HW126639   0.546   3.626   6.038 -0.0529 -0.2827  0.3879
 5060SOL    HW226640   0.492   3.745   6.083  2.1115 -0.3502 -2.2160
 5061SOL     OW26641   2.133   2.286  10.276 -0.3362 -0.0992 -0.4660
 5061SOL    HW126642   2.174   2.218  10.330  0.7944  1.6216  0.8582
 5061SOL    HW226643   2.184   2.366  10.285 -0.9393  0.1984  0.3509
 5062SOL     OW26644   0.849   1.001   3.341 -0.0555 -0.1777 -0.4814
 5062SOL    HW126645   0.759   1.033   3.349  0.2293  0.3760  0.5575
 5062SOL    HW226646   0.867   1.008   3.248 -1.2832 -1.6165 -0.8298
 5063SOL     OW26647   2.388   4.388   0.815  0.2325 -0.1308  0.3677
 5063SOL    HW126648   2.426   4.334   0.885 -1.6594 -1.0774  0.6593
 5063SOL    HW226649   2.377   4.477   0.847 -0.5293 -0.7998  1.9912
 5064SOL     OW26650   2.106   0.595   2.415  0.0551 -0.6400 -1.0284
 5064SOL    HW126651   2.077   0.687   2.414  1.1402 -0.2864 -0.2656
 5064SOL    HW226652   2.193   0.593   2.374  0.6904  1.0040  0.2342
 5065SOL     OW26653   3.467   1.773   4.290  0.1707  0.4909  0.3354
 5065SOL    HW126654   3.439   1.865   4.298  0.1374  0.4098  1.1170
 5065SOL    HW226655   3.424   1.737   4.367 -3.6518  0.7394 -1.6186
 5066SOL     OW26656   0.736   2.271   8.032 -0.0392 -0.1420 -0.3133
 5066SOL    HW126657   0.760   2.239   7.945  1.4214 -0.1846  0.1059
 5066SOL    HW226658   0.814   2.241   8.079 -0.3282 -0.8979 -0.3047
 5067SOL     OW26659   3.090   3.980   9.246 -0.0733 -0.0421 -0.6417
 5067SOL    HW126660   3.125   4.069   9.242  2.4910 -0.9616  1.1475
 5067SOL    HW226661   3.151   3.921   9.201 -0.4333 -0.1181 -1.0330
 5068SOL     OW26662   3.271   1.176   1.458  0.3504  0.8086 -0.1219
 5068SOL    HW126663   3.245   1.129   1.378 -1.4192  3.0572 -0.8907
 5068SOL    HW226664   3.277   1.263   1.418  1.5005 -0.6717 -3.1701
 5069SOL     OW26665   4.206   0.031  11.650 -0.0090 -0.9714 -0.0234
 5069SOL    HW126666   4.250   0.068  11.573  0.5743  0.0020  0.7743
 5069SOL    HW226667   4.122   0.069  11.626 -0.2328 -1.5632 -0.1838
 5070SOL     OW26668   3.333   0.483   9.980  0.7904 -0.8265  0.1992
 5070SOL    HW126669   3.282   0.506  10.057  2.0593  0.2527  0.7265
 5070SOL    HW226670   3.367   0.402  10.019  0.8610 -0.1182  1.6050
 5071SOL     OW26671   2.426   1.253   5.174 -0.2555  0.1865 -0.3316
 5071SOL    HW126672   2.402   1.202   5.097 -2.5539  2.2647 -0.9968
 5071SOL    HW226673   2.457   1.338   5.144  2.7588 -1.1077 -0.8138
 5072SOL     OW26674   0.817   3.310  14.718  0.4933  0.3897  0.2641
 5072SOL    HW126675   0.757   3.328  14.790 -0.7714 -3.5959  0.2043
 5072SOL    HW226676   0.806   3.219  14.691  0.6654  0.1893  0.8733
 5073SOL     OW26677   0.281   1.277  17.479  0.1621 -0.0597 -0.5054
 5073SOL    HW126678   0.294   1.240  17.391  0.9173 -0.0628 -0.3932
 5073SOL    HW226679   0.368   1.260  17.515  0.5368 -1.4510 -2.0486
 5074SOL     OW26680   1.591   0.557   1.078  0.3809  0.3846 -0.3222
 5074SOL    HW126681   1.508   0.512   1.094  0.9281 -0.1484  0.9875
 5074SOL    HW226682   1.645   0.499   1.132  1.3173 -0.7077 -2.4263
 5075SOL     OW26683   2.130   2.837   3.348 -0.4199 -0.0547 -0.2972
 5075SOL    HW126684   2.131   2.930   3.370  0.2105 -0.1933  0.2559
 5075SOL    HW226685   2.204   2.828   3.288  0.0404  0.0208  0.2523
 5076SOL     OW26686   3.609   4.705  13.890  0.1616  0.0040  0.2285
 5076SOL    HW126687   3.655   0.045  13.946  2.0350  0.1852 -1.5160
 5076SOL    HW226688   3.670   4.699  13.816 -0.3019  1.2063 -0.2557
 5077SOL     OW26689   3.419   1.715   3.784 -0.2045  0.1529  0.6098
 5077SOL    HW126690   3.400   1.621   3.781 -0.8246  0.2622  1.0988
 5077SOL    HW226691   3.441   1.716   3.877  2.4308 -0.7191 -0.0304
 5078SOL     OW26692   1.818   4.192   8.067 -0.0109  0.0484 -0.0428
 5078SOL    HW126693   1.794   4.210   8.158  0.3481  1.5419 -0.2459
 5078SOL    HW226694   1.902   4.148   8.080  0.3422  1.0048  0.9196
 5079SOL     OW26695   3.247   1.811  10.440 -0.0860 -0.4612 -0.1866
 5079SOL    HW126696   3.275   1.899  10.464  0.3242 -0.4342 -0.7567
 5079SOL    HW226697   3.165   1.805  10.487  0.3554  0.3023  0.6820
 5080SOL     OW26698   2.751   4.366   5.954 -0.3962  0.3740 -0.2540
 5080SOL    HW126699   2.796   4.310   5.891  1.8500  1.3530  0.4658
 5080SOL    HW226700   2.777   4.316   6.031  0.1013 -0.6279 -1.0756
 5081SOL     OW26701   1.794   4.551   7.427  0.3222  0.0240 -0.3185
 5081SOL    HW126702   1.852   4.614   7.385  0.4268 -0.6463 -1.1992
 5081SOL    HW226703   1.746   4.510   7.354  1.6863  1.0019 -1.7722
 5082SOL     OW26704   4.462   3.000   5.889 -0.0699  0.4913  0.3496
 5082SOL    HW126705   4.507   3.084   5.900  0.0090  0.2088  2.3062
 5082SOL    HW226706   4.375   3.003   5.929 -1.0729  0.3411 -1.8348
 5083SOL     OW26707   1.373   2.342   5.441  0.1278 -0.2287  0.1525
 5083SOL    HW126708   1.354   2.303   5.356 -0.4134  1.2586 -0.4148
 5083SOL    HW226709   1.305   2.308   5.500  1.3815  0.3554  1.9493
 5084SOL     OW26710   2.912   1.589   3.385  0.1424  0.3911  0.5465
 5084SOL    HW126711   2.883   1.504   3.420  0.8171  0.3793  1.0901
 5084SOL    HW226712   2.890   1.587   3.292 -2.4730  0.4292  1.1827
 5085SOL     OW26713   3.267   0.989   6.143 -0.1861 -0.0249  0.0290
 5085SOL    HW126714   3.223   1.067   6.178  0.1124  0.0827  0.1688
 5085SOL    HW226715   3.253   1.000   6.048 -0.6382 -1.9675 -0.1307
 5086SOL     OW26716   2.868   3.315   4.490 -0.3054  0.2190  0.5997
 5086SOL    HW126717   2.872   3.279   4.401  0.1484  0.7109  0.4189
 5086SOL    HW226718   2.852   3.231   4.532  1.0372 -0.5534 -0.4114
 5087SOL     OW26719   1.488   0.117   3.073 -0.2136 -0.5273 -0.0421
 5087SOL    HW126720   1.508   0.118   3.166  0.9378 -0.1933 -0.2911
 5087SOL    HW226721   1.526   0.200   3.043  2.7735 -1.6607  0.6198
 5088SOL     OW26722   3.300   1.148   8.540  0.1848 -0.2853 -0.1026
 5088SOL    HW126723   3.239   1.178   8.608 -0.3858 -1.2134 -0.1964
 5088SOL    HW226724   3.240   1.153   8.466  0.2468 -0.6785 -0.1811
 5089SOL     OW26725   4.006   2.256   3.632 -0.4510  0.3189  0.0268
 5089SOL    HW126726   3.925   2.227   3.590 -1.0194 -0.2155  1.4968
 5089SOL    HW226727   4.010   2.351   3.618  0.3561  0.4357  1.1093
 5090SOL     OW26728   3.008   4.308   2.848 -0.0871 -0.8026 -0.3178
 5090SOL    HW126729   3.088   4.263   2.819  0.0465 -1.2311  0.7041
 5090SOL    HW226730   3.015   4.395   2.809 -0.0868 -0.6372  0.0498
 5091SOL     OW26731   4.602   0.287   2.845  0.0626  0.3234  0.1701
 5091SOL    HW126732   4.656   0.330   2.912 -0.8691 -0.4748  1.4397
 5091SOL    HW226733   4.548   0.362   2.825  0.2614  0.7519  1.2300
 5092SOL     OW26734   4.471   4.283  11.101 -0.5026 -0.3737 -0.0079
 5092SOL    HW126735   4.493   4.336  11.178  1.3350 -1.4998  0.2510
 5092SOL    HW226736   4.548   4.228  11.084  0.1539  0.2616  0.8910
 5093SOL     OW26737   4.561   0.991   5.536  0.1371  0.6121  0.3058
 5093SOL    HW126738   4.568   0.964   5.445 -0.7031 -1.4193  0.8597
 5093SOL    HW226739   4.640   1.043   5.550  0.3049  0.6081 -0.6051
 5094SOL     OW26740   1.492   4.322  17.002 -0.5746 -0.0543 -0.5056
 5094SOL    HW126741   1.551   4.278  16.940  1.7968 -0.7800  2.2761
 5094SOL    HW226742   1.459   4.384  16.937  1.4711  1.9412  0.3107
 5095SOL     OW26743   0.755   3.776   6.801 -0.5461  0.2607 -0.3879
 5095SOL    HW126744   0.776   3.729   6.882 -1.5710 -0.5693 -0.5965
 5095SOL    HW226745   0.836   3.822   6.781  1.3086 -1.5976  2.9595
 5096SOL     OW26746   3.444   1.564  15.478  0.3301  0.0612  0.2586
 5096SOL    HW126747   3.438   1.590  15.386 -1.2563  0.7641  0.5583
 5096SOL    HW226748   3.532   1.526  15.477  0.9168  1.4355  0.1293
 5097SOL     OW26749   0.929   2.965   9.936  0.4483 -0.0606 -0.2453
 5097SOL    HW126750   0.981   3.025   9.989  0.7366  2.0151 -2.8729
 5097SOL    HW226751   0.876   3.030   9.889  1.5259  0.3318 -0.9181
 5098SOL     OW26752   1.803   4.714   8.969  0.1697 -0.1119  0.3684
 5098SOL    HW126753   1.861   4.702   8.894  2.1952  0.8445  1.7760
 5098SOL    HW226754   1.772   4.624   8.980 -1.3939  0.6285  2.0552
 5099SOL     OW26755   2.452   4.709   2.944 -0.2542 -0.3872 -0.1949
 5099SOL    HW126756   2.422   0.065   2.988 -3.2874 -1.5081 -0.2850
 5099SOL    HW226757   2.543   0.011   2.927  0.8137 -2.6854  2.2285
 5100SOL     OW26758   3.429   0.458   4.761  0.1006  0.8498  0.1167
 5100SOL    HW126759   3.443   0.514   4.685 -1.2017  0.1812 -0.6130
 5100SOL    HW226760   3.354   0.498   4.806 -0.7610 -1.0230  0.3663
 5101SOL     OW26761   0.787   2.967   5.913  0.7240  0.3231 -0.6461
 5101SOL    HW126762   0.816   3.011   5.992 -1.3008  1.9823 -0.8019
 5101SOL    HW226763   0.713   3.026   5.894 -0.5633 -0.2014  2.7248
 5102SOL     OW26764   4.401   2.974   2.457 -0.3665  0.0799 -0.5909
 5102SOL    HW126765   4.476   2.962   2.400  0.0035 -2.1695  0.3563
 5102SOL    HW226766   4.370   2.886   2.481  1.4155 -0.4835 -0.3793
 5103SOL     OW26767   1.085   1.297   5.015  0.1635 -0.9879  0.1500
 5103SOL    HW126768   1.179   1.314   5.025  0.2253 -2.7256  2.3622
 5103SOL    HW226769   1.084   1.260   4.926 -0.1963  0.8985 -0.6357
 5104SOL     OW26770   0.784   2.929   1.061 -0.0649 -0.1600 -0.1870
 5104SOL    HW126771   0.744   2.849   1.028  0.2798 -0.2764 -0.3177
 5104SOL    HW226772   0.776   2.988   0.985  4.1144  1.0062  0.3001
 5105SOL     OW26773   2.370   1.623   9.105 -0.5787  0.5980  0.0278
 5105SOL    HW126774   2.454   1.656   9.074  0.4140 -1.7978  0.1400
 5105SOL    HW226775   2.324   1.626   9.021 -0.7072 -1.2708  0.0196
 5106SOL     OW26776   4.310   1.748   6.612  0.4043 -0.1099 -0.3587
 5106SOL    HW126777   4.361   1.682   6.660  0.7328  0.0304 -0.5137
 5106SOL    HW226778   4.324   1.820   6.673 -0.6601 -0.3231  0.1469
 5107SOL     OW26779   1.283   4.105   4.302 -0.5534 -0.1628  0.0091
 5107SOL    HW126780   1.217   4.089   4.234  0.1408  0.3258 -0.7768
 5107SOL    HW226781   1.335   4.174   4.261 -1.2253 -0.6138 -1.6298
 5108SOL     OW26782   4.233   0.399   6.975 -0.2042 -0.0974  0.1374
 5108SOL    HW126783   4.270   0.316   7.004  2.6624  0.6493 -1.4056
 5108SOL    HW226784   4.285   0.411   6.895 -0.4606  0.4773  0.0551
 5109SOL     OW26785   4.198   0.822   4.756  0.6543  0.1346 -0.4057
 5109SOL    HW126786   4.217   0.731   4.778  0.5261  0.3380  0.5297
 5109SOL    HW226787   4.123   0.820   4.696 -0.1136 -2.6066  0.6882
 5110SOL     OW26788   0.885   0.896   7.575 -0.0058  0.0298 -0.2577
 5110SOL    HW126789   0.888   0.946   7.657  0.2236  0.8397 -0.7648
 5110SOL    HW226790   0.790   0.888   7.568 -0.0279 -3.1845  3.1463
 5111SOL     OW26791   0.857   0.298  12.795 -0.2105  0.2645  0.3940
 5111SOL    HW126792   0.904   0.236  12.850 -1.0130 -0.1131  0.6547
 5111SOL    HW226793   0.827   0.349  12.870  0.1187 -1.7248  1.8973
 5112SOL     OW26794   0.675   4.031  15.770  0.3152  0.2947  0.1259
 5112SOL    HW126795   0.718   4.106  15.809 -0.6348 -0.2248  2.1637
 5112SOL    HW226796   0.748   3.980  15.735 -0.3608  0.1245 -1.0479
 5113SOL     OW26797   1.637   4.456   7.950 -0.0869 -1.1817 -0.2515
 5113SOL    HW126798   1.706   4.459   7.885 -0.5221 -0.1940 -0.6619
 5113SOL    HW226799   1.564   4.418   7.901 -1.9945  0.3711  1.3878
 5114SOL     OW26800   3.085   2.974  10.540 -0.0399 -0.1755  0.1658
 5114SOL    HW126801   3.040   2.990  10.623 -0.3372  1.5551 -0.3233
 5114SOL    HW226802   3.075   3.058  10.494 -0.7187 -0.6086 -0.4569
 5115SOL     OW26803   0.132   3.561  15.188 -0.0295 -0.0474  0.2338
 5115SOL    HW126804   0.040   3.536  15.182  0.1218 -0.7398  0.8962
 5115SOL    HW226805   0.145   3.600  15.101  2.2083 -1.0110  0.1427
 5116SOL     OW26806   2.358   0.168   0.624  0.3540 -0.0407  0.4283
 5116SOL    HW126807   2.424   0.101   0.639 -1.1792 -1.5970  0.2421
 5116SOL    HW226808   2.286   0.130   0.674 -0.2642 -0.6365 -0.8957
 5117SOL     OW26809   3.250   1.497   8.091 -0.4913  0.4360 -0.2338
 5117SOL    HW126810   3.259   1.568   8.028 -0.7715  1.9571  1.4410
 5117SOL    HW226811   3.164   1.519   8.126 -1.1599  0.0515 -1.6340
 5118SOL     OW26812   1.723   1.831   9.380 -0.4020  0.4521  0.5387
 5118SOL    HW126813   1.684   1.904   9.429 -0.2874  0.5199  0.5301
 5118SOL    HW226814   1.648   1.802   9.329 -0.8532  3.6686 -0.6480
 5119SOL     OW26815   2.684   1.882   4.157  0.0455  0.1806 -0.9694
 5119SOL    HW126816   2.615   1.876   4.092 -1.0958  1.3870  0.1299
 5119SOL    HW226817   2.763   1.911   4.111 -0.6601  0.2699 -2.1220
 5120SOL     OW26818   2.518   0.472   9.104  0.2500 -0.2860 -0.3694
 5120SOL    HW126819   2.513   0.567   9.088  2.9910 -0.2103 -0.6174
 5120SOL    HW226820   2.487   0.439   9.020 -0.4811 -0.5830  0.0131
 5121SOL     OW26821   1.021   3.071   8.805 -0.1354  0.4261  0.2046
 5121SOL    HW126822   1.011   3.070   8.710 -0.1511  0.5008  0.2054
 5121SOL    HW226823   0.936   3.035   8.830  0.4245 -0.9584  0.1338
 5122SOL     OW26824   3.262   3.866   6.179 -0.4394  0.0989 -0.4539
 5122SOL    HW126825   3.219   3.805   6.240 -0.3313 -1.0465 -1.5362
 5122SOL    HW226826   3.250   3.950   6.223  2.5961 -0.5107  1.5935
 5123SOL     OW26827   1.339   3.864  11.983  0.0287 -0.2641 -0.2075
 5123SOL    HW126828   1.390   3.917  11.923 -0.3351 -0.6678 -0.8776
 5123SOL    HW226829   1.256   3.912  11.975  1.6099  2.5649  0.5019
 5124SOL     OW26830   1.011   3.383   3.772  0.0536 -0.4684  0.1861
 5124SOL    HW126831   0.953   3.357   3.700 -1.8375  1.0349  1.1531
 5124SOL    HW226832   1.092   3.334   3.764 -0.3896 -1.2459  0.4436
 5125SOL     OW26833   4.047   3.185   5.305 -0.1347 -0.0791 -0.2724
 5125SOL    HW126834   4.049   3.100   5.261  0.8277 -0.4298  0.4434
 5125SOL    HW226835   4.117   3.171   5.369  0.7105 -3.2376 -1.8358
 5126SOL     OW26836   3.336   1.144   4.068  0.0462  0.0033  0.3078
 5126SOL    HW126837   3.428   1.140   4.041  0.1179  1.4702  0.2808
 5126SOL    HW226838   3.308   1.056   4.046 -0.9261 -0.2275  2.4267
 5127SOL     OW26839   3.238   0.867  12.883  0.6709  0.2860  0.1311
 5127SOL    HW126840   3.227   0.950  12.929  0.4438 -0.3310  1.2150
 5127SOL    HW226841   3.155   0.838  12.844  0.0053 -1.4957  2.8377
 5128SOL     OW26842   4.056   2.005   4.459  0.6968 -0.0989 -0.0906
 5128SOL    HW126843   3.983   2.066   4.459  1.4617  0.8087 -0.2331
 5128SOL    HW226844   4.020   1.917   4.444  0.3032  0.0652 -0.0874
 5129SOL     OW26845   2.699   2.751   0.801 -0.1561 -0.0491 -0.1359
 5129SOL    HW126846   2.622   2.806   0.784  1.5845  2.9901  1.8966
 5129SOL    HW226847   2.688   2.731   0.893  0.2836 -0.0654 -0.0884
 5130SOL     OW26848   2.082   1.381   4.493 -0.2846  0.2105  0.2884
 5130SOL    HW126849   2.084   1.465   4.539  0.9887  0.4281 -0.1719
 5130SOL    HW226850   1.989   1.360   4.489 -0.2981  0.1839  0.7296
 5131SOL     OW26851   3.993   3.196   3.306  0.0078 -0.1077  0.1391
 5131SOL    HW126852   3.900   3.213   3.320 -0.4827 -1.5054 -1.3671
 5131SOL    HW226853   3.994   3.104   3.280  2.3637  0.6304 -2.3125
 5132SOL     OW26854   0.604   0.657  15.771  0.0025 -0.1493  0.1665
 5132SOL    HW126855   0.646   0.740  15.796  1.3606 -0.4470 -1.1236
 5132SOL    HW226856   0.511   0.673  15.783  0.0263 -0.7280  1.1429
 5133SOL     OW26857   2.403   1.708   6.886 -0.2261 -0.2137 -0.5043
 5133SOL    HW126858   2.447   1.789   6.914 -3.6253  1.2560  0.6253
 5133SOL    HW226859   2.469   1.641   6.868  0.6723  0.0562  1.7870
 5134SOL     OW26860   1.274   3.683   6.272  0.1361 -0.1805 -0.1712
 5134SOL    HW126861   1.209   3.688   6.201 -1.2285 -1.1416  1.0128
 5134SOL    HW226862   1.215   3.679   6.348 -0.6533 -0.9879 -0.8170
 5135SOL     OW26863   1.838   3.637  13.142  0.3965  0.1368 -0.2490
 5135SOL    HW126864   1.858   3.703  13.208  1.9659 -0.1733 -0.4168
 5135SOL    HW226865   1.927   3.628  13.107 -0.0628 -2.5911 -0.7026
 5136SOL     OW26866   0.460   2.307   9.310 -0.1656 -0.0167  0.1021
 5136SOL    HW126867   0.381   2.266   9.344 -0.8758  1.2008 -0.1118
 5136SOL    HW226868   0.529   2.294   9.376 -1.1021  4.1609  1.9120
 5137SOL     OW26869   2.874   1.749   5.797  0.7273  0.1773  0.0950
 5137SOL    HW126870   2.840   1.789   5.877 -2.2231  0.5270 -1.3353
 5137SOL    HW226871   2.936   1.818   5.774  1.0237  0.4142  1.6193
 5138SOL     OW26872   1.752   2.410  10.555  0.3229 -0.0019 -0.4197
 5138SOL    HW126873   1.663   2.381  10.576  1.0401 -1.9020 -0.0047
 5138SOL    HW226874   1.748   2.439  10.464 -0.6882  1.6731  0.1447
 5139SOL     OW26875   0.745   0.348   1.139 -0.2261  0.3290  0.2985
 5139SOL    HW126876   0.757   0.431   1.184 -1.8650  2.2627 -2.8603
 5139SOL    HW226877   0.662   0.329   1.183  0.7162  0.7517  2.3021
 5140SOL     OW26878   2.471   3.800   7.630 -0.3717 -0.1235 -0.0885
 5140SOL    HW126879   2.393   3.747   7.649 -1.1690  0.8302 -0.6844
 5140SOL    HW226880   2.499   3.755   7.550  0.3768  0.2037 -0.0038
 5141SOL     OW26881   1.983   3.724   8.929  0.8407 -0.3402 -0.4574
 5141SOL    HW126882   2.062   3.753   8.883  0.2812  0.2492 -1.0294
 5141SOL    HW226883   1.990   3.632   8.903  2.1501 -0.7849  1.4671
 5142SOL     OW26884   1.300   1.831   1.291 -0.2082 -0.3444 -0.2927
 5142SOL    HW126885   1.377   1.840   1.347  0.1068 -1.2853 -0.5716
 5142SOL    HW226886   1.345   1.784   1.221  2.6667 -0.1537  1.4181
 5143SOL     OW26887   4.249   2.463   6.374 -0.3611  0.7595  0.4579
 5143SOL    HW126888   4.177   2.402   6.357 -0.4914  1.1896 -0.5331
 5143SOL    HW226889   4.300   2.467   6.293 -1.2249 -0.0687 -0.1272
 5144SOL     OW26890   2.661   3.471  10.935 -0.1419  0.1037  0.2078
 5144SOL    HW126891   2.745   3.516  10.928  0.3158 -0.4876  1.9907
 5144SOL    HW226892   2.649   3.473  11.030 -2.7698 -0.7464 -0.0851
 5145SOL     OW26893   1.858   2.320   7.735  0.5287 -1.1057 -0.1910
 5145SOL    HW126894   1.819   2.406   7.752  0.3876 -0.8256 -1.8429
 5145SOL    HW226895   1.787   2.290   7.678 -1.3384 -2.2024  2.7049
 5146SOL     OW26896   1.606   0.856   2.272 -0.4978 -0.4307 -0.4821
 5146SOL    HW126897   1.521   0.851   2.314 -0.1637 -1.4762  0.0776
 5146SOL    HW226898   1.646   0.770   2.281  0.7308  0.5196  2.9406
 5147SOL     OW26899   3.314   4.264  15.951 -0.7796 -0.4268 -0.8604
 5147SOL    HW126900   3.221   4.253  15.973 -0.6616 -1.8230 -1.0181
 5147SOL    HW226901   3.309   4.354  15.920 -0.5079 -0.8786 -2.2186
 5148SOL     OW26902   1.054   0.630   4.968  0.7150 -0.2495  0.2333
 5148SOL    HW126903   1.074   0.604   4.878  0.7220 -2.8445  0.9771
 5148SOL    HW226904   1.109   0.567   5.014  1.9263  0.0339 -0.8294
 5149SOL     OW26905   4.698   1.563   3.901 -0.0328 -0.2895  0.1374
 5149SOL    HW126906   0.063   1.532   3.925 -0.0683 -1.2438 -0.9725
 5149SOL    HW226907   4.669   1.506   3.829 -0.3057  0.5531 -0.4180
 5150SOL     OW26908   2.143   0.976   4.756 -0.0352  0.3767  0.1532
 5150SOL    HW126909   2.191   1.041   4.704  3.5717 -1.4231  1.2440
 5150SOL    HW226910   2.197   0.898   4.738 -0.1702 -0.2571  2.5109
 5151SOL     OW26911   2.729   4.398   7.535 -0.4578 -0.3226 -0.0649
 5151SOL    HW126912   2.764   4.433   7.618 -1.5177 -0.6677  0.5260
 5151SOL    HW226913   2.805   4.387   7.479  0.6215  2.1704  0.8984
 5152SOL     OW26914   3.255   1.791   3.258 -0.3816 -0.2261  0.0629
 5152SOL    HW126915   3.177   1.843   3.238 -0.1429  0.5452  1.1202
 5152SOL    HW226916   3.318   1.855   3.225 -2.4765  1.6195 -0.3546
 5153SOL     OW26917   2.458   1.323   1.486 -0.5022 -0.0380 -0.0334
 5153SOL    HW126918   2.498   1.239   1.461  0.7263 -0.0693  2.0525
 5153SOL    HW226919   2.455   1.322   1.582 -0.8823 -0.9288 -0.0538
 5154SOL     OW26920   4.601   3.028   6.473  0.0450 -0.1161 -0.2604
 5154SOL    HW126921   4.644   2.981   6.544  1.6713  2.3620  0.3938
 5154SOL    HW226922   4.592   3.118   6.504  1.2180 -0.0814 -0.0161
 5155SOL     OW26923   0.488   2.587   4.056 -1.0386 -0.0649  0.4470
 5155SOL    HW126924   0.544   2.509   4.066 -1.9895 -0.8152 -0.0717
 5155SOL    HW226925   0.438   2.571   3.976 -0.7415 -1.4330  0.5236
 5156SOL     OW26926   2.075   0.510  13.063 -0.0540  0.3708 -0.1661
 5156SOL    HW126927   2.004   0.449  13.084  4.0643 -3.2095  3.2536
 5156SOL    HW226928   2.051   0.536  12.974 -1.5185  0.6967  0.3205
 5157SOL     OW26929   1.135   0.226  15.801 -0.4876 -0.4758  0.3219
 5157SOL    HW126930   1.180   0.269  15.727  1.3787 -1.1421  1.0851
 5157SOL    HW226931   1.210   0.172  15.825  0.4323  0.2102 -0.9645
 5158SOL     OW26932   2.937   4.339   7.070  0.2954 -0.6863  0.0180
 5158SOL    HW126933   3.028   4.345   7.042  0.4708  0.4411  0.8240
 5158SOL    HW226934   2.929   4.410   7.133 -0.3499 -2.5970  2.0810
 5159SOL     OW26935   4.258   1.958   1.506  0.1114 -0.6359 -0.4801
 5159SOL    HW126936   4.258   2.021   1.578 -1.5774 -2.2908  0.9766
 5159SOL    HW226937   4.214   2.008   1.437 -0.1645 -0.5277 -0.2240
 5160SOL     OW26938   1.773   1.744   3.936  0.2515  0.3189  0.0557
 5160SOL    HW126939   1.845   1.686   3.960 -1.2250 -2.3406 -1.9831
 5160SOL    HW226940   1.820   1.811   3.886  2.4832 -0.4630  1.0598
 5161SOL     OW26941   0.780   1.670   2.572 -0.5199  0.1680  0.5770
 5161SOL    HW126942   0.846   1.613   2.532 -0.1173  0.3520  0.9905
 5161SOL    HW226943   0.706   1.656   2.513 -0.2939 -2.1268  0.8546
 5162SOL     OW26944   0.453   3.182   4.291 -0.2844  0.2173  0.6571
 5162SOL    HW126945   0.398   3.156   4.217  0.6390 -0.3096  0.1513
 5162SOL    HW226946   0.534   3.193   4.242  0.6727 -1.2854  1.9075
 5163SOL     OW26947   3.110   0.485   2.538  0.2150 -0.5283  0.0764
 5163SOL    HW126948   3.076   0.561   2.491  1.1026  0.0846  0.4463
 5163SOL    HW226949   3.197   0.490   2.498 -0.5080  1.9575 -1.1944
 5164SOL     OW26950   3.469   3.663   4.491 -0.1098  0.0728  0.2371
 5164SOL    HW126951   3.439   3.661   4.582 -0.4706 -0.8751  0.0974
 5164SOL    HW226952   3.513   3.748   4.483 -0.7971  0.5669  1.5662
 5165SOL     OW26953   0.383   2.794   9.300 -0.5624 -0.0144 -0.5456
 5165SOL    HW126954   0.426   2.807   9.384 -3.8978  1.0758  1.0142
 5165SOL    HW226955   0.328   2.722   9.331  0.7159 -0.0481  1.6233
 5166SOL     OW26956   0.258   0.754   8.686 -0.2246  0.4673  0.5925
 5166SOL    HW126957   0.178   0.783   8.643 -0.6340 -1.4539  0.0873
 5166SOL    HW226958   0.269   0.840   8.728  2.8381 -0.6449  2.0718
 5167SOL     OW26959   1.377   3.497  13.537 -0.1749  0.1387 -0.8299
 5167SOL    HW126960   1.321   3.453  13.600 -0.7016  0.9721 -0.7132
 5167SOL    HW226961   1.377   3.586  13.573 -1.3819 -0.3327  0.3292
 5168SOL     OW26962   2.597   1.018  12.799 -0.8529  0.2293  0.2610
 5168SOL    HW126963   2.559   1.095  12.841 -0.2191  0.9519 -0.4952
 5168SOL    HW226964   2.581   1.038  12.707 -1.5774  1.6283  0.6823
 5169SOL     OW26965   3.275   2.859   9.506 -0.4893 -0.0149  0.5488
 5169SOL    HW126966   3.364   2.868   9.473 -0.6872  2.1793  0.6415
 5169SOL    HW226967   3.280   2.775   9.553 -3.2189 -0.7177 -0.3817
 5170SOL     OW26968   1.257   4.537  12.371 -0.4942  0.6326 -0.3405
 5170SOL    HW126969   1.284   4.467  12.429  0.2571  2.8395  1.9915
 5170SOL    HW226970   1.225   4.605  12.430  0.5057 -1.1795  2.2515
 5171SOL     OW26971   1.744   1.091  11.441 -0.0152  0.2721 -0.2224
 5171SOL    HW126972   1.764   1.099  11.347  1.0017  0.2411 -0.0105
 5171SOL    HW226973   1.823   1.122  11.485  0.8165 -3.7592  1.1867
 5172SOL     OW26974   0.581   4.145   4.140  0.1757  0.1656 -0.3960
 5172SOL    HW126975   0.573   4.222   4.196  3.7850 -0.5594  1.0587
 5172SOL    HW226976   0.522   4.083   4.183  1.6608  0.2723  1.7897
 5173SOL     OW26977   0.732   0.704   4.930  0.6981 -0.3502 -0.0382
 5173SOL    HW126978   0.792   0.694   4.856 -1.1831  0.5392 -1.6910
 5173SOL    HW226979   0.740   0.797   4.950  2.0589 -0.4720 -0.0028
 5174SOL     OW26980   4.308   0.283   4.949 -0.3661 -1.1543 -0.2575
 5174SOL    HW126981   4.376   0.225   4.984  0.2375 -1.4475 -1.9071
 5174SOL    HW226982   4.344   0.371   4.947 -0.0110 -1.2887  0.0282
 5175SOL     OW26983   1.221   1.579  13.701  0.3977 -0.4091 -0.3279
 5175SOL    HW126984   1.276   1.501  13.692  0.3041 -0.6178  0.9126
 5175SOL    HW226985   1.273   1.619  13.771  0.4528  0.1917 -0.7221
 5176SOL     OW26986   2.189   1.194  12.868  0.2511  0.0426 -0.0494
 5176SOL    HW126987   2.250   1.120  12.874  1.1766  0.8740  0.8478
 5176SOL    HW226988   2.172   1.211  12.961 -1.8783 -3.5396  0.2197
 5177SOL     OW26989   4.391   3.828   1.938 -0.1186 -0.3758  0.3911
 5177SOL    HW126990   4.328   3.774   1.986 -1.1066 -0.7547 -1.3299
 5177SOL    HW226991   4.474   3.797   1.975 -1.2921 -3.0213  0.7980
 5178SOL     OW26992   4.573   3.302   0.211 -0.3954 -0.2948  0.7564
 5178SOL    HW126993   4.571   3.219   0.259  1.3621 -0.3316  0.7479
 5178SOL    HW226994   4.586   3.366   0.282  0.2266 -1.1346  1.3952
 5179SOL     OW26995   3.532   0.776  15.911  0.6240 -0.2182 -0.3780
 5179SOL    HW126996   3.497   0.689  15.893 -0.7240  0.0554  0.9648
 5179SOL    HW226997   3.538   0.758  16.005  2.2245  0.2732 -0.3775
 5180SOL     OW26998   2.164   4.390   8.458  0.3197 -0.0604 -0.0473
 5180SOL    HW126999   2.092   4.378   8.520  0.1841  0.6816 -0.0695
 5180SOL    HW227000   2.191   4.472   8.499  1.0825  0.0963 -0.8756
 5181SOL     OW27001   1.712   1.181   1.207  0.0310  0.9321 -0.1005
 5181SOL    HW127002   1.646   1.165   1.140 -0.5921 -1.1409  0.9997
 5181SOL    HW227003   1.691   1.112   1.269  2.7568  0.3624  0.2192
 5182SOL     OW27004   3.429   4.235   0.052 -0.6509  0.0661  0.5015
 5182SOL    HW127005   3.508   4.282   0.077  1.0483 -2.2446 -0.5560
 5182SOL    HW227006   3.415   4.192   0.136 -0.2869 -1.3362 -0.1351
 5183SOL     OW27007   1.365   1.531  13.326 -0.6676 -1.2519  0.0046
 5183SOL    HW127008   1.324   1.445  13.331  0.3266 -1.7691 -0.5850
 5183SOL    HW227009   1.341   1.569  13.410 -1.0074 -1.6531  0.0859
 5184SOL     OW27010   2.713   3.712  10.656  0.4541 -0.3082 -0.7883
 5184SOL    HW127011   2.680   3.622  10.655  0.3405 -0.2846  1.0720
 5184SOL    HW227012   2.795   3.694  10.701 -0.9570 -0.2559  1.7907
 5185SOL     OW27013   1.318   0.210   3.518 -0.3783  0.3600 -0.6299
 5185SOL    HW127014   1.234   0.254   3.504 -0.1337  2.0255  3.0206
 5185SOL    HW227015   1.296   0.147   3.587 -1.2285  1.9501  0.5580
 5186SOL     OW27016   3.058   2.994   6.187  0.0415 -0.0053 -0.2588
 5186SOL    HW127017   3.103   3.074   6.214  2.4194 -1.0392 -1.1963
 5186SOL    HW227018   3.051   2.936   6.262 -0.1564  2.2630  1.4947
 5187SOL     OW27019   2.596   3.627  13.618  0.4509  0.0806  0.2513
 5187SOL    HW127020   2.566   3.706  13.572 -1.3598  0.3290  1.8929
 5187SOL    HW227021   2.582   3.553  13.560 -1.1887  0.0889  0.6560
 5188SOL     OW27022   2.630   0.670   3.632 -0.1718  0.2007 -0.1301
 5188SOL    HW127023   2.726   0.665   3.637 -0.1145  1.3068 -0.0346
 5188SOL    HW227024   2.624   0.709   3.545 -0.3956 -0.8981 -0.5945
 5189SOL     OW27025   1.492   4.499  14.856  0.2928 -0.2367 -0.2495
 5189SOL    HW127026   1.453   4.579  14.820  0.8715  0.4608  0.6911
 5189SOL    HW227027   1.491   4.525  14.948  3.1762 -0.2474 -0.2253
 5190SOL     OW27028   0.800   3.220   6.553  0.2660 -0.0923 -0.0873
 5190SOL    HW127029   0.816   3.195   6.644  0.0228  0.0919  0.0070
 5190SOL    HW227030   0.813   3.315   6.559  0.3272 -0.1986  1.6181
 5191SOL     OW27031   0.315   4.320   4.350  0.2859 -0.3570  0.5367
 5191SOL    HW127032   0.281   4.385   4.411  0.4478  0.6463 -0.4539
 5191SOL    HW227033   0.242   4.320   4.288 -0.6984 -0.9174  1.6785
 5192SOL     OW27034   2.594   1.076   4.189  0.1825 -0.0971  0.4765
 5192SOL    HW127035   2.571   1.129   4.113  2.0919  0.5930  0.3777
 5192SOL    HW227036   2.676   1.117   4.216 -0.3452 -0.3282  2.4038
 5193SOL     OW27037   3.602   3.795   1.203 -0.2175 -0.0982 -0.4346
 5193SOL    HW127038   3.547   3.781   1.280  1.7376  0.4468  1.0737
 5193SOL    HW227039   3.689   3.788   1.242 -0.3588 -0.2432 -0.1461
 5194SOL     OW27040   3.822   4.247   7.898 -0.1336  0.6247 -0.0210
 5194SOL    HW127041   3.834   4.202   7.815  1.3202  0.1694  0.4296
 5194SOL    HW227042   3.829   4.172   7.957  1.9361  1.4433  0.7736
 5195SOL     OW27043   1.382   3.746  15.114 -0.7160  0.2890 -0.1361
 5195SOL    HW127044   1.342   3.775  15.032 -0.1530  0.0336 -0.4970
 5195SOL    HW227045   1.448   3.687  15.078  0.1135  2.3468 -2.0476
 5196SOL     OW27046   1.920   4.707   6.990  0.2991  0.6794  0.3736
 5196SOL    HW127047   1.856   4.723   6.920  2.4124 -0.1891 -1.7552
 5196SOL    HW227048   1.898   4.620   7.024 -0.0345  0.1467 -1.2156
 5197SOL     OW27049   2.460   0.990   0.333 -0.0626  0.1356  0.4452
 5197SOL    HW127050   2.397   1.060   0.313  1.0340  1.2490  0.8899
 5197SOL    HW227051   2.531   1.001   0.271  0.2033 -1.3648  0.4753
 5198SOL     OW27052   4.439   1.959   4.114 -0.4395  0.0477  0.2294
 5198SOL    HW127053   4.496   2.020   4.067  0.6033 -1.5256 -0.5216
 5198SOL    HW227054   4.385   2.020   4.165  2.5486  2.1374  0.8925
 5199SOL     OW27055   1.321   0.688  16.265 -0.2637 -0.0572  0.0369
 5199SOL    HW127056   1.313   0.782  16.282 -0.9744 -0.0009 -0.6037
 5199SOL    HW227057   1.228   0.668  16.259 -0.0353 -0.7515 -1.2393
 5200SOL     OW27058   0.821   3.402  17.662 -0.1455  0.0484  0.2943
 5200SOL    HW127059   0.747   3.450   0.007 -0.9234 -1.4857  0.7344
 5200SOL    HW227060   0.834   3.341   0.043  0.7174 -0.3848 -0.2227
 5201SOL     OW27061   4.515   2.550   0.780 -0.0870 -0.3027 -0.1549
 5201SOL    HW127062   4.571   2.473   0.784 -1.1220 -1.1180 -1.3849
 5201SOL    HW227063   4.501   2.554   0.875 -1.4919  0.6263 -0.3928
 5202SOL     OW27064   0.035   3.034  15.898  0.3445  0.2489 -0.0416
 5202SOL    HW127065   0.011   2.942  15.896  0.5407  0.1784  0.9035
 5202SOL    HW227066   4.687   3.076  15.849  0.2580 -1.2083 -1.1524
 5203SOL     OW27067   2.491   2.060  17.379 -0.1251  0.4151  0.2744
 5203SOL    HW127068   2.516   2.145  17.417 -0.3290 -0.2049  1.8021
 5203SOL    HW227069   2.445   2.021  17.454  0.8024 -0.8304  0.1822
 5204SOL     OW27070   0.500   1.062   5.949  0.2594 -0.8391  0.3016
 5204SOL    HW127071   0.465   1.123   6.015 -1.2548 -0.3858 -0.9348
 5204SOL    HW227072   0.440   0.988   5.954 -1.9696  0.8480 -1.6413
 5205SOL     OW27073   0.596   2.854   1.756 -0.2500 -0.3408 -0.6777
 5205SOL    HW127074   0.672   2.836   1.699  1.0194  0.2249  0.8593
 5205SOL    HW227075   0.568   2.931   1.707 -0.8632 -1.2667 -1.8005
 5206SOL     OW27076   1.547   3.394  16.217 -0.4786  0.0778 -0.1373
 5206SOL    HW127077   1.536   3.384  16.123  0.0241  2.4603 -0.4527
 5206SOL    HW227078   1.493   3.322  16.248  0.7771 -0.4910  0.7038
 5207SOL     OW27079   0.948   0.968  13.596  0.4796 -0.0977 -0.3391
 5207SOL    HW127080   0.876   0.915  13.630  0.5241  0.3217  0.4158
 5207SOL    HW227081   0.903   1.026  13.535  0.7753 -1.5876 -1.9819
 5208SOL     OW27082   1.548   1.824   6.740  0.1042 -0.1865  0.1034
 5208SOL    HW127083   1.613   1.864   6.682  1.1332 -1.4969  0.3386
 5208SOL    HW227084   1.559   1.730   6.723  1.7090 -0.1950  1.1706
 5209SOL     OW27085   0.966   1.642   8.384  0.1159  0.2507 -0.4261
 5209SOL    HW127086   0.890   1.698   8.398  0.3559  0.7561 -1.1470
 5209SOL    HW227087   1.004   1.676   8.303  1.0072 -0.5017 -0.3366
 5210SOL     OW27088   2.435   0.870   2.254 -0.5840  0.5572  0.0618
 5210SOL    HW127089   2.450   0.955   2.213  0.1367 -0.2432 -1.3543
 5210SOL    HW227090   2.490   0.863   2.331 -0.7286 -0.2125  0.0940
 5211SOL     OW27091   2.621   0.241   4.691 -0.5566 -0.3890 -0.7417
 5211SOL    HW127092   2.675   0.227   4.769 -0.8374 -2.0125 -0.8490
 5211SOL    HW227093   2.645   0.333   4.678  1.8784 -1.1376 -1.6404
 5212SOL     OW27094   3.699   2.065   2.362 -0.0794 -0.2164 -0.1348
 5212SOL    HW127095   3.792   2.068   2.386 -0.1447 -2.3850  0.4187
 5212SOL    HW227096   3.700   1.975   2.329 -0.0402  0.1267 -1.0486
 5213SOL     OW27097   1.876   0.907   7.774  0.3201  0.2598  0.2927
 5213SOL    HW127098   1.793   0.870   7.743 -1.2309  3.6539  0.3565
 5213SOL    HW227099   1.855   0.997   7.797 -1.8704 -0.5534  1.4766
 5214SOL     OW27100   0.129   1.092   4.040  0.1989 -0.0900 -0.1725
 5214SOL    HW127101   0.146   1.173   4.087 -2.1124 -1.4060  2.9285
 5214SOL    HW227102   0.159   1.020   4.095  1.8178  1.4150  0.9112
 5215SOL     OW27103   0.964   1.595   3.884  0.0296 -0.0310 -0.8961
 5215SOL    HW127104   0.962   1.511   3.837  1.9922 -1.3557  1.3584
 5215SOL    HW227105   0.964   1.567   3.976  2.8273  3.9966  0.3620
 5216SOL     OW27106   2.762   4.195  13.439 -0.2959  0.1261 -0.2782
 5216SOL    HW127107   2.703   4.250  13.388  1.4421  1.2381 -1.0954
 5216SOL    HW227108   2.824   4.168  13.371 -1.2715  1.1165 -1.5595
 5217SOL     OW27109   0.686   0.907  15.849 -0.1519 -0.0356 -0.1766
 5217SOL    HW127110   0.634   0.985  15.829  1.8829  0.7938 -2.2586
 5217SOL    HW227111   0.769   0.941  15.883  1.1228 -0.6814 -2.6398
 5218SOL     OW27112   2.542   1.253   3.042  0.5351  0.6682  0.6685
 5218SOL    HW127113   2.495   1.254   2.959  1.2734  0.9222  0.2575
 5218SOL    HW227114   2.477   1.292   3.101 -0.8729  0.8097 -0.9625
 5219SOL     OW27115   1.354   0.499   3.888 -0.1981 -0.0852 -0.3109
 5219SOL    HW127116   1.375   0.575   3.834  0.5829  0.2497  0.4793
 5219SOL    HW227117   1.262   0.485   3.864 -0.2527  1.7417 -1.1448
 5220SOL     OW27118   0.875   3.602   1.010  0.1129 -0.6407  0.4330
 5220SOL    HW127119   0.796   3.558   0.980 -0.1050  0.5818 -0.8248
 5220SOL    HW227120   0.837   3.631   1.093 -3.4615  0.7640 -1.6773
 5221SOL     OW27121   1.015   2.208   2.192  0.4029  0.4833 -0.4459
 5221SOL    HW127122   0.987   2.171   2.108 -0.9075  2.0949 -0.7080
 5221SOL    HW227123   0.979   2.150   2.258 -2.1012  2.7457  0.1510
 5222SOL     OW27124   1.823   4.086   0.280 -0.4352 -0.0102  0.0573
 5222SOL    HW127125   1.821   4.027   0.205  0.2947  0.2659 -0.1802
 5222SOL    HW227126   1.744   4.066   0.329 -0.5958  0.0461 -0.1763
 5223SOL     OW27127   1.941   0.325   6.697 -0.3375 -0.2480  0.2541
 5223SOL    HW127128   1.903   0.405   6.663  1.2415  1.5527  2.7124
 5223SOL    HW227129   2.007   0.355   6.760  1.6309 -2.7236 -0.6124
 5224SOL     OW27130   0.941   1.479   6.530 -0.0517 -0.0383 -0.6426
 5224SOL    HW127131   0.853   1.484   6.566  0.7270  0.1896  1.2254
 5224SOL    HW227132   0.987   1.451   6.609  1.0378  2.1222 -0.5096
 5225SOL     OW27133   1.050   1.310   2.609 -0.4749  0.2034 -0.1144
 5225SOL    HW127134   1.067   1.402   2.589 -1.3376  0.2939 -0.4575
 5225SOL    HW227135   1.044   1.272   2.521 -0.2942 -1.5719  0.6477
 5226SOL     OW27136   2.818   1.334   3.730 -0.7541  0.1896 -0.2231
 5226SOL    HW127137   2.859   1.291   3.655  0.0621  2.4246 -1.0875
 5226SOL    HW227138   2.726   1.322   3.708 -0.7454  1.4299 -0.9927
 5227SOL     OW27139   4.657   2.752   4.821 -0.2063  0.0811  0.2634
 5227SOL    HW127140   4.686   2.843   4.827 -0.9127  0.1674  2.2322
 5227SOL    HW227141   4.604   2.753   4.741  1.1915  3.4212 -0.6423
 5228SOL     OW27142   4.533   3.870   5.366 -0.8965  0.2702  0.0369
 5228SOL    HW127143   4.610   3.919   5.337 -1.0308 -0.3187 -1.3315
 5228SOL    HW227144   4.565   3.818   5.439 -1.0121  1.3098  0.8216
 5229SOL     OW27145   4.237   0.362   6.450  0.1700 -0.7380 -0.0866
 5229SOL    HW127146   4.198   0.275   6.461 -2.8481  0.8631  2.0090
 5229SOL    HW227147   4.157   0.415   6.451  0.4219 -0.3913  1.1020
 5230SOL     OW27148   3.536   3.036   7.832 -0.0677 -0.5537 -0.3093
 5230SOL    HW127149   3.587   3.117   7.822  0.1746 -0.4855  1.4718
 5230SOL    HW227150   3.505   3.047   7.921  1.4101 -0.7941  0.2392
 5231SOL     OW27151   1.394   4.130   1.394  0.0505 -0.0133 -0.5037
 5231SOL    HW127152   1.435   4.075   1.461 -0.7401  0.4330  0.3482
 5231SOL    HW227153   1.467   4.152   1.336 -0.3256  1.2039 -0.4982
 5232SOL     OW27154   1.480   0.786  13.749  0.6445 -0.9058 -0.2649
 5232SOL    HW127155   1.483   0.852  13.680 -3.2466 -1.8417 -1.3119
 5232SOL    HW227156   1.385   0.790  13.754  0.4388 -4.2312 -1.5968
 5233SOL     OW27157   3.544   0.843   4.419 -0.2964 -0.5844 -0.1925
 5233SOL    HW127158   3.556   0.802   4.505  1.8526  0.3083 -0.0718
 5233SOL    HW227159   3.452   0.820   4.407 -0.3472 -0.3031 -0.3557
 5234SOL     OW27160   0.768   0.764   5.866 -0.3746  0.2705  0.4337
 5234SOL    HW127161   0.735   0.754   5.777  0.9226  0.6462 -0.0834
 5234SOL    HW227162   0.749   0.674   5.893  0.5526  1.0459  3.7065
 5235SOL     OW27163   1.392   2.772   1.048  0.1580  0.1016  0.0976
 5235SOL    HW127164   1.342   2.831   1.106 -0.2294  0.1826 -0.3205
 5235SOL    HW227165   1.381   2.815   0.963 -2.1832 -0.0448  0.3217
 5236SOL     OW27166   0.718   3.524   9.936 -0.2894 -0.1178 -0.0197
 5236SOL    HW127167   0.700   3.533   9.843 -0.2211 -0.6792 -0.0918
 5236SOL    HW227168   0.776   3.597   9.957 -0.6871  0.2412 -0.1653
 5237SOL     OW27169   0.928   1.872  10.862 -0.0965  0.2171  0.1868
 5237SOL    HW127170   0.862   1.803  10.875  1.6730 -1.3427  0.8862
 5237SOL    HW227171   0.909   1.887  10.769 -1.6743 -1.9188  0.1593
 5238SOL     OW27172   2.405   2.727   0.918  0.0873 -0.3029 -0.2423
 5238SOL    HW127173   2.427   2.809   0.874  0.2102 -0.7623 -1.0278
 5238SOL    HW227174   2.345   2.702   0.848 -0.4357 -0.9748  0.4425
 5239SOL     OW27175   1.380   4.602  15.092 -0.4637  0.4612 -0.3001
 5239SOL    HW127176   1.434   4.673  15.128  0.3534 -1.2500  1.8637
 5239SOL    HW227177   1.326   4.648  15.028  0.1169  0.9771 -0.4122
 5240SOL     OW27178   1.743   3.650   3.500  0.0093 -0.5146  0.0135
 5240SOL    HW127179   1.753   3.619   3.589  1.5963  1.3295  0.4711
 5240SOL    HW227180   1.666   3.708   3.502 -0.1248 -0.6972  0.1042
 5241SOL     OW27181   3.413   1.983   8.372 -0.0297 -0.7347 -0.0314
 5241SOL    HW127182   3.456   2.017   8.451 -0.3662  0.8858 -0.5423
 5241SOL    HW227183   3.327   1.962   8.409  0.2141 -0.8129  0.4893
 5242SOL     OW27184   1.935   0.869   4.905  0.0663  0.1330 -0.5712
 5242SOL    HW127185   2.005   0.912   4.856  1.5148  0.5673  1.8958
 5242SOL    HW227186   1.898   0.927   4.972 -0.0428 -0.4705 -0.1091
 5243SOL     OW27187   1.896   1.547   3.510 -0.5509  0.6518 -0.3856
 5243SOL    HW127188   1.958   1.485   3.472 -1.8885 -0.0907 -1.3566
 5243SOL    HW227189   1.890   1.617   3.445  1.1745 -0.3042 -1.5723
 5244SOL     OW27190   1.115   2.001   7.926 -0.8282 -0.1851 -0.0647
 5244SOL    HW127191   1.077   1.985   7.839 -0.4707  2.5107 -0.7232
 5244SOL    HW227192   1.169   1.922   7.934 -1.0170 -0.4885 -1.6673
 5245SOL     OW27193   2.553   4.135   5.985  0.1056  0.2132 -0.8101
 5245SOL    HW127194   2.576   4.175   5.901 -1.5035  0.9884 -0.8897
 5245SOL    HW227195   2.458   4.152   5.982  0.0906  0.5283  1.5686
 5246SOL     OW27196   1.641   0.365   4.180  0.3202 -0.5091 -0.4210
 5246SOL    HW127197   1.729   0.398   4.194  0.4375 -0.1958 -1.8612
 5246SOL    HW227198   1.649   0.273   4.205  1.1419 -0.3047  0.0662
 5247SOL     OW27199   1.861   2.232   1.860 -0.0808  0.6253 -0.5392
 5247SOL    HW127200   1.879   2.233   1.766 -1.8492 -0.8574 -0.9019
 5247SOL    HW227201   1.910   2.314   1.871  2.4456 -1.1757  1.4659
 5248SOL     OW27202   4.536   0.047  14.227  0.3585 -0.1476 -1.0631
 5248SOL    HW127203   4.555   0.011  14.140  0.1521 -1.5054 -0.5340
 5248SOL    HW227204   4.566   4.703  14.288 -1.1064 -0.1691 -0.3663
 5249SOL     OW27205   2.008   1.718   3.699 -0.0281 -0.4391 -0.5390
 5249SOL    HW127206   2.031   1.782   3.631  1.1432 -1.5436 -1.1645
 5249SOL    HW227207   1.976   1.644   3.648  0.2200  1.4835 -3.5360
 5250SOL     OW27208   1.705   1.046   5.635 -0.5159 -0.1460  0.0713
 5250SOL    HW127209   1.735   0.973   5.690  1.3246  0.2002 -0.4601
 5250SOL    HW227210   1.611   1.041   5.649 -0.8194  0.1293 -1.8438
 5251SOL     OW27211   0.851   1.155   9.447  0.0131  0.1482 -0.0793
 5251SOL    HW127212   0.793   1.091   9.487 -0.0248  0.3564  0.1930
 5251SOL    HW227213   0.841   1.123   9.357 -2.5037 -0.2545  0.3512
 5252SOL     OW27214   4.003   3.153   5.993 -0.0395  0.2947  1.4706
 5252SOL    HW127215   3.960   3.094   6.055 -0.8916 -0.5410  0.0691
 5252SOL    HW227216   4.097   3.150   6.015 -0.5085 -1.0255  3.2599
 5253SOL     OW27217   3.601   1.837  14.935 -0.4674  0.2971 -0.4158
 5253SOL    HW127218   3.681   1.890  14.940  0.3138 -0.8419 -0.7999
 5253SOL    HW227219   3.588   1.823  14.841 -0.0305  3.5314 -0.9640
 5254SOL     OW27220   3.363   3.581   4.231 -0.4024 -1.0427  0.4453
 5254SOL    HW127221   3.394   3.607   4.318 -0.1463 -3.1938  1.0002
 5254SOL    HW227222   3.332   3.493   4.250  0.4001 -0.9136  2.3853
 5255SOL     OW27223   1.272   3.201   1.827  0.0302  0.2002 -0.1847
 5255SOL    HW127224   1.351   3.158   1.793 -0.9460  1.1126 -3.6202
 5255SOL    HW227225   1.206   3.174   1.763  2.0538 -1.1943 -1.6724
 5256SOL     OW27226   4.204   2.360   4.215 -0.1473  0.0165 -0.1851
 5256SOL    HW127227   4.246   2.380   4.131  0.7940  2.9093  1.0011
 5256SOL    HW227228   4.244   2.273   4.224 -1.7947 -0.9417 -1.9500
 5257SOL     OW27229   1.224   0.030   7.982 -0.1969 -0.0515  0.2193
 5257SOL    HW127230   1.250   0.027   7.890  0.1296  2.8409  0.2199
 5257SOL    HW227231   1.304   0.062   8.024 -0.0998 -0.0088  0.0015
 5258SOL     OW27232   3.507   4.502   6.183  0.0549 -0.2446 -0.0071
 5258SOL    HW127233   3.476   4.411   6.188  1.3436 -0.5010  3.1701
 5258SOL    HW227234   3.597   4.494   6.152  0.2036  1.4958  0.0269
 5259SOL     OW27235   0.083   1.737   2.449 -0.7549 -0.0885 -0.0834
 5259SOL    HW127236   0.075   1.655   2.497 -0.3426 -0.6680 -1.0037
 5259SOL    HW227237   0.122   1.703   2.368  0.6101 -0.5659  0.7603
 5260SOL     OW27238   2.360   1.262  15.580  0.5180 -0.2042  0.1147
 5260SOL    HW127239   2.277   1.300  15.551  0.4814 -0.3675 -0.0024
 5260SOL    HW227240   2.347   1.177  15.537  0.7444 -1.0539  1.7532
 5261SOL     OW27241   0.015   3.574   3.608 -0.3366 -0.8300 -0.1677
 5261SOL    HW127242   4.718   3.610   3.695  2.1229  1.6112 -0.6169
 5261SOL    HW227243   4.670   3.621   3.560 -2.0858 -1.9563  1.1960
 5262SOL     OW27244   4.508   0.173  14.532 -0.1476 -0.0415  0.4318
 5262SOL    HW127245   4.587   0.206  14.489 -1.2325 -1.0661 -2.3457
 5262SOL    HW227246   4.547   0.088  14.552 -1.5334 -0.2748  2.1474
 5263SOL     OW27247   1.339   2.268  16.425  0.3303  0.1243 -0.0129
 5263SOL    HW127248   1.403   2.337  16.407 -0.9045  0.7556 -1.9583
 5263SOL    HW227249   1.389   2.206  16.479 -2.8396 -0.9474  1.6674
 5264SOL     OW27250   0.097   0.137   8.545  0.3209 -0.2230  0.7383
 5264SOL    HW127251   0.100   0.233   8.542  0.8113 -0.2705 -0.2153
 5264SOL    HW227252   0.190   0.124   8.566  0.2154 -1.6089  0.3064
 5265SOL     OW27253   2.180   4.331   9.533  0.2935  0.4607  0.2298
 5265SOL    HW127254   2.186   4.281   9.615  1.5511 -0.4312 -0.3952
 5265SOL    HW227255   2.157   4.415   9.572 -0.1672 -0.0933  1.1657
 5266SOL     OW27256   2.084   2.375   7.952  0.1979  0.1192 -0.1178
 5266SOL    HW127257   2.145   2.448   7.945 -1.5415  1.5502 -0.4888
 5266SOL    HW227258   1.999   2.417   7.937  0.0893  1.8436  5.2779
 5267SOL     OW27259   0.345   1.514  13.464 -1.2127 -0.3401 -0.1241
 5267SOL    HW127260   0.360   1.606  13.486  0.9680 -0.2312 -2.0986
 5267SOL    HW227261   0.268   1.498  13.518  0.2510 -0.1776  2.0327
 5268SOL     OW27262   1.745   4.466   8.432 -0.8421  0.4954 -0.2019
 5268SOL    HW127263   1.664   4.414   8.427 -0.0681 -0.7476  0.3785
 5268SOL    HW227264   1.740   4.504   8.345 -2.6590 -0.7937 -0.6789
 5269SOL     OW27265   1.275   0.250   3.226  0.1638  0.2005 -0.1648
 5269SOL    HW127266   1.367   0.236   3.247 -0.3094 -2.2530  0.3052
 5269SOL    HW227267   1.230   0.249   3.310 -3.3650 -0.9752 -2.0379
 5270SOL     OW27268   2.545   2.008   5.627  0.5871 -0.5075 -0.6465
 5270SOL    HW127269   2.582   2.049   5.706 -0.8806 -0.0470 -0.2062
 5270SOL    HW227270   2.529   1.918   5.656 -0.2995  0.0970  0.7519
 5271SOL     OW27271   0.021   1.107  15.492  0.2909  0.1684 -0.2152
 5271SOL    HW127272   4.683   1.181  15.485 -0.9021 -0.9000 -1.2717
 5271SOL    HW227273   0.091   1.133  15.552 -0.0534  0.1813  0.1810
 5272SOL     OW27274   4.308   4.410   4.807 -0.1914 -0.5647 -0.3403
 5272SOL    HW127275   4.400   4.420   4.782 -0.3501  0.8714 -0.3188
 5272SOL    HW227276   4.282   4.347   4.739 -2.0101 -2.6195  2.2344
 5273SOL     OW27277   1.697   4.501   0.549  0.1222  0.2100 -0.4051
 5273SOL    HW127278   1.611   4.544   0.554 -1.3208 -2.9050  1.6138
 5273SOL    HW227279   1.744   4.529   0.628  0.6566  1.4946 -1.1838
 5274SOL     OW27280   0.103   4.486   1.496  0.2429  0.8859 -0.2763
 5274SOL    HW127281   0.135   4.502   1.585 -0.6150 -0.1785  0.2127
 5274SOL    HW227282   0.045   4.412   1.514  1.9410  0.2091  2.4866
 5275SOL     OW27283   4.020   2.579  16.831  0.1771 -0.7228 -0.4596
 5275SOL    HW127284   4.062   2.647  16.884 -1.3068  0.5427 -0.8917
 5275SOL    HW227285   3.928   2.607  16.833  0.4850  0.2247  0.2143
 5276SOL     OW27286   1.028   1.579  10.042  0.5928 -0.2179  0.8738
 5276SOL    HW127287   0.977   1.657  10.061  0.1004 -0.0745 -1.1453
 5276SOL    HW227288   0.992   1.511  10.099 -1.1295 -1.7412 -2.0447
 5277SOL     OW27289   2.663   1.061   9.076  0.3913 -0.6030 -0.9237
 5277SOL    HW127290   2.745   1.049   9.123 -0.4995  0.0393  0.7951
 5277SOL    HW227291   2.639   1.149   9.106 -2.1096 -2.1294  1.5560
 5278SOL     OW27292   0.752   4.487  17.537  0.1972 -0.4092 -0.5788
 5278SOL    HW127293   0.772   4.452  17.450  1.0718 -0.3271 -0.4094
 5278SOL    HW227294   0.788   4.575  17.525 -2.6950  0.9761  0.7281
 5279SOL     OW27295   3.405   1.888   2.818 -0.2191 -0.0156  1.0142
 5279SOL    HW127296   3.386   1.975   2.783 -0.9762 -0.3434  0.6114
 5279SOL    HW227297   3.500   1.884   2.808 -0.3381  0.9080 -0.4980
 5280SOL     OW27298   3.857   2.853   5.338  0.1400 -0.4565  1.0137
 5280SOL    HW127299   3.846   2.943   5.309  0.7258 -0.1281  1.7986
 5280SOL    HW227300   3.923   2.823   5.275  0.6836 -0.5369  1.6236
 5281SOL     OW27301   2.325   2.961   6.276  0.3001  0.1221 -0.4998
 5281SOL    HW127302   2.388   2.930   6.341  1.0380  0.2754 -1.1406
 5281SOL    HW227303   2.320   3.055   6.294 -0.1890 -0.0513  0.2844
 5282SOL     OW27304   1.264   2.988  16.610  0.1250  0.4588  0.0796
 5282SOL    HW127305   1.290   2.950  16.695  1.2704  1.2894  0.0918
 5282SOL    HW227306   1.282   2.912  16.555 -3.1469 -1.8306  2.1468
 5283SOL     OW27307   0.117   2.860   6.270 -0.0296  0.1604  0.1218
 5283SOL    HW127308   0.163   2.855   6.353 -0.6444  0.2135  0.4674
 5283SOL    HW227309   0.048   2.796   6.285 -0.8720  1.1362  0.3979
 5284SOL     OW27310   3.420   1.135   4.882  0.3412  0.0487  0.2669
 5284SOL    HW127311   3.482   1.151   4.954  0.8822  0.0188 -0.1896
 5284SOL    HW227312   3.405   1.225   4.855  0.4091  0.3589  1.2732
 5285SOL     OW27313   4.555   0.281   0.343 -0.2325 -0.9619 -0.2088
 5285SOL    HW127314   4.581   0.369   0.316 -0.4783 -0.4693  1.1603
 5285SOL    HW227315   4.561   0.292   0.438  1.6564  0.4742 -0.5011
 5286SOL     OW27316   1.602   4.519   1.284  0.5799 -0.5532  0.2539
 5286SOL    HW127317   1.513   4.554   1.294  0.3341 -0.5921 -1.6802
 5286SOL    HW227318   1.628   4.531   1.375  0.3798  0.0284  0.2311
 5287SOL     OW27319   0.451   0.209  12.846 -0.0294 -0.0369  0.1109
 5287SOL    HW127320   0.531   0.178  12.803  0.3338  0.4401  0.4412
 5287SOL    HW227321   0.406   0.128  12.869 -1.9422  0.9783 -0.0571
 5288SOL     OW27322   1.486   2.424   0.523 -0.2322 -0.1679 -0.0701
 5288SOL    HW127323   1.563   2.432   0.467 -1.3968 -1.6202 -1.9207
 5288SOL    HW227324   1.497   2.353   0.586  2.0349 -0.3756 -0.7148
 5289SOL     OW27325   2.905   0.828   5.003 -0.4293 -0.1233  0.3257
 5289SOL    HW127326   2.947   0.812   5.087 -0.2709  1.2569  0.5024
 5289SOL    HW227327   2.973   0.882   4.962 -1.1515 -1.3134 -2.4847
 5290SOL     OW27328   1.298   1.536   1.250  0.6586 -0.2550  0.6882
 5290SOL    HW127329   1.345   1.602   1.198  1.1428  0.4175  1.9919
 5290SOL    HW227330   1.304   1.452   1.203  0.4182 -0.1607  0.4873
 5291SOL     OW27331   3.878   2.648   3.963  0.1465  0.0453  0.0392
 5291SOL    HW127332   3.821   2.595   3.908 -1.2239  1.7667 -0.1712
 5291SOL    HW227333   3.846   2.633   4.052 -0.9073  1.5402 -0.0944
 5292SOL     OW27334   3.264   2.272   4.297 -0.1987  0.4042 -0.0670
 5292SOL    HW127335   3.333   2.326   4.258 -0.6578 -1.1422 -3.0293
 5292SOL    HW227336   3.186   2.325   4.277 -1.0935 -1.1156 -0.5714
 5293SOL     OW27337   0.789   0.501  15.582  0.5827 -0.1867 -0.1033
 5293SOL    HW127338   0.726   0.572  15.591  0.5930 -0.3540  1.3716
 5293SOL    HW227339   0.876   0.538  15.593  0.0220  0.8024  0.9132
 5294SOL     OW27340   0.712   4.307  12.313  0.2931 -0.5124 -0.0926
 5294SOL    HW127341   0.755   4.256  12.244  0.0481 -2.6341  1.3368
 5294SOL    HW227342   0.785   4.358  12.349 -0.6874  1.0565 -0.3613
 5295SOL     OW27343   4.061   2.291   2.522 -0.2465  0.0785 -0.9407
 5295SOL    HW127344   4.128   2.272   2.587 -0.5111 -1.4787 -1.1217
 5295SOL    HW227345   4.045   2.385   2.531  1.0318  0.1055  1.1809
 5296SOL     OW27346   3.798   0.896   4.930 -0.4105  0.4866 -0.1886
 5296SOL    HW127347   3.889   0.921   4.948 -0.0470 -1.0283  0.0901
 5296SOL    HW227348   3.779   0.944   4.850  1.9868  2.8807  0.6907
 5297SOL     OW27349   3.377   0.615   6.887 -0.5047  0.1663  0.1280
 5297SOL    HW127350   3.434   0.607   6.963 -0.8001  1.3429  0.4685
 5297SOL    HW227351   3.361   0.521   6.884 -3.0507  0.5969  0.4268
 5298SOL     OW27352   0.663   4.387   0.072 -0.1775  0.4235 -0.2998
 5298SOL    HW127353   0.690   4.418  17.677 -1.1643 -0.6922 -0.9923
 5298SOL    HW227354   0.744   4.349   0.106 -0.5919 -0.3232 -0.1605
 5299SOL     OW27355   4.301   2.041   7.211  0.2293 -0.2100  0.0120
 5299SOL    HW127356   4.213   2.079   7.205  1.0631  1.7230  0.1884
 5299SOL    HW227357   4.354   2.118   7.233  0.6187 -0.0827 -1.4113
 5300SOL     OW27358   2.122   3.460   8.859 -0.1254 -0.2847  0.3334
 5300SOL    HW127359   2.211   3.460   8.824  0.8172 -1.8503  2.7347
 5300SOL    HW227360   2.134   3.411   8.940  2.1343  0.9664  0.7619
 5301SOL     OW27361   3.020   3.965   4.452  0.4435  0.2538  0.0845
 5301SOL    HW127362   2.984   3.950   4.365 -1.1370  0.7908  0.6479
 5301SOL    HW227363   3.045   3.874   4.469 -0.9291  0.3202  2.5641
 5302SOL     OW27364   3.338   3.172   4.453  0.8590  0.2309  0.0822
 5302SOL    HW127365   3.280   3.124   4.513 -0.6208  1.2018 -0.5552
 5302SOL    HW227366   3.388   3.222   4.518  2.9371  0.5989 -1.8219
 5303SOL     OW27367   2.927   3.589  15.934 -0.1997  0.1026 -0.1349
 5303SOL    HW127368   2.967   3.506  15.911 -1.6904 -0.5106 -0.5238
 5303SOL    HW227369   2.902   3.573  16.026  1.2923  0.0349  0.2485
 5304SOL     OW27370   3.636   3.846   3.651 -0.0066  0.3958  0.2113
 5304SOL    HW127371   3.700   3.911   3.681 -1.1832  2.2994 -1.3575
 5304SOL    HW227372   3.566   3.864   3.714 -1.2612 -0.4604 -0.9523
 5305SOL     OW27373   2.741   3.612   8.727 -0.6530  0.5038 -0.2258
 5305SOL    HW127374   2.815   3.625   8.667 -1.2153 -1.9102 -1.4262
 5305SOL    HW227375   2.741   3.702   8.760  1.2431  0.9411 -1.4162
 5306SOL     OW27376   3.812   0.463   3.574  0.1031 -0.0524 -0.1261
 5306SOL    HW127377   3.844   0.385   3.530 -1.1421 -0.0003 -1.1372
 5306SOL    HW227378   3.721   0.435   3.582 -0.2990  1.2761 -0.0807
 5307SOL     OW27379   2.106   1.979  16.191  0.0704 -0.0092 -0.2939
 5307SOL    HW127380   2.116   2.045  16.123  0.9517  0.9961  0.8145
 5307SOL    HW227381   2.076   2.026  16.268 -1.6292 -2.1882  0.3805
 5308SOL     OW27382   0.946   1.207   2.837  0.1970  0.0511  0.1232
 5308SOL    HW127383   0.876   1.162   2.790  0.2894  1.5991 -1.5189
 5308SOL    HW227384   0.992   1.229   2.756 -3.4957  2.3826 -1.3173
 5309SOL     OW27385   4.483   0.445   8.523 -0.2435 -0.0645  0.1779
 5309SOL    HW127386   4.568   0.475   8.555 -0.2472 -1.8353  1.8023
 5309SOL    HW227387   4.423   0.485   8.586 -0.6520  0.5508 -0.5825
 5310SOL     OW27388   3.586   0.198   8.435 -0.6263 -0.0967 -0.2479
 5310SOL    HW127389   3.540   0.147   8.368 -1.2980  0.0972  0.0616
 5310SOL    HW227390   3.522   0.200   8.507  1.5355 -1.5361  1.7301
 5311SOL     OW27391   3.613   0.883   4.108 -0.1193  0.2112  0.4372
 5311SOL    HW127392   3.558   0.868   4.185  1.2383 -0.6456  1.2344
 5311SOL    HW227393   3.585   0.820   4.042 -1.4297  0.3526  0.8538
 5312SOL     OW27394   2.585   4.165  17.280  0.2288  0.7733  0.2425
 5312SOL    HW127395   2.639   4.102  17.233 -2.8538 -1.3230 -0.5437
 5312SOL    HW227396   2.507   4.156  17.226  0.9762 -0.3289 -0.6288
 5313SOL     OW27397   0.589   1.089   3.348  0.6777 -0.2008  0.2126
 5313SOL    HW127398   0.502   1.050   3.358  0.1475  0.4139 -1.9020
 5313SOL    HW227399   0.592   1.093   3.252  0.4656  1.6725  0.2750
 5314SOL     OW27400   0.204   0.416  13.343 -0.4326 -0.3871 -0.0109
 5314SOL    HW127401   0.215   0.495  13.395  0.6696 -0.4187 -0.1991
 5314SOL    HW227402   0.220   0.353  13.414  0.0448 -0.1073  0.1229
 5315SOL     OW27403   0.765   1.008   0.890 -0.0474  0.0086  0.2019
 5315SOL    HW127404   0.777   1.027   0.983  1.1028 -1.5315  0.3609
 5315SOL    HW227405   0.686   1.057   0.866 -0.4587 -0.2301  1.0738
 5316SOL     OW27406   2.081   3.503   5.886 -0.4311  0.3395 -0.2548
 5316SOL    HW127407   2.018   3.575   5.892 -1.3947 -0.3879 -1.5933
 5316SOL    HW227408   2.084   3.482   5.793  1.0279  1.3303 -0.4241
 5317SOL     OW27409   2.176   3.072   5.098 -0.4164 -0.0947  0.4029
 5317SOL    HW127410   2.190   3.165   5.113  1.5967 -0.0789 -1.7164
 5317SOL    HW227411   2.111   3.050   5.166  0.6669  0.7368  1.7072
 5318SOL     OW27412   1.628   2.325   6.600 -0.1507  0.5426 -0.2036
 5318SOL    HW127413   1.580   2.407   6.596  0.3925  0.9386  1.4458
 5318SOL    HW227414   1.705   2.353   6.650 -1.6830  1.1707  1.7934
 5319SOL     OW27415   2.151   3.086   6.527 -0.3639  0.4919 -0.0732
 5319SOL    HW127416   2.244   3.105   6.514 -0.4122 -0.2740 -1.4614
 5319SOL    HW227417   2.108   3.152   6.472  2.1487  2.6873  0.5690
 5320SOL     OW27418   4.032   2.886   6.605  0.1547  0.3768  0.0492
 5320SOL    HW127419   4.105   2.948   6.594 -1.2749  2.0707  0.0977
 5320SOL    HW227420   4.080   2.819   6.653  2.5839  1.3292 -1.0169
 5321SOL     OW27421   4.460   4.716   3.493 -0.0346 -0.1105 -0.0335
 5321SOL    HW127422   4.381   4.684   3.451 -0.8321  0.4206  1.0587
 5321SOL    HW227423   4.481   0.067   3.436 -1.6233  0.9821  0.7800
 5322SOL     OW27424   0.418   3.930   7.218  0.2692 -0.4811  0.5952
 5322SOL    HW127425   0.450   3.841   7.207  1.1390 -0.0616 -0.2905
 5322SOL    HW227426   0.379   3.924   7.306  0.1347 -0.3780  0.5440
 5323SOL     OW27427   0.317   0.575  13.609 -0.0732  0.6021  0.5752
 5323SOL    HW127428   0.226   0.605  13.607 -0.6220 -1.1429  0.0935
 5323SOL    HW227429   0.311   0.521  13.688  0.6994 -1.4617 -0.7845
 5324SOL     OW27430   2.558   4.594  13.711 -0.4439  0.0539 -0.3085
 5324SOL    HW127431   2.479   4.644  13.727 -0.0936  0.3211  0.5855
 5324SOL    HW227432   2.572   4.616  13.619 -1.4959  1.3522 -0.1442
 5325SOL     OW27433   1.488   3.567   2.690 -0.7558  1.1180  0.1952
 5325SOL    HW127434   1.393   3.559   2.702 -0.2204 -3.5577  1.1818
 5325SOL    HW227435   1.507   3.659   2.671  2.2999  0.6479  0.9739
 5326SOL     OW27436   2.191   3.944   2.529  0.4862 -0.9413 -0.3799
 5326SOL    HW127437   2.144   4.017   2.490 -0.6767 -1.8232 -0.6686
 5326SOL    HW227438   2.136   3.871   2.499 -1.2084 -0.1959  0.9223
 5327SOL     OW27439   3.448   0.332   6.808 -0.0983 -0.5289 -0.5154
 5327SOL    HW127440   3.526   0.371   6.768  1.6003 -0.3020  3.0052
 5327SOL    HW227441   3.390   0.317   6.733 -1.1472  0.2421  0.1429
 5328SOL     OW27442   2.347   0.907   5.275  0.2129  0.3013  0.3223
 5328SOL    HW127443   2.336   0.833   5.216  1.6514  0.7540 -0.5322
 5328SOL    HW227444   2.380   0.975   5.216  0.5740  0.2776  0.4974
 5329SOL     OW27445   2.065   2.124  16.930  0.0746 -0.1683  0.5898
 5329SOL    HW127446   2.001   2.057  16.953 -1.4099  1.0462 -0.0577
 5329SOL    HW227447   2.147   2.077  16.944 -0.2259 -0.6378  0.7908
 5330SOL     OW27448   1.612   0.139  15.463  0.0064 -0.1344 -1.0114
 5330SOL    HW127449   1.669   0.082  15.412 -0.7411  0.4790 -2.5216
 5330SOL    HW227450   1.529   0.113  15.424 -0.5433 -1.4730  1.0240
 5331SOL     OW27451   3.097   2.209   8.532  0.8139 -0.4527  0.3411
 5331SOL    HW127452   3.087   2.221   8.627  1.6864 -2.1111  0.6412
 5331SOL    HW227453   3.166   2.144   8.518  1.7534  0.6780 -0.2413
 5332SOL     OW27454   2.107   3.966   9.456  0.3768 -0.2051  0.8411
 5332SOL    HW127455   2.202   3.954   9.459  0.6073  2.0035  2.4589
 5332SOL    HW227456   2.105   4.053   9.496 -3.1598 -0.0496  0.2915
 5333SOL     OW27457   3.960   0.149   1.999  0.7720 -0.7588  0.0102
 5333SOL    HW127458   3.871   0.138   2.035  1.0300 -2.1993  0.2291
 5333SOL    HW227459   3.921   0.182   1.918  0.1012  0.1860  0.7221
 5334SOL     OW27460   3.634   0.635   5.594  0.0926  0.2504 -0.1773
 5334SOL    HW127461   3.719   0.677   5.608  1.3699 -1.8479 -1.6506
 5334SOL    HW227462   3.638   0.615   5.501  1.3957 -0.3929  0.0135
 5335SOL     OW27463   3.253   3.012  11.580  0.0641  0.2694 -0.4197
 5335SOL    HW127464   3.331   3.067  11.568  0.2115  0.6601  2.3108
 5335SOL    HW227465   3.245   3.004  11.485  0.2035  0.4044 -0.4441
 5336SOL     OW27466   3.839   2.158   7.907 -0.0385 -0.6161  0.1944
 5336SOL    HW127467   3.913   2.207   7.944 -2.0680  0.8430  2.3605
 5336SOL    HW227468   3.771   2.171   7.973 -0.2080  0.2760 -0.1483
 5337SOL     OW27469   0.702   3.255   6.263 -0.1338 -0.3082  0.9805
 5337SOL    HW127470   0.767   3.317   6.296 -0.1579  1.7119 -2.7741
 5337SOL    HW227471   0.636   3.285   6.326  0.0285 -2.4732  2.1658
 5338SOL     OW27472   1.083   3.463  17.215 -0.4200 -0.0197  0.4314
 5338SOL    HW127473   1.164   3.413  17.211 -1.0630 -0.9256 -1.3654
 5338SOL    HW227474   1.102   3.541  17.163  0.0170  0.0958  0.7719
 5339SOL     OW27475   3.411   3.226   4.046 -0.5514  0.0747  0.5277
 5339SOL    HW127476   3.378   3.138   4.031  0.4895 -0.4721  1.4951
 5339SOL    HW227477   3.400   3.266   3.960 -0.6104 -2.3436 -0.5813
 5340SOL     OW27478   4.058   2.687   0.776  0.4622  0.2812 -0.4695
 5340SOL    HW127479   4.115   2.651   0.844  0.8488  1.0378 -0.3865
 5340SOL    HW227480   3.979   2.635   0.791  0.8203  0.3523  1.7678
 5341SOL     OW27481   0.781   0.400   5.699 -0.6033 -0.5804  0.2171
 5341SOL    HW127482   0.717   0.438   5.760 -1.5891 -0.4096 -0.9432
 5341SOL    HW227483   0.761   0.307   5.708 -1.4770 -0.3300  0.8688
 5342SOL     OW27484   0.673   4.231   9.279  0.1672  0.0849  0.5942
 5342SOL    HW127485   0.702   4.317   9.249 -1.0490 -0.4678 -2.1707
 5342SOL    HW227486   0.589   4.212   9.236  1.5761 -0.3116 -1.9615
 5343SOL     OW27487   1.063   4.451   4.335  0.1097  0.0327 -0.5204
 5343SOL    HW127488   1.021   4.378   4.290  0.1410 -0.0762 -0.3703
 5343SOL    HW227489   1.147   4.422   4.371 -0.1563 -2.3669 -1.8711
 5344SOL     OW27490   0.094   2.976   2.619 -0.0796  0.4848  0.2846
 5344SOL    HW127491   0.144   2.983   2.700  1.4008 -0.4803 -0.5423
 5344SOL    HW227492   0.036   3.052   2.624 -1.0960 -0.1644 -1.2661
 5345SOL     OW27493   1.030   1.315   0.469  0.1331  0.1164  0.0063
 5345SOL    HW127494   0.985   1.310   0.384 -1.9922 -2.0637  1.2539
 5345SOL    HW227495   1.000   1.399   0.501  3.5736  0.5840  1.9748
 5346SOL     OW27496   4.385   3.882   4.348 -0.1087 -0.4513 -0.1974
 5346SOL    HW127497   4.421   3.963   4.312  1.2169 -0.7494  0.4535
 5346SOL    HW227498   4.379   3.891   4.443 -0.7595  0.1169 -0.2978
 5347SOL     OW27499   0.722   0.487  15.965  0.3787 -0.2031  0.1908
 5347SOL    HW127500   0.802   0.451  15.927 -1.3459 -1.6833 -2.0351
 5347SOL    HW227501   0.690   0.547  15.897 -1.1169 -2.1342 -0.8233
 5348SOL     OW27502   0.048   2.793   5.865 -0.0695 -0.3648  0.4690
 5348SOL    HW127503   4.680   2.769   5.886  0.7989 -2.5950  1.5916
 5348SOL    HW227504   0.094   2.710   5.863 -1.4838 -1.1160 -1.6047
 5349SOL     OW27505   4.417   0.869   5.120  0.2240 -0.3445 -0.1968
 5349SOL    HW127506   4.422   0.939   5.054  2.8469 -0.9516 -0.6409
 5349SOL    HW227507   4.487   0.882   5.184 -0.2907  0.5763  0.1832
 5350SOL     OW27508   2.835   1.840  16.098 -0.4359 -0.3093 -0.2118
 5350SOL    HW127509   2.851   1.808  16.009  3.0799  0.0170  0.2999
 5350SOL    HW227510   2.905   1.791  16.142  2.4166  1.2842 -3.0090
 5351SOL     OW27511   1.083   2.606   1.201  0.3431 -0.1219 -0.6482
 5351SOL    HW127512   1.049   2.526   1.162  0.2859  0.2873 -1.4489
 5351SOL    HW227513   1.170   2.564   1.201 -0.0284 -0.8843 -0.2213
 5352SOL     OW27514   2.563   0.482   7.688 -0.1512 -0.0250  0.0532
 5352SOL    HW127515   2.590   0.397   7.655  1.4360  0.1287  0.9927
 5352SOL    HW227516   2.531   0.463   7.776 -1.3409 -0.1238 -0.4003
 5353SOL     OW27517   0.363   0.613  15.867 -0.0810 -0.1513 -0.0025
 5353SOL    HW127518   0.270   0.639  15.870 -0.1458 -0.6189  1.7163
 5353SOL    HW227519   0.376   0.561  15.946  2.8544  1.4257  0.5545
 5354SOL     OW27520   0.237   3.867   8.770 -0.4516  0.0228  0.2709
 5354SOL    HW127521   0.200   3.944   8.813 -1.2610 -0.6701  0.8188
 5354SOL    HW227522   0.331   3.872   8.786 -0.4223  0.9435 -0.1769
 5355SOL     OW27523   2.316   3.865   7.037 -0.0099  0.6483 -0.0928
 5355SOL    HW127524   2.288   3.888   7.125 -0.9099 -0.8747  0.0336
 5355SOL    HW227525   2.368   3.943   7.020 -0.4239  0.6281 -1.5273
 5356SOL     OW27526   3.126   3.904   2.460 -0.2214  0.5095 -0.4980
 5356SOL    HW127527   3.113   3.998   2.469 -1.0870  0.3892 -0.4698
 5356SOL    HW227528   3.219   3.896   2.438  0.0662  2.0689  0.2116
 5357SOL     OW27529   3.689   4.515  15.156 -0.7260  0.1090  0.1786
 5357SOL    HW127530   3.628   4.571  15.107  0.1370  1.5483  0.7459
 5357SOL    HW227531   3.748   4.473  15.094  0.6274 -0.4912  1.8766
 5358SOL     OW27532   1.871   1.232   4.017 -0.3725  0.1395 -0.0636
 5358SOL    HW127533   1.785   1.257   4.052 -1.2963 -2.8062 -0.2255
 5358SOL    HW227534   1.880   1.138   4.029 -0.4974 -0.0788 -1.7056
 5359SOL     OW27535   3.393   4.126   9.111  0.3629 -0.5253 -0.4055
 5359SOL    HW127536   3.349   4.048   9.143  0.6241 -0.7269 -0.5309
 5359SOL    HW227537   3.444   4.129   9.192  0.7001 -0.7368 -0.6070
 5360SOL     OW27538   4.636   1.565  15.721  0.1071  0.1649  0.0713
 5360SOL    HW127539   4.653   1.505  15.794 -0.2473  0.3502  0.3007
 5360SOL    HW227540   0.001   1.602  15.707 -0.3601  1.0066 -0.5791
 5361SOL     OW27541   1.507   0.543   2.829  0.0706  0.4774 -0.0497
 5361SOL    HW127542   1.556   0.492   2.764 -1.3670  1.0824 -1.6169
 5361SOL    HW227543   1.419   0.549   2.791 -1.2602 -2.8238  2.5940
 5362SOL     OW27544   2.807   3.040   4.595  0.1212  0.3599 -0.5294
 5362SOL    HW127545   2.830   3.000   4.679 -1.2704 -0.0963 -0.3704
 5362SOL    HW227546   2.712   3.044   4.597  0.1867  1.3769  0.7094
 5363SOL     OW27547   4.008   0.664   5.948  0.4012 -0.4510  0.3174
 5363SOL    HW127548   4.022   0.579   5.990 -0.8098  0.2746  2.1716
 5363SOL    HW227549   4.069   0.653   5.875  0.5459 -2.4923  0.7469
 5364SOL     OW27550   0.717   2.781   8.381 -0.1210  0.1203  0.0382
 5364SOL    HW127551   0.722   2.685   8.378  0.4773  0.1455  0.1868
 5364SOL    HW227552   0.795   2.806   8.332  0.2413 -1.9718 -0.4667
 5365SOL     OW27553   1.126   3.463   6.679 -0.1901 -0.0153 -0.0788
 5365SOL    HW127554   1.218   3.452   6.656 -0.2055 -0.2918  0.0009
 5365SOL    HW227555   1.136   3.459   6.774  1.7938  0.9510 -0.2429
 5366SOL     OW27556   0.533   3.682   7.234  0.0996  0.1723  0.5414
 5366SOL    HW127557   0.544   3.636   7.317 -3.0082 -0.8085  0.4379
 5366SOL    HW227558   0.464   3.626   7.197  1.6208 -0.4681 -1.2980
 5367SOL     OW27559   3.816   2.778  12.251 -0.2702  0.1080  0.2599
 5367SOL    HW127560   3.901   2.821  12.252 -1.5338  2.6756 -1.2439
 5367SOL    HW227561   3.839   2.685  12.248 -1.4519 -0.2374  1.9047
 5368SOL     OW27562   0.668   1.521   5.424  0.3659 -0.0080  0.1067
 5368SOL    HW127563   0.675   1.515   5.519  0.6697 -2.4240 -0.0782
 5368SOL    HW227564   0.630   1.608   5.411 -0.1089  0.0894  2.1266
 5369SOL     OW27565   3.707   3.784  11.028 -0.1580  0.3152  0.3412
 5369SOL    HW127566   3.760   3.793  11.107  0.6801  2.6273 -0.4982
 5369SOL    HW227567   3.771   3.797  10.958 -2.4017  1.3249 -1.5344
 5370SOL     OW27568   3.400   0.121  17.256 -0.2855  0.3883  0.0824
 5370SOL    HW127569   3.492   0.094  17.250 -0.0050  1.7507 -1.5540
 5370SOL    HW227570   3.403   0.209  17.219 -0.8994 -0.5823 -2.2541
 5371SOL     OW27571   4.345   2.458   6.130 -0.6081 -0.2715  0.5390
 5371SOL    HW127572   4.359   2.424   6.041 -0.4287  2.1058 -0.3451
 5371SOL    HW227573   4.435   2.451   6.164 -1.0741 -3.2090  1.1685
 5372SOL     OW27574   4.377   1.686   5.229  0.1086  0.1975  0.3636
 5372SOL    HW127575   4.348   1.612   5.175 -0.9790 -1.0547  2.6766
 5372SOL    HW227576   4.381   1.631   5.307  1.6982  1.6580  1.3146
 5373SOL     OW27577   2.601   0.748   4.429 -0.0977  0.1074 -0.3538
 5373SOL    HW127578   2.509   0.774   4.429 -0.4918 -1.2660 -0.9193
 5373SOL    HW227579   2.642   0.833   4.444  1.6202 -0.8887  0.5808
 5374SOL     OW27580   1.051   4.321   5.916 -0.6039  0.0767  0.0716
 5374SOL    HW127581   1.108   4.372   5.858 -0.0966 -0.7936 -0.1949
 5374SOL    HW227582   0.966   4.322   5.872  0.5424  0.5110 -2.1217
 5375SOL     OW27583   3.143   3.853   3.004 -0.0630  0.7556 -0.3020
 5375SOL    HW127584   3.132   3.758   2.994 -3.1846  0.9265  1.4486
 5375SOL    HW227585   3.203   3.863   2.931  1.7846 -0.0542  1.1065
 5376SOL     OW27586   4.459   3.616  10.695  0.2402 -0.3958 -0.1712
 5376SOL    HW127587   4.543   3.633  10.738  0.8108 -1.4090 -0.8912
 5376SOL    HW227588   4.456   3.520  10.702  0.5643 -0.3323  0.7757
 5377SOL     OW27589   1.754   0.195  11.682 -0.3391 -0.3763 -0.6699
 5377SOL    HW127590   1.802   0.182  11.764 -0.5896  1.2702 -0.2655
 5377SOL    HW227591   1.791   0.137  11.616  0.9399 -0.1607 -0.1384
 5378SOL     OW27592   3.135   1.466  10.527  0.6395  0.0873  0.4446
 5378SOL    HW127593   3.094   1.468  10.613 -2.1805  1.1531 -0.9487
 5378SOL    HW227594   3.220   1.501  10.555  1.7920 -1.5304 -1.0274
 5379SOL     OW27595   2.969   0.589  12.680  0.6573  0.7904  0.0456
 5379SOL    HW127596   2.878   0.620  12.685 -0.1333 -1.2500 -1.6162
 5379SOL    HW227597   2.983   0.604  12.587 -0.0138 -0.4409 -0.2600
 5380SOL     OW27598   2.492   1.118   8.422 -0.7741 -0.9134  0.2236
 5380SOL    HW127599   2.499   1.037   8.472  1.8746 -1.0936 -0.4132
 5380SOL    HW227600   2.572   1.116   8.370 -0.7860  0.6912  0.1239
 5381SOL     OW27601   0.213   2.417   5.631  0.1473  0.2583 -0.0302
 5381SOL    HW127602   0.224   2.465   5.549  1.1699  2.0500  1.1506
 5381SOL    HW227603   0.117   2.426   5.627  0.0317 -0.0630  2.0148
 5382SOL     OW27604   0.121   0.427   6.662  0.1661  0.0397 -0.0603
 5382SOL    HW127605   0.029   0.449   6.677  0.1593  0.0604 -0.1383
 5382SOL    HW227606   0.128   0.418   6.567  2.3087 -1.5868  0.2497
 5383SOL     OW27607   0.248   0.931   5.936  0.1460  0.1793 -0.2747
 5383SOL    HW127608   0.282   0.868   5.872 -0.2195  2.0900 -2.3415
 5383SOL    HW227609   0.178   0.969   5.882 -0.6161 -1.0236 -0.1491
 5384SOL     OW27610   4.691   1.935  15.231 -0.2754  0.3513  0.2212
 5384SOL    HW127611   4.719   2.022  15.260 -1.1000  0.8317 -0.4420
 5384SOL    HW227612   0.042   1.908  15.176  1.6919  1.4610  2.2960
 5385SOL     OW27613   2.536   1.913  17.115  0.5014 -0.1593 -0.0107
 5385SOL    HW127614   2.540   1.939  17.207 -2.0118 -2.5063  0.7418
 5385SOL    HW227615   2.491   1.992  17.085  1.2380  0.5345  0.7145
 5386SOL     OW27616   4.350   3.641   1.202  0.1076  0.0408  0.2336
 5386SOL    HW127617   4.361   3.589   1.123  0.0668 -0.2392  0.4146
 5386SOL    HW227618   4.422   3.616   1.259  1.5717 -1.9951 -2.5267
 5387SOL     OW27619   4.677   3.393   7.544  0.0920  0.7634 -0.0914
 5387SOL    HW127620   0.016   3.425   7.477 -1.0453 -0.8739 -1.9112
 5387SOL    HW227621   4.694   3.454   7.616 -0.9553 -2.8709  3.1989
 5388SOL     OW27622   2.632   3.402   0.168  0.7084 -0.5420  0.1109
 5388SOL    HW127623   2.642   3.313   0.134 -0.0379 -0.1384 -1.1921
 5388SOL    HW227624   2.656   3.390   0.259  0.3081 -0.6092  0.2083
 5389SOL     OW27625   1.189   4.065   6.571 -0.3521 -0.5115 -0.1194
 5389SOL    HW127626   1.228   3.990   6.526 -0.0624 -1.3264  1.4855
 5389SOL    HW227627   1.189   4.130   6.500 -1.3250  0.1928  0.5255
 5390SOL     OW27628   0.537   0.632   2.098 -0.5032  0.4733 -0.5667
 5390SOL    HW127629   0.452   0.663   2.129 -0.2948  2.4193 -1.9805
 5390SOL    HW227630   0.515   0.632   2.005  2.7583 -1.2727 -1.3595
 5391SOL     OW27631   2.560   1.338  13.798  0.0494  0.1125  0.8436
 5391SOL    HW127632   2.651   1.348  13.825 -0.3200  0.5369  1.9329
 5391SOL    HW227633   2.564   1.333  13.702 -0.5727 -1.3338  0.9046
 5392SOL     OW27634   2.323   3.744   2.279 -0.5895 -0.7154 -0.4194
 5392SOL    HW127635   2.297   3.764   2.189 -4.4504  0.3968  0.9393
 5392SOL    HW227636   2.239   3.747   2.324 -1.5361 -0.8522 -2.1686
 5393SOL     OW27637   2.065   3.361  17.147  0.5645 -0.3531  0.2885
 5393SOL    HW127638   2.078   3.396  17.059 -1.4979 -1.0902 -0.3189
 5393SOL    HW227639   2.106   3.432  17.196  4.5245 -1.4204 -1.5037
 5394SOL     OW27640   3.849   0.945   6.170 -0.2656 -0.4969 -0.1742
 5394SOL    HW127641   3.799   1.014   6.126 -0.8995  0.1445  1.5433
 5394SOL    HW227642   3.783   0.923   6.235  2.5765 -2.7648  1.9408
 5395SOL     OW27643   2.967   2.975   4.069 -0.1086  0.2622  0.1068
 5395SOL    HW127644   2.882   3.001   4.034  0.0416 -1.0255 -1.2209
 5395SOL    HW227645   2.967   3.012   4.157  0.1672  2.2335 -0.7115
 5396SOL     OW27646   1.119   3.102   6.303  0.3747  0.1317  0.1047
 5396SOL    HW127647   1.132   3.196   6.295  0.5183 -0.2001 -3.4170
 5396SOL    HW227648   1.100   3.097   6.397  0.1599  0.8551  0.1003
 5397SOL     OW27649   1.863   2.274  12.597 -0.0467  0.5399 -0.0811
 5397SOL    HW127650   1.918   2.318  12.532  2.7324 -1.0246  1.2198
 5397SOL    HW227651   1.832   2.352  12.642 -1.4931 -0.6921  1.0172
 5398SOL     OW27652   0.133   1.879  14.985 -0.2686  0.0559 -0.3364
 5398SOL    HW127653   0.099   1.816  14.921  0.9014 -0.4746 -0.4369
 5398SOL    HW227654   0.118   1.963  14.943  1.8485 -0.3030 -1.7763
 5399SOL     OW27655   0.346   2.949   6.845  0.0637 -0.0684 -0.0168
 5399SOL    HW127656   0.269   2.908   6.885  0.5794 -2.9585 -1.9367
 5399SOL    HW227657   0.409   2.879   6.864 -0.8851 -1.5489 -2.3824
 5400SOL     OW27658   0.637   4.572   2.594 -0.0888 -0.1616  0.1934
 5400SOL    HW127659   0.620   4.551   2.503  2.3299  2.0750 -0.7719
 5400SOL    HW227660   0.675   4.660   2.594 -2.6254  0.9343  1.6224
 5401SOL     OW27661   0.345   1.360   3.713 -0.1490 -0.1492  0.4619
 5401SOL    HW127662   0.322   1.340   3.622 -2.0336 -0.3301  0.9799
 5401SOL    HW227663   0.432   1.321   3.712 -0.3273 -0.4682 -3.4203
 5402SOL     OW27664   3.954   2.759   8.223  0.5529  0.1768  0.0168
 5402SOL    HW127665   3.951   2.795   8.312 -2.7046  0.3574 -0.1805
 5402SOL    HW227666   4.049   2.753   8.213  0.5330  0.8484 -0.6644
 5403SOL     OW27667   3.931   2.037  16.784  0.1447 -0.4458  0.1900
 5403SOL    HW127668   3.904   2.053  16.693  4.0398  0.9132 -0.7359
 5403SOL    HW227669   3.904   1.947  16.800  2.3201 -1.2421 -0.5777
 5404SOL     OW27670   2.648   1.637  12.822  0.0085 -0.4693 -0.1277
 5404SOL    HW127671   2.691   1.713  12.783 -3.1500  1.9848  1.1430
 5404SOL    HW227672   2.726   1.584  12.840  0.1567 -0.6644 -1.3852
 5405SOL     OW27673   4.501   0.988   8.511 -0.3204 -0.0788  0.3117
 5405SOL    HW127674   4.458   0.914   8.469  1.5355 -0.3831 -1.0694
 5405SOL    HW227675   4.514   1.054   8.443 -0.1949 -1.5732 -1.1255
 5406SOL     OW27676   1.647   0.610  17.426 -0.2665  0.6177  0.1129
 5406SOL    HW127677   1.705   0.591  17.352  0.8783  3.0068  0.4041
 5406SOL    HW227678   1.691   0.683  17.469  0.1082 -0.9136  2.3106
 5407SOL     OW27679   2.381   4.658  11.028 -0.7501  0.2773  0.5292
 5407SOL    HW127680   2.403   4.599  10.955  0.7166  0.7808  0.5637
 5407SOL    HW227681   2.294   4.690  11.006 -0.1868  0.3473 -1.6057
 5408SOL     OW27682   3.751   1.980   1.239  0.0319  0.2383  0.2325
 5408SOL    HW127683   3.791   2.039   1.176 -0.5632  0.1580 -0.2246
 5408SOL    HW227684   3.659   1.981   1.215 -0.5285  0.5667  2.3892
 5409SOL     OW27685   2.705   1.014   4.450  0.0898  0.1942  0.2590
 5409SOL    HW127686   2.681   1.100   4.414 -1.0764 -0.2440 -0.0017
 5409SOL    HW227687   2.758   0.978   4.379  0.0312  0.6053  0.0065
 5410SOL     OW27688   1.263   1.115  15.535  0.4879 -0.2326  0.0905
 5410SOL    HW127689   1.233   1.146  15.620  0.6923 -1.7632  0.7259
 5410SOL    HW227690   1.221   1.030  15.524  1.7538 -0.7818 -0.4488
 5411SOL     OW27691   2.497   3.028  11.989 -0.0104 -0.1292  0.0389
 5411SOL    HW127692   2.550   3.000  12.064 -0.2241 -0.5665  0.0272
 5411SOL    HW227693   2.548   2.975  11.927 -0.3221 -0.4526  0.0609
 5412SOL     OW27694   3.032   4.278   7.441  0.1501 -0.3594  0.2408
 5412SOL    HW127695   3.126   4.275   7.427  0.6395  3.0034  2.8247
 5412SOL    HW227696   3.010   4.186   7.426 -1.5879  0.3178 -1.3882
 5413SOL     OW27697   0.770   4.690   5.375  0.1027 -0.0207  0.0108
 5413SOL    HW127698   0.768   0.060   5.352 -1.2319 -0.1493 -0.3781
 5413SOL    HW227699   0.847   4.664   5.425 -1.2313 -0.4085  1.8687
 5414SOL     OW27700   2.021   0.622   2.700  0.0121  0.0428 -0.8951
 5414SOL    HW127701   2.104   0.590   2.664 -1.6299 -0.3636 -4.4024
 5414SOL    HW227702   1.983   0.541   2.733  2.5063 -1.7105 -2.2754
 5415SOL     OW27703   3.753   1.626  14.178 -0.6837 -0.5545  0.3146
 5415SOL    HW127704   3.801   1.680  14.241  0.6129 -0.2060 -0.9917
 5415SOL    HW227705   3.702   1.697  14.139  0.0858  0.8537  1.8589
 5416SOL     OW27706   2.174   4.396   5.270 -0.2361  0.4450  0.1782
 5416SOL    HW127707   2.224   4.444   5.204 -0.8376  0.8894  0.0414
 5416SOL    HW227708   2.145   4.313   5.232  0.7622 -0.5432  1.6081
 5417SOL     OW27709   3.158   4.177   2.439 -0.0825  0.1204  0.1006
 5417SOL    HW127710   3.197   4.264   2.443  1.8987 -0.8356  1.2802
 5417SOL    HW227711   3.130   4.174   2.347 -1.4041  1.9614  0.4318
 5418SOL     OW27712   4.140   0.077   6.394  0.3399  0.7935  0.0482
 5418SOL    HW127713   4.230   0.047   6.401  0.5570  2.1697  3.0645
 5418SOL    HW227714   4.093   4.716   6.398  2.3774 -0.3546  0.0870
 5419SOL     OW27715   0.105   2.221   0.197 -0.5633 -0.0320  0.2078
 5419SOL    HW127716   0.098   2.142   0.251  2.7744  0.4015  1.2580
 5419SOL    HW227717   0.162   2.180   0.132 -2.1862 -1.2188 -0.4600
 5420SOL     OW27718   1.143   4.452   3.432 -0.2095  0.2211  0.1875
 5420SOL    HW127719   1.194   4.400   3.494 -1.1251  1.4020  1.9109
 5420SOL    HW227720   1.069   4.493   3.476  0.1152 -0.6709  1.5554
 5421SOL     OW27721   1.808   1.465  11.403  0.3207  0.0664 -0.0842
 5421SOL    HW127722   1.823   1.466  11.498  0.5775 -1.4616 -0.1103
 5421SOL    HW227723   1.762   1.381  11.401 -2.3677  1.5498 -1.1543
 5422SOL     OW27724   1.496   0.742  15.823 -0.4327  0.0579 -0.0751
 5422SOL    HW127725   1.521   0.770  15.911 -0.1319 -3.9172  1.1044
 5422SOL    HW227726   1.494   0.647  15.834 -0.1168 -0.0122 -0.6176
 5423SOL     OW27727   2.798   0.721   1.118  0.1288 -0.2668 -0.1548
 5423SOL    HW127728   2.825   0.733   1.208 -0.0428  1.2275 -0.3079
 5423SOL    HW227729   2.746   0.801   1.119  0.5374 -0.0502  2.3787
 5424SOL     OW27730   2.041   0.439  17.402  0.1382 -0.2616 -0.0429
 5424SOL    HW127731   2.073   0.379  17.469 -0.1746 -0.4652 -0.0738
 5424SOL    HW227732   2.099   0.515  17.408 -1.2362  0.7288  0.5660
 5425SOL     OW27733   3.164   1.830   3.832  0.0352 -0.2792  0.1511
 5425SOL    HW127734   3.252   1.805   3.803 -0.8844 -0.5373 -2.4293
 5425SOL    HW227735   3.186   1.873   3.915 -0.2683 -1.7511  0.9844
 5426SOL     OW27736   2.526   4.290   3.380  0.2960 -0.2752  0.4300
 5426SOL    HW127737   2.506   4.225   3.313 -0.2425  1.4231 -1.0392
 5426SOL    HW227738   2.454   4.352   3.390  1.5188  1.0959  0.6363
 5427SOL     OW27739   0.576   3.301   9.537 -0.2333 -0.2971  0.3222
 5427SOL    HW127740   0.495   3.272   9.579 -0.5593 -1.7086 -1.3256
 5427SOL    HW227741   0.549   3.288   9.446 -1.6934 -4.5526  1.3738
 5428SOL     OW27742   0.554   1.477  15.773  0.4551  0.3899 -0.4819
 5428SOL    HW127743   0.638   1.523  15.771  1.7607 -1.9838 -1.2858
 5428SOL    HW227744   0.536   1.492  15.866 -2.7350 -0.4397 -0.9745
 5429SOL     OW27745   0.126   2.789  12.449  0.2931 -0.4046 -0.0577
 5429SOL    HW127746   0.197   2.728  12.431  0.1696 -0.7252  0.5319
 5429SOL    HW227747   0.117   2.763  12.541  0.4235 -0.9216 -0.1940
 5430SOL     OW27748   1.771   0.650   4.140  0.4558 -0.0574  0.2980
 5430SOL    HW127749   1.829   0.686   4.073 -0.5349 -0.7745 -0.9489
 5430SOL    HW227750   1.821   0.578   4.179  1.8420  1.3977  1.2600
 5431SOL     OW27751   1.941   0.578   4.828 -0.1378  0.1063  0.2178
 5431SOL    HW127752   1.997   0.652   4.806 -0.3169 -0.3331 -1.7360
 5431SOL    HW227753   1.856   0.608   4.795  0.2923  0.3771 -0.6307
 5432SOL     OW27754   1.508   0.343   5.190  0.5755  0.9742  0.3271
 5432SOL    HW127755   1.570   0.336   5.262  2.3140 -1.3215 -1.4251
 5432SOL    HW227756   1.467   0.430   5.195 -0.9441  0.4299 -2.6205
 5433SOL     OW27757   3.982   2.233   6.730  0.2110 -0.7416 -0.0025
 5433SOL    HW127758   3.918   2.304   6.720 -0.4734 -1.3837 -0.1912
 5433SOL    HW227759   3.929   2.162   6.694  0.9461 -0.4309 -1.6729
 5434SOL     OW27760   0.042   2.810   2.910  0.1733  0.2057  0.2201
 5434SOL    HW127761   0.114   2.832   2.969  1.1798 -0.6817 -0.6718
 5434SOL    HW227762   0.081   2.732   2.870  0.9916 -0.8543  3.0486
 5435SOL     OW27763   1.152   3.219   2.659 -0.1396  0.1451 -0.3523
 5435SOL    HW127764   1.074   3.210   2.604 -0.8578  1.0980  0.5199
 5435SOL    HW227765   1.177   3.126   2.662  0.8800  0.4437  0.4098
 5436SOL     OW27766   2.441   2.081  14.367 -0.4231  0.3103 -0.1172
 5436SOL    HW127767   2.482   2.013  14.314 -0.0087 -0.3936  1.1152
 5436SOL    HW227768   2.368   2.029  14.399 -2.0487  2.2989 -0.5654
 5437SOL     OW27769   0.302   1.113   7.032  0.3023  0.6766 -0.4025
 5437SOL    HW127770   0.259   1.177   6.975 -1.6200 -1.6973 -1.6334
 5437SOL    HW227771   0.234   1.082   7.092  2.6578  0.2714  2.0496
 5438SOL     OW27772   1.527   3.937   9.526 -0.3928  0.2701 -0.0694
 5438SOL    HW127773   1.619   3.911   9.535  0.4111  2.9515 -0.3532
 5438SOL    HW227774   1.486   3.893   9.600  0.1783  0.2382  0.2312
 5439SOL     OW27775   2.538   0.401   5.867  0.6733  0.1121 -0.2308
 5439SOL    HW127776   2.515   0.494   5.871  1.6890  0.3374  0.4729
 5439SOL    HW227777   2.634   0.401   5.864  0.7137 -0.9267  1.4559
 5440SOL     OW27778   0.843   3.981   5.418 -0.5438  0.5209 -0.2972
 5440SOL    HW127779   0.776   4.011   5.479 -0.1202  0.9541 -0.0390
 5440SOL    HW227780   0.803   3.940   5.341  1.6859  1.9498 -2.2369
 5441SOL     OW27781   0.135   1.937   0.212 -0.1517 -0.1306 -0.1477
 5441SOL    HW127782   0.073   1.955   0.141  1.0832  4.3699 -0.0714
 5441SOL    HW227783   0.081   1.873   0.259  1.0426 -1.3229 -0.4007
 5442SOL     OW27784   0.249   3.017   3.056  0.3251 -0.3930  0.3751
 5442SOL    HW127785   0.283   2.984   3.139 -0.2173  0.5655  0.9796
 5442SOL    HW227786   0.180   3.072   3.094  0.0685  0.2408 -0.9966
 5443SOL     OW27787   0.952   1.839   9.722 -0.1212 -0.3783 -0.2354
 5443SOL    HW127788   0.899   1.765   9.691  1.3056 -2.2967  1.9056
 5443SOL    HW227789   1.040   1.815   9.693  0.5847  1.5469  0.3277
 5444SOL     OW27790   3.642   0.649  10.084  0.2318  0.0572  0.3448
 5444SOL    HW127791   3.701   0.724  10.093 -0.9186  1.4507 -3.5774
 5444SOL    HW227792   3.588   0.670  10.161 -0.6931 -0.6040 -0.1279
 5445SOL     OW27793   0.105   3.383   2.729 -0.0827  0.4965  0.2105
 5445SOL    HW127794   0.118   3.472   2.760  2.2610  0.7247 -1.4461
 5445SOL    HW227795   0.180   3.336   2.767  0.3760 -0.0211 -1.3259
 5446SOL     OW27796   2.783   1.382   2.882 -0.0945  0.2572 -0.1546
 5446SOL    HW127797   2.777   1.298   2.927 -2.0483  2.2693  3.2887
 5446SOL    HW227798   2.724   1.368   2.808  0.1735 -1.3817 -0.0548
 5447SOL     OW27799   3.112   1.600   7.029  0.4006 -0.0060 -0.0729
 5447SOL    HW127800   3.188   1.619   6.974  0.9035  2.6683  1.5076
 5447SOL    HW227801   3.153   1.613   7.114  0.9630  1.5835 -0.5780
 5448SOL     OW27802   3.454   0.926  16.623 -0.5823  0.1809 -0.5128
 5448SOL    HW127803   3.416   1.012  16.606  0.6957  0.8777  0.0988
 5448SOL    HW227804   3.381   0.871  16.652  0.0575  1.6612  3.8563
 5449SOL     OW27805   3.610   0.617   2.947 -0.1828 -0.0766  0.2409
 5449SOL    HW127806   3.628   0.657   2.862  0.8899  3.9852  2.4067
 5449SOL    HW227807   3.571   0.693   2.992 -2.2808 -0.2618 -1.2442
 5450SOL     OW27808   0.072   0.132   4.589 -0.2356 -0.3332  0.2869
 5450SOL    HW127809   0.019   0.113   4.512 -0.2095 -1.5658  0.5740
 5450SOL    HW227810   0.161   0.104   4.568 -0.4273 -1.5800  1.1777
 5451SOL     OW27811   3.615   3.882   4.441  0.7209  0.2311 -0.8167
 5451SOL    HW127812   3.619   3.899   4.535  2.0375 -0.4807 -0.7520
 5451SOL    HW227813   3.683   3.934   4.399 -0.6033  1.0097 -2.0138
 5452SOL     OW27814   1.946   3.890  12.069  0.4494  0.4251 -1.0125
 5452SOL    HW127815   1.908   3.809  12.102  1.4043  0.8071  1.0274
 5452SOL    HW227816   1.895   3.949  12.124  0.5012 -0.9337  0.4989
 5453SOL     OW27817   3.804   1.264   4.148  0.7130  0.5594 -0.1609
 5453SOL    HW127818   3.869   1.248   4.079  0.5084  1.3153 -0.5347
 5453SOL    HW227819   3.727   1.235   4.099 -0.0122  1.6680  0.3177
 5454SOL     OW27820   4.127   1.313   5.454 -0.2183  0.6452  0.2259
 5454SOL    HW127821   4.138   1.407   5.447 -0.2340  0.3891 -3.1793
 5454SOL    HW227822   4.148   1.291   5.363  1.4577  1.7738  0.3456
 5455SOL     OW27823   2.609   3.787  12.081  0.5869 -0.8098 -0.1149
 5455SOL    HW127824   2.553   3.757  12.152 -0.1139 -2.0022 -1.1744
 5455SOL    HW227825   2.652   3.864  12.119  1.1887 -0.0540 -2.3084
 5456SOL     OW27826   0.877   4.357   4.634 -0.5229 -0.3165  0.2756
 5456SOL    HW127827   0.879   4.329   4.725 -1.5251 -1.0829  0.0712
 5456SOL    HW227828   0.947   4.422   4.636 -0.2985 -0.4789 -2.1589
 5457SOL     OW27829   1.058   0.909  15.270 -0.0557  0.4095  0.1228
 5457SOL    HW127830   1.095   0.997  15.267 -0.9442  0.7812  0.1549
 5457SOL    HW227831   1.144   0.870  15.259 -0.5607 -0.5918 -0.2453
 5458SOL     OW27832   2.907   2.899   8.077  0.1392  0.6117  0.4352
 5458SOL    HW127833   2.839   2.963   8.097 -0.2802  0.6247 -1.0467
 5458SOL    HW227834   2.979   2.958   8.054  1.6971 -2.0544 -1.5134
 5459SOL     OW27835   0.404   0.165  13.299  0.8530  0.7740  0.1623
 5459SOL    HW127836   0.465   0.101  13.262 -0.3282  0.2135 -0.7947
 5459SOL    HW227837   0.328   0.107  13.303 -0.1204  2.1724  2.3072
 5460SOL     OW27838   2.985   3.519   6.114 -0.0007 -0.4902  0.1892
 5460SOL    HW127839   3.067   3.495   6.072 -0.3530 -1.6817  0.1938
 5460SOL    HW227840   3.000   3.487   6.203  0.9513  0.1491  0.2554
 5461SOL     OW27841   3.404   3.735   7.765 -0.2873 -0.6353  0.0264
 5461SOL    HW127842   3.325   3.734   7.711  1.6740 -3.3600 -2.8206
 5461SOL    HW227843   3.475   3.723   7.701 -2.7869  0.0830 -2.8548
 5462SOL     OW27844   1.873   3.579   9.188  0.2166 -0.0554  0.8207
 5462SOL    HW127845   1.795   3.586   9.132 -1.1030  1.6773  2.9123
 5462SOL    HW227846   1.900   3.668   9.208  0.5738 -0.0943  0.5236
 5463SOL     OW27847   2.158   1.674   1.332 -0.2004 -0.2493 -0.2352
 5463SOL    HW127848   2.111   1.725   1.268  0.2211 -0.1860 -0.4958
 5463SOL    HW227849   2.114   1.591   1.314  0.7262 -0.6932 -0.4980
 5464SOL     OW27850   4.071   2.403   0.489 -0.2118  0.0859  0.4305
 5464SOL    HW127851   4.125   2.467   0.442  0.8311 -0.3883  0.9595
 5464SOL    HW227852   4.126   2.324   0.479 -2.3709 -1.2958 -0.4925
 5465SOL     OW27853   0.987   3.535   5.374 -0.0960  0.4131  0.8147
 5465SOL    HW127854   1.026   3.474   5.436 -0.2938  0.1881  0.7177
 5465SOL    HW227855   0.998   3.618   5.419  0.6608  0.5109  0.4452
 5466SOL     OW27856   4.379   3.719  10.431 -0.1177  0.0386  0.5378
 5466SOL    HW127857   4.301   3.665  10.425  0.3115 -0.5060 -0.2054
 5466SOL    HW227858   4.414   3.678  10.509  0.2739  0.9441  0.8380
 5467SOL     OW27859   3.469   3.718   5.858  0.3144  0.2746  0.1853
 5467SOL    HW127860   3.403   3.695   5.793 -0.5942  1.6967  0.6223
 5467SOL    HW227861   3.538   3.656   5.832  1.8163  1.9486  0.2513
 5468SOL     OW27862   1.914   3.059   7.517  0.1313 -0.4021 -0.3142
 5468SOL    HW127863   1.871   2.992   7.463  0.6098 -1.0968  0.1697
 5468SOL    HW227864   1.859   3.134   7.492  0.1915 -0.1967  0.1779
 5469SOL     OW27865   2.639   0.047   5.623 -0.4284 -0.1204  0.5499
 5469SOL    HW127866   2.731   0.025   5.637 -0.5564 -0.0880  1.4871
 5469SOL    HW227867   2.642   0.127   5.675 -1.6098  0.4731 -0.3125
 5470SOL     OW27868   4.459   1.837   7.951 -0.4964 -0.7300  0.8615
 5470SOL    HW127869   4.533   1.801   7.901 -2.1031  1.2269 -2.9038
 5470SOL    HW227870   4.412   1.884   7.883  3.6575 -0.3150 -1.7628
 5471SOL     OW27871   3.681   4.047   8.823  0.1822 -0.4317 -0.1468
 5471SOL    HW127872   3.737   4.022   8.897  0.5418 -1.3692 -0.7460
 5471SOL    HW227873   3.612   3.982   8.831 -1.8152  1.8118  0.9258
 5472SOL     OW27874   2.680   3.772   2.533 -0.4271 -0.6906  1.0301
 5472SOL    HW127875   2.666   3.690   2.484  0.7224 -0.3905  0.2031
 5472SOL    HW227876   2.587   3.791   2.541 -0.0833  1.3628  0.1477
 5473SOL     OW27877   4.378   3.995  13.291 -1.1288  0.8123 -0.3504
 5473SOL    HW127878   4.330   3.912  13.297 -0.7348  0.6173  0.0829
 5473SOL    HW227879   4.371   4.028  13.381  0.6886  2.5275 -0.8382
 5474SOL     OW27880   2.045   2.935   7.046  0.3729 -0.3234  0.8551
 5474SOL    HW127881   2.119   2.986   7.013  0.8927 -0.4912  1.7885
 5474SOL    HW227882   1.987   2.927   6.970 -0.5534  1.1608  1.3851
 5475SOL     OW27883   0.246   1.539  10.892  0.6374 -0.0483 -0.1131
 5475SOL    HW127884   0.258   1.512  10.801 -0.8699  0.4307 -0.4421
 5475SOL    HW227885   0.332   1.512  10.926  0.0471 -1.6392  0.1259
 5476SOL     OW27886   2.967   3.435   5.157 -0.0086  0.2022 -0.2310
 5476SOL    HW127887   2.880   3.424   5.195  1.3850 -2.0749  2.2884
 5476SOL    HW227888   2.958   3.415   5.064  0.0744 -1.3837  0.1161
 5477SOL     OW27889   0.950   1.211  12.662  0.6415  0.1862 -0.4425
 5477SOL    HW127890   0.994   1.129  12.641 -2.9712 -1.0335 -3.3159
 5477SOL    HW227891   0.872   1.195  12.609  0.7779 -2.4795  0.1436
 5478SOL     OW27892   1.150   0.644   6.950 -0.0752 -0.0996  0.2964
 5478SOL    HW127893   1.177   0.733   6.929 -1.8072  0.3386 -0.0935
 5478SOL    HW227894   1.055   0.655   6.960  0.2674  1.8047  1.3374
 5479SOL     OW27895   1.692   0.877  16.300  0.4082 -0.2420  0.7486
 5479SOL    HW127896   1.686   0.964  16.340 -0.7533  0.2709 -0.5308
 5479SOL    HW227897   1.678   0.822  16.377 -2.9381  0.3688  0.5953
 5480SOL     OW27898   2.196   1.554   6.730 -0.2757  0.1614  0.1704
 5480SOL    HW127899   2.261   1.577   6.796 -2.1265  1.4996  1.4979
 5480SOL    HW227900   2.136   1.510   6.789  0.8568 -2.5189 -0.6410
 5481SOL     OW27901   3.057   2.294  14.961  0.1666 -0.0978  0.1507
 5481SOL    HW127902   3.128   2.249  15.007  1.8505  1.2834 -1.0666
 5481SOL    HW227903   3.021   2.222  14.910  1.3188  1.0575 -2.2958
 5482SOL     OW27904   1.248   4.025   2.413 -0.9644  0.4166 -0.3478
 5482SOL    HW127905   1.216   4.022   2.503 -1.5038 -0.9556 -0.5949
 5482SOL    HW227906   1.340   4.048   2.430 -0.5541 -1.0674 -0.5461
 5483SOL     OW27907   0.705   0.286   0.703  0.3505  0.3481 -1.0257
 5483SOL    HW127908   0.609   0.286   0.697  0.3506 -1.4685 -0.9275
 5483SOL    HW227909   0.721   0.359   0.763 -1.6973 -1.2195  1.4054
 5484SOL     OW27910   1.116   4.206   3.199  0.4092  0.4157  0.3182
 5484SOL    HW127911   1.111   4.279   3.137  0.1994 -0.3561 -0.5854
 5484SOL    HW227912   1.114   4.243   3.287  1.6879  1.3037 -0.0209
 5485SOL     OW27913   1.201   0.286  10.582 -0.5758  0.0905 -0.2055
 5485SOL    HW127914   1.128   0.342  10.608 -0.0408  0.5303  0.3556
 5485SOL    HW227915   1.176   0.202  10.620  1.4684  0.1216  1.2090
 5486SOL     OW27916   0.819   1.546  15.801  0.0371  0.0012 -0.4292
 5486SOL    HW127917   0.875   1.520  15.728 -1.3232 -0.0813 -1.4565
 5486SOL    HW227918   0.850   1.636  15.808  2.2778 -0.5242 -3.2780
 5487SOL     OW27919   3.170   1.508  10.816 -0.5267  0.5848  0.2022
 5487SOL    HW127920   3.178   1.598  10.848 -1.4691  0.1540  1.6698
 5487SOL    HW227921   3.262   1.485  10.809 -0.1251  2.2627 -0.0679
 5488SOL     OW27922   2.425   3.045   4.801 -0.1793  0.1840 -0.1084
 5488SOL    HW127923   2.394   2.986   4.732  1.2102 -2.1601  1.2393
 5488SOL    HW227924   2.375   3.121   4.773 -0.1268 -0.3252 -1.5552
 5489SOL     OW27925   2.982   2.009   0.012 -0.0212  0.1627 -0.1855
 5489SOL    HW127926   3.056   1.953   0.035  0.3398  0.2280 -1.2022
 5489SOL    HW227927   3.000   2.044  17.617 -0.4734 -0.5647 -0.5739
 5490SOL     OW27928   3.884   0.831  16.378 -0.4396  0.1188 -0.8555
 5490SOL    HW127929   3.949   0.814  16.310  0.8844  1.0211  0.1825
 5490SOL    HW227930   3.903   0.918  16.415  2.0105 -0.0682 -1.6958
 5491SOL     OW27931   0.627   3.523   7.420 -0.0661 -0.6873  0.1733
 5491SOL    HW127932   0.603   3.600   7.471  2.0484  2.2115 -3.2627
 5491SOL    HW227933   0.677   3.475   7.487 -1.8276  0.8573  2.5996
 5492SOL     OW27934   0.930   2.038   6.314  0.0557 -0.1430 -0.4514
 5492SOL    HW127935   0.871   2.089   6.260  0.5161 -0.2532 -1.0526
 5492SOL    HW227936   0.986   2.103   6.357  1.3442 -1.4624 -0.1352
 5493SOL     OW27937   1.077   3.553  13.421  0.5332 -0.6870 -0.2334
 5493SOL    HW127938   1.124   3.636  13.424 -0.4041 -0.1219 -1.3591
 5493SOL    HW227939   1.093   3.533  13.513  2.3230 -0.3688 -0.4803
 5494SOL     OW27940   3.536   2.365   9.097  0.1284  0.2333 -0.3658
 5494SOL    HW127941   3.563   2.372   9.006  1.1142 -1.4719 -0.1955
 5494SOL    HW227942   3.560   2.453   9.126  1.2423 -0.0409 -0.4673
 5495SOL     OW27943   0.922   3.731   7.994  0.5442 -0.2947 -0.4119
 5495SOL    HW127944   0.945   3.642   7.970  0.5725 -0.4809  0.2864
 5495SOL    HW227945   0.841   3.736   7.944  0.5014  0.2913 -0.2946
 5496SOL     OW27946   0.033   1.354  12.921 -0.0170  0.1588 -0.0974
 5496SOL    HW127947   0.061   1.298  12.849  1.7075 -0.0938  0.7659
 5496SOL    HW227948   0.077   1.437  12.905  0.5045 -0.1063 -0.0500
 5497SOL     OW27949   3.645   3.815   2.521  0.5994  0.1926 -0.3185
 5497SOL    HW127950   3.632   3.839   2.429 -0.1111 -0.4115 -0.3723
 5497SOL    HW227951   3.689   3.895   2.551  1.9851 -0.7318  0.1312
 5498SOL     OW27952   1.795   2.982   5.068  0.3396 -0.2117 -0.7943
 5498SOL    HW127953   1.862   3.014   5.008  1.0189  1.5707  0.9201
 5498SOL    HW227954   1.764   3.064   5.107  0.5196 -0.4159 -0.2230
 5499SOL     OW27955   4.430   1.337   5.316 -0.0490  0.3822  0.0946
 5499SOL    HW127956   4.422   1.420   5.363  0.1444 -0.9531  2.4788
 5499SOL    HW227957   4.437   1.270   5.383 -2.2918  1.0158  0.9602
 5500SOL     OW27958   4.305   4.566  12.296  0.1174  0.7985 -0.0627
 5500SOL    HW127959   4.245   4.494  12.315  0.0674  0.8426 -0.0535
 5500SOL    HW227960   4.384   4.513  12.284 -1.1924 -1.3409  0.7756
 5501SOL     OW27961   0.899   2.625   0.050  0.4160 -0.3496  0.2759
 5501SOL    HW127962   0.958   2.595   0.119  0.6265  1.2919  0.8179
 5501SOL    HW227963   0.916   2.715   0.079  0.0204 -0.3486  0.5172
 5502SOL     OW27964   0.298   3.051   4.074 -1.0218  0.2124 -0.5760
 5502SOL    HW127965   0.212   3.064   4.114  0.2814 -1.0580  2.6497
 5502SOL    HW227966   0.320   2.959   4.088 -0.8168  0.6818  2.1667
 5503SOL     OW27967   2.334   4.461   3.434 -0.3867  0.2842  0.6319
 5503SOL    HW127968   2.241   4.442   3.423 -0.6968  1.8032  0.6782
 5503SOL    HW227969   2.335   4.556   3.432 -2.3993  0.3094  1.5240
 5504SOL     OW27970   4.301   0.922   0.772 -0.8299  0.6172 -0.6333
 5504SOL    HW127971   4.252   0.937   0.853 -1.1255 -0.2460 -0.6441
 5504SOL    HW227972   4.226   0.897   0.718  0.7679  0.7553 -2.8885
 5505SOL     OW27973   4.158   2.608   3.115  0.4499 -0.1829 -0.9039
 5505SOL    HW127974   4.133   2.515   3.120 -3.2491  0.7727 -1.6500
 5505SOL    HW227975   4.248   2.607   3.084  0.8681 -1.0574  0.3207
 5506SOL     OW27976   1.253   2.707   6.278 -0.3245  0.3808 -0.2088
 5506SOL    HW127977   1.296   2.659   6.208  1.8420 -0.3322  1.6316
 5506SOL    HW227978   1.243   2.793   6.237 -2.2311  0.4837  0.4634
 5507SOL     OW27979   1.235   2.431  13.167  0.1145  0.2092  0.4899
 5507SOL    HW127980   1.189   2.512  13.186  3.2495  2.6259 -2.0896
 5507SOL    HW227981   1.303   2.464  13.108 -0.4362  1.7586  0.7168
 5508SOL     OW27982   1.015   0.671   8.536  0.5068 -0.1950 -0.2106
 5508SOL    HW127983   0.948   0.606   8.518 -0.2073  0.6302 -0.5258
 5508SOL    HW227984   1.036   0.697   8.446 -3.9600 -0.7017 -1.3828
 5509SOL     OW27985   3.628   1.114   5.088 -0.7883 -0.0926 -0.1829
 5509SOL    HW127986   3.691   1.055   5.044  1.3177  0.5251  2.0164
 5509SOL    HW227987   3.657   1.203   5.068  2.2763 -0.7282  1.3324
 5510SOL     OW27988   3.147   2.180   1.786 -0.0256  0.1608 -0.8378
 5510SOL    HW127989   3.151   2.182   1.881  1.2636  0.2042 -0.8856
 5510SOL    HW227990   3.159   2.086   1.771 -1.6458 -0.4187  1.5734
 5511SOL     OW27991   3.994   4.609   1.685 -0.2085  0.0548 -0.2506
 5511SOL    HW127992   4.078   4.569   1.660 -1.3617  0.0535 -4.1778
 5511SOL    HW227993   4.025   4.694   1.716  0.3103 -0.0111 -0.5826
 5512SOL     OW27994   1.761   2.228   8.889 -0.0194  0.0594  0.8502
 5512SOL    HW127995   1.703   2.295   8.854  0.0935 -1.5316 -2.4096
 5512SOL    HW227996   1.702   2.175   8.943  1.4326  0.0007  2.3887
 5513SOL     OW27997   3.785   1.279   3.004  0.0435  0.2679  0.7074
 5513SOL    HW127998   3.780   1.185   3.021 -1.0069  0.3882  1.0464
 5513SOL    HW227999   3.875   1.297   2.975 -0.1159  0.4200  0.3061
 5514SOL     OW28000   4.177   3.631   3.038 -0.3256  0.1942 -0.4541
 5514SOL    HW128001   4.122   3.624   2.960 -1.1364  0.8092  0.0573
 5514SOL    HW228002   4.108   3.604   3.099  1.7369 -0.5638  1.5806
 5515SOL     OW28003   0.844   3.292   0.758  0.0967  0.0541 -0.1761
 5515SOL    HW128004   0.843   3.346   0.837 -2.6506  0.8404 -0.7406
 5515SOL    HW228005   0.871   3.350   0.687  0.9860  1.0276  0.9725
 5516SOL     OW28006   0.891   3.609   8.999  0.4509  0.5726 -0.0577
 5516SOL    HW128007   0.880   3.606   9.094  3.1752 -0.6498  0.2176
 5516SOL    HW228008   0.986   3.621   9.000  0.3492  1.2884  0.4955
 5517SOL     OW28009   1.901   2.613   4.637  0.3168 -0.4932 -0.3170
 5517SOL    HW128010   1.876   2.634   4.547 -0.1366 -0.5909 -0.2113
 5517SOL    HW228011   1.993   2.640   4.632  0.5594 -0.7091  3.0875
 5518SOL     OW28012   0.979   1.775   5.449 -0.3304 -0.5124 -0.2519
 5518SOL    HW128013   0.991   1.698   5.394  0.3017  0.4036 -1.3985
 5518SOL    HW228014   0.997   1.847   5.388  1.0359 -2.0909 -1.7067
 5519SOL     OW28015   3.114   3.839  11.374 -0.2830  0.0102 -0.8061
 5519SOL    HW128016   3.124   3.928  11.340 -2.6002  0.7327  0.3972
 5519SOL    HW228017   3.099   3.788  11.294 -1.3803  0.2510 -0.7545
 5520SOL     OW28018   1.555   4.018  12.263  0.2494 -0.0608  0.8397
 5520SOL    HW128019   1.505   4.097  12.278  0.5970  0.4534 -0.7594
 5520SOL    HW228020   1.508   3.947  12.307 -0.2145  0.2770  0.8885
 5521SOL     OW28021   2.500   3.825   5.419 -0.2339  0.2915 -0.0327
 5521SOL    HW128022   2.561   3.830   5.492 -0.9228 -0.4538  0.6005
 5521SOL    HW228023   2.547   3.769   5.357  0.5836  0.0621  0.7927
 5522SOL     OW28024   1.267   4.055   3.421 -0.2292 -0.1043 -0.5599
 5522SOL    HW128025   1.263   3.960   3.427 -1.5988 -0.0003  0.1769
 5522SOL    HW228026   1.192   4.078   3.366  1.0279  2.9860 -0.9985
 5523SOL     OW28027   2.281   2.562   8.011  0.2082 -0.2952 -0.2436
 5523SOL    HW128028   2.285   2.620   8.087 -0.7151 -1.3644  0.6268
 5523SOL    HW228029   2.231   2.620   7.953  1.2550  0.2884 -0.5706
 5524SOL     OW28030   1.332   0.550  10.735 -0.2544  0.3195 -0.2670
 5524SOL    HW128031   1.416   0.524  10.772 -1.4215 -0.4194  1.8884
 5524SOL    HW228032   1.367   0.563  10.647  0.7867  1.0317  0.2520
 5525SOL     OW28033   4.312   2.773   7.929 -0.1155 -0.1835 -0.4780
 5525SOL    HW128034   4.248   2.833   7.968  0.7324  0.3119  0.1567
 5525SOL    HW228035   4.344   2.728   8.007 -2.4007 -2.8115 -1.0448
 5526SOL     OW28036   0.487   3.531   2.281 -0.0144  0.1291  0.5403
 5526SOL    HW128037   0.521   3.621   2.275  0.0972 -0.1280 -2.7101
 5526SOL    HW228038   0.497   3.516   2.187  2.6375  1.5527  0.5741
 5527SOL     OW28039   2.290   2.228  12.362 -0.1349  0.4108  0.0231
 5527SOL    HW128040   2.317   2.273  12.442  0.2282  2.8583 -1.4894
 5527SOL    HW228041   2.373   2.206  12.319 -0.2707  0.1969 -0.1297
 5528SOL     OW28042   2.922   4.155   7.695 -0.2138 -0.2606  0.4778
 5528SOL    HW128043   2.916   4.183   7.604 -1.8473 -3.4794 -0.3778
 5528SOL    HW228044   3.007   4.110   7.702 -0.0081 -0.0804 -0.9369
 5529SOL     OW28045   0.944   1.372  15.973 -0.5657  0.9035 -0.1251
 5529SOL    HW128046   0.899   1.400  16.053 -1.4871  2.5909 -1.2405
 5529SOL    HW228047   0.890   1.415  15.907 -0.3766  0.7973 -0.3446
 5530SOL     OW28048   0.442   2.272   3.369  0.2487 -0.1269  0.1929
 5530SOL    HW128049   0.454   2.180   3.392 -0.2851 -0.6265 -1.5181
 5530SOL    HW228050   0.528   2.292   3.331  0.6907 -0.4687  1.0202
 5531SOL     OW28051   3.023   2.151   6.953 -0.3057  0.1704 -0.3887
 5531SOL    HW128052   3.080   2.209   6.903 -1.4343  0.1347 -1.7205
 5531SOL    HW228053   2.974   2.102   6.887 -2.4189  2.0928 -0.2457
 5532SOL     OW28054   0.921   3.440   7.049  0.1495  1.0375  0.5948
 5532SOL    HW128055   1.009   3.471   7.026 -0.9394  2.4877 -1.6033
 5532SOL    HW228056   0.913   3.354   7.007  0.7129  2.0504 -1.5895
 5533SOL     OW28057   1.828   0.959   2.434 -0.0767 -0.4285  0.0365
 5533SOL    HW128058   1.843   1.038   2.382 -0.2782 -0.6025 -0.2934
 5533SOL    HW228059   1.766   0.924   2.369 -0.0986 -0.4245  0.0554
 5534SOL     OW28060   2.373   2.268   6.874  0.3137  0.2148 -0.1829
 5534SOL    HW128061   2.334   2.215   6.804  0.0424 -1.7489  1.4623
 5534SOL    HW228062   2.300   2.286   6.933 -0.3468  1.3378 -1.3420
 5535SOL     OW28063   4.395   0.438   6.049  0.5572  0.0260  0.2164
 5535SOL    HW128064   4.409   0.387   6.128 -1.1553  1.9774  1.7530
 5535SOL    HW228065   4.408   0.525   6.085  0.6214 -0.3968  1.1958
 5536SOL     OW28066   1.084   0.398   8.133 -0.1965 -0.4738 -0.0597
 5536SOL    HW128067   1.059   0.402   8.041  0.3236  0.7206 -0.1431
 5536SOL    HW228068   1.040   0.318   8.164 -0.2456  0.1175  1.4096
 5537SOL     OW28069   4.648   2.940   2.341 -0.6112 -0.6253 -0.0407
 5537SOL    HW128070   4.671   2.867   2.285 -1.2018 -1.6989  1.1204
 5537SOL    HW228071   4.710   2.937   2.414 -2.8826 -1.9617  1.8301
 5538SOL     OW28072   1.759   3.348   8.004 -0.3523  0.3679  0.5119
 5538SOL    HW128073   1.849   3.375   7.986 -0.0713 -0.3108  0.8630
 5538SOL    HW228074   1.745   3.353   8.098 -0.4410 -3.3814  0.7230
 5539SOL     OW28075   1.321   2.082   1.455  0.4122  0.2776 -0.1998
 5539SOL    HW128076   1.304   2.010   1.394 -0.7964  0.2794  0.1370
 5539SOL    HW228077   1.406   2.056   1.491  0.5109  1.3604  0.3345
 5540SOL     OW28078   2.459   2.569   6.866  0.2519 -0.5603 -0.5674
 5540SOL    HW128079   2.442   2.488   6.915  1.8770  1.1639  2.8140
 5540SOL    HW228080   2.372   2.605   6.848 -0.0879  0.7208  3.5975
 5541SOL     OW28081   3.083   1.708   7.718 -0.7855 -0.0736  0.8414
 5541SOL    HW128082   3.024   1.718   7.793 -0.5805 -0.2537  1.0287
 5541SOL    HW228083   3.165   1.721   7.765 -1.7728 -0.2430  2.6007
 5542SOL     OW28084   2.618   0.699   5.348  0.4751 -1.0248  0.1219
 5542SOL    HW128085   2.654   0.646   5.420 -2.6779 -1.7774  1.1723
 5542SOL    HW228086   2.530   0.661   5.342  0.5484 -1.4226  1.4504
 5543SOL     OW28087   1.022   4.035  12.072 -0.0031 -0.1619  0.0134
 5543SOL    HW128088   1.061   4.045  11.985 -0.6494  0.3766 -0.2106
 5543SOL    HW228089   1.102   4.055  12.120 -0.2529 -1.9943  1.2322
 5544SOL     OW28090   1.556   2.771   8.729 -0.0734  0.0457  0.0359
 5544SOL    HW128091   1.503   2.702   8.689 -0.5524 -0.5180  1.6006
 5544SOL    HW228092   1.498   2.782   8.805 -0.1781 -0.9884  0.1096
 5545SOL     OW28093   1.124   2.491  15.361 -0.3451 -0.3046 -0.9074
 5545SOL    HW128094   1.044   2.531  15.326 -1.2074 -0.1117  1.2900
 5545SOL    HW228095   1.110   2.397  15.350 -3.5173 -0.0832  0.9314
 5546SOL     OW28096   1.625   0.491   5.600 -0.1808 -0.0121 -0.2963
 5546SOL    HW128097   1.640   0.582   5.575  0.8185 -0.1710 -0.2900
 5546SOL    HW228098   1.655   0.489   5.691 -0.1145  0.2552 -0.3116
 5547SOL     OW28099   3.278   1.387   9.565 -0.4662 -0.0440  0.3414
 5547SOL    HW128100   3.305   1.472   9.530  0.4130 -0.9186 -1.1155
 5547SOL    HW228101   3.320   1.384   9.651 -1.0237  0.5916  0.6373
 5548SOL     OW28102   4.147   2.004   4.742  0.3768 -0.2681 -0.2405
 5548SOL    HW128103   4.061   1.985   4.780  0.9751 -1.7908  0.3612
 5548SOL    HW228104   4.133   1.981   4.650 -1.1154 -2.6665  0.5710
 5549SOL     OW28105   3.473   4.332   8.621 -0.9639  0.3731  0.7143
 5549SOL    HW128106   3.511   4.244   8.616 -3.0174 -0.3927 -1.4876
 5549SOL    HW228107   3.495   4.359   8.710  0.4789 -0.7054  0.6949
 5550SOL     OW28108   4.206   3.858   3.570 -0.1165  0.3102 -0.0134
 5550SOL    HW128109   4.126   3.826   3.529  0.2539  0.8655 -1.1806
 5550SOL    HW228110   4.221   3.933   3.511  2.2234 -0.6771 -0.7049
 5551SOL     OW28111   3.933   1.546  11.629  0.0727 -0.0478 -0.3641
 5551SOL    HW128112   3.891   1.463  11.603 -0.8821 -0.0203  1.0737
 5551SOL    HW228113   3.968   1.522  11.715  0.2324  0.3414 -0.3238
 5552SOL     OW28114   2.320   3.555   6.007  0.1624 -0.1789  0.4795
 5552SOL    HW128115   2.326   3.648   5.986 -3.3940 -0.6262 -2.5038
 5552SOL    HW228116   2.227   3.541   5.989 -0.1489  1.7407  0.5775
 5553SOL     OW28117   3.527   4.068  17.280 -0.3199  0.5518  0.1289
 5553SOL    HW128118   3.471   4.144  17.295 -1.3014 -0.0598 -0.4860
 5553SOL    HW228119   3.614   4.105  17.295  0.1946 -0.7728  0.4135
 5554SOL     OW28120   3.685   4.391   6.759 -0.0435  0.6853  0.0941
 5554SOL    HW128121   3.746   4.324   6.727  3.1947  2.4443  2.5548
 5554SOL    HW228122   3.652   4.423   6.675  0.5798 -0.7398 -0.7024
 5555SOL     OW28123   0.591   2.112  14.834 -0.8246  0.3777 -0.0239
 5555SOL    HW128124   0.643   2.165  14.895 -0.7441  0.6836 -0.3601
 5555SOL    HW228125   0.503   2.135  14.864 -0.5943 -1.3555  2.0374
 5556SOL     OW28126   0.119   2.729   3.939 -0.4087  0.2055  0.0184
 5556SOL    HW128127   0.152   2.730   4.029  0.3324  2.1253 -0.2822
 5556SOL    HW228128   0.190   2.678   3.898 -1.1460 -0.0475 -0.9366
 5557SOL     OW28129   1.516   1.713   0.164  0.5370  0.2002 -0.0760
 5557SOL    HW128130   1.598   1.751   0.133  1.4348 -2.2819 -0.7444
 5557SOL    HW228131   1.558   1.666   0.237  0.0094  0.8799  0.6622
 5558SOL     OW28132   3.674   2.272   2.533 -0.2079  0.1869 -0.1651
 5558SOL    HW128133   3.737   2.333   2.494  0.3828  0.9732  2.0117
 5558SOL    HW228134   3.691   2.196   2.477  0.4951 -1.2397  1.9590
 5559SOL     OW28135   0.428   3.473  11.676  0.4700 -0.3623 -0.3495
 5559SOL    HW128136   0.516   3.510  11.678  0.2609  0.1069  0.3254
 5559SOL    HW228137   0.392   3.525  11.604  1.2048  1.0140  0.2797
 5560SOL     OW28138   2.707   3.748  15.870  0.3108  0.3072 -0.0345
 5560SOL    HW128139   2.774   3.679  15.863  1.2388  0.9033  3.0689
 5560SOL    HW228140   2.746   3.811  15.931  0.9839  0.6447 -0.8139
 5561SOL     OW28141   3.212   4.691   9.774 -0.2303 -0.1969  0.3314
 5561SOL    HW128142   3.129   4.643   9.779 -1.2784  1.6886  0.9234
 5561SOL    HW228143   3.210   0.001   9.864  1.2297  0.1868  0.2271
 5562SOL     OW28144   4.644   1.466   7.502  0.0014 -0.6226  0.2774
 5562SOL    HW128145   4.597   1.420   7.571 -1.8087  2.4511  1.1156
 5562SOL    HW228146   4.568   1.506   7.459 -0.2283 -0.6825  0.6319
 5563SOL     OW28147   2.351   0.138   7.272 -0.8378  0.3907 -0.7041
 5563SOL    HW128148   2.355   0.187   7.191  2.4468  2.6616  0.8554
 5563SOL    HW228149   2.427   0.080   7.265 -1.9725 -1.1111 -0.7524
 5564SOL     OW28150   4.291   0.232   5.626  0.2497  0.2945 -0.4425
 5564SOL    HW128151   4.279   0.258   5.717  1.6982  0.3927 -0.2762
 5564SOL    HW228152   4.218   0.278   5.585  0.1423 -0.6080 -1.2583
 5565SOL     OW28153   2.712   3.781   4.470  0.2677 -0.6429 -0.0851
 5565SOL    HW128154   2.780   3.735   4.520  1.6491 -1.0327 -2.3065
 5565SOL    HW228155   2.700   3.728   4.391  0.0781 -1.9675  0.8287
 5566SOL     OW28156   0.018   0.153   6.784 -0.5076  0.1132  0.6195
 5566SOL    HW128157   0.093   0.205   6.755 -1.3090 -0.1039 -1.8225
 5566SOL    HW228158   0.045   0.073   6.829  0.6020  0.3116  0.3093
 5567SOL     OW28159   1.910   4.282   6.315  0.6310 -0.1825 -0.0340
 5567SOL    HW128160   1.838   4.331   6.356 -0.6288 -1.6779 -0.4651
 5567SOL    HW228161   1.888   4.200   6.358 -0.1215  0.6320  1.1535
 5568SOL     OW28162   0.323   0.339   7.137  0.4658 -0.5491 -0.6037
 5568SOL    HW128163   0.364   0.420   7.166 -2.2928  0.5869  0.1228
 5568SOL    HW228164   0.328   0.344   7.042  1.0262 -1.3950 -0.6192
 5569SOL     OW28165   4.711   1.014   2.699  0.1270 -0.6120 -0.0351
 5569SOL    HW128166   4.640   0.998   2.637  0.5534  2.5469 -1.3082
 5569SOL    HW228167   0.067   0.991   2.650  1.2224 -1.7045  2.2242
 5570SOL     OW28168   3.194   1.743   9.324  0.1108  0.5482 -0.4335
 5570SOL    HW128169   3.255   1.680   9.363 -0.8599  1.1832  2.0383
 5570SOL    HW228170   3.244   1.821   9.345  0.7703  0.3381 -1.1982
 5571SOL     OW28171   3.659   4.204   1.762 -0.1402  0.4117  0.0904
 5571SOL    HW128172   3.716   4.175   1.690 -0.7172  0.9215 -0.5742
 5571SOL    HW228173   3.668   4.299   1.762  4.3919  0.0209 -1.8108
 5572SOL     OW28174   4.702   3.407   3.147 -0.1068  0.1580  0.2852
 5572SOL    HW128175   4.650   3.460   3.207  0.0901  1.1919 -0.4488
 5572SOL    HW228176   0.059   3.458   3.161 -0.5328  0.3193  2.1337
 5573SOL     OW28177   4.417   2.857   6.323 -0.5171  0.0722 -0.8942
 5573SOL    HW128178   4.450   2.947   6.329  0.3363 -0.2930 -0.0063
 5573SOL    HW228179   4.423   2.830   6.415  1.8840  4.4855  0.2559
 5574SOL     OW28180   3.450   2.101   6.275  0.0506  0.5124  0.3189
 5574SOL    HW128181   3.360   2.128   6.294 -0.2292  1.5988 -2.6467
 5574SOL    HW228182   3.472   2.149   6.195  1.2677 -2.1816 -0.9585
 5575SOL     OW28183   0.608   1.497  13.627 -0.1730 -0.3203 -0.5009
 5575SOL    HW128184   0.540   1.564  13.613  2.8434  3.1219  1.3489
 5575SOL    HW228185   0.674   1.559  13.659 -2.2631  0.2712  2.6728
 5576SOL     OW28186   3.413   0.466   7.177 -0.6372 -0.0830 -0.3434
 5576SOL    HW128187   3.462   0.536   7.221 -0.1454 -1.1895  0.8709
 5576SOL    HW228188   3.325   0.485   7.210 -1.2440 -2.7504 -0.4481
 5577SOL     OW28189   0.185   1.474   5.419 -0.2846 -0.2400  0.1485
 5577SOL    HW128190   0.275   1.445   5.403 -0.0064  1.1658 -0.8145
 5577SOL    HW228191   0.190   1.569   5.426 -0.7638 -0.1424 -0.9068
 5578SOL     OW28192   3.880   0.517   4.705 -0.2068  0.2066 -0.5899
 5578SOL    HW128193   3.966   0.526   4.746 -0.8159  0.1969  0.7151
 5578SOL    HW228194   3.831   0.563   4.774  1.9422  1.2249  0.2405
 5579SOL     OW28195   3.552   1.756   7.433  0.2031 -0.1255  0.3277
 5579SOL    HW128196   3.642   1.726   7.417 -0.1791 -0.3194 -1.4348
 5579SOL    HW228197   3.505   1.719   7.359 -0.8345 -0.4055  1.1366
 5580SOL     OW28198   2.016   4.662   8.764  0.5993 -0.1134  0.0357
 5580SOL    HW128199   1.960   4.605   8.712  2.5657  1.0880 -3.3510
 5580SOL    HW228200   2.078   4.596   8.795 -0.1150 -1.9269 -2.4291
 5581SOL     OW28201   3.477   2.680   7.949  0.6218  0.5018 -0.3137
 5581SOL    HW128202   3.551   2.720   7.904 -0.1873  0.9721 -1.2244
 5581SOL    HW228203   3.522   2.642   8.024  1.1147  3.9457  1.1535
 5582SOL     OW28204   2.003   0.467   7.610 -0.5812 -0.2732 -0.5168
 5582SOL    HW128205   2.098   0.467   7.601 -0.5652  2.5240 -0.3127
 5582SOL    HW228206   1.969   0.461   7.520  0.9289  2.0693 -1.2528
 5583SOL     OW28207   1.358   0.065   0.304 -0.0350  0.1665  0.1615
 5583SOL    HW128208   1.433   0.123   0.292 -0.2051 -0.2477 -2.8102
 5583SOL    HW228209   1.284   0.121   0.279 -0.3521 -0.3662 -0.0715
 5584SOL     OW28210   3.872   3.073  12.374 -0.9166  0.7441  0.0350
 5584SOL    HW128211   3.906   3.054  12.287  0.6678 -0.9014  1.0057
 5584SOL    HW228212   3.928   3.016  12.427  1.3979  1.2435 -1.8514
 5585SOL     OW28213   2.004   2.095   3.212 -0.1200 -0.0078  0.3408
 5585SOL    HW128214   2.032   2.137   3.293  0.9666 -0.8962  0.4309
 5585SOL    HW228215   2.082   2.105   3.156  0.2194  0.3384  0.8768
 5586SOL     OW28216   4.531   3.846   7.895  0.1171  0.0615 -0.2822
 5586SOL    HW128217   4.471   3.912   7.861 -0.5295 -1.3741 -1.9232
 5586SOL    HW228218   4.609   3.889   7.862 -0.2079  0.5063 -0.4667
 5587SOL     OW28219   0.120   4.657   6.899  0.0851 -0.0070 -0.6697
 5587SOL    HW128220   0.212   4.674   6.915  0.2909  0.2709 -2.1155
 5587SOL    HW228221   0.107   4.598   6.973  1.5778 -2.2668 -2.2148
 5588SOL     OW28222   0.904   2.684   2.292  0.0366  0.1933  0.5153
 5588SOL    HW128223   0.898   2.602   2.243 -0.5716  0.1746  0.6273
 5588SOL    HW228224   0.993   2.711   2.270 -1.0212  0.8737 -2.8877
 5589SOL     OW28225   0.928   0.599  13.544  0.5745  0.5674  0.0901
 5589SOL    HW128226   0.871   0.673  13.563  3.2731  2.0236  2.6113
 5589SOL    HW228227   0.987   0.636  13.478 -0.2362  0.7438 -0.5310
 5590SOL     OW28228   3.409   0.970   9.589  0.1242  0.8221 -0.0572
 5590SOL    HW128229   3.441   1.013   9.668 -0.7033 -0.6540  1.0742
 5590SOL    HW228230   3.482   0.925   9.548  0.6161  0.8057  0.8335
 5591SOL     OW28231   3.835   2.215   6.353 -0.1033 -0.4799  0.5517
 5591SOL    HW128232   3.803   2.156   6.285 -1.5155 -1.7016  2.2631
 5591SOL    HW228233   3.779   2.184   6.424 -1.3759 -1.8907 -1.0703
 5592SOL     OW28234   1.548   2.737   3.258  0.1316 -0.1721  0.1672
 5592SOL    HW128235   1.496   2.796   3.204 -0.1730 -0.1688  0.4683
 5592SOL    HW228236   1.625   2.725   3.202  0.1156  0.5820 -0.0204
 5593SOL     OW28237   2.595   0.037   6.003 -0.0991  0.1187 -0.2809
 5593SOL    HW128238   2.557   4.677   5.974 -1.9237  0.9774 -0.3102
 5593SOL    HW228239   2.561   0.031   6.092  2.1834 -1.8176  0.4605
 5594SOL     OW28240   3.579   0.770  15.598 -0.5223 -0.1000  0.1077
 5594SOL    HW128241   3.635   0.835  15.640  0.1220  1.7489 -3.5831
 5594SOL    HW228242   3.619   0.697  15.646 -0.5824  1.8581  3.0990
 5595SOL     OW28243   2.500   1.419   8.363  0.1383 -0.0535  0.0318
 5595SOL    HW128244   2.509   1.326   8.387 -1.6559 -0.3205 -0.3214
 5595SOL    HW228245   2.556   1.420   8.285 -0.8784  2.5083 -0.6640
 5596SOL     OW28246   2.628   3.834  14.367 -0.2735  0.0446  0.4297
 5596SOL    HW128247   2.558   3.780  14.330 -1.9932  1.1357  2.1088
 5596SOL    HW228248   2.563   3.892  14.406 -1.7055  0.4616 -2.5256
 5597SOL     OW28249   0.367   1.675  14.537 -0.1022 -0.0242 -0.5559
 5597SOL    HW128250   0.353   1.581  14.545 -1.7407  0.2350 -0.2683
 5597SOL    HW228251   0.355   1.699  14.629 -1.8883 -1.7064 -0.3270
 5598SOL     OW28252   1.916   4.203   7.708  0.2385  0.1287  0.3207
 5598SOL    HW128253   1.943   4.273   7.768  1.4968  1.3291 -1.6376
 5598SOL    HW228254   1.861   4.149   7.765 -0.6041 -0.8891 -1.4628
 5599SOL     OW28255   1.988   3.158   8.620 -0.3751  0.0827 -0.0382
 5599SOL    HW128256   1.996   3.253   8.630 -0.5734 -0.1086  1.9251
 5599SOL    HW228257   2.067   3.127   8.664  0.0750  1.4789  0.1306
 5600SOL     OW28258   4.216   1.293   4.552 -0.0608 -0.4385 -0.3684
 5600SOL    HW128259   4.269   1.262   4.478 -0.9125  0.9038 -1.5589
 5600SOL    HW228260   4.281   1.339   4.605 -1.4215 -1.5954  2.3124
 5601SOL     OW28261   3.420   0.935   7.061  0.1554 -0.9699 -0.1102
 5601SOL    HW128262   3.427   0.968   6.971 -1.9574  0.3157  0.1966
 5601SOL    HW228263   3.509   0.908   7.081  1.1485  0.1888 -2.8961
 5602SOL     OW28264   0.980   2.439   5.323 -0.1075 -0.1589 -0.2471
 5602SOL    HW128265   0.955   2.523   5.361  2.0635 -0.3926  1.6753
 5602SOL    HW228266   0.992   2.469   5.233 -1.4285  2.6105  0.5079
 5603SOL     OW28267   0.675   2.933  16.301  0.4460 -0.1273 -0.3340
 5603SOL    HW128268   0.702   2.968  16.386  5.4768 -0.8976 -1.6220
 5603SOL    HW228269   0.708   3.000  16.241  4.2838  1.7825  3.8719
 5604SOL     OW28270   0.515   0.128   8.570  0.0391 -0.3604 -0.5074
 5604SOL    HW128271   0.477   0.041   8.560  1.3131 -1.0783  0.7643
 5604SOL    HW228272   0.485   0.148   8.659 -2.6855  0.4484 -1.6464
 5605SOL     OW28273   3.537   1.322   3.137  0.2770 -0.0340  0.1971
 5605SOL    HW128274   3.621   1.313   3.094 -0.0210 -0.3000 -0.3224
 5605SOL    HW228275   3.479   1.356   3.069 -0.9705 -2.1275  0.2103
 5606SOL     OW28276   4.438   1.350   8.286  0.0926 -1.1904  0.2570
 5606SOL    HW128277   4.350   1.312   8.285  0.8185 -2.8636 -0.4029
 5606SOL    HW228278   4.445   1.405   8.208  1.3780 -0.9600  0.5396
 5607SOL     OW28279   0.402   2.672   3.552  0.3899 -0.1921  0.2751
 5607SOL    HW128280   0.347   2.625   3.489 -1.0555 -0.3198  1.6394
 5607SOL    HW228281   0.456   2.725   3.494 -0.6819 -1.1282 -1.5819
 5608SOL     OW28282   1.028   4.461   5.456  0.2408 -0.0846 -0.2934
 5608SOL    HW128283   1.115   4.476   5.494  0.8812 -1.7749 -1.0804
 5608SOL    HW228284   1.050   4.416   5.374  0.5100  3.4464 -2.1699
 5609SOL     OW28285   1.077   1.832  11.092  0.0797  0.1270  0.0762
 5609SOL    HW128286   1.022   1.863  11.020  0.5516 -0.1516 -0.4144
 5609SOL    HW228287   1.159   1.880  11.081 -0.6091  1.2657 -0.0762
 5610SOL     OW28288   3.068   1.625   1.867 -0.2997  0.4124  0.0675
 5610SOL    HW128289   3.119   1.705   1.859  0.9475 -0.0955  2.9671
 5610SOL    HW228290   3.138   1.561   1.860  1.4025  2.4230 -1.0106
 5611SOL     OW28291   1.408   2.401   2.802 -0.4786  0.7424 -0.4880
 5611SOL    HW128292   1.483   2.460   2.801 -0.2242  0.4202 -0.7466
 5611SOL    HW228293   1.354   2.440   2.733  0.0120  0.4708 -1.0329
 5612SOL     OW28294   0.588   1.293   9.615  0.3628  0.2151 -0.7019
 5612SOL    HW128295   0.573   1.278   9.521  1.8874  1.1765 -1.1053
 5612SOL    HW228296   0.635   1.215   9.644  0.7963  0.8857  0.3976
 5613SOL     OW28297   2.244   0.449   9.325  0.1689 -0.5360 -0.5559
 5613SOL    HW128298   2.206   0.381   9.380 -0.3666  1.4159  1.4501
 5613SOL    HW228299   2.262   0.517   9.390  1.4735  0.3197 -1.8069
 5614SOL     OW28300   4.105   0.345  16.869 -0.5379  0.6228  0.6466
 5614SOL    HW128301   4.076   0.375  16.783 -0.4144 -2.3096 -0.4380
 5614SOL    HW228302   4.040   0.386  16.925 -1.1738  2.5450 -1.5057
 5615SOL     OW28303   1.579   3.848  16.097  0.5541 -0.1529  0.3726
 5615SOL    HW128304   1.652   3.894  16.136 -0.2071  0.2283  1.3431
 5615SOL    HW228305   1.530   3.923  16.063  0.6107 -0.1576  0.2793
 5616SOL     OW28306   2.099   1.284  13.837 -0.1922 -0.5315 -0.9203
 5616SOL    HW128307   2.057   1.211  13.882 -0.7080 -0.3382 -1.0852
 5616SOL    HW228308   2.114   1.349  13.906  1.0653  0.1065 -1.7830
 5617SOL     OW28309   4.407   1.891  16.889  0.0110  0.1391  0.3410
 5617SOL    HW128310   4.351   1.968  16.892 -1.1585 -0.7415  1.1324
 5617SOL    HW228311   4.402   1.863  16.798  1.0366 -3.4912  1.3978
 5618SOL     OW28312   1.995   2.023  12.617  0.0867 -0.3543 -0.2858
 5618SOL    HW128313   1.936   2.003  12.544  0.0333 -2.2604  0.2692
 5618SOL    HW228314   1.979   2.114  12.643 -0.9121 -0.6196  0.0271
 5619SOL     OW28315   0.801   3.575  12.247 -0.3939  0.2743 -0.7332
 5619SOL    HW128316   0.888   3.596  12.281 -0.9709  1.2125  0.1667
 5619SOL    HW228317   0.834   3.526  12.171  2.8026  0.5981  0.4212
 5620SOL     OW28318   3.591   2.456   5.795 -0.5098  0.2146  0.3729
 5620SOL    HW128319   3.521   2.410   5.749  1.1465 -1.0621 -0.8592
 5620SOL    HW228320   3.555   2.544   5.807 -0.6771  0.1625  0.2577
 5621SOL     OW28321   2.244   4.397   7.056 -0.6713  0.2914 -0.1844
 5621SOL    HW128322   2.159   4.394   7.012 -0.8283 -2.7049  0.2733
 5621SOL    HW228323   2.263   4.485   7.086  0.1838  0.3982 -1.0413
 5622SOL     OW28324   0.765   3.253   3.241  0.2739  0.4079  0.0219
 5622SOL    HW128325   0.675   3.234   3.266  1.3802  0.4182  4.0107
 5622SOL    HW228326   0.779   3.342   3.271 -1.2153  0.4330  0.6312
 5623SOL     OW28327   0.772   0.636   3.904 -0.5433 -0.6923 -0.3519
 5623SOL    HW128328   0.850   0.642   3.960 -1.5764  0.8643  0.9047
 5623SOL    HW228329   0.809   0.576   3.839 -1.0479 -0.3099 -0.9892
 5624SOL     OW28330   4.150   4.393   5.754 -0.3109  0.1135 -0.0535
 5624SOL    HW128331   4.222   4.443   5.793 -0.2075  0.8299 -1.1543
 5624SOL    HW228332   4.154   4.409   5.660 -0.5440 -0.8115 -0.2147
 5625SOL     OW28333   1.222   1.388   4.251 -0.3328 -0.1252 -0.0030
 5625SOL    HW128334   1.296   1.335   4.222 -1.3165  0.7842 -4.2989
 5625SOL    HW228335   1.238   1.410   4.342 -1.7107 -0.7391  0.3842
 5626SOL     OW28336   0.700   3.254   1.370  0.1794  0.1889 -0.0179
 5626SOL    HW128337   0.608   3.274   1.354  0.5229  1.6201 -0.1793
 5626SOL    HW228338   0.691   3.159   1.363 -0.8765  0.3758 -1.1951
 5627SOL     OW28339   2.935   2.246   5.570 -0.4629  0.6713  0.5121
 5627SOL    HW128340   2.905   2.198   5.647  0.1419 -1.7614 -0.7568
 5627SOL    HW228341   3.009   2.189   5.547  0.1531  0.6225  2.6250
 5628SOL     OW28342   0.659   3.015   5.589 -0.2477 -0.3659 -0.0701
 5628SOL    HW128343   0.574   3.058   5.594 -0.1826 -0.3265  0.6990
 5628SOL    HW228344   0.685   3.029   5.680 -3.5633 -1.5327  1.0626
 5629SOL     OW28345   2.681   4.285  17.507 -0.4935  0.1432  0.3231
 5629SOL    HW128346   2.651   4.216  17.447 -0.4253 -0.0205  0.4802
 5629SOL    HW228347   2.661   4.354  17.443 -1.7705 -0.3101  0.2473
 5630SOL     OW28348   2.464   3.226   9.895  0.4801 -0.0457  0.2202
 5630SOL    HW128349   2.384   3.174   9.889  0.1590  0.6925 -2.1164
 5630SOL    HW228350   2.497   3.209   9.983 -0.4968  0.1040  0.6037
 5631SOL     OW28351   0.281   0.907   4.496 -0.0130 -0.2970 -0.5163
 5631SOL    HW128352   0.345   0.975   4.518 -1.3916  0.4286  1.2904
 5631SOL    HW228353   0.202   0.937   4.541 -0.6238 -0.3894 -1.5235
 5632SOL     OW28354   2.413   0.225   4.048 -0.1317  0.2177 -0.4223
 5632SOL    HW128355   2.465   0.305   4.058 -1.2571  0.9862 -0.8452
 5632SOL    HW228356   2.380   0.234   3.959 -2.3698 -1.5816  0.2430
 5633SOL     OW28357   1.530   3.509   5.662  0.1811 -0.3416 -0.1334
 5633SOL    HW128358   1.473   3.563   5.608  2.2574  1.3450 -0.6322
 5633SOL    HW228359   1.511   3.545   5.749  2.0806 -2.1689  1.0432
 5634SOL     OW28360   4.087   0.799   5.422 -0.7949  0.5027 -0.1992
 5634SOL    HW128361   4.100   0.790   5.328 -0.0006 -1.1024  0.0535
 5634SOL    HW228362   4.149   0.739   5.464  1.5020  2.2327 -1.1525
 5635SOL     OW28363   3.233   3.132   8.664  0.0965 -0.0261  0.5568
 5635SOL    HW128364   3.163   3.068   8.653  0.6083 -0.7098  1.2800
 5635SOL    HW228365   3.246   3.128   8.759  3.0068  0.2194  0.1633
 5636SOL     OW28366   3.386   3.279   3.048  0.2264  0.0117 -0.3921
 5636SOL    HW128367   3.364   3.354   3.103 -2.6904 -0.1715 -1.3145
 5636SOL    HW228368   3.339   3.206   3.088 -0.9041  0.3820 -1.0273
 5637SOL     OW28369   2.588   1.832   8.709  0.2087  0.1483  0.1101
 5637SOL    HW128370   2.623   1.783   8.635 -1.4308 -0.7950 -0.0519
 5637SOL    HW228371   2.643   1.790   8.776  0.8123 -0.8664 -1.0415
 5638SOL     OW28372   2.997   0.498   7.041 -0.0045 -0.0410 -0.6083
 5638SOL    HW128373   2.966   0.586   7.025  2.1559  1.0631  1.2295
 5638SOL    HW228374   3.052   0.475   6.966 -1.5350  0.3531 -1.8413
 5639SOL     OW28375   3.819   0.331  11.046 -0.0745 -0.1573  0.7300
 5639SOL    HW128376   3.892   0.350  11.105  0.0182  1.5350  0.0635
 5639SOL    HW228377   3.747   0.386  11.078 -0.7432 -1.4513  1.4433
 5640SOL     OW28378   1.478   2.567  11.078  0.0529 -0.5883  0.3865
 5640SOL    HW128379   1.554   2.621  11.096  0.1385 -1.0265  1.3631
 5640SOL    HW228380   1.474   2.576  10.983 -0.3030 -2.2684  0.2455
 5641SOL     OW28381   4.034   1.862   6.794  0.4563 -0.0562 -0.0349
 5641SOL    HW128382   3.975   1.911   6.737  0.7213  1.6420  1.1690
 5641SOL    HW228383   4.038   1.772   6.761  0.7199  0.8559 -2.4726
 5642SOL     OW28384   3.378   4.561  13.926  0.2842  0.2975 -0.6753
 5642SOL    HW128385   3.361   4.581  14.018  1.1144  0.4111 -0.5529
 5642SOL    HW228386   3.464   4.603  13.925 -0.4242  1.7534 -2.0729
 5643SOL     OW28387   2.208   3.795   1.426  0.4944 -0.0615  0.0343
 5643SOL    HW128388   2.237   3.866   1.369  0.4401 -0.7380 -0.8298
 5643SOL    HW228389   2.257   3.718   1.398  2.4208  1.0224  0.4405
 5644SOL     OW28390   2.111   2.198   8.350 -0.0719 -0.0290 -0.3684
 5644SOL    HW128391   2.193   2.148   8.348 -0.2839 -0.3909  0.0735
 5644SOL    HW228392   2.085   2.186   8.441  0.1899 -0.0586 -0.2965
 5645SOL     OW28393   0.709   1.879   7.938 -0.2707 -0.1360  0.5406
 5645SOL    HW128394   0.765   1.901   8.013  1.6066 -1.5570 -0.4384
 5645SOL    HW228395   0.623   1.883   7.981 -0.0592 -1.0371  1.0505
 5646SOL     OW28396   4.452   1.413   4.776 -0.0277  0.0687  0.1236
 5646SOL    HW128397   4.387   1.482   4.762 -0.4324 -0.7284 -1.9773
 5646SOL    HW228398   4.469   1.401   4.869 -0.1900  0.5123  0.2064
 5647SOL     OW28399   3.147   1.793   4.782  0.0731  0.0007  0.2270
 5647SOL    HW128400   3.149   1.781   4.877 -0.9845  0.4185  0.3081
 5647SOL    HW228401   3.121   1.704   4.756 -1.1376  0.5071 -0.3366
 5648SOL     OW28402   1.228   0.776  10.292  0.2818  0.1530 -0.3732
 5648SOL    HW128403   1.210   0.775  10.197 -1.4141 -0.2460 -0.0530
 5648SOL    HW228404   1.283   0.854  10.295  1.4228 -0.7162  0.9638
 5649SOL     OW28405   2.970   3.250   1.250 -0.1630  0.1110  0.3138
 5649SOL    HW128406   3.017   3.216   1.174  0.9666  3.7799 -0.6201
 5649SOL    HW228407   3.034   3.249   1.321  2.0837  0.8882 -1.6939
 5650SOL     OW28408   3.307   3.483   3.279  0.3523  0.3567 -0.1786
 5650SOL    HW128409   3.248   3.558   3.291  2.8849  2.5155 -0.9576
 5650SOL    HW228410   3.389   3.526   3.304  1.3059 -0.8094 -1.3031
 5651SOL     OW28411   4.636   2.217  10.920 -0.6816 -0.2415 -0.3644
 5651SOL    HW128412   4.568   2.164  10.961 -0.6856  1.1369  1.4028
 5651SOL    HW228413   4.588   2.297  10.898  2.9230  1.2387 -2.7266
 5652SOL     OW28414   4.352   1.191  14.360  0.2040  0.3474  0.0387
 5652SOL    HW128415   4.378   1.270  14.314  0.2195  1.1995  1.4891
 5652SOL    HW228416   4.297   1.141  14.300 -0.6964 -0.4410  1.5034
 5653SOL     OW28417   3.170   2.048   4.975  0.4631 -0.1028  0.2075
 5653SOL    HW128418   3.192   1.969   5.024  1.1713  0.8510  1.4438
 5653SOL    HW228419   3.250   2.048   4.923 -0.3043 -1.4554 -0.9503
 5654SOL     OW28420   1.784   4.073   2.903 -0.4318 -0.2664 -0.0356
 5654SOL    HW128421   1.877   4.071   2.927 -0.7396 -0.2616  1.1510
 5654SOL    HW228422   1.785   4.019   2.824  1.7820 -1.4078  0.7669
 5655SOL     OW28423   2.899   1.053   6.836 -0.3629 -0.0852  0.8460
 5655SOL    HW128424   2.962   1.085   6.900  0.9104 -1.0476  0.0740
 5655SOL    HW228425   2.879   1.135   6.790  0.7627 -0.2627  0.0332
 5656SOL     OW28426   4.301   3.176   8.459 -0.8505 -1.1478  0.0363
 5656SOL    HW128427   4.351   3.149   8.536  0.0222  4.0426  1.3008
 5656SOL    HW228428   4.282   3.091   8.419  1.8248 -0.9187 -1.6972
 5657SOL     OW28429   0.538   1.560   6.676  0.1134 -0.3920  0.3204
 5657SOL    HW128430   0.461   1.535   6.625 -1.1610 -0.1527  2.1486
 5657SOL    HW228431   0.535   1.501   6.751 -1.2353  0.0950  0.6536
 5658SOL     OW28432   3.237   2.900  14.072  0.3496  0.0298 -0.4290
 5658SOL    HW128433   3.147   2.931  14.064  0.6029  0.3686 -1.9568
 5658SOL    HW228434   3.231   2.815  14.116  1.6458 -0.1446 -0.5913
 5659SOL     OW28435   2.795   1.574   1.692  0.7417  0.0345 -0.1548
 5659SOL    HW128436   2.852   1.649   1.710 -0.7562  0.9749  0.6044
 5659SOL    HW228437   2.785   1.578   1.597 -1.1226 -0.7886  0.0140
 5660SOL     OW28438   2.266   4.659   2.271 -0.5880 -0.2721 -0.3937
 5660SOL    HW128439   2.261   4.715   2.193 -2.4197 -0.3651 -0.3476
 5660SOL    HW228440   2.292   4.577   2.228 -0.2133 -0.9227  1.0903
 5661SOL     OW28441   3.961   2.573   6.257  0.1335  0.0964  0.2341
 5661SOL    HW128442   3.994   2.661   6.240  1.4901 -0.4858 -0.1727
 5661SOL    HW228443   4.005   2.537   6.180 -0.6651  1.0173 -0.6431
 5662SOL     OW28444   0.123   2.263   3.075  0.2783  0.4089  0.3507
 5662SOL    HW128445   0.171   2.182   3.062 -1.4820 -0.4983 -0.5388
 5662SOL    HW228446   0.186   2.318   3.120  0.9033 -0.0053 -0.0117
 5663SOL     OW28447   2.744   0.290  14.516 -0.5538 -0.2334 -0.3396
 5663SOL    HW128448   2.734   0.375  14.558  0.0395 -0.0027 -0.6651
 5663SOL    HW228449   2.816   0.306  14.455  2.0771  0.5533  2.9438
 5664SOL     OW28450   3.623   1.422   7.954 -0.0919  0.1661  0.1750
 5664SOL    HW128451   3.547   1.365   7.936 -0.2917 -0.4325  2.8502
 5664SOL    HW228452   3.621   1.473   7.874 -0.1269 -0.2982 -0.1216
 5665SOL     OW28453   4.384   1.643   4.381  0.2030  0.0538  0.1282
 5665SOL    HW128454   4.444   1.571   4.364 -2.0907 -1.6754 -0.6290
 5665SOL    HW228455   4.327   1.651   4.304 -1.0345  1.4028  1.1963
 5666SOL     OW28456   2.131   0.555   8.287  0.6942  0.0258 -0.8472
 5666SOL    HW128457   2.079   0.497   8.343 -0.7585  1.3249 -0.8414
 5666SOL    HW228458   2.063   0.590   8.230 -0.0956 -1.4421 -0.8091
 5667SOL     OW28459   2.963   2.571   5.815  0.0264  0.1634 -0.2656
 5667SOL    HW128460   2.931   2.548   5.903  1.1499 -0.2503  0.0286
 5667SOL    HW228461   2.899   2.638   5.790 -0.2900  0.2309  0.6923
 5668SOL     OW28462   3.172   2.048  10.164  0.0044 -0.0914  0.0681
 5668SOL    HW128463   3.214   2.049  10.078  0.1004 -0.5498  0.1108
 5668SOL    HW228464   3.083   2.061  10.131 -0.0674 -0.4173  0.1409
 5669SOL     OW28465   1.038   1.913   2.719 -0.2064  0.0589  0.0673
 5669SOL    HW128466   1.120   1.866   2.704 -1.3390 -1.8695 -0.0080
 5669SOL    HW228467   1.023   1.961   2.638  0.1996  1.5750  0.8770
 5670SOL     OW28468   4.481   2.018  14.889 -0.0913 -0.5285  0.2488
 5670SOL    HW128469   4.418   1.958  14.928 -1.1308  0.2474 -0.2470
 5670SOL    HW228470   4.557   1.959  14.888  1.4729  1.4973 -0.7187
 5671SOL     OW28471   3.732   4.209   2.099 -0.2620 -0.0448 -0.3338
 5671SOL    HW128472   3.796   4.164   2.154  1.9817  1.5680 -1.6452
 5671SOL    HW228473   3.652   4.160   2.119 -0.1408  0.6472  1.8422
 5672SOL     OW28474   0.987   0.600   4.102 -0.7565 -0.2759 -0.0608
 5672SOL    HW128475   1.020   0.566   4.019 -1.0639  1.5178 -0.9231
 5672SOL    HW228476   1.065   0.609   4.157 -0.2874 -1.2506 -0.5616
 5673SOL     OW28477   1.008   1.369   9.155  0.4763  0.3871  0.1598
 5673SOL    HW128478   0.997   1.463   9.171  2.3546  0.3450  1.7684
 5673SOL    HW228479   1.045   1.336   9.237  0.3087 -2.0283 -0.7394
 5674SOL     OW28480   4.595   2.534  15.470  0.4572  0.4759  0.0088
 5674SOL    HW128481   4.608   2.496  15.557 -1.9395 -0.7890 -0.1795
 5674SOL    HW228482   4.682   2.524  15.431  0.4395 -1.4036  0.4302
 5675SOL     OW28483   0.170   0.773   3.588  0.2657  0.4036  0.5125
 5675SOL    HW128484   0.156   0.866   3.568 -1.3516  0.2775  1.0439
 5675SOL    HW228485   0.252   0.776   3.637  1.7241 -1.1927 -1.8174
 5676SOL     OW28486   0.468   3.631  12.121  0.0454  0.0835  0.1776
 5676SOL    HW128487   0.464   3.557  12.061  0.6786 -0.1793  0.4500
 5676SOL    HW228488   0.387   3.619  12.170 -0.6794  2.1225 -0.5532
 5677SOL     OW28489   3.289   1.153   6.613 -0.2394 -0.1496  0.9702
 5677SOL    HW128490   3.231   1.083   6.642  0.5995 -2.4207 -2.7610
 5677SOL    HW228491   3.312   1.136   6.521 -2.1172  0.3562  0.3898
 5678SOL     OW28492   3.306   0.074   9.555  0.3108 -0.0138  0.6577
 5678SOL    HW128493   3.248   0.035   9.490  0.1669 -0.5000  1.0724
 5678SOL    HW228494   3.250   0.053   9.631  0.0142  0.2883  0.5214
 5679SOL     OW28495   0.566   1.776   5.764 -0.4828 -0.3515 -0.4083
 5679SOL    HW128496   0.648   1.753   5.719 -0.2630  0.7809 -0.5707
 5679SOL    HW228497   0.568   1.704   5.828 -2.8332  1.3054  1.4842
 5680SOL     OW28498   3.554   3.657   0.530 -0.0191  0.2128 -0.0343
 5680SOL    HW128499   3.529   3.700   0.612  2.5670 -0.2172  1.0031
 5680SOL    HW228500   3.475   3.666   0.477 -0.4055 -0.2203  0.4755
 5681SOL     OW28501   3.696   3.363   0.908 -0.8232 -0.3745 -0.0944
 5681SOL    HW128502   3.676   3.413   0.987  1.2363 -0.5991  0.5690
 5681SOL    HW228503   3.739   3.431   0.858 -0.9390 -0.7073 -0.6517
 5682SOL     OW28504   0.183   4.022   6.660 -0.5039 -0.4461  0.2575
 5682SOL    HW128505   0.121   4.001   6.589 -1.2672 -0.8810  1.0522
 5682SOL    HW228506   0.123   4.019   6.735 -0.3729 -2.2470  0.3085
 5683SOL     OW28507   1.431   4.034   3.963  0.3290  0.2220  0.2648
 5683SOL    HW128508   1.428   4.035   3.867 -0.7843 -0.2599  0.3052
 5683SOL    HW228509   1.364   4.097   3.990 -1.7453 -1.5192 -0.8698
 5684SOL     OW28510   2.858   0.322  14.192  0.2142 -0.9737  0.3185
 5684SOL    HW128511   2.850   0.230  14.217  0.1233 -1.1670 -0.4354
 5684SOL    HW228512   2.825   0.325  14.102 -0.1658 -0.6204  0.4662
 5685SOL     OW28513   0.850   0.971   7.273  0.0845 -0.2678 -0.8535
 5685SOL    HW128514   0.776   0.919   7.241 -1.2172  0.8385  0.3421
 5685SOL    HW228515   0.881   0.936   7.357  0.6731 -0.5387 -1.1884
 5686SOL     OW28516   0.769   2.364  16.654 -0.0748 -0.1565 -0.1268
 5686SOL    HW128517   0.710   2.411  16.594  0.7232  0.2789 -0.5610
 5686SOL    HW228518   0.799   2.298  16.592  1.0866  1.0398 -0.8310
 5687SOL     OW28519   0.759   0.272   2.834  0.3711 -0.6408  0.1684
 5687SOL    HW128520   0.726   0.361   2.821  0.3713 -0.2000  3.2533
 5687SOL    HW228521   0.697   0.251   2.903 -2.0223  2.7737 -0.9550
 5688SOL     OW28522   3.100   0.599   3.787  0.2562  0.1269 -0.1587
 5688SOL    HW128523   3.073   0.622   3.876 -1.7330 -0.5017 -0.6025
 5688SOL    HW228524   3.136   0.685   3.765  1.3366 -0.3835 -0.4027
 5689SOL     OW28525   0.860   4.076  16.104  0.3137 -0.3813 -0.3859
 5689SOL    HW128526   0.800   4.146  16.076 -0.2215 -0.5145  0.4527
 5689SOL    HW228527   0.938   4.132  16.099  0.3438 -0.4359 -0.5311
 5690SOL     OW28528   1.233   3.693   8.788 -0.0038  0.2847  0.1948
 5690SOL    HW128529   1.199   3.615   8.745  0.4857 -0.2394  0.7433
 5690SOL    HW228530   1.277   3.654   8.864 -0.2022 -1.1961 -0.4567
 5691SOL     OW28531   0.934   1.801   4.858  0.4702  0.3512 -0.3954
 5691SOL    HW128532   0.869   1.732   4.866  0.8124  0.2200  1.1386
 5691SOL    HW228533   0.883   1.865   4.809 -0.9797 -1.1952 -0.9166
 5692SOL     OW28534   2.473   2.833   6.496  0.1514 -0.0864 -0.4406
 5692SOL    HW128535   2.456   2.745   6.461  0.6789  0.0740 -1.0931
 5692SOL    HW228536   2.564   2.832   6.525 -0.2252 -1.4066  0.7155
 5693SOL     OW28537   3.566   4.043   2.857 -0.1091  0.6270 -0.2244
 5693SOL    HW128538   3.594   4.072   2.944  2.2011  0.3261 -0.8688
 5693SOL    HW228539   3.553   4.129   2.818  0.0749  1.4246  1.4681
 5694SOL     OW28540   0.939   0.901  10.675 -0.0292 -0.0621  0.1084
 5694SOL    HW128541   0.990   0.835  10.628 -0.1204 -1.4079  1.9131
 5694SOL    HW228542   0.893   0.942  10.602 -0.4158  1.6325  1.2817
 5695SOL     OW28543   0.865   2.214   4.060 -0.5555  0.2121  0.4209
 5695SOL    HW128544   0.896   2.291   4.108  0.7824 -0.1055  0.0690
 5695SOL    HW228545   0.883   2.238   3.969 -0.3684 -2.3288 -0.2199
 5696SOL     OW28546   3.037   0.511  12.997 -0.6127 -0.2899 -0.1423
 5696SOL    HW128547   2.969   0.449  13.023  0.8518 -2.0478 -0.5257
 5696SOL    HW228548   3.016   0.507  12.904  2.9148  1.7449 -1.0481
 5697SOL     OW28549   1.093   4.129   0.793 -0.2073  0.0302  0.0703
 5697SOL    HW128550   1.017   4.164   0.746 -0.1350 -2.7206 -2.0834
 5697SOL    HW228551   1.057   4.146   0.880  0.9237 -0.8102  0.6942
 5698SOL     OW28552   3.319   1.420   0.366 -0.5971 -0.6426  0.5702
 5698SOL    HW128553   3.281   1.388   0.448 -0.8843  0.8805  1.0230
 5698SOL    HW228554   3.360   1.500   0.397 -2.1509  1.0792 -1.8358
 5699SOL     OW28555   3.157   1.911   8.412 -1.4770  0.9477 -0.3568
 5699SOL    HW128556   3.117   1.879   8.492  1.7144  1.4414  1.4485
 5699SOL    HW228557   3.083   1.910   8.351 -2.2726 -4.3895  0.7031
 5700SOL     OW28558   0.128   3.397   1.306 -0.4816  0.2916 -0.2327
 5700SOL    HW128559   0.081   3.322   1.270  0.0579 -1.7204  3.2057
 5700SOL    HW228560   0.164   3.431   1.224 -2.1069  0.9105 -0.6757
 5701SOL     OW28561   3.126   2.341  11.520 -0.7163 -0.6668  0.0013
 5701SOL    HW128562   3.201   2.399  11.536 -2.4043  0.7194  2.8700
 5701SOL    HW228563   3.153   2.267  11.575  1.5157  0.9055  1.0393
 5702SOL     OW28564   2.277   4.016  11.106 -0.2134 -0.3194 -0.1535
 5702SOL    HW128565   2.332   3.962  11.049  0.4374  0.4437 -0.2390
 5702SOL    HW228566   2.282   4.107  11.078  0.1196 -0.9328 -2.0890
 5703SOL     OW28567   0.576   0.158  13.746 -0.1452 -0.4098 -0.1932
 5703SOL    HW128568   0.536   0.093  13.688 -1.6108  0.5800 -0.2787
 5703SOL    HW228569   0.505   0.170  13.809  0.6638  0.5211  0.5345
 5704SOL     OW28570   2.695   1.952   3.623  0.1043  0.5887  0.5827
 5704SOL    HW128571   2.783   1.914   3.616 -0.2708 -0.0815 -0.5549
 5704SOL    HW228572   2.683   1.981   3.533 -0.7685 -2.2437 -0.2374
 5705SOL     OW28573   2.537   0.692   7.407  0.3342  0.0194 -0.0667
 5705SOL    HW128574   2.478   0.766   7.423 -1.0568 -1.8073  3.2694
 5705SOL    HW228575   2.561   0.711   7.316 -0.0445 -2.2862 -0.6725
 5706SOL     OW28576   3.717   3.658   0.188 -0.1155  0.2288 -0.2392
 5706SOL    HW128577   3.696   3.584   0.131 -3.1138 -0.2539  1.4680
 5706SOL    HW228578   3.719   3.724   0.119 -2.6913  1.5356  0.9477
 5707SOL     OW28579   1.402   2.453   1.695  0.4636 -0.1078  0.1238
 5707SOL    HW128580   1.352   2.535   1.705  1.4245  0.4496  0.3571
 5707SOL    HW228581   1.477   2.464   1.753 -1.4955  2.1252  2.2546
 5708SOL     OW28582   0.572   3.397   8.315  0.3517 -0.2302  0.0283
 5708SOL    HW128583   0.497   3.441   8.355  1.0130  0.9239  0.0066
 5708SOL    HW228584   0.539   3.388   8.225  0.9549 -0.1673 -0.1978
 5709SOL     OW28585   2.717   1.308   9.390 -0.2946  0.3757 -0.0779
 5709SOL    HW128586   2.624   1.301   9.366 -0.0031  0.2371 -1.1779
 5709SOL    HW228587   2.735   1.221   9.427 -1.4472  0.9492  1.8524
 5710SOL     OW28588   1.724   2.213   7.022  0.7539  0.3552  0.2337
 5710SOL    HW128589   1.658   2.272   6.988 -0.3865 -1.1588 -0.2033
 5710SOL    HW228590   1.700   2.129   6.983 -1.2989  0.5693  1.0584
 5711SOL     OW28591   2.217   2.053   2.869 -0.3054  0.4566 -0.0156
 5711SOL    HW128592   2.121   2.053   2.863 -0.2381  3.7501 -1.1558
 5711SOL    HW228593   2.228   2.095   2.954 -2.0214  0.5243  0.1797
 5712SOL     OW28594   3.661   2.501   3.546  0.7801 -0.0923 -0.4259
 5712SOL    HW128595   3.582   2.531   3.590  1.5059 -3.7261  3.3983
 5712SOL    HW228596   3.729   2.565   3.565  0.7842  0.4296 -2.1638
 5713SOL     OW28597   0.217   4.531   3.082 -0.2717 -0.1293  0.0935
 5713SOL    HW128598   0.285   4.582   3.126  1.2802 -1.1133 -1.1622
 5713SOL    HW228599   0.265   4.452   3.055  0.8178  0.8331 -0.7703
 5714SOL     OW28600   3.057   0.965   3.640  0.1700 -0.4275 -0.1935
 5714SOL    HW128601   3.055   0.914   3.559 -1.1674 -3.6209  1.8506
 5714SOL    HW228602   3.123   0.913   3.687 -2.8295 -2.3337  1.9081
 5715SOL     OW28603   3.853   3.823   1.777 -0.2079 -0.2415 -0.1574
 5715SOL    HW128604   3.803   3.779   1.846 -1.3824  1.0382 -0.1975
 5715SOL    HW228605   3.778   3.857   1.728  1.1273  1.2257 -1.1934
 5716SOL     OW28606   3.058   4.499  14.307  0.1422 -0.1570  0.3492
 5716SOL    HW128607   2.966   4.523  14.294  0.2272  0.6498  1.1962
 5716SOL    HW228608   3.082   4.481  14.217  0.7910  1.3954  0.2061
 5717SOL     OW28609   4.520   3.692  17.476  0.0695  0.0632 -0.0535
 5717SOL    HW128610   4.541   3.614  17.528  0.3692  0.5248  0.5119
 5717SOL    HW228611   4.572   3.682  17.396  0.0123  1.2179 -0.2230
 5718SOL     OW28612   4.619   2.050   1.631  0.0152  0.3288  0.3333
 5718SOL    HW128613   4.614   2.100   1.549  0.0171  0.1338  0.2134
 5718SOL    HW228614   4.660   1.978   1.583  0.6302 -0.0035  1.3713
 5719SOL     OW28615   0.940   3.566   3.309  0.5730 -0.0314  0.1897
 5719SOL    HW128616   0.999   3.640   3.327  0.0460  0.2703  0.6829
 5719SOL    HW228617   0.951   3.558   3.215  3.0670 -0.8710  0.5519
 5720SOL     OW28618   1.985   0.642   0.028 -0.2161 -0.7178  0.0598
 5720SOL    HW128619   1.903   0.593   0.024 -0.2095 -0.7695  0.5796
 5720SOL    HW228620   2.025   0.579   0.087  0.7329 -1.8438 -1.7789
 5721SOL     OW28621   0.207   4.056  17.380  0.6451  0.3237 -0.3475
 5721SOL    HW128622   0.302   4.048  17.367  0.6347 -2.0019  1.0790
 5721SOL    HW228623   0.184   3.974  17.423  0.8492  0.2829 -0.3149
 5722SOL     OW28624   0.410   3.286   7.972 -0.0996  0.1014 -0.0141
 5722SOL    HW128625   0.465   3.225   8.021 -0.6378 -1.3318 -1.1918
 5722SOL    HW228626   0.403   3.249   7.884  0.7370  2.1044 -0.9221
 5723SOL     OW28627   3.832   4.505   4.062 -0.3633 -0.1008  0.9005
 5723SOL    HW128628   3.782   4.433   4.102 -1.6742 -1.7333 -3.6524
 5723SOL    HW228629   3.914   4.494   4.111  1.5644  1.3976 -1.9992
 5724SOL     OW28630   1.090   1.959   9.063 -0.5892  0.7889  0.1485
 5724SOL    HW128631   1.089   1.988   9.154 -0.6966 -1.2988  0.8189
 5724SOL    HW228632   1.143   1.879   9.067 -0.3470  0.8804 -1.2938
 5725SOL     OW28633   3.779   2.869   1.829  0.1326  0.2801 -0.4963
 5725SOL    HW128634   3.708   2.816   1.793 -0.0940  1.2242 -1.4408
 5725SOL    HW228635   3.837   2.875   1.752  1.7900  1.3749  0.8432
 5726SOL     OW28636   2.906   4.203   5.779  0.2383 -0.1608  0.0291
 5726SOL    HW128637   2.964   4.190   5.704 -1.0235 -2.5537 -0.5519
 5726SOL    HW228638   2.948   4.148   5.845  3.1258  0.3346 -1.3865
 5727SOL     OW28639   0.470   1.525  17.083  0.1185  0.3394 -0.3834
 5727SOL    HW128640   0.447   1.470  17.009  0.6738 -1.3376  0.6999
 5727SOL    HW228641   0.565   1.521  17.100 -0.2206  0.2500  1.5524
 5728SOL     OW28642   3.959   1.574   3.099  0.2450  0.5559 -0.4473
 5728SOL    HW128643   3.986   1.631   3.027  0.5525  1.4300  0.3677
 5728SOL    HW228644   3.864   1.578   3.111  0.7476  3.1529  2.7802
 5729SOL     OW28645   3.708   0.991   2.883 -0.1182  1.2330  0.5403
 5729SOL    HW128646   3.687   0.920   2.822  0.7099  0.4914  1.1167
 5729SOL    HW228647   3.801   0.990   2.861 -0.4119  0.0535 -0.6252
 5730SOL     OW28648   1.650   2.176   7.601  0.4208  0.8333  0.0060
 5730SOL    HW128649   1.630   2.083   7.586 -0.5094  1.3439 -2.0085
 5730SOL    HW228650   1.564   2.217   7.593  0.1391 -0.1907 -2.4091
 5731SOL     OW28651   0.795   2.303  15.326  0.0140  0.6431 -0.1684
 5731SOL    HW128652   0.890   2.292  15.333 -0.5856 -1.8516  4.2772
 5731SOL    HW228653   0.770   2.329  15.415 -0.4935 -0.6954  0.0776
 5732SOL     OW28654   2.037   0.220   7.001  0.2489 -0.4769 -1.0182
 5732SOL    HW128655   1.953   0.191   7.037  1.5797 -2.2210  0.7149
 5732SOL    HW228656   2.024   0.206   6.907  4.2608 -2.0537 -1.3564
 5733SOL     OW28657   2.690   1.677  13.715  0.4848  0.0044  0.2647
 5733SOL    HW128658   2.755   1.740  13.685 -0.5863  0.4697 -1.1016
 5733SOL    HW228659   2.706   1.600  13.660 -0.1729 -0.7034  1.0580
 5734SOL     OW28660   3.894   2.609   0.436  0.0745  0.0795 -0.4267
 5734SOL    HW128661   3.943   2.529   0.418 -1.4281 -1.2977  1.5652
 5734SOL    HW228662   3.847   2.604   0.519  0.5920 -1.9443 -0.2702
 5735SOL     OW28663   1.154   2.112   1.681  0.3300 -0.7665 -0.3062
 5735SOL    HW128664   1.137   2.018   1.681  0.3169 -0.7862 -3.2815
 5735SOL    HW228665   1.207   2.123   1.602  0.3917  1.3325  0.0332
 5736SOL     OW28666   2.707   2.905  10.475  0.0730  0.2556 -0.0455
 5736SOL    HW128667   2.695   2.964  10.400  0.5136  0.7831  0.3045
 5736SOL    HW228668   2.689   2.819  10.435 -0.0726  0.8755 -1.3289
 5737SOL     OW28669   4.103   0.856  11.279 -0.0187 -0.2940 -0.1490
 5737SOL    HW128670   4.052   0.776  11.287  1.5943 -1.0775  2.4309
 5737SOL    HW228671   4.057   0.889  11.202  0.0884  1.9087  0.7270
 5738SOL     OW28672   1.366   1.424   0.369 -0.2865 -0.3962  0.1790
 5738SOL    HW128673   1.311   1.416   0.291  0.3574 -0.7828 -0.2326
 5738SOL    HW228674   1.449   1.453   0.332  0.4103 -3.1038 -0.3907
 5739SOL     OW28675   1.763   1.324  14.518  0.7369  0.3723 -0.1416
 5739SOL    HW128676   1.683   1.327  14.572  1.3470  3.6598  0.6188
 5739SOL    HW228677   1.782   1.416  14.496  3.1612 -0.2417 -0.5008
 5740SOL     OW28678   3.236   0.046   8.018 -0.4634 -0.3466  0.3622
 5740SOL    HW128679   3.267   0.125   8.062 -0.3215 -1.0150  1.4810
 5740SOL    HW228680   3.295   0.044   7.943 -0.0815  1.3671  0.6150
 5741SOL     OW28681   3.809   3.444   9.903  0.8329 -0.0208 -0.5021
 5741SOL    HW128682   3.841   3.517   9.956  2.7158 -0.9790 -0.3296
 5741SOL    HW228683   3.777   3.480   9.820  2.8214  3.7772  0.3704
 5742SOL     OW28684   1.380   0.447  15.931  0.6688  0.1796  0.0495
 5742SOL    HW128685   1.302   0.453  15.987 -1.1569  3.0080 -2.7588
 5742SOL    HW228686   1.356   0.418  15.843 -1.4960 -0.2836  0.7763
 5743SOL     OW28687   4.427   2.008   3.635 -0.2724 -0.2661  0.4728
 5743SOL    HW128688   4.350   2.027   3.581 -0.2285  0.9656  0.8328
 5743SOL    HW228689   4.471   2.088   3.607 -0.5755  0.0955  1.0289
 5744SOL     OW28690   3.976   2.562   3.645 -0.0405 -0.4503  0.1199
 5744SOL    HW128691   4.026   2.637   3.678  0.0743 -0.6133  0.3189
 5744SOL    HW228692   3.980   2.571   3.550  1.0552 -1.5990  0.0668
 5745SOL     OW28693   1.956   2.033   5.093 -0.2235 -0.0499  0.5444
 5745SOL    HW128694   1.936   2.079   5.012 -0.4729  1.2510  1.3498
 5745SOL    HW228695   1.887   1.966   5.102 -1.4910  0.9967 -1.3676
 5746SOL     OW28696   2.771   1.959   1.295  0.4359 -0.2408  0.0796
 5746SOL    HW128697   2.728   2.042   1.272  1.7846 -0.1048 -1.9565
 5746SOL    HW228698   2.805   1.999   1.375 -0.4128  1.2647 -0.3132
 5747SOL     OW28699   1.702   2.659   6.007  0.3536 -0.1110  0.4475
 5747SOL    HW128700   1.729   2.750   5.998 -0.9012  0.1128 -1.0162
 5747SOL    HW228701   1.713   2.617   5.922  2.5429 -0.0497  0.7016
 5748SOL     OW28702   2.492   4.374   8.414  0.2364 -0.0277 -0.5910
 5748SOL    HW128703   2.484   4.348   8.322  0.6001  0.4561 -0.7569
 5748SOL    HW228704   2.428   4.445   8.416  1.8068  1.4204 -2.2335
 5749SOL     OW28705   1.168   0.652  10.908 -0.0281 -0.0467 -0.5760
 5749SOL    HW128706   1.222   0.617  10.838 -1.0302 -2.4808 -0.1335
 5749SOL    HW228707   1.082   0.666  10.868  0.4042 -0.2745 -1.5619
 5750SOL     OW28708   1.517   0.921   6.952 -0.3873  0.6548 -0.3534
 5750SOL    HW128709   1.594   0.882   6.994 -0.7400  1.4853  1.0345
 5750SOL    HW228710   1.553   0.985   6.891 -0.5546  0.0771 -1.0611
 5751SOL     OW28711   3.989   0.608  11.167  0.6866 -0.5634  0.0871
 5751SOL    HW128712   4.017   0.530  11.216 -1.8171 -0.9209  0.9382
 5751SOL    HW228713   4.007   0.585  11.076  1.0441 -0.6727  0.1867
 5752SOL     OW28714   2.252   4.327   7.372  0.1140  0.0688  0.4663
 5752SOL    HW128715   2.251   4.407   7.319  0.1728 -1.8062 -2.3695
 5752SOL    HW228716   2.171   4.340   7.423 -1.0160 -1.1701 -1.0212
 5753SOL     OW28717   2.185   0.520   2.082  0.8206  0.4416 -0.0691
 5753SOL    HW128718   2.112   0.578   2.104  1.4020  0.5403  1.6052
 5753SOL    HW228719   2.244   0.551   2.152 -0.4341  1.7868  0.3820
 5754SOL     OW28720   1.446   1.615  15.980 -0.1444  0.0100 -0.2913
 5754SOL    HW128721   1.532   1.656  15.970  1.3277 -2.8503  0.5485
 5754SOL    HW228722   1.398   1.679  16.032 -2.6146 -1.0874 -1.2026
 5755SOL     OW28723   1.224   3.526  16.573  0.0899 -0.0516 -0.4401
 5755SOL    HW128724   1.129   3.521  16.581  0.2036 -0.5571  0.4999
 5755SOL    HW228725   1.239   3.489  16.660 -2.2244  1.7577  0.7097
 5756SOL     OW28726   1.978   1.216  11.511  0.2798 -0.1386 -0.2268
 5756SOL    HW128727   2.037   1.180  11.445  0.1231 -0.1364 -0.3657
 5756SOL    HW228728   2.037   1.276  11.557 -0.6326  1.5002 -1.2189
 5757SOL     OW28729   1.677   3.548   7.837 -0.0595 -0.3505  0.4627
 5757SOL    HW128730   1.689   3.460   7.873  2.1012  0.5452  1.9136
 5757SOL    HW228731   1.712   3.601   7.909  0.0336  0.9232 -0.5166
 5758SOL     OW28732   3.891   1.570   6.403  0.1842 -0.3597  0.0852
 5758SOL    HW128733   3.858   1.522   6.327  0.4840  0.5246 -0.6042
 5758SOL    HW228734   3.982   1.545   6.419  0.3649 -1.4228 -2.5745
 5759SOL     OW28735   2.500   4.078   3.199 -0.5999  0.1481 -0.0298
 5759SOL    HW128736   2.427   4.017   3.211 -0.2414 -0.0186  1.2594
 5759SOL    HW228737   2.534   4.044   3.116 -0.6599 -0.9327  0.3922
 5760SOL     OW28738   3.527   0.289  12.935 -0.1101 -0.3511 -0.4622
 5760SOL    HW128739   3.502   0.205  12.974 -0.0616 -0.3217 -0.3672
 5760SOL    HW228740   3.621   0.282  12.917 -0.1888 -0.9634 -0.6526
 5761SOL     OW28741   0.633   2.272  15.105  0.1635  0.3171  0.3720
 5761SOL    HW128742   0.696   2.273  15.176  0.4068  0.3816  0.1553
 5761SOL    HW228743   0.627   2.366  15.087 -0.7652  0.1777 -0.0461
 5762SOL     OW28744   1.313   0.384  15.653  0.2321  0.3602  0.6346
 5762SOL    HW128745   1.338   0.466  15.611  0.0178 -0.1538 -0.5035
 5762SOL    HW228746   1.349   0.328  15.584 -1.3387  1.6436 -1.2486
 5763SOL     OW28747   4.604   4.152   2.345 -0.6724  0.2910 -0.2976
 5763SOL    HW128748   4.509   4.154   2.351 -0.6936 -2.0275  0.0438
 5763SOL    HW228749   4.623   4.155   2.439  3.6176 -0.2788 -1.1166
 5764SOL     OW28750   1.784   1.239   8.359  1.0358 -0.2222  0.1293
 5764SOL    HW128751   1.834   1.181   8.302  0.8047  0.7340 -1.0326
 5764SOL    HW228752   1.735   1.172   8.408 -2.3771  2.9173  1.0195
 5765SOL     OW28753   2.712   2.225   3.488 -0.1255  0.6073  0.1808
 5765SOL    HW128754   2.772   2.300   3.486  0.1355  0.4028  0.3510
 5765SOL    HW228755   2.756   2.159   3.542  1.8458  0.9556 -1.0046
 5766SOL     OW28756   3.972   1.010   2.492 -0.2587 -0.4648  0.0578
 5766SOL    HW128757   4.024   0.994   2.414 -0.1852  1.8110 -0.3660
 5766SOL    HW228758   3.888   1.020   2.448  0.5479 -0.4824 -1.4592
 5767SOL     OW28759   3.361   4.607   8.848 -0.3600 -0.1484 -0.2052
 5767SOL    HW128760   3.313   4.548   8.906  0.2767 -0.5576 -0.0938
 5767SOL    HW228761   3.372   4.684   8.905  0.2847 -1.0576  0.8926
 5768SOL     OW28762   4.704   1.624   7.245  0.2930  0.1221 -0.1264
 5768SOL    HW128763   4.686   1.640   7.337 -1.3980 -0.3268 -0.3824
 5768SOL    HW228764   0.049   1.557   7.254 -0.3983 -0.8971 -2.3197
 5769SOL     OW28765   1.478   3.795   6.457 -0.4029 -0.5383 -0.2785
 5769SOL    HW128766   1.454   3.849   6.532 -2.6519 -0.7647 -0.8348
 5769SOL    HW228767   1.393   3.779   6.415 -0.4129 -2.6382  0.5400
 5770SOL     OW28768   2.503   2.254   8.424 -0.2367  0.2987  0.2645
 5770SOL    HW128769   2.537   2.219   8.506 -2.1513 -0.3939  0.7766
 5770SOL    HW228770   2.495   2.344   8.455 -0.3754  0.3839 -0.0149
 5771SOL     OW28771   0.480   1.315   9.314 -0.0394 -0.2599  0.2252
 5771SOL    HW128772   0.387   1.336   9.311 -0.1837 -0.7587  1.2775
 5771SOL    HW228773   0.519   1.395   9.279  2.3545 -0.5894  2.1529
 5772SOL     OW28774   1.422   0.326   0.160  0.7727 -0.0781  0.3654
 5772SOL    HW128775   1.410   0.358   0.250  1.9303 -1.0734  0.8713
 5772SOL    HW228776   1.383   0.402   0.116 -0.8427 -1.0334  0.1474
 5773SOL     OW28777   0.727   2.390  15.566  0.4535  0.4886 -0.3264
 5773SOL    HW128778   0.702   2.351  15.650 -4.0327  1.3897 -1.2194
 5773SOL    HW228779   0.752   2.479  15.591  0.8519  0.6846 -1.4241
 5774SOL     OW28780   4.266   1.711   4.122  0.0319 -0.1338 -0.5414
 5774SOL    HW128781   4.312   1.644   4.071 -1.0211 -0.7078 -0.7389
 5774SOL    HW228782   4.330   1.782   4.128  0.1443 -0.1497 -1.5098
 5775SOL     OW28783   4.619   2.478   8.674  0.1334  0.0654  0.1882
 5775SOL    HW128784   4.604   2.399   8.622 -1.1697  0.3904  0.0646
 5775SOL    HW228785   4.551   2.466   8.741 -1.6497  0.5896 -1.5425
 5776SOL     OW28786   4.480   3.842   7.554  0.3365  0.1213 -0.9998
 5776SOL    HW128787   4.526   3.771   7.599 -0.3665 -1.0160 -2.0751
 5776SOL    HW228788   4.475   3.896   7.633 -0.5166 -1.1171 -0.1978
 5777SOL     OW28789   1.483   2.866   3.783 -0.2183  0.8900  0.4023
 5777SOL    HW128790   1.426   2.918   3.726 -0.9758 -2.0044 -1.4882
 5777SOL    HW228791   1.432   2.785   3.785 -1.9767  1.9762 -0.5886
 5778SOL     OW28792   0.151   1.621   1.007  0.1020  0.0514 -1.0432
 5778SOL    HW128793   0.089   1.675   1.056  0.6214  1.4846 -1.9666
 5778SOL    HW228794   0.236   1.655   1.034  0.2503  0.3158 -1.8628
 5779SOL     OW28795   3.330   4.529   2.205  0.2904 -0.2677  0.0029
 5779SOL    HW128796   3.378   4.463   2.255  0.7142 -0.7372 -1.0395
 5779SOL    HW228797   3.288   4.471   2.141  0.7663 -0.6555  0.0443
 5780SOL     OW28798   3.528   4.122   0.605  0.0894  0.1563 -0.2666
 5780SOL    HW128799   3.552   4.039   0.646 -2.7853 -0.0294  1.0381
 5780SOL    HW228800   3.468   4.158   0.670 -1.3904 -1.0185 -0.9884
 5781SOL     OW28801   0.428   4.038   8.847 -0.2019 -0.3430 -0.3322
 5781SOL    HW128802   0.458   4.002   8.931  1.6772 -0.5800 -1.1037
 5781SOL    HW228803   0.490   4.112   8.847  2.3655 -2.4827  2.1179
 5782SOL     OW28804   2.687   4.466  14.800 -0.0012  0.5634 -0.0301
 5782SOL    HW128805   2.598   4.487  14.773 -0.3965 -0.9567  0.0622
 5782SOL    HW228806   2.682   4.499  14.890 -2.4474  0.3885 -0.1077
 5783SOL     OW28807   2.233   1.591   5.809 -0.3713 -0.4121  0.2189
 5783SOL    HW128808   2.230   1.603   5.904  0.3466 -1.2735  0.3462
 5783SOL    HW228809   2.170   1.521   5.796 -0.2820 -0.3329 -0.6170
 5784SOL     OW28810   0.675   2.495   9.220  0.0737 -0.0788 -0.5919
 5784SOL    HW128811   0.711   2.408   9.202  1.6462  1.0022 -2.7243
 5784SOL    HW228812   0.603   2.500   9.158 -1.2848  1.5933  1.1488
 5785SOL     OW28813   1.271   3.808   1.967 -0.7574 -0.5687 -0.1041
 5785SOL    HW128814   1.312   3.789   1.882  1.1844  1.4161  0.3589
 5785SOL    HW228815   1.233   3.723   1.988 -3.9155  1.0021  0.5673
 5786SOL     OW28816   2.655   2.628   4.809 -0.1456  0.3539 -0.1085
 5786SOL    HW128817   2.648   2.720   4.834 -1.3356  0.8054 -2.1215
 5786SOL    HW228818   2.647   2.583   4.893  3.6261 -0.7497 -0.3822
 5787SOL     OW28819   0.005   2.170   7.466 -0.6028  0.2233 -0.8034
 5787SOL    HW128820   4.704   2.090   7.418  0.9949 -0.6687 -0.0941
 5787SOL    HW228821   0.059   2.211   7.398  0.0477 -2.4787 -1.9110
 5788SOL     OW28822   3.791   0.505   6.138  0.1131  0.1710 -0.1710
 5788SOL    HW128823   3.749   0.433   6.186  0.5332  0.3062  0.3967
 5788SOL    HW228824   3.743   0.583   6.165 -1.0608 -1.2578  1.8830
 5789SOL     OW28825   0.032   0.791   8.085  0.1806  0.2006  0.5542
 5789SOL    HW128826   0.060   0.775   7.994 -1.4810 -1.1930  0.2815
 5789SOL    HW228827   4.664   0.820   8.076  0.8357  2.0110 -0.3828
 5790SOL     OW28828   1.566   1.314   6.352  0.4733 -0.2545  0.0380
 5790SOL    HW128829   1.478   1.308   6.390  1.1412  1.1860  1.7993
 5790SOL    HW228830   1.556   1.380   6.284 -0.6589 -1.5177 -1.0401
 5791SOL     OW28831   3.518   0.602  11.282  0.8106  0.2995  0.2355
 5791SOL    HW128832   3.598   0.558  11.309  1.3800  0.9030 -0.4849
 5791SOL    HW228833   3.545   0.688  11.312 -0.8601  0.6465  0.7352
 5792SOL     OW28834   2.385   0.525   5.372  0.0903  0.3138  0.6233
 5792SOL    HW128835   2.387   0.495   5.463 -1.2415  0.0499  0.5558
 5792SOL    HW228836   2.347   0.443   5.343  1.1133 -0.4170  1.3279
 5793SOL     OW28837   3.838   2.599   7.818 -0.7998 -0.1931 -0.2369
 5793SOL    HW128838   3.811   2.526   7.763 -0.9627  0.2842 -0.7879
 5793SOL    HW228839   3.925   2.570   7.847 -0.3282  1.4099 -0.0431
 5794SOL     OW28840   3.809   1.873   5.764 -0.1065  0.2873  0.4999
 5794SOL    HW128841   3.832   1.880   5.672  0.5282  4.2777  0.9488
 5794SOL    HW228842   3.735   1.933   5.768  0.1016  0.5164  1.0615
 5795SOL     OW28843   2.628   1.450   6.536  0.3261  0.1256  0.3082
 5795SOL    HW128844   2.565   1.521   6.548  0.7174  0.9697 -2.6635
 5795SOL    HW228845   2.660   1.465   6.447  0.1425 -2.4857 -0.2101
 5796SOL     OW28846   1.951   1.865  17.652  0.0596 -0.2479  0.4436
 5796SOL    HW128847   1.882   1.930  17.639  1.4024  0.4495 -3.2504
 5796SOL    HW228848   2.006   1.909   0.024 -0.3142 -0.8218  1.1549
 5797SOL     OW28849   1.613   0.797   4.296 -0.1435  0.4664 -0.1749
 5797SOL    HW128850   1.677   0.826   4.360 -1.0552  1.3390  0.3463
 5797SOL    HW228851   1.667   0.745   4.237 -0.4323 -0.6272  0.5017
 5798SOL     OW28852   4.695   3.726   3.130 -0.1334  0.0093 -0.1362
 5798SOL    HW128853   4.717   3.811   3.169  1.7736 -0.6756  0.2725
 5798SOL    HW228854   4.640   3.697   3.203  0.2755 -1.4456 -0.4129
 5799SOL     OW28855   1.403   1.795   6.385  0.0799  0.1070  0.1210
 5799SOL    HW128856   1.387   1.889   6.387  2.4961  0.5073  0.4474
 5799SOL    HW228857   1.343   1.761   6.319  0.0800 -2.5592  1.4878
 5800SOL     OW28858   2.154   1.933   8.844  0.2089 -0.5777  0.3177
 5800SOL    HW128859   2.218   1.978   8.788  0.0230  0.0959  0.6527
 5800SOL    HW228860   2.076   1.930   8.789  0.6401 -1.0998 -0.2700
 5801SOL     OW28861   3.644   0.210   3.923  0.9478 -0.2708  0.0356
 5801SOL    HW128862   3.666   0.126   3.885 -0.6532 -0.3269 -0.7745
 5801SOL    HW228863   3.698   0.201   4.001 -0.6453  0.4665  1.2274
 5802SOL     OW28864   3.453   0.179   8.892  0.1034  0.5493 -0.5805
 5802SOL    HW128865   3.430   0.262   8.935  0.4097  1.3202 -1.8959
 5802SOL    HW228866   3.504   0.129   8.955 -1.2419 -0.1252 -0.0213
 5803SOL     OW28867   0.851   1.629   0.344 -0.1714  0.4972 -0.3100
 5803SOL    HW128868   0.922   1.691   0.360  0.7995 -0.7451  0.1564
 5803SOL    HW228869   0.776   1.688   0.352 -0.8737 -0.5685  0.7954
 5804SOL     OW28870   0.261   0.367  12.734 -0.2814 -0.1413 -0.0557
 5804SOL    HW128871   0.348   0.331  12.753 -0.7831 -2.5538 -2.2579
 5804SOL    HW228872   0.210   0.302  12.783  0.8152 -1.8183 -1.1449
 5805SOL     OW28873   3.231   3.883  11.066  0.1681 -0.3665  0.1102
 5805SOL    HW128874   3.305   3.849  11.015  2.2516 -0.2980  3.1349
 5805SOL    HW228875   3.189   3.800  11.086 -1.3111  0.5574  0.7968
 5806SOL     OW28876   0.926   4.273   4.901  0.6212  0.1964 -0.4421
 5806SOL    HW128877   0.984   4.326   4.956  1.1109 -1.2726  0.4653
 5806SOL    HW228878   0.852   4.263   4.961  0.9326 -1.3563 -0.3076
 5807SOL     OW28879   1.984   2.952   8.966 -0.1643  0.0114 -0.1024
 5807SOL    HW128880   2.007   2.860   8.956 -1.2765 -0.4192  1.3433
 5807SOL    HW228881   2.035   2.977   9.043  1.5563 -2.8852 -0.2855
 5808SOL     OW28882   1.278   4.601   3.246  0.1952 -0.0588  0.3895
 5808SOL    HW128883   1.220   4.670   3.279 -0.4031  0.5885 -1.9996
 5808SOL    HW228884   1.242   4.536   3.307  1.1372 -0.0930  0.9098
 5809SOL     OW28885   4.346   2.177   4.829 -0.5064 -0.3374  0.1310
 5809SOL    HW128886   4.265   2.136   4.799 -0.5645 -0.7381  0.8424
 5809SOL    HW228887   4.418   2.130   4.787 -0.0809  0.8928 -0.5155
 5810SOL     OW28888   1.426   4.487   2.532 -0.4175 -0.4990 -0.3365
 5810SOL    HW128889   1.414   4.415   2.595  1.2690 -0.5131 -0.0379
 5810SOL    HW228890   1.406   4.441   2.450 -2.5814 -0.0588 -0.0406
 5811SOL     OW28891   2.684   0.941   5.639  0.2556 -0.6244  0.2334
 5811SOL    HW128892   2.605   0.927   5.691 -0.3601  4.3561  0.5744
 5811SOL    HW228893   2.640   0.978   5.562 -1.9310 -2.4185  0.6188
 5812SOL     OW28894   0.255   1.415   8.492  0.4989 -0.4260 -0.2710
 5812SOL    HW128895   0.213   1.388   8.410  1.0414 -0.5577 -0.5006
 5812SOL    HW228896   0.242   1.510   8.485 -0.9474 -0.6436 -0.5344
 5813SOL     OW28897   1.088   0.491   3.099  0.0299  0.2416 -0.0335
 5813SOL    HW128898   1.022   0.533   3.043 -0.0845  0.3454  0.1771
 5813SOL    HW228899   1.174   0.528   3.078 -1.0846  2.5290 -0.5988
 5814SOL     OW28900   3.752   1.353   7.648  0.4527  0.1770  0.1841
 5814SOL    HW128901   3.692   1.427   7.654 -0.2877 -0.4278  0.2471
 5814SOL    HW228902   3.838   1.393   7.661  0.8915 -0.1316 -1.8632
 5815SOL     OW28903   4.400   2.865   7.256  0.0328  0.0128 -0.4977
 5815SOL    HW128904   4.419   2.772   7.256 -1.0236 -0.2044 -1.0220
 5815SOL    HW228905   4.491   2.893   7.266 -0.2202  0.8434 -0.4922
 5816SOL     OW28906   3.815   4.149   1.208  0.8103 -0.3844 -0.2226
 5816SOL    HW128907   3.898   4.169   1.252  1.7804 -1.7555 -1.3898
 5816SOL    HW228908   3.830   4.054   1.209  0.6277 -0.4437 -2.7796
 5817SOL     OW28909   4.174   2.060   0.352 -0.0166  0.5280 -0.4816
 5817SOL    HW128910   4.211   2.121   0.415  2.8774 -2.2962  0.5580
 5817SOL    HW228911   4.229   2.083   0.277 -1.4713  0.2832 -1.6322
 5818SOL     OW28912   3.547   4.206   4.720  0.5619 -0.0429  0.5651
 5818SOL    HW128913   3.459   4.233   4.746  1.2926  1.7002  1.2756
 5818SOL    HW228914   3.545   4.128   4.775 -0.8807 -0.6737 -0.3921
 5819SOL     OW28915   3.168   3.310  17.573 -0.5502  0.5032 -0.0727
 5819SOL    HW128916   3.165   3.290  17.667 -0.5664 -0.0391 -0.1841
 5819SOL    HW228917   3.137   3.399  17.558  0.1358  0.6889 -0.3729
 5820SOL     OW28918   0.321   3.912   8.450 -0.2473 -0.0095 -0.2092
 5820SOL    HW128919   0.360   3.830   8.420  1.7199  0.8682 -0.0335
 5820SOL    HW228920   0.376   3.934   8.525 -0.9206  1.5036 -0.1661
 5821SOL     OW28921   0.593   2.899   7.533 -0.1477  0.0383 -0.9310
 5821SOL    HW128922   0.599   2.819   7.480 -1.8012 -1.7561  1.5558
 5821SOL    HW228923   0.499   2.906   7.548  0.1209 -1.6935  1.4664
 5822SOL     OW28924   2.083   0.052   5.700  0.1168  0.0962 -0.3587
 5822SOL    HW128925   2.066   0.016   5.788  1.9524  0.2593  0.0629
 5822SOL    HW228926   2.162   0.101   5.723 -1.0888  1.9307 -0.0870
 5823SOL     OW28927   4.631   2.150   8.199 -0.1932 -0.4189  0.1448
 5823SOL    HW128928   4.626   2.216   8.268  0.4782  1.0652 -1.2380
 5823SOL    HW228929   4.720   2.136   8.167 -0.6036  2.3398 -2.1620
 5824SOL     OW28930   3.073   1.373   5.864  0.0873 -0.2467  0.3626
 5824SOL    HW128931   3.155   1.344   5.904 -0.3900 -1.9420  0.1327
 5824SOL    HW228932   3.115   1.437   5.807 -0.7954  1.9953  2.2499
 5825SOL     OW28933   0.127   3.603  16.536  0.0268 -0.0478 -0.3789
 5825SOL    HW128934   0.109   3.510  16.529  2.5874 -0.4592 -1.6171
 5825SOL    HW228935   0.105   3.617  16.628 -1.0301 -3.0658 -0.1851
 5826SOL     OW28936   2.177   2.399   9.536  0.1470 -0.0399  0.2312
 5826SOL    HW128937   2.144   2.337   9.600 -1.2467 -1.7758 -2.2048
 5826SOL    HW228938   2.123   2.372   9.462  0.4115  0.3104 -0.0917
 5827SOL     OW28939   2.573   0.972  14.502  0.5687  0.1416  0.2163
 5827SOL    HW128940   2.639   1.041  14.490  0.9099 -0.0794  0.8122
 5827SOL    HW228941   2.534   1.004  14.584  0.5170  2.6754 -0.7799
 5828SOL     OW28942   3.359   0.013   2.817  0.7730  0.2143 -0.1570
 5828SOL    HW128943   3.312   4.673   2.871 -0.1497 -0.1149 -1.3387
 5828SOL    HW228944   3.452   4.723   2.834  0.5163 -2.4158 -0.8086
 5829SOL     OW28945   2.004   1.436   5.723  0.3834 -0.5428  0.4120
 5829SOL    HW128946   2.054   1.374   5.669 -0.0106 -0.2333 -0.3037
 5829SOL    HW228947   1.976   1.493   5.652  0.1153 -0.7669  0.3381
 5830SOL     OW28948   3.525   3.910   3.888 -0.2556  0.3161 -0.0135
 5830SOL    HW128949   3.527   3.836   3.949  0.1098  0.7654  0.5247
 5830SOL    HW228950   3.594   3.966   3.922 -1.0192  0.2180  1.7226
 5831SOL     OW28951   0.698   3.254   2.344 -0.2317 -0.0101  0.0776
 5831SOL    HW128952   0.655   3.335   2.370 -1.0215 -1.0893  2.1225
 5831SOL    HW228953   0.672   3.252   2.252  0.1162 -1.2340 -0.0042
 5832SOL     OW28954   2.673   3.767   4.008  0.1366 -0.1042  0.4772
 5832SOL    HW128955   2.701   3.810   3.927  2.2727 -0.0895  1.2098
 5832SOL    HW228956   2.585   3.804   4.010  0.2803  0.2525  0.2031
 5833SOL     OW28957   3.566   4.316   5.420  0.2866  0.1954  0.0352
 5833SOL    HW128958   3.552   4.341   5.328  0.0436 -0.4562 -0.1081
 5833SOL    HW228959   3.660   4.330   5.418  0.5415 -1.4008  0.7237
 5834SOL     OW28960   2.268   4.346   1.273 -0.0971  0.5271 -0.1897
 5834SOL    HW128961   2.326   4.414   1.307 -1.0739  0.8849  0.7676
 5834SOL    HW228962   2.210   4.341   1.349  1.8208 -0.1723  1.2202
 5835SOL     OW28963   1.380   3.669  16.014 -0.8160 -0.4131  0.2753
 5835SOL    HW128964   1.434   3.745  16.038  0.6998 -0.2782 -3.4946
 5835SOL    HW228965   1.314   3.692  15.948 -0.8168 -1.2826 -0.0281
 5836SOL     OW28966   4.025   4.362   4.223 -0.4096 -0.0246 -0.0319
 5836SOL    HW128967   4.002   4.288   4.279  1.3025  1.1258  2.1690
 5836SOL    HW228968   4.090   4.320   4.166 -0.8573  0.0809 -0.6302
 5837SOL     OW28969   0.412   3.645   3.603 -0.1923  0.0002 -0.1754
 5837SOL    HW128970   0.497   3.669   3.567 -1.0069  1.2579 -1.2531
 5837SOL    HW228971   0.425   3.551   3.616  0.4496  0.1039 -0.0855
 5838SOL     OW28972   4.215   3.431  11.416  0.0315  0.0035 -0.0841
 5838SOL    HW128973   4.244   3.518  11.388  0.0755 -0.0484 -0.2030
 5838SOL    HW228974   4.133   3.428  11.366  0.4514  0.2062 -0.7909
 5839SOL     OW28975   1.198   1.100   9.027 -0.0071 -0.2275  0.4622
 5839SOL    HW128976   1.192   1.086   8.932  2.3827 -1.8795  0.5517
 5839SOL    HW228977   1.251   1.179   9.025 -2.3112  1.3068 -0.0857
 5840SOL     OW28978   4.703   4.071   1.906 -0.0853  0.2933 -0.0619
 5840SOL    HW128979   4.685   4.022   1.986 -0.0557 -2.8540 -1.9823
 5840SOL    HW228980   0.027   4.144   1.947  0.7068 -1.0014  1.3398
 5841SOL     OW28981   0.267   1.276   3.439  0.2892  0.3049 -0.0289
 5841SOL    HW128982   0.330   1.325   3.386  0.7166  0.1376  0.3195
 5841SOL    HW228983   0.185   1.285   3.390  0.8599 -1.1314 -1.2550
 5842SOL     OW28984   4.370   4.328   4.094  0.5224 -0.1292 -0.1497
 5842SOL    HW128985   4.420   4.247   4.091  0.3010 -0.2961  0.5772
 5842SOL    HW228986   4.373   4.342   4.189 -1.8108  0.7248 -0.2078
 5843SOL     OW28987   4.536   3.567   7.317  0.5265  0.3813 -0.1101
 5843SOL    HW128988   4.562   3.497   7.376 -0.2010 -1.4264 -1.9106
 5843SOL    HW228989   4.562   3.523   7.236  0.9115  3.0511 -1.4509
 5844SOL     OW28990   4.265   1.873  14.336 -0.1625 -0.6653  0.7925
 5844SOL    HW128991   4.327   1.836  14.274 -0.4610 -1.8743  1.2309
 5844SOL    HW228992   4.330   1.925  14.384  0.5079 -0.9124  0.1444
 5845SOL     OW28993   1.874   4.370   5.850 -0.3511 -0.0972 -0.1765
 5845SOL    HW128994   1.962   4.338   5.868  0.8969  1.9694 -2.6242
 5845SOL    HW228995   1.874   4.395   5.757  2.5198 -0.2254 -0.1832
 5846SOL     OW28996   3.237   3.038  12.625  0.3400  0.3202  0.6080
 5846SOL    HW128997   3.236   3.133  12.625  0.2854  0.3061 -2.5331
 5846SOL    HW228998   3.313   3.017  12.571 -0.5077 -0.3803 -0.3145
 5847SOL     OW28999   3.715   0.635   4.903  0.1817 -0.1759  0.6400
 5847SOL    HW129000   3.758   0.720   4.911 -1.0211  0.5029 -0.1898
 5847SOL    HW229001   3.746   0.588   4.981  1.8588  0.5639  0.4267
 5848SOL     OW29002   0.868   1.841   6.864 -0.4412  0.0313 -0.1998
 5848SOL    HW129003   0.840   1.761   6.819 -0.1739 -0.0946 -0.1433
 5848SOL    HW229004   0.779   1.874   6.869 -0.8220 -1.0537  0.2748
 5849SOL     OW29005   4.474   4.688   1.509  0.4502 -0.1838 -0.5734
 5849SOL    HW129006   4.503   4.670   1.599 -1.5729  0.7872  0.2505
 5849SOL    HW229007   4.419   4.611   1.494 -0.9884  0.3868  1.7785
 5850SOL     OW29008   3.359   4.624   0.801  0.3626 -0.2640  0.4835
 5850SOL    HW129009   3.324   4.674   0.728  2.1342 -0.6786 -0.6470
 5850SOL    HW229010   3.453   4.635   0.785 -0.0708 -0.8083 -2.3374
 5851SOL     OW29011   3.690   3.976   0.976 -0.7906  0.2162  0.2390
 5851SOL    HW129012   3.663   3.940   1.061 -0.4725  1.4316  0.8516
 5851SOL    HW229013   3.784   3.972   0.993 -1.2732 -1.6619  2.5376
 5852SOL     OW29014   0.036   1.680   2.788 -0.1494  0.1378  0.5492
 5852SOL    HW129015   4.683   1.723   2.749 -0.1357 -2.0991 -1.9458
 5852SOL    HW229016   0.077   1.635   2.714 -0.1708 -1.6583  1.6309
 5853SOL     OW29017   1.888   4.124   7.434  0.0143 -0.3071  0.0508
 5853SOL    HW129018   1.936   4.144   7.514  3.4083 -0.1210 -2.0064
 5853SOL    HW229019   1.956   4.118   7.366 -0.7938 -4.3131 -0.4227
 5854SOL     OW29020   0.564   1.973  14.606  0.0791 -0.1752  0.0392
 5854SOL    HW129021   0.586   2.029  14.681  0.2186 -0.0820 -0.0713
 5854SOL    HW229022   0.520   1.906  14.658  1.3466 -1.8630 -1.0437
 5855SOL     OW29023   1.792   0.086   6.778  0.2170  0.0596  0.6637
 5855SOL    HW129024   1.703   0.076   6.746  1.3132 -0.1987 -2.2970
 5855SOL    HW229025   1.820   0.159   6.723  0.2596  0.0586  0.6840
 5856SOL     OW29026   3.614   3.396  11.402  0.2049  0.8082 -0.0997
 5856SOL    HW129027   3.649   3.468  11.453  1.4491  0.4320 -0.4221
 5856SOL    HW229028   3.537   3.433  11.359  0.8868  0.8920 -1.2621
 5857SOL     OW29029   0.222   2.276   8.257  0.1669  0.3243 -0.1801
 5857SOL    HW129030   0.258   2.273   8.346  0.1863  0.0192 -0.1983
 5857SOL    HW229031   0.193   2.185   8.248 -2.0049  1.0197 -0.3210
 5858SOL     OW29032   0.403   3.354  12.619 -0.0114 -0.1218  0.2052
 5858SOL    HW129033   0.315   3.343  12.582 -0.1282 -3.3083  1.4840
 5858SOL    HW229034   0.404   3.449  12.632 -1.9234 -0.0332 -0.2393
 5859SOL     OW29035   0.207   1.164   6.705 -0.0779 -0.0221 -0.2461
 5859SOL    HW129036   0.126   1.130   6.667 -0.7574  1.1473  0.1710
 5859SOL    HW229037   0.250   1.201   6.628  2.2077  1.2677  1.6461
 5860SOL     OW29038   2.073   4.143   4.461  0.1523 -0.2375 -0.3418
 5860SOL    HW129039   2.076   4.130   4.366 -0.6027  0.6754 -0.4847
 5860SOL    HW229040   2.049   4.056   4.493  0.5948  0.2972  1.4438
 5861SOL     OW29041   2.821   1.326   5.979  0.2235  0.9093 -0.0162
 5861SOL    HW129042   2.790   1.251   5.929 -0.8381  0.1951  1.7166
 5861SOL    HW229043   2.906   1.339   5.937  0.3083  0.5668  0.0490
 5862SOL     OW29044   3.363   3.302   2.767  0.5783 -0.6434  0.4512
 5862SOL    HW129045   3.364   3.397   2.752 -1.0778 -0.5553  0.8477
 5862SOL    HW229046   3.338   3.296   2.859 -0.3544 -1.2774  0.1605
 5863SOL     OW29047   0.556   1.809   3.384  0.4025 -0.2071  0.0789
 5863SOL    HW129048   0.565   1.732   3.439 -1.1690  1.3794  2.5670
 5863SOL    HW229049   0.572   1.872   3.454 -1.1722  1.7301 -1.2645
 5864SOL     OW29050   2.946   3.753   2.362 -0.1663 -0.2767  0.0584
 5864SOL    HW129051   2.998   3.819   2.409  0.2029 -0.3890 -0.1897
 5864SOL    HW229052   2.863   3.747   2.408 -0.2273  2.3756  0.3057
 5865SOL     OW29053   4.449   2.110  14.210 -0.2898 -0.6637  0.1833
 5865SOL    HW129054   4.431   2.152  14.127  1.2207 -0.6456 -0.1414
 5865SOL    HW229055   4.432   2.018  14.186  1.8603 -0.4639 -2.1213
 5866SOL     OW29056   0.429   4.265   9.104 -0.3631 -0.3693 -0.0439
 5866SOL    HW129057   0.496   4.274   9.036  0.2514 -0.0461  0.6044
 5866SOL    HW229058   0.352   4.262   9.046  0.0125 -0.9034 -0.5189
 5867SOL     OW29059   0.957   4.447   9.534 -0.8069 -0.4491 -0.3713
 5867SOL    HW129060   0.874   4.492   9.524  0.3900  1.4789 -1.5517
 5867SOL    HW229061   0.998   4.483   9.455  0.7718 -1.7849 -0.1644
 5868SOL     OW29062   0.313   4.690  14.866  0.1758  0.1789 -0.3360
 5868SOL    HW129063   0.316   0.000  14.955 -0.8989 -1.4724  0.3167
 5868SOL    HW229064   0.382   0.020  14.827  1.8128 -1.5160  0.2816
 5869SOL     OW29065   4.680   2.358  14.832  0.1121  0.0078 -0.0033
 5869SOL    HW129066   0.040   2.363  14.783  0.2391  2.2951  0.4495
 5869SOL    HW229067   4.611   2.358  14.765 -0.1292  1.2548  0.2458
 5870SOL     OW29068   4.488   4.642   1.105  0.0082 -0.2792  0.6006
 5870SOL    HW129069   4.567   4.608   1.147 -0.7943 -0.4698  1.9648
 5870SOL    HW229070   4.481   0.009   1.137  1.2057  0.2628 -0.6924
 5871SOL     OW29071   3.215   1.600   6.610 -0.0033 -0.3656  0.0312
 5871SOL    HW129072   3.120   1.605   6.623 -0.0541 -0.9143 -0.1602
 5871SOL    HW229073   3.235   1.537   6.679  1.4821 -0.7660 -0.7695
 5872SOL     OW29074   4.497   0.009   0.830  0.8053 -0.1268  0.7033
 5872SOL    HW129075   4.519   0.054   0.911  1.2733  2.8765 -1.0744
 5872SOL    HW229076   4.512   4.639   0.851  0.5446 -0.6014 -1.2096
 5873SOL     OW29077   1.747   3.532   6.262 -0.4412  0.4375  0.1877
 5873SOL    HW129078   1.712   3.452   6.223 -0.7034  0.3550  0.5956
 5873SOL    HW229079   1.796   3.571   6.191  2.6722 -3.4560  0.1717
 5874SOL     OW29080   0.299   2.602   7.677 -0.0276  0.2469 -0.3838
 5874SOL    HW129081   0.260   2.662   7.741  1.8693  1.7697 -0.6434
 5874SOL    HW229082   0.362   2.665   7.640 -0.0414  0.5651  0.1277
 5875SOL     OW29083   4.383   4.179   6.442  0.8538  0.0645 -0.1532
 5875SOL    HW129084   4.467   4.184   6.396  0.6571 -0.1450 -0.5397
 5875SOL    HW229085   4.350   4.093   6.415 -1.2758  0.8633 -0.1271
 5876SOL     OW29086   0.464   3.635   4.304  0.1147  0.3538 -0.2188
 5876SOL    HW129087   0.464   3.713   4.360 -0.9133 -1.1949  1.9333
 5876SOL    HW229088   0.392   3.587   4.345 -0.3999 -0.8554 -2.5365
 5877SOL     OW29089   0.233   2.714   5.124  0.6727  0.4822  0.0562
 5877SOL    HW129090   0.323   2.743   5.134  0.1883  1.9302  0.1439
 5877SOL    HW229091   0.178   2.731   5.201  1.3050 -0.3186  0.6850
 5878SOL     OW29092   0.792   0.976   9.680  0.5432 -0.6666  0.0289
 5878SOL    HW129093   0.772   0.895   9.726  0.3590 -1.4773 -1.4693
 5878SOL    HW229094   0.886   0.973   9.660  0.3854 -3.5892 -0.1974
 5879SOL     OW29095   0.781   1.306   6.800  0.3200 -0.0727  0.5525
 5879SOL    HW129096   0.876   1.311   6.815  0.0875  2.2614  1.2367
 5879SOL    HW229097   0.767   1.276   6.890 -2.0869 -2.8188 -0.7282
 5880SOL     OW29098   3.667   4.589   0.822 -0.0729 -0.6210 -0.3180
 5880SOL    HW129099   3.654   4.496   0.841 -4.0349 -0.1013 -0.3639
 5880SOL    HW229100   3.670   4.588   0.726 -1.8711  1.6042 -0.3945
 5881SOL     OW29101   0.493   4.653  17.608 -0.2730 -0.8585  0.0953
 5881SOL    HW129102   0.459   4.651   0.005  2.2503 -0.9649  1.0499
 5881SOL    HW229103   0.569   4.595  17.609 -0.5312 -1.2154 -0.4922
 5882SOL     OW29104   3.043   1.486  11.081 -0.0219 -0.7795  0.3451
 5882SOL    HW129105   3.102   1.530  11.021 -0.8917 -1.3746 -0.9462
 5882SOL    HW229106   3.079   1.398  11.088  1.2606 -0.0807  2.3444
 5883SOL     OW29107   0.458   1.820   8.744 -0.0644 -0.0401 -0.2644
 5883SOL    HW129108   0.401   1.855   8.813 -1.2274 -0.5211 -0.9896
 5883SOL    HW229109   0.408   1.743   8.716  1.6434 -0.6272 -1.7073
 5884SOL     OW29110   4.368   4.596   5.776 -0.0326  0.4255 -0.1889
 5884SOL    HW129111   4.341   4.661   5.711  0.9436 -0.2785 -1.3112
 5884SOL    HW229112   4.348   4.635   5.861  2.1470 -0.1965  0.6025
 5885SOL     OW29113   2.895   1.001  10.528 -0.1814  0.4211  0.0298
 5885SOL    HW129114   2.875   1.031  10.616 -1.9274  0.2216 -0.2851
 5885SOL    HW229115   2.974   1.048  10.503 -1.8651  2.4177 -1.6252
 5886SOL     OW29116   1.370   3.484   3.593  0.2084 -0.2461 -0.7407
 5886SOL    HW129117   1.399   3.438   3.514  3.0271  0.1440  0.0707
 5886SOL    HW229118   1.418   3.436   3.660  0.8889 -1.5746 -2.1853
 5887SOL     OW29119   1.353   4.212   2.069 -0.1556  0.0555 -0.2186
 5887SOL    HW129120   1.431   4.255   2.104  1.0973 -2.2025 -0.2007
 5887SOL    HW229121   1.360   4.129   2.117  1.0255  0.8315  0.9470
 5888SOL     OW29122   2.071   1.008   2.830 -0.1147 -0.0361  0.5678
 5888SOL    HW129123   2.093   1.062   2.754 -3.1323  0.0902 -0.2275
 5888SOL    HW229124   2.070   1.081   2.892 -0.9104  0.3584  0.0948
 5889SOL     OW29125   3.735   2.088   7.243  0.1042  0.4276  0.0258
 5889SOL    HW129126   3.674   2.071   7.315  1.8006 -0.5717  1.2346
 5889SOL    HW229127   3.730   2.008   7.191  1.2449  0.4689 -0.1610
 5890SOL     OW29128   1.113   3.941   5.820  0.6940  0.1754 -0.2561
 5890SOL    HW129129   1.058   3.994   5.763  1.3164 -0.6504 -1.6085
 5890SOL    HW229130   1.054   3.909   5.888  0.3329  0.1061 -0.6044
 5891SOL     OW29131   3.483   1.697   4.951 -0.0002  0.7215 -0.5315
 5891SOL    HW129132   3.499   1.720   4.859  0.1115  2.1053 -0.1570
 5891SOL    HW229133   3.571   1.664   4.972  0.2517  2.7435  1.5072
 5892SOL     OW29134   4.380   0.548   4.903 -0.4669 -0.1817 -0.7092
 5892SOL    HW129135   4.446   0.569   4.968 -1.6628 -0.5074  0.6205
 5892SOL    HW229136   4.427   0.584   4.827 -1.4833  0.2445 -1.1426
 5893SOL     OW29137   2.133   4.097   7.268  0.1232  0.6965  0.8791
 5893SOL    HW129138   2.171   4.180   7.295  0.9065  1.2243 -1.9042
 5893SOL    HW229139   2.102   4.121   7.181 -2.4192  0.2745  1.6535
 5894SOL     OW29140   2.291   2.815   4.356  0.7680 -0.8771  0.2549
 5894SOL    HW129141   2.300   2.723   4.332  1.5448 -1.1654  1.6274
 5894SOL    HW229142   2.214   2.838   4.305 -0.1873  1.1636  2.6310
 5895SOL     OW29143   4.347   1.413  17.114  0.5804 -0.0607  0.3715
 5895SOL    HW129144   4.309   1.328  17.089  1.8916 -0.5203 -0.0363
 5895SOL    HW229145   4.293   1.447  17.185  0.8409  0.5099  0.2931
 5896SOL     OW29146   3.236   0.868   9.364  0.0003  0.5158  0.6709
 5896SOL    HW129147   3.215   0.804   9.432  1.2065  0.7201  1.2332
 5896SOL    HW229148   3.253   0.945   9.418  0.1262  0.8836  0.1060
 5897SOL     OW29149   1.050   3.170   4.502 -0.3856 -0.3274  0.5561
 5897SOL    HW129150   1.141   3.140   4.514 -0.4407 -0.8920 -0.4217
 5897SOL    HW229151   1.002   3.087   4.497  0.7267 -0.9435 -0.0533
 5898SOL     OW29152   4.336   4.432  16.739 -0.1256 -0.2832 -0.2998
 5898SOL    HW129153   4.261   4.488  16.721 -0.7860 -0.5268  1.7160
 5898SOL    HW229154   4.313   4.369  16.807 -1.3957  2.0132  1.3662
 5899SOL     OW29155   1.074   3.555  14.045 -0.1390 -0.1609 -0.1721
 5899SOL    HW129156   1.043   3.573  14.134  1.9606  0.9848  0.3228
 5899SOL    HW229157   1.137   3.626  14.034 -1.0322  0.6267 -0.2478
 5900SOL     OW29158   0.816   0.342   3.155  0.3069  0.1904  0.1204
 5900SOL    HW129159   0.734   0.385   3.133  0.4130  2.1907  3.6143
 5900SOL    HW229160   0.868   0.370   3.080 -0.9957 -1.3044 -1.3488
 5901SOL     OW29161   2.055   1.577   9.179 -0.0735  0.4361 -0.5821
 5901SOL    HW129162   1.960   1.580   9.184  0.0797  2.9183  0.5876
 5901SOL    HW229163   2.066   1.622   9.095  1.0630  0.1129 -0.6130
 5902SOL     OW29164   0.121   0.615   7.151 -0.6369  0.0784  0.0636
 5902SOL    HW129165   0.068   0.547   7.109 -1.3090  0.7811 -0.2383
 5902SOL    HW229166   0.137   0.671   7.075  0.1729 -0.1268  0.0890
 5903SOL     OW29167   0.758   2.396   6.482  0.0967  0.0104 -0.2191
 5903SOL    HW129168   0.701   2.347   6.423  0.4032 -1.4883  0.7228
 5903SOL    HW229169   0.741   2.350   6.565 -2.2839  0.6241 -0.3572
 5904SOL     OW29170   1.572   2.169   1.777  0.0903  0.2205 -0.5153
 5904SOL    HW129171   1.596   2.085   1.817 -3.3494 -0.0344  0.9222
 5904SOL    HW229172   1.655   2.216   1.783 -0.2003  0.5472  0.7534
 5905SOL     OW29173   4.632   0.729   6.919  0.5492 -0.9891 -0.0091
 5905SOL    HW129174   4.671   0.816   6.931 -1.7243  0.3545 -2.3908
 5905SOL    HW229175   4.567   0.734   6.990  0.1524  0.4962 -0.4617
 5906SOL     OW29176   0.354   2.125  14.999  0.2364  0.3693 -0.2394
 5906SOL    HW129177   0.265   2.138  14.967  0.6659  2.0584 -0.7066
 5906SOL    HW229178   0.369   2.191  15.067  0.9222  1.4842 -1.4814
 5907SOL     OW29179   4.441   1.028   4.579  0.3489 -0.1388 -0.2381
 5907SOL    HW129180   4.364   1.066   4.537  0.3842 -0.0330 -0.2054
 5907SOL    HW229181   4.494   1.012   4.501  0.5822  1.5759 -0.4294
 5908SOL     OW29182   0.358   1.622  17.311 -0.8244  0.1300  0.4899
 5908SOL    HW129183   0.335   1.712  17.288 -1.1476 -0.2544 -0.7098
 5908SOL    HW229184   0.400   1.590  17.231 -2.4149 -2.1491  0.5797
 5909SOL     OW29185   1.434   3.262  12.966  0.6667  0.0360 -0.1217
 5909SOL    HW129186   1.411   3.189  12.909  1.8675 -1.2841  1.1043
 5909SOL    HW229187   1.509   3.221  13.009 -0.4121  1.2075  2.8688
 5910SOL     OW29188   2.254   1.387   1.338 -0.1562 -0.2211  0.0877
 5910SOL    HW129189   2.336   1.393   1.388  1.5718 -0.0635 -2.8041
 5910SOL    HW229190   2.215   1.303   1.362 -1.6323  0.2375 -0.7088
 5911SOL     OW29191   2.390   4.378   9.303  0.4277 -0.2313 -0.2716
 5911SOL    HW129192   2.319   4.388   9.366 -0.7782 -0.9616 -1.5136
 5911SOL    HW229193   2.459   4.332   9.351  2.6170  1.4428 -1.7924
 5912SOL     OW29194   2.268   4.222   9.117  0.2529  0.5978 -0.4124
 5912SOL    HW129195   2.315   4.291   9.164  0.1447  1.0007 -0.8928
 5912SOL    HW229196   2.200   4.191   9.176  1.1030 -2.2188 -0.9007
 5913SOL     OW29197   1.762   1.220   4.404  0.2029 -0.8704  0.2806
 5913SOL    HW129198   1.810   1.154   4.354  1.6702  0.9399 -0.7164
 5913SOL    HW229199   1.675   1.181   4.392 -0.2008 -0.0513  0.5684
 5914SOL     OW29200   4.540   0.055   9.995 -0.3409 -0.1267 -0.4859
 5914SOL    HW129201   4.612   0.008   9.953  0.6635  0.1984  0.8947
 5914SOL    HW229202   4.479   4.708  10.021 -1.2442  0.0037 -2.1934
 5915SOL     OW29203   0.733   3.336   3.640 -0.1706 -0.2236 -0.0414
 5915SOL    HW129204   0.799   3.286   3.593 -0.7606 -0.9250 -0.1437
 5915SOL    HW229205   0.706   3.396   3.571 -1.1382 -0.6312 -0.0310
 5916SOL     OW29206   3.733   2.194  12.858 -0.4387 -0.4495  0.2099
 5916SOL    HW129207   3.753   2.198  12.764  0.0221  1.0404  0.3702
 5916SOL    HW229208   3.739   2.101  12.879 -2.7184 -0.8758 -1.0513
 5917SOL     OW29209   3.238   2.915  12.892 -0.5873  0.2710  0.0506
 5917SOL    HW129210   3.220   2.982  12.826  2.3028  0.0877 -0.9404
 5917SOL    HW229211   3.152   2.932  12.932  0.0905  2.2057  0.7115
 5918SOL     OW29212   1.869   2.648  14.301 -0.1505  0.0523  0.0397
 5918SOL    HW129213   1.852   2.720  14.361 -3.5777 -0.4783 -0.2977
 5918SOL    HW229214   1.825   2.688  14.227 -0.3952  1.0816  0.7440
 5919SOL     OW29215   4.441   1.563   6.766  0.1347  0.5427 -0.0021
 5919SOL    HW129216   4.490   1.579   6.846 -1.3227 -2.6286  1.5305
 5919SOL    HW229217   4.474   1.478   6.737 -0.5883  0.0888  0.4864
 5920SOL     OW29218   4.490   0.187   1.190 -0.2120 -0.3632 -0.3874
 5920SOL    HW129219   4.423   0.196   1.257  1.3672 -0.4293  1.2250
 5920SOL    HW229220   4.492   0.278   1.162 -0.9077 -0.4160 -0.6033
 5921SOL     OW29221   3.054   3.316   6.857  0.3498  0.4205  0.2816
 5921SOL    HW129222   2.986   3.307   6.925 -0.3035  0.4728 -0.3682
 5921SOL    HW229223   3.061   3.411   6.859  1.0166  0.3403  1.6876
 5922SOL     OW29224   1.311   1.425   3.768 -0.5480 -0.4175  0.2018
 5922SOL    HW129225   1.352   1.432   3.682 -2.3706  0.8057 -0.5739
 5922SOL    HW229226   1.218   1.405   3.759 -0.2422 -1.6696 -0.2142
 5923SOL     OW29227   3.086   2.034   7.508 -0.2603 -0.8503  0.0998
 5923SOL    HW129228   3.099   2.019   7.414 -0.6052  0.4121 -0.1525
 5923SOL    HW229229   3.031   2.113   7.507  0.4980 -0.3114  0.5786
 5924SOL     OW29230   0.394   0.204   2.675  0.2886 -0.0758  0.1191
 5924SOL    HW129231   0.395   0.146   2.598  3.7523 -0.6874  0.6557
 5924SOL    HW229232   0.301   0.222   2.692  0.5084 -0.1419  1.3535
 5925SOL     OW29233   3.270   2.416  12.131 -0.2120  0.0468 -0.0213
 5925SOL    HW129234   3.238   2.336  12.088 -1.4405  0.5741 -0.0832
 5925SOL    HW229235   3.230   2.415  12.218 -1.8724  0.6955 -0.7803
 5926SOL     OW29236   3.277   1.723   9.833  0.1033 -0.0269  0.5249
 5926SOL    HW129237   3.294   1.758   9.921 -1.6844  1.8688  0.1094
 5926SOL    HW229238   3.241   1.803   9.796 -0.0012 -0.6340 -0.6713
 5927SOL     OW29239   4.691   4.588   2.916 -0.4347  0.2149  0.8740
 5927SOL    HW129240   0.017   4.530   2.974 -0.9752 -0.4146  0.6865
 5927SOL    HW229241   4.702   4.670   2.965 -0.1397  0.4056  0.4904
 5928SOL     OW29242   4.264   2.673   4.950 -0.1611  0.2011 -0.0135
 5928SOL    HW129243   4.282   2.616   4.875 -1.8869  0.5123 -0.6881
 5928SOL    HW229244   4.239   2.604   5.011  0.7124 -1.9013 -2.0127
 5929SOL     OW29245   3.730   0.150   6.536  0.3819 -1.0333  0.0606
 5929SOL    HW129246   3.745   0.065   6.494 -1.2756 -0.6383 -1.3250
 5929SOL    HW229247   3.805   0.151   6.595  2.0452  3.3405 -2.1246
 5930SOL     OW29248   2.307   4.031  11.820 -0.1072 -0.0653 -0.0062
 5930SOL    HW129249   2.266   4.006  11.737 -0.0334 -0.1438 -0.0190
 5930SOL    HW229250   2.268   3.960  11.870 -0.3709 -1.0771 -1.6612
 5931SOL     OW29251   2.492   2.034   5.204  0.8720 -0.2971  0.0654
 5931SOL    HW129252   2.546   1.966   5.164 -0.4844 -1.0531 -0.4843
 5931SOL    HW229253   2.526   2.110   5.157  0.6189  0.8179  1.7005
 5932SOL     OW29254   3.560   1.233   6.923  0.2264  0.0090  0.2155
 5932SOL    HW129255   3.553   1.146   6.883  1.8009 -0.4967  1.0601
 5932SOL    HW229256   3.607   1.280   6.855  0.3416  0.2109  0.4329
 5933SOL     OW29257   2.795   1.047   1.792 -0.6049 -0.1619 -0.4699
 5933SOL    HW129258   2.794   1.142   1.801  0.8933 -0.1615 -0.4207
 5933SOL    HW229259   2.876   1.035   1.841 -2.1555  0.9666  2.4254
 5934SOL     OW29260   2.281   3.888   3.683 -0.4605  0.1089 -0.1278
 5934SOL    HW129261   2.255   3.820   3.622 -0.0564 -0.2596  0.1180
 5934SOL    HW229262   2.223   3.865   3.756 -0.9617  3.7771  0.6520
 5935SOL     OW29263   0.233   1.493  14.739 -0.2562  0.0801  0.3514
 5935SOL    HW129264   0.284   1.517  14.816  1.8000 -0.9812 -0.6873
 5935SOL    HW229265   0.226   1.398  14.751 -0.9865 -0.0752 -1.2197
 5936SOL     OW29266   1.996   1.215   1.224  0.3577 -0.6681 -0.5987
 5936SOL    HW129267   1.906   1.213   1.192  0.6841  1.8058 -1.6925
 5936SOL    HW229268   2.005   1.308   1.246  0.4678 -0.6945 -0.5293
 5937SOL     OW29269   0.006   1.292   2.679  0.3831 -0.5780  0.5660
 5937SOL    HW129270   0.022   1.197   2.679 -1.2469 -0.8706 -0.2359
 5937SOL    HW229271   4.635   1.292   2.657  1.0214  1.0450 -2.1881
 5938SOL     OW29272   1.288   2.633   2.076 -0.4472 -0.6638  0.5194
 5938SOL    HW129273   1.271   2.549   2.118  2.0093 -1.5692 -0.3037
 5938SOL    HW229274   1.233   2.685   2.134 -1.3814 -1.2519  0.1656
 5939SOL     OW29275   0.740   3.852  16.019  0.3606 -0.4171  0.3012
 5939SOL    HW129276   0.731   3.881  15.928 -0.0685  2.8153  1.3607
 5939SOL    HW229277   0.798   3.916  16.061  0.8965 -0.8685  0.2442
 5940SOL     OW29278   1.306   2.420   9.383  0.0491 -0.9504 -0.3200
 5940SOL    HW129279   1.214   2.446   9.391  0.5896 -0.2241  3.4487
 5940SOL    HW229280   1.340   2.420   9.472  0.4970 -2.5021 -0.4885
 5941SOL     OW29281   2.010   0.172   9.679  0.0901  0.9414  0.0358
 5941SOL    HW129282   2.064   0.241   9.641  1.1213  0.8799  1.4199
 5941SOL    HW229283   1.929   0.218   9.701  0.1913  0.5611  1.1843
 5942SOL     OW29284   1.904   3.470   7.013 -0.3320  0.1112  0.2700
 5942SOL    HW129285   1.935   3.402   7.073 -0.7128 -0.7518 -0.5182
 5942SOL    HW229286   1.917   3.423   6.931 -1.0536 -0.2977  0.3953
 5943SOL     OW29287   4.605   3.168   1.962  0.1208  0.3677  0.2708
 5943SOL    HW129288   4.569   3.250   1.928  0.0124 -0.7551 -2.3410
 5943SOL    HW229289   4.586   3.173   2.055 -0.2817  0.1716  0.2003
 5944SOL     OW29290   1.404   4.248   7.495 -0.5376  0.0399 -0.0329
 5944SOL    HW129291   1.383   4.163   7.455 -0.5346  0.9305 -1.9378
 5944SOL    HW229292   1.487   4.236   7.541 -0.1449  1.3262 -0.4052
 5945SOL     OW29293   1.931   3.510   6.481 -0.4431  0.1358  0.2359
 5945SOL    HW129294   1.951   3.604   6.478  0.4316 -0.0849 -1.0917
 5945SOL    HW229295   1.860   3.519   6.417  0.6413 -1.1680 -1.1400
 5946SOL     OW29296   4.246   2.707   8.242 -0.2237  1.3752  0.0055
 5946SOL    HW129297   4.333   2.710   8.202 -0.4703 -0.5673 -0.7183
 5946SOL    HW229298   4.255   2.629   8.298  1.1328  2.7731  1.7330
 5947SOL     OW29299   1.794   2.132   7.928  0.2980  0.0258  0.0361
 5947SOL    HW129300   1.856   2.158   7.996  0.6849  0.0131 -0.3180
 5947SOL    HW229301   1.836   2.184   7.860 -4.6883  0.6040 -2.6630
 5948SOL     OW29302   3.366   2.005   3.133 -0.0135  0.1342 -0.1992
 5948SOL    HW129303   3.384   2.099   3.136 -1.8362  0.4765 -0.1574
 5948SOL    HW229304   3.298   2.009   3.066  0.5198  1.4254 -0.6468
 5949SOL     OW29305   3.909   2.594   2.073  0.1975 -0.1552 -0.1262
 5949SOL    HW129306   3.935   2.502   2.078  1.6136  0.2381 -0.1236
 5949SOL    HW229307   3.988   2.632   2.033  0.1194 -1.4757 -1.5587
 5950SOL     OW29308   0.159   0.277   4.090  0.0485 -0.6439  0.2833
 5950SOL    HW129309   0.188   0.334   4.018 -0.3680 -1.2525 -0.3585
 5950SOL    HW229310   0.239   0.289   4.141  0.1383  2.9361 -0.6690
 5951SOL     OW29311   1.038   3.979   7.895  0.3840 -0.2725  0.4218
 5951SOL    HW129312   1.097   3.976   7.970  0.8599 -0.2354  0.0484
 5951SOL    HW229313   1.003   3.890   7.900 -1.0185  0.4371  3.3434
 5952SOL     OW29314   1.905   2.518  12.717  0.4892 -0.7073 -0.4920
 5952SOL    HW129315   1.955   2.588  12.758  0.2041  0.6747 -2.4973
 5952SOL    HW229316   1.903   2.552  12.627 -0.1847 -1.6903 -0.8512
 5953SOL     OW29317   4.135   0.707   4.243 -0.0663 -0.2706 -0.3477
 5953SOL    HW129318   4.172   0.648   4.177 -0.5095 -1.9836  0.9254
 5953SOL    HW229319   4.040   0.697   4.244 -0.0280 -0.7289 -1.1940
 5954SOL     OW29320   3.966   3.223   7.801 -0.0842  0.3306 -0.0008
 5954SOL    HW129321   4.059   3.247   7.808 -0.1957  0.4308  1.2903
 5954SOL    HW229322   3.943   3.249   7.890 -0.1363 -0.5356  0.2452
 5955SOL     OW29323   2.708   1.323   3.252  0.6736 -0.8921  0.1047
 5955SOL    HW129324   2.797   1.352   3.234  0.1249  0.2646 -0.7028
 5955SOL    HW229325   2.675   1.304   3.164  0.6276 -1.9714  0.3468
 5956SOL     OW29326   2.367   2.305  10.503 -0.0621  0.2200  0.1949
 5956SOL    HW129327   2.343   2.368  10.436 -0.1641 -1.4954 -1.3637
 5956SOL    HW229328   2.346   2.222  10.461  1.1079 -0.5676  1.1503
 5957SOL     OW29329   0.147   1.524   7.636 -0.1613  0.0791 -0.5628
 5957SOL    HW129330   0.056   1.512   7.610 -0.7977  2.1310  0.6582
 5957SOL    HW229331   0.158   1.455   7.701  3.0852  0.8107 -0.3238
 5958SOL     OW29332   4.721   2.268  13.042  0.3209 -0.2233 -0.0325
 5958SOL    HW129333   4.679   2.204  13.099 -1.1525 -3.0014 -4.2913
 5958SOL    HW229334   0.066   2.295  13.105  0.2114  1.5666 -0.6633
 5959SOL     OW29335   1.019   3.809   4.365 -0.1403 -0.3042  0.2878
 5959SOL    HW129336   1.066   3.851   4.292 -0.9772  2.3160  1.2797
 5959SOL    HW229337   1.054   3.720   4.355 -1.7053 -0.6029 -2.6480
 5960SOL     OW29338   0.697   3.974   1.405 -0.1905  0.2848 -0.4508
 5960SOL    HW129339   0.660   3.952   1.491 -0.8397 -1.2273 -1.1391
 5960SOL    HW229340   0.618   3.957   1.355  0.3717 -0.8131 -0.9710
 5961SOL     OW29341   3.106   1.435   2.738 -0.2548  0.8026 -0.3727
 5961SOL    HW129342   3.195   1.399   2.741 -1.1742 -1.2907  1.3639
 5961SOL    HW229343   3.122   1.516   2.785 -1.7171 -1.1722  3.5652
 5962SOL     OW29344   4.286   2.129   1.724  0.2283 -0.7746  0.5213
 5962SOL    HW129345   4.309   2.212   1.682 -1.1926 -1.4750 -1.6029
 5962SOL    HW229346   4.357   2.121   1.788  0.2179 -1.8201  0.4061
 5963SOL     OW29347   0.890   2.729   1.990 -0.3569  0.3451  0.0418
 5963SOL    HW129348   0.956   2.748   2.057  2.4487 -1.1056 -2.3504
 5963SOL    HW229349   0.934   2.653   1.953  1.4077  2.1034 -1.4748
 5964SOL     OW29350   1.990   3.085   4.904  0.0643 -0.3748  0.3131
 5964SOL    HW129351   2.061   3.078   4.968  0.0304 -0.2604  0.3633
 5964SOL    HW229352   2.021   3.024   4.837 -2.0924  1.0531 -1.9883
 5965SOL     OW29353   3.629   3.287   7.117 -0.3674  0.2353 -0.3141
 5965SOL    HW129354   3.622   3.273   7.211 -0.1250 -2.6152 -0.7344
 5965SOL    HW229355   3.570   3.362   7.104 -1.1222 -0.4043 -0.5731
 5966SOL     OW29356   4.214   3.963   7.080 -0.1227 -0.0710  0.8649
 5966SOL    HW129357   4.267   4.041   7.067  0.9211 -0.5227  2.4569
 5966SOL    HW229358   4.227   3.959   7.174  0.6607  1.1594  0.8005
 5967SOL     OW29359   1.422   2.182   8.580 -0.4085  0.2674  0.3497
 5967SOL    HW129360   1.357   2.153   8.515 -1.0028  0.5245  0.8301
 5967SOL    HW229361   1.458   2.251   8.524 -1.0663 -0.2320 -0.6915
 5968SOL     OW29362   2.577   3.258   2.943 -0.1453  0.3160 -0.3285
 5968SOL    HW129363   2.501   3.270   2.999  0.8148 -1.5715  1.3490
 5968SOL    HW229364   2.606   3.350   2.944 -1.1767  0.6606 -1.5385
 5969SOL     OW29365   1.405   2.156   2.290  0.1541  0.0802  0.2906
 5969SOL    HW129366   1.400   2.238   2.339  0.4719  1.1184 -1.4080
 5969SOL    HW229367   1.399   2.176   2.197  0.0582 -2.3765 -0.2368
 5970SOL     OW29368   4.081   1.521   7.975 -0.7634 -0.2184  0.7170
 5970SOL    HW129369   4.001   1.481   8.009 -0.6039  0.7135  2.1842
 5970SOL    HW229370   4.103   1.576   8.050  1.4211  1.9247 -1.5101
 5971SOL     OW29371   1.662   0.495  12.233  0.7052 -0.5409  0.6369
 5971SOL    HW129372   1.609   0.418  12.212 -1.1839  0.9375 -0.1153
 5971SOL    HW229373   1.644   0.556  12.162 -0.4193 -1.5641  0.0390
 5972SOL     OW29374   3.849   4.203  15.129  0.0223 -0.2436 -0.4145
 5972SOL    HW129375   3.839   4.251  15.048 -1.3043 -0.9227 -0.6427
 5972SOL    HW229376   3.763   4.209  15.170  0.8542 -0.5345  1.4199
 5973SOL     OW29377   1.015   2.607   2.682  0.7116  0.1181 -0.0750
 5973SOL    HW129378   0.983   2.567   2.763  3.4297  0.7744  1.3092
 5973SOL    HW229379   0.941   2.655   2.644  0.7778  0.5786  0.3984
 5974SOL     OW29380   3.915   2.930   7.394  0.0256  0.9661 -0.2270
 5974SOL    HW129381   3.859   2.863   7.434  0.7818  0.9601  0.8288
 5974SOL    HW229382   3.998   2.888   7.419 -0.6533 -0.2546 -0.0574
 5975SOL     OW29383   1.136   1.996   4.225 -0.3131 -0.0257 -0.4988
 5975SOL    HW129384   1.135   1.936   4.300 -0.6852 -1.0636 -1.3383
 5975SOL    HW229385   1.231   2.008   4.213 -0.0018 -0.7902  1.1547
 5976SOL     OW29386   4.182   3.812  16.576 -0.4490  0.3615  0.7957
 5976SOL    HW129387   4.108   3.823  16.517  0.5666 -2.5162 -1.0608
 5976SOL    HW229388   4.204   3.903  16.592 -2.7209  0.9493  0.5618
 5977SOL     OW29389   0.246   2.093  12.968 -0.0583  0.1435 -0.3482
 5977SOL    HW129390   0.258   2.157  13.039  0.7607 -0.4606  0.0455
 5977SOL    HW229391   0.183   2.139  12.912 -0.4011  1.5073  1.1618
 5978SOL     OW29392   0.080   4.660   5.235  0.3831  0.2284  0.5519
 5978SOL    HW129393   0.026   4.645   5.157 -1.1609  3.8561  0.9338
 5978SOL    HW229394   0.087   4.569   5.262 -0.4452 -0.4472 -1.4892
 5979SOL     OW29395   3.825   3.082   5.813 -0.0318  0.0098  0.4992
 5979SOL    HW129396   3.870   3.143   5.753 -1.3092 -0.1770 -0.6409
 5979SOL    HW229397   3.876   3.109   5.890 -0.8704  2.8479  0.0753
 5980SOL     OW29398   1.679   1.847   5.205  0.2647 -0.6742 -0.3984
 5980SOL    HW129399   1.625   1.913   5.248 -0.7886 -0.5688 -1.9012
 5980SOL    HW229400   1.679   1.772   5.265  0.3645  0.1129  0.5768
 5981SOL     OW29401   3.061   3.547   4.711 -0.9457  0.3069 -0.0489
 5981SOL    HW129402   3.017   3.535   4.627 -1.4339 -1.3580  0.4338
 5981SOL    HW229403   3.071   3.642   4.718 -0.2014  0.3123 -1.2299
 5982SOL     OW29404   0.633   2.432   4.703 -0.1498  0.3144 -0.5653
 5982SOL    HW129405   0.683   2.374   4.761  0.1246 -0.1760 -1.2897
 5982SOL    HW229406   0.564   2.369   4.681 -0.4449  0.8877 -1.2857
 5983SOL     OW29407   0.214   1.512   0.221  0.3171 -0.0660  0.5001
 5983SOL    HW129408   0.156   1.519   0.296 -0.2934 -0.1841  0.0402
 5983SOL    HW229409   0.139   1.486   0.168  0.4243 -1.0116  0.8040
 5984SOL     OW29410   2.405   1.638   3.784  0.0187 -0.6700  0.0373
 5984SOL    HW129411   2.321   1.651   3.829  0.5321 -2.0534  1.4187
 5984SOL    HW229412   2.442   1.569   3.839 -0.1793  0.1912  1.2477
 5985SOL     OW29413   2.293   1.340   2.847 -0.4488 -0.0632 -0.4175
 5985SOL    HW129414   2.235   1.274   2.885  1.0256 -1.4822 -0.6336
 5985SOL    HW229415   2.224   1.395   2.810 -1.4641 -0.2617  1.1542
 5986SOL     OW29416   4.595   1.942   2.386 -0.0495 -0.5736  0.1206
 5986SOL    HW129417   4.648   1.965   2.309 -1.9900  0.5549 -0.9101
 5986SOL    HW229418   4.663   1.891   2.429  0.7087  2.0715  2.0690
 5987SOL     OW29419   2.225   3.617   3.262 -0.9677  0.0478  0.5366
 5987SOL    HW129420   2.163   3.567   3.209 -1.0180  0.1635  0.4860
 5987SOL    HW229421   2.225   3.571   3.346  1.2113  0.3083  0.6904
 5988SOL     OW29422   4.045   1.497   1.693 -0.0503 -0.1262  0.1970
 5988SOL    HW129423   4.079   1.440   1.762 -2.5632 -2.4397 -0.5073
 5988SOL    HW229424   4.121   1.554   1.679 -1.2969  1.1829 -1.3273
 5989SOL     OW29425   0.954   2.402   7.523  0.2034 -0.6975 -0.0912
 5989SOL    HW129426   0.977   2.421   7.432  0.6159  0.2313  0.2028
 5989SOL    HW229427   0.961   2.307   7.522 -1.6898 -0.8741  4.3693
 5990SOL     OW29428   3.460   1.670   0.023  0.1174 -0.2473 -0.0786
 5990SOL    HW129429   3.487   1.739   0.083 -1.4686  1.1313 -0.9674
 5990SOL    HW229430   3.537   1.666  17.658  0.3879 -1.1013  0.3434
 5991SOL     OW29431   1.039   1.860   5.705  0.2385 -0.1455 -0.0373
 5991SOL    HW129432   1.009   1.797   5.771 -1.7106  0.6218 -0.1971
 5991SOL    HW229433   1.029   1.808   5.625 -0.1862 -0.1726  0.0379
 5992SOL     OW29434   0.034   3.920  14.912 -0.1000 -0.5122 -0.1132
 5992SOL    HW129435   0.118   3.952  14.946  0.7737 -1.6661 -1.1681
 5992SOL    HW229436   0.044   3.920  14.817 -0.9519 -1.4018 -0.2046
 5993SOL     OW29437   1.647   3.627  16.286  0.0886 -0.2456 -0.5594
 5993SOL    HW129438   1.647   3.662  16.197  1.3313 -1.8496 -1.1875
 5993SOL    HW229439   1.605   3.542  16.273  1.8946 -1.3023  0.5442
 5994SOL     OW29440   0.088   3.008   3.893  0.4533 -0.3961 -0.5368
 5994SOL    HW129441   0.105   2.915   3.880 -0.4091 -0.4407 -1.3121
 5994SOL    HW229442   0.174   3.047   3.906  0.8870 -1.5967  0.1498
 5995SOL     OW29443   3.260   1.477   3.714 -0.2584 -0.3575 -0.2936
 5995SOL    HW129444   3.202   1.518   3.650 -1.5045 -0.8756  0.4929
 5995SOL    HW229445   3.205   1.448   3.787 -0.3166 -0.1258 -0.2446
 5996SOL     OW29446   4.205   2.350   2.239  0.3703  0.0679  0.4138
 5996SOL    HW129447   4.204   2.287   2.311  1.0824 -1.2163 -0.6939
 5996SOL    HW229448   4.299   2.359   2.224  0.5064  0.0903  1.3050
 5997SOL     OW29449   1.160   3.336   8.183  0.3169 -0.2877  0.2698
 5997SOL    HW129450   1.132   3.376   8.100  0.2937 -3.1155 -1.0847
 5997SOL    HW229451   1.241   3.379   8.210  1.3548 -1.1042 -1.5875
 5998SOL     OW29452   0.549   2.689   0.664  0.1776  0.2125  0.2179
 5998SOL    HW129453   0.625   2.642   0.699 -0.7017 -0.3447  1.3576
 5998SOL    HW229454   0.528   2.638   0.586  2.1276 -1.9178  1.0756
 5999SOL     OW29455   0.472   1.037   0.757 -0.1939 -0.7008 -0.8277
 5999SOL    HW129456   0.484   1.025   0.852  1.2226 -0.5679 -0.9882
 5999SOL    HW229457   0.411   1.111   0.754  0.4155 -0.1359  0.3200
 6000SOL     OW29458   3.473   3.700   8.532 -0.5144  0.4220  0.0378
 6000SOL    HW129459   3.411   3.705   8.459  1.3624  4.2239 -1.2926
 6000SOL    HW229460   3.429   3.639   8.591  1.2077 -1.1739 -0.3409
 6001SOL     OW29461   0.598   1.984   8.567  0.0918 -0.8599 -0.4527
 6001SOL    HW129462   0.540   2.044   8.520 -0.6269 -2.4110 -1.5488
 6001SOL    HW229463   0.535   1.936   8.621 -1.3089  2.2573  0.6514
 6002SOL     OW29464   4.190   4.407   1.616 -0.1825  0.3095 -0.1790
 6002SOL    HW129465   4.185   4.318   1.650 -0.3429  1.0663  1.7897
 6002SOL    HW229466   4.278   4.428   1.648 -0.9942  3.1590  0.1473
 6003SOL     OW29467   3.851   4.349   6.999  0.1284  0.2713 -0.0085
 6003SOL    HW129468   3.782   4.400   6.955 -1.6794 -1.0197  1.3371
 6003SOL    HW229469   3.796   4.318   7.071 -0.1773 -0.5130 -0.5840
 6004SOL     OW29470   2.388   1.944   6.389  0.2010 -0.2957 -0.3553
 6004SOL    HW129471   2.389   1.979   6.478  1.2018  0.2722 -0.5934
 6004SOL    HW229472   2.368   2.024   6.341  0.0768  1.2270  2.2289
 6005SOL     OW29473   1.457   3.397  10.822  0.2217 -0.1741  0.0246
 6005SOL    HW129474   1.372   3.423  10.859 -0.1017  0.1149 -0.9255
 6005SOL    HW229475   1.523   3.449  10.868  0.0700 -0.9135  1.0748
 6006SOL     OW29476   1.955   1.546   5.480 -0.2311  0.1594  0.2409
 6006SOL    HW129477   2.005   1.528   5.400 -0.4766  0.3053  0.0582
 6006SOL    HW229478   1.942   1.640   5.485  1.8937  0.3989  1.4236
 6007SOL     OW29479   4.258   2.965  17.428 -0.1871 -0.7093 -0.4795
 6007SOL    HW129480   4.198   2.891  17.430 -1.4550  0.3690  1.0698
 6007SOL    HW229481   4.233   3.014  17.350  1.7392  0.1849 -0.5518
 6008SOL     OW29482   3.193   1.423   2.158  0.4744  0.3944  0.1979
 6008SOL    HW129483   3.237   1.507   2.170  2.9725 -0.9052  0.1067
 6008SOL    HW229484   3.104   1.444   2.127 -0.3164  0.9868  2.9059
 6009SOL     OW29485   4.236   4.176  17.244 -0.4756  0.3188  0.3150
 6009SOL    HW129486   4.319   4.145  17.280  0.5943  1.2493 -1.3577
 6009SOL    HW229487   4.222   4.122  17.166 -0.3478 -0.2765  0.7039
 6010SOL     OW29488   3.761   2.499   6.428 -0.2019 -0.1725 -0.2510
 6010SOL    HW129489   3.810   2.435   6.376 -1.3401 -0.9762 -0.3403
 6010SOL    HW229490   3.825   2.564   6.456 -1.5998  0.9487  0.3318
 6011SOL     OW29491   4.693   4.525  10.131  0.7334 -0.7295 -0.1433
 6011SOL    HW129492   4.599   4.536  10.121  0.7011 -1.7318 -0.8570
 6011SOL    HW229493   0.003   4.498  10.046 -1.4424 -1.8310 -0.6214
 6012SOL     OW29494   1.330   3.173   5.988 -0.9558  0.0220  0.2790
 6012SOL    HW129495   1.328   3.255   6.037  3.1276 -0.3246  1.0251
 6012SOL    HW229496   1.423   3.151   5.993 -0.6819  0.8120 -1.3072
 6013SOL     OW29497   0.160   0.355   4.756 -0.0418 -0.1542  0.1649
 6013SOL    HW129498   0.230   0.328   4.816  0.5659 -0.1976 -0.5625
 6013SOL    HW229499   0.143   0.270   4.715  0.0834  1.0951 -2.4833
 6014SOL     OW29500   4.403   1.569   5.470  0.4400 -0.8067  0.2194
 6014SOL    HW129501   4.325   1.559   5.525 -0.1280 -2.1882 -0.8461
 6014SOL    HW229502   4.457   1.611   5.537 -0.9435 -1.8314  1.9643
 6015SOL     OW29503   0.686   3.705  15.066  0.4859 -0.1193  0.3531
 6015SOL    HW129504   0.640   3.706  15.149 -1.7735  0.3311 -0.9042
 6015SOL    HW229505   0.773   3.721  15.103  0.3620 -2.0309  1.4734
 6016SOL     OW29506   0.912   2.707   4.289 -0.2645 -0.0193  0.1724
 6016SOL    HW129507   0.823   2.723   4.320  0.4443  0.4703  1.9852
 6016SOL    HW229508   0.902   2.763   4.212 -0.9923 -1.8610 -1.0647
 6017SOL     OW29509   1.747   3.554   3.759 -0.0495  0.4381  0.0415
 6017SOL    HW129510   1.728   3.470   3.800 -1.1469  0.6209 -0.0828
 6017SOL    HW229511   1.705   3.615   3.820  0.1570 -1.9170  2.5121
 6018SOL     OW29512   0.377   3.046   2.548  0.1023 -0.2589 -0.1536
 6018SOL    HW129513   0.289   3.075   2.523  0.1405  0.1426  0.1776
 6018SOL    HW229514   0.387   3.050   2.643 -0.3458  2.5439 -0.2359
 6019SOL     OW29515   3.970   0.522   0.490  0.1988  0.0273  0.0635
 6019SOL    HW129516   4.041   0.572   0.449  1.1425 -2.3796 -1.2542
 6019SOL    HW229517   3.956   0.458   0.420 -2.5073  1.8529 -1.0823
 6020SOL     OW29518   1.304   1.973   9.754  0.0443  0.1068 -0.1544
 6020SOL    HW129519   1.336   1.934   9.835 -0.1152 -0.2308 -0.2520
 6020SOL    HW229520   1.256   1.895   9.726 -1.1870  0.2763  1.4347
 6021SOL     OW29521   3.602   1.224   3.705 -0.1448  0.1931  0.2094
 6021SOL    HW129522   3.565   1.147   3.662  0.5671 -0.9747  1.6724
 6021SOL    HW229523   3.554   1.290   3.656  0.2400  0.9671  0.8849
 6022SOL     OW29524   1.743   3.800   7.984  0.4009  0.7312 -0.2887
 6022SOL    HW129525   1.684   3.853   7.930 -0.9657 -2.0690 -1.5169
 6022SOL    HW229526   1.701   3.807   8.069 -1.2345 -3.4143 -0.7494
 6023SOL     OW29527   3.066   3.670  11.160  0.1746 -0.8450 -0.4856
 6023SOL    HW129528   2.975   3.676  11.128 -0.0478  0.1889  0.3363
 6023SOL    HW229529   3.087   3.594  11.106 -0.7735 -0.9240 -0.7480
 6024SOL     OW29530   0.332   0.899  17.427 -0.0470 -0.2664 -0.1717
 6024SOL    HW129531   0.290   0.845  17.361 -0.3137 -0.6731  0.3313
 6024SOL    HW229532   0.320   0.986  17.389 -2.1064  0.4636  2.1431
 6025SOL     OW29533   1.083   2.196   2.493 -0.0896 -0.5721  0.0915
 6025SOL    HW129534   1.157   2.258   2.493 -1.1251  0.6654 -1.4886
 6025SOL    HW229535   1.109   2.135   2.425  3.1588  1.8047 -0.7894
 6026SOL     OW29536   4.538   1.094   7.842  0.3126  0.2788 -0.4855
 6026SOL    HW129537   4.461   1.036   7.838  0.3908  0.2400 -1.4231
 6026SOL    HW229538   4.614   1.037   7.835  1.1619  1.6476 -2.3064
 6027SOL     OW29539   2.690   0.714  17.111 -0.1577 -0.0659 -0.1244
 6027SOL    HW129540   2.626   0.774  17.073  0.4202  0.1631 -0.7390
 6027SOL    HW229541   2.725   0.672  17.032 -1.6156  0.6113 -1.1421
 6028SOL     OW29542   1.920   4.602  10.379 -0.4948 -0.0323 -0.2249
 6028SOL    HW129543   1.833   4.562  10.376 -0.2156 -0.6100 -0.7400
 6028SOL    HW229544   1.938   4.591  10.472 -2.3726 -0.1553  0.1268
 6029SOL     OW29545   2.961   1.579  12.790 -0.3494  0.4771  0.3955
 6029SOL    HW129546   2.967   1.508  12.855  0.4470  1.4546  1.3954
 6029SOL    HW229547   2.999   1.537  12.714 -0.6639 -0.3511  0.6996
 6030SOL     OW29548   0.795   0.628   8.261 -0.2660 -0.3467 -0.2055
 6030SOL    HW129549   0.845   0.571   8.319  1.1484  1.1263  0.0153
 6030SOL    HW229550   0.709   0.618   8.301 -0.6854 -0.0196 -1.0250
 6031SOL     OW29551   1.034   3.226  16.872 -0.3098 -0.2596 -0.2162
 6031SOL    HW129552   1.040   3.136  16.904  0.4341 -0.7706 -1.7635
 6031SOL    HW229553   0.947   3.257  16.896  0.1502  2.1582 -1.6034
 6032SOL     OW29554   0.443   2.060   0.283  0.3373 -0.0904  0.9797
 6032SOL    HW129555   0.429   2.132   0.344  1.6258  1.5721 -0.6933
 6032SOL    HW229556   0.535   2.074   0.259 -0.0953  0.7155 -0.2447
 6033SOL     OW29557   3.322   1.305   7.038 -0.4055 -0.3050  0.3423
 6033SOL    HW129558   3.352   1.311   7.129  1.0904 -0.7930 -0.1251
 6033SOL    HW229559   3.404   1.271   7.002 -1.5270 -0.1996 -2.2598
 6034SOL     OW29560   0.460   3.601  13.887 -0.1512 -0.3940  0.3918
 6034SOL    HW129561   0.428   3.641  13.968  1.9873 -0.1871  1.1389
 6034SOL    HW229562   0.431   3.510  13.895  0.1998 -0.4126  1.4360
 6035SOL     OW29563   3.056   0.581   5.716  0.2659 -0.3706 -0.3875
 6035SOL    HW129564   2.964   0.559   5.698  0.3171  0.2312 -1.3920
 6035SOL    HW229565   3.089   0.499   5.752  0.5433  0.5159  1.3894
 6036SOL     OW29566   3.656   0.236   4.989  0.5504 -0.5000 -0.0986
 6036SOL    HW129567   3.723   0.265   4.927 -2.1962  1.0337 -2.3687
 6036SOL    HW229568   3.586   0.297   4.962  0.4390 -0.4119  0.3926
 6037SOL     OW29569   1.755   2.705  11.994  0.4913  0.0087 -0.0060
 6037SOL    HW129570   1.816   2.766  11.953 -1.1726  1.8401  0.2436
 6037SOL    HW229571   1.670   2.723  11.953 -0.2476  0.2357  1.6451
 6038SOL     OW29572   4.149   1.392   7.309  0.1047  0.2797  0.3121
 6038SOL    HW129573   4.174   1.307   7.347 -2.2689 -1.8581 -2.8381
 6038SOL    HW229574   4.060   1.368   7.282 -0.0186  2.3200 -1.0794
 6039SOL     OW29575   2.817   2.471   6.811 -0.0796 -0.1287  0.3872
 6039SOL    HW129576   2.761   2.393   6.817 -0.4789  0.1755  0.6442
 6039SOL    HW229577   2.756   2.541   6.836 -0.5517 -0.4709  0.2021
 6040SOL     OW29578   0.210   1.422  15.869  1.0369 -0.6162 -0.0407
 6040SOL    HW129579   0.201   1.503  15.818  0.9272 -1.2988 -1.0956
 6040SOL    HW229580   0.293   1.426  15.917  1.1563  1.8302 -0.4300
 6041SOL     OW29581   0.975   1.387  15.262  0.0436 -0.2320 -0.4485
 6041SOL    HW129582   0.984   1.329  15.186  0.4895  2.2559 -2.2613
 6041SOL    HW229583   1.055   1.366  15.309  0.7506  2.3030 -0.5761
 6042SOL     OW29584   0.364   4.403   2.326  0.2017  0.0957 -0.1304
 6042SOL    HW129585   0.416   4.367   2.398 -1.0224  0.5157  0.9497
 6042SOL    HW229586   0.281   4.361   2.349  0.6622 -0.0877  1.1971
 6043SOL     OW29587   4.145   3.047   5.729 -0.6103 -0.2096 -0.2750
 6043SOL    HW129588   4.175   3.070   5.641  0.5530 -0.4279  0.0679
 6043SOL    HW229589   4.134   3.125   5.784  0.2737 -1.1076  1.1880
 6044SOL     OW29590   3.238   1.596   6.240 -0.3778  0.5022  0.0808
 6044SOL    HW129591   3.326   1.630   6.223 -0.2086  1.0577  2.1121
 6044SOL    HW229592   3.193   1.618   6.159  0.5398  1.1055 -0.2585
 6045SOL     OW29593   1.357   2.077   9.459 -0.4658 -0.0925  0.0881
 6045SOL    HW129594   1.392   1.988   9.460  2.4588  1.1024  2.7909
 6045SOL    HW229595   1.372   2.093   9.552  0.5230  0.1120 -0.1111
 6046SOL     OW29596   0.067   2.516  12.233 -0.1690 -0.8778 -0.3526
 6046SOL    HW129597   0.119   2.442  12.201 -0.9033 -0.6143 -2.1709
 6046SOL    HW229598   0.070   2.508  12.328 -1.3441  1.7670 -0.1188
 6047SOL     OW29599   3.836   1.969  14.993  0.7543 -0.5750 -0.6204
 6047SOL    HW129600   3.839   1.902  15.061 -2.1297  0.4499  0.5134
 6047SOL    HW229601   3.929   1.985  14.975  0.8691 -0.4288  0.0945
 6048SOL     OW29602   3.292   4.401   9.080  0.0554  0.2288 -1.1817
 6048SOL    HW129603   3.299   4.308   9.101 -0.1687  0.0494 -1.9021
 6048SOL    HW229604   3.334   4.433   9.160 -0.2994 -1.1039 -0.4654
 6049SOL     OW29605   1.211   4.503  13.988 -0.4719 -0.1174 -0.0802
 6049SOL    HW129606   1.129   4.482  13.944 -1.7317 -1.4787  3.0010
 6049SOL    HW229607   1.200   4.597  13.972 -0.3710 -0.0357  0.3288
 6050SOL     OW29608   0.127   3.603   1.458 -0.0711 -0.7490  0.1927
 6050SOL    HW129609   0.126   3.513   1.425  2.4328 -0.9671  0.6712
 6050SOL    HW229610   0.130   3.658   1.380 -2.3981 -0.9050 -0.0047
 6051SOL     OW29611   4.063   0.723   7.539  0.8927 -0.1040 -0.2748
 6051SOL    HW129612   4.049   0.727   7.633 -0.6302  2.2027 -0.5894
 6051SOL    HW229613   4.117   0.802   7.531  1.6371 -0.5727  0.2120
 6052SOL     OW29614   0.278   0.837  13.323  0.6187  0.2207 -0.3746
 6052SOL    HW129615   0.326   0.774  13.269  0.1003 -2.2757  2.0597
 6052SOL    HW229616   0.232   0.777  13.382 -0.6837  1.5090 -0.0667
 6053SOL     OW29617   0.107   2.239   7.913 -0.0862  0.0004  0.4728
 6053SOL    HW129618   0.160   2.161   7.928  0.5872 -0.0229 -1.9802
 6053SOL    HW229619   0.080   2.218   7.824 -1.0308  0.7745  0.5837
 6054SOL     OW29620   2.224   0.002   7.024 -0.0668  0.2149 -0.3573
 6054SOL    HW129621   2.132   0.027   7.029 -0.4145 -1.3327  1.2023
 6054SOL    HW229622   2.261   0.091   7.023  0.1741  0.1338  0.5850
 6055SOL     OW29623   2.722   0.649   4.907  0.3055  0.0202 -0.0291
 6055SOL    HW129624   2.718   0.592   4.984 -0.1836  0.9612  0.6395
 6055SOL    HW229625   2.781   0.719   4.936  0.4113  0.2393 -0.7828
 6056SOL     OW29626   3.458   2.862   4.495 -0.0435  0.3897 -0.7143
 6056SOL    HW129627   3.525   2.848   4.428 -1.3680 -0.3890 -1.8571
 6056SOL    HW229628   3.382   2.849   4.439  0.1139  0.0434 -0.8473
 6057SOL     OW29629   3.042   0.466   4.204 -0.2456  0.0300 -0.1183
 6057SOL    HW129630   3.130   0.432   4.222 -1.3384 -2.0055  1.3860
 6057SOL    HW229631   3.017   0.421   4.124  0.6005 -2.2126  0.8878
 6058SOL     OW29632   1.887   1.695   9.539 -0.5677  0.2209  0.3141
 6058SOL    HW129633   1.861   1.606   9.563  1.8676 -0.8034 -0.8269
 6058SOL    HW229634   1.810   1.723   9.490 -0.7342 -1.8588 -0.6114
 6059SOL     OW29635   1.691   2.922   0.864 -0.2655 -0.2066  0.0613
 6059SOL    HW129636   1.619   2.983   0.882 -1.3450 -1.8038  1.2216
 6059SOL    HW229637   1.655   2.861   0.800 -1.5629  1.4846 -0.8139
 6060SOL     OW29638   2.737   2.764   5.795  0.1394  0.6676  0.6141
 6060SOL    HW129639   2.774   2.762   5.883  0.9419  0.5815  0.2796
 6060SOL    HW229640   2.726   2.859   5.790 -0.5361  0.4588 -1.6646
 6061SOL     OW29641   2.108   2.328  12.801  0.0170  0.3191  0.3356
 6061SOL    HW129642   2.165   2.404  12.793 -2.8843  2.6891  2.0585
 6061SOL    HW229643   2.032   2.353  12.747  0.4776 -0.3285 -0.6161
 6062SOL     OW29644   0.329   3.814  14.933  0.2018 -0.3647 -0.2778
 6062SOL    HW129645   0.365   3.774  15.012 -1.1922 -0.7248  0.1834
 6062SOL    HW229646   0.399   3.817  14.867  0.1021 -1.4646 -0.4286
 6063SOL     OW29647   1.723   2.496   0.366  1.2675  0.2753  0.6015
 6063SOL    HW129648   1.702   2.559   0.297 -0.5665 -1.4394 -0.4049
 6063SOL    HW229649   1.780   2.546   0.424 -0.7244 -0.1082  2.8718
 6064SOL     OW29650   2.707   1.089   2.419 -0.3436 -0.4857  0.0746
 6064SOL    HW129651   2.791   1.111   2.459 -0.0281 -0.6197 -0.5138
 6064SOL    HW229652   2.713   1.129   2.332 -2.3691  2.2284  1.1754
 6065SOL     OW29653   3.849   2.095  10.957  0.6784 -0.9969  0.0979
 6065SOL    HW129654   3.805   2.016  10.987 -3.1252  1.0677 -0.0598
 6065SOL    HW229655   3.817   2.153  11.026  3.4593  0.8120 -0.1199
 6066SOL     OW29656   2.158   2.047  14.778  0.1029 -0.4802  0.0880
 6066SOL    HW129657   2.233   2.081  14.827  1.6808 -2.4933 -0.9337
 6066SOL    HW229658   2.095   2.119  14.784 -0.3346 -0.8440 -0.1414
 6067SOL     OW29659   1.201   0.063   4.191  0.0939  0.1759 -0.0237
 6067SOL    HW129660   1.136   0.024   4.249  1.7268 -0.5256  1.3382
 6067SOL    HW229661   1.285   0.025   4.218  0.6064  0.7523 -0.7742
 6068SOL     OW29662   4.360   3.311   5.780  0.4182 -0.2331  0.0946
 6068SOL    HW129663   4.306   3.378   5.822  1.3030  0.0725  0.7383
 6068SOL    HW229664   4.392   3.348   5.698  0.6856 -0.7068 -0.0200
 6069SOL     OW29665   0.153   3.264  12.496  0.1260  0.4460  0.2770
 6069SOL    HW129666   0.182   3.178  12.524 -0.6936  0.4737  1.2131
 6069SOL    HW229667   0.084   3.280  12.561  0.5620  0.2675  0.7829
 6070SOL     OW29668   1.708   1.068   3.419 -0.0583  0.0304 -0.4384
 6070SOL    HW129669   1.771   1.052   3.489 -0.2381 -0.5071 -0.3980
 6070SOL    HW229670   1.675   1.156   3.435 -0.8689 -0.1200 -1.2389
 6071SOL     OW29671   1.327   3.219   9.457  0.0589 -0.7205  0.0162
 6071SOL    HW129672   1.395   3.158   9.427 -0.2319 -0.8073 -0.4559
 6071SOL    HW229673   1.360   3.308   9.444  0.4752 -1.0116 -0.8498
 6072SOL     OW29674   2.074   2.811   6.265 -0.1890  0.0990 -0.4819
 6072SOL    HW129675   2.093   2.777   6.353 -0.4333 -0.2774 -0.5728
 6072SOL    HW229676   2.141   2.879   6.256  0.2096  0.0645  2.4084
 6073SOL     OW29677   3.807   1.816   1.705 -0.2953  0.3192  0.3985
 6073SOL    HW129678   3.885   1.841   1.753  0.6113  1.5138 -1.7009
 6073SOL    HW229679   3.834   1.842   1.617 -0.0293  0.9336  0.6681
 6074SOL     OW29680   1.487   3.125   1.630  0.1604  0.1195  0.2284
 6074SOL    HW129681   1.458   3.182   1.559 -0.6844 -1.0425 -0.3707
 6074SOL    HW229682   1.569   3.093   1.593  0.2428  0.1524  0.3831
 6075SOL     OW29683   2.350   0.014  11.298 -0.3065  0.1980 -0.2676
 6075SOL    HW129684   2.305   4.653  11.312  1.0667 -0.3554  0.8280
 6075SOL    HW229685   2.380   0.001  11.207 -0.1555  0.3200 -0.2352
 6076SOL     OW29686   4.285   1.922   5.139  0.0399 -0.2102  0.0783
 6076SOL    HW129687   4.205   1.878   5.111  1.3771 -1.6340 -1.5330
 6076SOL    HW229688   4.327   1.839   5.161 -0.0394 -0.0580  0.7912
 6077SOL     OW29689   2.174   0.390   2.935 -0.6700  0.0055  0.6908
 6077SOL    HW129690   2.102   0.331   2.912 -0.1275 -1.3609  2.5036
 6077SOL    HW229691   2.221   0.392   2.851 -1.2681 -1.0760  0.3321
 6078SOL     OW29692   4.116   1.076  12.308  0.1619  0.0396  0.2539
 6078SOL    HW129693   4.109   1.164  12.343 -1.9796  0.8778 -2.2768
 6078SOL    HW229694   4.039   1.039  12.350 -0.6483  1.5438  0.0956
 6079SOL     OW29695   1.540   4.162   6.326  0.0453  0.0024  0.3527
 6079SOL    HW129696   1.576   4.147   6.413 -0.1911  0.0052  0.4508
 6079SOL    HW229697   1.587   4.245   6.312  1.3612 -0.5933  1.2830
 6080SOL     OW29698   3.682   3.789   2.932 -0.4964  0.1928 -0.0458
 6080SOL    HW129699   3.668   3.731   2.857  2.1098 -2.7086  1.7538
 6080SOL    HW229700   3.613   3.852   2.909  1.2965  0.6644 -4.2817
 6081SOL     OW29701   1.528   4.415   9.000 -0.6713  0.0106 -0.2277
 6081SOL    HW129702   1.533   4.339   8.942  4.6321 -0.8075  1.2803
 6081SOL    HW229703   1.537   4.368   9.083  3.0061 -0.3506 -0.8282
 6082SOL     OW29704   4.439   4.272   3.761 -0.2250  0.0382 -0.3515
 6082SOL    HW129705   4.413   4.269   3.852 -0.3719 -0.6103 -0.4172
 6082SOL    HW229706   4.425   4.183   3.727  1.2566  0.0148 -0.9281
 6083SOL     OW29707   2.423   1.008   7.270 -0.0645  0.2142  0.2975
 6083SOL    HW129708   2.503   0.962   7.244 -1.7811 -2.8429  0.5314
 6083SOL    HW229709   2.394   0.972   7.354  3.4706 -4.1038 -0.3139
 6084SOL     OW29710   2.772   1.805   4.583 -0.0587 -0.1748 -0.9706
 6084SOL    HW129711   2.792   1.714   4.560 -1.5975 -0.5102 -0.9931
 6084SOL    HW229712   2.797   1.858   4.507 -1.6895 -1.2247 -2.2565
 6085SOL     OW29713   3.285   3.304   0.863  0.4574 -0.5193  0.1842
 6085SOL    HW129714   3.350   3.332   0.798  0.8551 -2.4023 -0.2498
 6085SOL    HW229715   3.296   3.359   0.940 -1.3531  1.0968 -0.7155
 6086SOL     OW29716   4.551   2.421  11.508  0.2007 -0.2997  0.0807
 6086SOL    HW129717   4.499   2.489  11.467  0.1022 -1.1713 -1.2394
 6086SOL    HW229718   4.498   2.342  11.497 -0.0127  0.0145 -1.0522
 6087SOL     OW29719   2.387   2.137  10.722 -0.4545  0.3716 -0.1620
 6087SOL    HW129720   2.292   2.139  10.736 -0.3546  0.9364  0.4760
 6087SOL    HW229721   2.390   2.208  10.658 -1.4293  0.5204 -0.0428
 6088SOL     OW29722   1.179   2.328   1.356 -0.2641 -0.3700  0.3796
 6088SOL    HW129723   1.234   2.302   1.282  0.8279  0.3542  0.9559
 6088SOL    HW229724   1.172   2.242   1.398  0.5285 -0.2385  0.7733
 6089SOL     OW29725   0.593   1.552   7.787 -0.0517 -0.1572  1.1307
 6089SOL    HW129726   0.553   1.614   7.726 -0.2338  0.2849  1.6935
 6089SOL    HW229727   0.531   1.479   7.789 -1.4994  1.0702  1.5366
 6090SOL     OW29728   2.399   1.377   6.104  0.0209  0.4374 -0.1593
 6090SOL    HW129729   2.444   1.426   6.173  0.9673  1.0012 -1.1667
 6090SOL    HW229730   2.316   1.425   6.112  0.2617  0.6920  0.8970
 6091SOL     OW29731   2.676   0.549   5.563 -0.6245 -0.0375 -0.8708
 6091SOL    HW129732   2.710   0.576   5.648 -1.6977 -0.8540 -0.1829
 6091SOL    HW229733   2.689   0.455   5.576 -1.3245 -0.3463 -2.3604
 6092SOL     OW29734   2.282   3.723   9.250  0.1774 -0.6552  0.5269
 6092SOL    HW129735   2.367   3.718   9.207 -0.0526 -0.0106 -0.0117
 6092SOL    HW229736   2.267   3.818   9.246 -0.3096 -0.7785 -0.8462
 6093SOL     OW29737   2.179   1.454  15.525 -0.2105  0.3796 -0.1414
 6093SOL    HW129738   2.201   1.532  15.474 -1.6140  0.4604 -0.6281
 6093SOL    HW229739   2.154   1.393  15.455 -0.5678 -1.7129  1.8020
 6094SOL     OW29740   0.330   2.487  17.495 -0.1643  0.6127 -0.2188
 6094SOL    HW129741   0.325   2.567  17.443  0.4130  1.4724  1.0303
 6094SOL    HW229742   0.247   2.440  17.494 -0.7639  1.6374  2.6426
 6095SOL     OW29743   4.311   4.324  13.142  0.6270 -0.3989 -0.5699
 6095SOL    HW129744   4.233   4.269  13.146 -0.9453  1.8033 -0.8260
 6095SOL    HW229745   4.358   4.279  13.073  0.7153 -0.9641 -0.1443
 6096SOL     OW29746   2.898   2.090   6.712  0.1710 -0.1501  0.0772
 6096SOL    HW129747   2.806   2.112   6.696  0.5595  0.3768 -1.4874
 6096SOL    HW229748   2.888   1.997   6.692  1.6456 -0.7513  2.1736
 6097SOL     OW29749   1.527   3.709  17.133  0.2270  0.2260  0.2579
 6097SOL    HW129750   1.456   3.658  17.094  1.7698 -0.6615 -1.3707
 6097SOL    HW229751   1.497   3.798  17.112 -1.8630 -0.6737 -0.5231
 6098SOL     OW29752   3.133   1.994   9.621  0.5712 -0.1534 -0.2603
 6098SOL    HW129753   3.066   2.048   9.579  1.8200  0.2070 -1.7804
 6098SOL    HW229754   3.196   1.984   9.550  0.5551  0.6886 -0.3955
 6099SOL     OW29755   0.961   4.434  14.881 -0.5457  0.5793  0.4325
 6099SOL    HW129756   0.890   4.470  14.827  0.1567  1.3191 -0.0040
 6099SOL    HW229757   1.037   4.466  14.832  1.8700  1.4662  4.7308
 6100SOL     OW29758   1.468   0.282   7.505  0.2088 -0.1922  0.1862
 6100SOL    HW129759   1.379   0.247   7.508  1.0705 -2.2401  1.6985
 6100SOL    HW229760   1.518   0.211   7.546 -0.4679 -1.7821 -1.7359
 6101SOL     OW29761   0.052   1.134  15.224  0.2332  0.4397 -0.0019
 6101SOL    HW129762   4.684   1.134  15.193  0.2810 -0.6364 -0.1721
 6101SOL    HW229763   0.042   1.163  15.314  1.8633 -1.6935  0.8779
 6102SOL     OW29764   1.093   1.336   5.443  0.4102  0.2329  0.1460
 6102SOL    HW129765   1.010   1.321   5.397  1.1736 -0.6746 -0.9313
 6102SOL    HW229766   1.153   1.305   5.375  0.9720  1.2577  0.1687
 6103SOL     OW29767   3.012   2.198   7.770 -0.5077  0.2091  0.2690
 6103SOL    HW129768   2.970   2.119   7.804  0.3539 -0.5212 -0.3547
 6103SOL    HW229769   2.953   2.233   7.704  1.7614 -3.0629 -3.5028
 6104SOL     OW29770   0.120   1.797  10.902 -0.5972  0.8362  0.3688
 6104SOL    HW129771   0.146   1.834  10.987  0.9309 -1.5435  0.9395
 6104SOL    HW229772   0.199   1.745  10.886  0.0565  2.0694 -0.4521
 6105SOL     OW29773   0.110   2.986   5.662  0.3376  0.5233  0.2123
 6105SOL    HW129774   0.204   2.979   5.679 -0.1101 -1.3824  1.7740
 6105SOL    HW229775   0.076   2.913   5.712 -0.5947 -0.1885 -1.4630
 6106SOL     OW29776   1.144   1.217   7.292 -0.2248 -0.2881 -0.1909
 6106SOL    HW129777   1.113   1.128   7.304 -1.1765  0.2694  1.4830
 6106SOL    HW229778   1.224   1.189   7.247 -1.1429 -0.0812 -1.9282
 6107SOL     OW29779   1.630   0.202   8.676  0.3147 -0.1715  0.0513
 6107SOL    HW129780   1.721   0.219   8.651 -0.6974  0.7009 -3.1340
 6107SOL    HW229781   1.630   0.108   8.658  0.6929 -0.2326  0.3696
 6108SOL     OW29782   4.174   0.501  12.468 -0.2091 -0.4047 -0.0579
 6108SOL    HW129783   4.239   0.458  12.413  0.8115  0.6659  0.3031
 6108SOL    HW229784   4.198   0.458  12.550  1.4606  0.8727  0.1336
 6109SOL     OW29785   1.316   3.020   6.823 -0.2827  0.1173 -0.0787
 6109SOL    HW129786   1.258   3.065   6.761 -0.2139 -1.2123 -1.1090
 6109SOL    HW229787   1.260   2.942   6.824  3.8935 -2.8352  2.2919
 6110SOL     OW29788   2.092   4.231   8.811 -0.2026  0.0530  0.1168
 6110SOL    HW129789   2.016   4.174   8.808 -0.1513 -0.1199  2.1420
 6110SOL    HW229790   2.160   4.167   8.833 -0.2199 -0.3708 -1.0808
 6111SOL     OW29791   3.999   4.075  12.237  0.0511 -0.7003  0.2594
 6111SOL    HW129792   4.069   4.021  12.274  0.3999 -1.7196 -1.8904
 6111SOL    HW229793   3.977   4.129  12.313 -1.2587  0.9393 -1.2650
 6112SOL     OW29794   0.034   0.994  17.228 -0.0159 -0.0590 -0.5783
 6112SOL    HW129795   4.667   1.021  17.247 -0.2623 -1.1414 -0.2137
 6112SOL    HW229796   0.026   0.920  17.169  1.0900 -1.8359  1.4880
 6113SOL     OW29797   2.266   4.585   7.290  0.2933 -0.3640 -0.3781
 6113SOL    HW129798   2.271   4.655   7.224  1.8558  0.9564  1.1380
 6113SOL    HW229799   2.276   4.632   7.373  1.0925 -1.4284  0.1111
 6114SOL     OW29800   2.442   4.236   9.746 -0.3716  0.4373 -1.0530
 6114SOL    HW129801   2.448   4.332   9.752  0.6936  0.2212  1.1050
 6114SOL    HW229802   2.532   4.207   9.758 -0.9234 -1.1454 -0.8481
 6115SOL     OW29803   1.921   2.492  16.517  0.4692 -0.0754 -0.2732
 6115SOL    HW129804   1.975   2.435  16.571  0.6266 -0.9967 -1.4073
 6115SOL    HW229805   1.870   2.433  16.462  1.2636  0.3466 -1.4890
 6116SOL     OW29806   1.094   0.475  13.206  0.0053 -0.1551 -0.3065
 6116SOL    HW129807   1.023   0.414  13.228  1.7105 -2.3981 -0.9255
 6116SOL    HW229808   1.172   0.421  13.220  0.4632  0.0721 -1.9421
 6117SOL     OW29809   1.183   3.275   8.877  0.0269  0.0557  0.3180
 6117SOL    HW129810   1.107   3.322   8.912 -1.5704 -2.0586 -0.3487
 6117SOL    HW229811   1.144   3.191   8.852 -2.0113  0.7890  1.0276
 6118SOL     OW29812   2.690   2.802   6.848 -0.0640 -0.4073 -0.6764
 6118SOL    HW129813   2.660   2.731   6.791 -1.0851  0.9118 -1.7619
 6118SOL    HW229814   2.659   2.885   6.813  1.3685 -0.2190 -1.5015
 6119SOL     OW29815   3.518   4.152  10.682  0.0959  0.1333  0.5928
 6119SOL    HW129816   3.589   4.152  10.618  0.2480 -0.5657  0.7602
 6119SOL    HW229817   3.552   4.196  10.760  0.1588  0.8536  0.1523
 6120SOL     OW29818   0.659   3.393  14.922 -0.2189  0.0640  0.2836
 6120SOL    HW129819   0.571   3.402  14.960 -1.1955 -0.8849 -1.7519
 6120SOL    HW229820   0.712   3.395  15.002 -0.3349  3.1592  0.2756
 6121SOL     OW29821   3.437   0.127  10.805 -0.1619 -0.3904  0.2468
 6121SOL    HW129822   3.478   0.213  10.799  0.4953 -0.8010 -1.0222
 6121SOL    HW229823   3.508   0.064  10.817  2.2804  2.2755 -0.2297
 6122SOL     OW29824   3.126   1.666   5.998  0.6233 -0.3976 -0.5082
 6122SOL    HW129825   3.082   1.674   5.913  2.3440 -0.0232 -1.3827
 6122SOL    HW229826   3.213   1.640   5.966  1.7805  0.2284  2.1552
 6123SOL     OW29827   0.098   4.612  10.370 -0.3693 -0.3885  0.4113
 6123SOL    HW129828   0.018   4.652  10.402 -0.1943 -0.5819  1.0836
 6123SOL    HW229829   0.084   4.610  10.275  0.8700  2.8036  0.1818
 6124SOL     OW29830   0.092   4.226   3.515  0.1935 -0.2247 -0.2957
 6124SOL    HW129831   0.010   4.250   3.471  0.1504  2.0595  1.0300
 6124SOL    HW229832   0.116   4.306   3.561 -1.1266 -0.5750  1.0011
 6125SOL     OW29833   0.710   1.616   9.974 -0.8906 -0.3790 -0.2784
 6125SOL    HW129834   0.747   1.612   9.885 -0.1614 -0.1461  0.0128
 6125SOL    HW229835   0.644   1.548   9.963 -2.3063  1.2814 -2.0707
 6126SOL     OW29836   3.385   1.289   5.136  0.3503 -0.0199  0.4080
 6126SOL    HW129837   3.393   1.234   5.214  0.8261 -1.2383 -0.4847
 6126SOL    HW229838   3.468   1.337   5.136 -0.3772  1.2256  0.9205
 6127SOL     OW29839   2.557   3.950   9.578  0.1490  0.0447  0.0610
 6127SOL    HW129840   2.570   3.957   9.672  0.2359 -0.9906  0.1312
 6127SOL    HW229841   2.642   3.925   9.542  0.5839 -0.1492  1.2389
 6128SOL     OW29842   2.142   1.657   9.516  0.0165 -0.1921  0.2024
 6128SOL    HW129843   2.142   1.583   9.577 -2.3299  0.1721  0.6640
 6128SOL    HW229844   2.047   1.668   9.524 -0.0111  1.5324 -2.5983
 6129SOL     OW29845   2.786   4.015   5.336 -0.3756 -0.4081 -0.1401
 6129SOL    HW129846   2.763   3.959   5.409 -0.2077 -1.3774 -0.8338
 6129SOL    HW229847   2.773   4.102   5.373  1.8021 -0.5318  0.8984
 6130SOL     OW29848   3.107   1.600  10.274  0.0266 -0.2865 -0.1599
 6130SOL    HW129849   3.048   1.645  10.214  0.0484  0.7666  0.5984
 6130SOL    HW229850   3.067   1.634  10.354  0.0568 -1.6189  0.4172
 6131SOL     OW29851   3.429   0.832   5.625  0.3537 -0.3304 -0.8571
 6131SOL    HW129852   3.500   0.784   5.583  1.8668  0.9892  0.1679
 6131SOL    HW229853   3.455   0.834   5.718  1.2858  1.1880 -1.1454
 6132SOL     OW29854   0.257   3.712   5.644 -0.0842  0.0120  0.3150
 6132SOL    HW129855   0.248   3.807   5.638 -0.7735  0.1277  3.4940
 6132SOL    HW229856   0.345   3.708   5.606 -0.5877 -1.6512 -0.6563
 6133SOL     OW29857   0.176   0.978   5.273 -0.3227 -0.0826  0.1521
 6133SOL    HW129858   0.217   0.912   5.329 -2.6991 -0.5383  1.3554
 6133SOL    HW229859   0.242   1.046   5.289  0.5720 -1.2582  1.4775
 6134SOL     OW29860   0.126   1.836   6.709  0.4414 -0.6398  0.0197
 6134SOL    HW129861   0.083   1.808   6.790 -1.3207  0.6554 -0.4770
 6134SOL    HW229862   0.187   1.906   6.733  3.3094 -2.9925 -0.4643
 6135SOL     OW29863   2.457   0.203   2.755  0.3823 -0.1104  0.6252
 6135SOL    HW129864   2.502   0.240   2.831  1.7780 -0.2674 -0.1256
 6135SOL    HW229865   2.529   0.205   2.691 -0.0880 -0.9817  0.0678
 6136SOL     OW29866   1.255   2.704  13.539 -0.3294 -0.2460 -0.1700
 6136SOL    HW129867   1.301   2.622  13.520 -1.7431 -1.2314  0.5814
 6136SOL    HW229868   1.322   2.765  13.570 -1.9985  1.6828 -0.3799
 6137SOL     OW29869   4.367   1.829   7.049 -0.3342  0.2709 -0.2048
 6137SOL    HW129870   4.355   1.778   7.129  0.9878 -0.2438 -0.3227
 6137SOL    HW229871   4.358   1.914   7.092  0.9362  0.3067  0.0196
 6138SOL     OW29872   2.012   2.241   1.591  0.7687  0.8672  0.2024
 6138SOL    HW129873   1.998   2.314   1.530  1.4557  0.7435 -0.1102
 6138SOL    HW229874   2.095   2.201   1.561  0.7878 -0.1196  1.5800
 6139SOL     OW29875   4.507   3.174   5.453 -0.1361  0.1282 -0.7251
 6139SOL    HW129876   4.587   3.185   5.505 -0.5671  2.0337 -0.4849
 6139SOL    HW229877   4.534   3.126   5.375 -2.0868 -1.3001 -0.5197
 6140SOL     OW29878   4.580   4.287   1.548 -0.4704 -0.9550 -0.0799
 6140SOL    HW129879   4.543   4.289   1.460 -0.5056  0.7088 -0.0121
 6140SOL    HW229880   4.583   4.195   1.576 -0.2778 -0.5696  1.1681
 6141SOL     OW29881   1.172   3.105   1.584 -0.0299 -0.1965 -0.4338
 6141SOL    HW129882   1.160   3.015   1.615  0.6056 -0.5710 -1.2635
 6141SOL    HW229883   1.161   3.103   1.489  0.4629  0.2423 -0.5056
 6142SOL     OW29884   0.825   1.358  12.986 -0.0774  0.4852 -0.2182
 6142SOL    HW129885   0.735   1.325  12.982 -0.0015  0.2727 -0.1366
 6142SOL    HW229886   0.839   1.357  13.081 -1.7919 -0.1488  0.0248
 6143SOL     OW29887   2.916   4.275   3.321 -0.1614  0.3809  0.0911
 6143SOL    HW129888   2.884   4.193   3.358 -0.9884  0.8997  0.5278
 6143SOL    HW229889   2.905   4.244   3.231 -0.6635  1.4580 -0.2164
 6144SOL     OW29890   2.981   1.889   3.619 -0.4105 -0.6728  0.0191
 6144SOL    HW129891   3.013   1.839   3.544 -0.4087 -2.3879  1.1518
 6144SOL    HW229892   3.031   1.846   3.688 -0.6224 -1.4669 -0.3192
 6145SOL     OW29893   2.292   4.375  17.352  0.7754 -0.3749  0.5400
 6145SOL    HW129894   2.275   4.297  17.298 -0.4086 -0.1781  0.6207
 6145SOL    HW229895   2.372   4.392  17.303  0.5842 -0.7329  0.0980
 6146SOL     OW29896   3.987   0.467  14.876  0.4280 -0.2768  0.0697
 6146SOL    HW129897   3.911   0.443  14.929 -0.1720  1.1860 -0.1411
 6146SOL    HW229898   3.940   0.447  14.795  0.8458  0.0594 -0.2568
 6147SOL     OW29899   0.035   2.574  13.738 -0.2515 -0.3485  0.2333
 6147SOL    HW129900   0.088   2.579  13.659 -2.6946 -0.4052 -1.3969
 6147SOL    HW229901   0.097   2.527  13.794 -1.1502 -0.8210  0.8396
 6148SOL     OW29902   0.035   4.420   5.335 -0.0325 -0.6197 -0.2657
 6148SOL    HW129903   4.712   4.466   5.406  0.6203  0.1804 -0.3744
 6148SOL    HW229904   0.065   4.343   5.383  1.8371 -1.0144 -2.0969
 6149SOL     OW29905   4.103   0.115   4.872  0.3446  0.2501  0.3247
 6149SOL    HW129906   4.194   0.140   4.884 -0.0046  0.5913  2.2534
 6149SOL    HW229907   4.069   0.156   4.951 -1.3748  2.2008 -1.4143
 6150SOL     OW29908   3.090   0.837  11.496 -0.1847 -0.6143 -0.3009
 6150SOL    HW129909   3.125   0.803  11.578 -0.9780 -0.9197 -0.0837
 6150SOL    HW229910   3.113   0.929  11.490  3.2601 -1.4036  0.6184
 6151SOL     OW29911   0.019   4.019   3.703  0.1413  0.7448  0.0487
 6151SOL    HW129912   0.043   4.080   3.633  0.8292  1.3979  0.8581
 6151SOL    HW229913   0.108   3.990   3.726 -0.5291 -0.7989  0.6728
 6152SOL     OW29914   3.009   1.288   9.352  0.0417  0.0105  0.3419
 6152SOL    HW129915   3.065   1.235   9.409  1.9299 -1.2364 -2.6909
 6152SOL    HW229916   2.922   1.261   9.382 -0.1256  0.5560  0.3378
 6153SOL     OW29917   2.074   3.237   3.631  0.1250 -0.7342  0.0972
 6153SOL    HW129918   2.016   3.177   3.584  0.1721 -1.5033  1.0094
 6153SOL    HW229919   2.011   3.295   3.674  1.2730 -0.1043  0.9216
 6154SOL     OW29920   1.505   1.522   6.711  0.0155  0.1608  0.1147
 6154SOL    HW129921   1.564   1.447   6.717  0.9160  0.8232 -0.5233
 6154SOL    HW229922   1.459   1.510   6.627  0.3993 -4.3414  0.5502
 6155SOL     OW29923   1.174   0.819   6.028 -0.3653 -0.4800  0.4599
 6155SOL    HW129924   1.228   0.896   6.010 -0.4201 -1.1963 -2.8841
 6155SOL    HW229925   1.086   0.853   6.017 -0.5682 -0.6196  1.6453
 6156SOL     OW29926   4.338   4.053  13.558  0.2145 -0.2732  0.0845
 6156SOL    HW129927   4.269   4.118  13.544  1.8504  0.9199 -2.3903
 6156SOL    HW229928   4.342   4.064  13.653  1.1270  1.4559 -0.1531
 6157SOL     OW29929   0.377   3.289   6.682 -0.2741 -0.1613 -0.9663
 6157SOL    HW129930   0.451   3.346   6.699 -0.4642 -0.3224  0.4233
 6157SOL    HW229931   0.418   3.210   6.647  0.6677  0.2510 -0.7844
 6158SOL     OW29932   3.092   4.149  14.150  0.0359 -0.2580  0.2049
 6158SOL    HW129933   3.137   4.066  14.165  2.0640  1.1491  1.9806
 6158SOL    HW229934   3.005   4.124  14.179  0.2163 -1.5312 -0.3610
 6159SOL     OW29935   2.291   1.897   2.152 -0.5642  0.0565 -0.4364
 6159SOL    HW129936   2.321   1.942   2.231 -2.1860 -0.6886  0.6071
 6159SOL    HW229937   2.198   1.895   2.174 -0.8404 -0.2653 -1.6205
 6160SOL     OW29938   4.192   0.820   6.959 -0.1882 -0.2631 -0.9038
 6160SOL    HW129939   4.168   0.900   7.005 -0.5013 -0.7717 -0.1843
 6160SOL    HW229940   4.286   0.829   6.975 -0.0034 -1.4097 -1.3264
 6161SOL     OW29941   3.984   4.555   7.294  0.1573 -0.0217  0.8878
 6161SOL    HW129942   3.903   4.590   7.259 -1.1418 -1.8020  2.0681
 6161SOL    HW229943   4.045   4.624   7.269  0.9528 -1.0904 -0.0962
 6162SOL     OW29944   3.497   2.853   0.337 -0.0043 -0.0159 -0.0287
 6162SOL    HW129945   3.497   2.948   0.328 -0.7134 -0.0971 -0.9007
 6162SOL    HW229946   3.409   2.853   0.375  1.2009 -0.4978  2.8015
 6163SOL     OW29947   0.188   4.166   4.040  0.1383 -0.1842 -0.7966
 6163SOL    HW129948   0.272   4.181   3.996  0.9313 -1.6334  0.2219
 6163SOL    HW229949   0.180   4.073   4.019  1.1191 -0.0981 -1.5815
 6164SOL     OW29950   0.910   0.628   5.598  0.1491 -0.0362 -0.2464
 6164SOL    HW129951   0.831   0.658   5.552  0.4156 -0.4165 -0.9610
 6164SOL    HW229952   0.886   0.550   5.649 -1.2513 -0.4821 -1.5634
 6165SOL     OW29953   2.758   2.839   7.539  0.5648  0.5396  0.0043
 6165SOL    HW129954   2.663   2.838   7.530  0.3077  1.3509  2.4728
 6165SOL    HW229955   2.778   2.787   7.462 -1.2704 -1.7689  1.1052
 6166SOL     OW29956   3.503   0.389   5.444 -0.0024  0.2757  1.0423
 6166SOL    HW129957   3.477   0.321   5.383  1.5294 -1.3088  2.1475
 6166SOL    HW229958   3.521   0.463   5.386 -2.6203  1.4230  1.6715
 6167SOL     OW29959   1.168   0.856   7.185 -0.2090  0.4570 -0.5311
 6167SOL    HW129960   1.111   0.900   7.122 -0.7338  1.5949  0.7453
 6167SOL    HW229961   1.254   0.898   7.174  0.4242 -0.3587  1.3735
 6168SOL     OW29962   0.465   4.628   2.842 -0.1737 -0.1420  0.1798
 6168SOL    HW129963   0.377   4.605   2.811  0.0122  1.8636 -1.8565
 6168SOL    HW229964   0.514   4.582   2.774  1.0071  1.1009  0.1946
 6169SOL     OW29965   1.605   2.522   6.927 -0.0325 -0.6151  0.1767
 6169SOL    HW129966   1.563   2.490   6.847  0.2405 -0.8530  0.1285
 6169SOL    HW229967   1.543   2.498   6.996  1.4626  0.0729  1.7736
 6170SOL     OW29968   3.747   2.057  17.627 -0.4132  0.4192  0.3528
 6170SOL    HW129969   3.818   2.035  17.567  0.6017  1.2448  1.2600
 6170SOL    HW229970   3.723   2.147  17.608 -0.4337  0.0669 -1.3001
 6171SOL     OW29971   2.617   3.987   2.975 -0.2984 -0.1164  0.2623
 6171SOL    HW129972   2.612   4.073   2.934  0.3966  0.4622  1.3895
 6171SOL    HW229973   2.712   3.972   2.978 -0.4082 -1.0955 -0.9136
 6172SOL     OW29974   4.098   2.777   1.854  0.3780 -0.0630  0.4039
 6172SOL    HW129975   4.045   2.712   1.808  0.5560 -0.0863  0.2340
 6172SOL    HW229976   4.068   2.846   1.795 -1.8735 -0.6475  0.8553
 6173SOL     OW29977   1.861   0.732   3.267  0.5387 -0.1556  0.3331
 6173SOL    HW129978   1.908   0.804   3.310  0.6562 -0.8389  1.3392
 6173SOL    HW229979   1.936   0.703   3.216  0.8942  0.3224  0.5770
 6174SOL     OW29980   3.261   0.266   3.028  0.1292  0.4362  0.5939
 6174SOL    HW129981   3.327   0.277   3.096  0.8328 -0.7344  0.1099
 6174SOL    HW229982   3.179   0.285   3.073  1.1688  1.9076  1.8548
 6175SOL     OW29983   1.047   1.278   8.779  0.1505  0.2834 -0.5310
 6175SOL    HW129984   0.958   1.303   8.755 -0.9252 -3.5535 -0.5080
 6175SOL    HW229985   1.022   1.221   8.852  0.5679  0.1836 -0.4643
 6176SOL     OW29986   3.822   3.089   5.195  0.1043 -0.3596  0.0946
 6176SOL    HW129987   3.750   3.142   5.160 -0.7625 -1.7170 -0.2293
 6176SOL    HW229988   3.872   3.165   5.221 -0.2783 -0.5317  1.3528
 6177SOL     OW29989   0.163   0.994   0.662  0.1988 -0.0165  0.3431
 6177SOL    HW129990   0.221   1.029   0.730 -0.8624 -0.4298  1.4506
 6177SOL    HW229991   0.114   1.076   0.654 -1.8134 -1.4150 -1.3521
 6178SOL     OW29992   4.077   0.632  15.070  0.2338 -0.3125  0.1131
 6178SOL    HW129993   4.042   0.579  14.998 -0.9027  0.8462 -0.2001
 6178SOL    HW229994   4.168   0.643  15.042 -0.1904 -0.2561 -1.2619
 6179SOL     OW29995   2.682   3.010   2.557  0.0488 -0.0497 -0.0877
 6179SOL    HW129996   2.684   2.965   2.473  1.6365 -0.1132 -0.0159
 6179SOL    HW229997   2.667   2.932   2.611 -1.0095 -0.3128 -0.7612
 6180SOL     OW29998   3.865   3.981  15.527 -0.2390  0.1436 -0.2364
 6180SOL    HW129999   3.951   3.996  15.489  0.5548  0.2722  1.6104
 6180SOL    HW230000   3.891   3.921  15.597  1.7272 -1.1433 -2.0838
 6181SOL     OW30001   1.403   0.308   8.566 -0.2520 -0.1928 -0.0147
 6181SOL    HW130002   1.487   0.274   8.596 -0.2338 -1.0301 -0.9938
 6181SOL    HW230003   1.417   0.399   8.591  2.3006  0.1255 -2.6882
 6182SOL     OW30004   4.476   1.932   1.268 -0.1269 -0.1041 -0.0991
 6182SOL    HW130005   4.492   2.026   1.277  0.2192 -0.2880  1.1302
 6182SOL    HW230006   4.389   1.937   1.227 -0.9423 -1.6461  1.4809
 6183SOL     OW30007   2.926   2.437   3.662  0.0399  0.6037  0.0084
 6183SOL    HW130008   2.939   2.529   3.639 -4.4699  0.9800 -1.0686
 6183SOL    HW230009   3.008   2.408   3.702  0.0466 -0.6684 -0.9303
 6184SOL     OW30010   1.208   2.449  17.226  0.2495 -0.3637  0.0697
 6184SOL    HW130011   1.192   2.371  17.174 -4.4247 -1.3919  2.9533
 6184SOL    HW230012   1.125   2.495  17.217 -0.0938 -1.4190 -2.1016
 6185SOL     OW30013   0.124   3.679  12.040 -0.0252  0.1665  0.1591
 6185SOL    HW130014   0.139   3.593  12.000 -1.0306  0.5300 -1.0010
 6185SOL    HW230015   0.049   3.656  12.096  2.4290  0.6808  3.6342
 6186SOL     OW30016   3.750   2.283   4.651  0.1582 -0.0198 -0.0126
 6186SOL    HW130017   3.833   2.281   4.604 -0.3780  0.0631 -0.9795
 6186SOL    HW230018   3.734   2.189   4.661 -1.2622  0.4076  1.6631
 6187SOL     OW30019   2.900   2.934   3.056  0.3321  0.4017  0.0528
 6187SOL    HW130020   2.957   2.977   2.992  0.1627 -0.7246 -0.8489
 6187SOL    HW230021   2.953   2.859   3.083  0.1408  0.6895  1.2120
 6188SOL     OW30022   4.176   4.326   6.670  0.4794 -0.5533  0.2554
 6188SOL    HW130023   4.249   4.281   6.713 -0.4983 -1.9990  0.4083
 6188SOL    HW230024   4.173   4.277   6.588 -2.3979 -0.6552  0.4219
 6189SOL     OW30025   0.679   0.782   6.192 -0.3611  0.4181 -0.5248
 6189SOL    HW130026   0.585   0.771   6.180 -0.0906 -1.9447 -0.4340
 6189SOL    HW230027   0.706   0.818   6.107 -1.1801  2.4315  0.0710
 6190SOL     OW30028   2.796   2.339   2.448 -0.0220  0.2307 -0.1348
 6190SOL    HW130029   2.761   2.258   2.486 -1.2324  0.1982 -1.3295
 6190SOL    HW230030   2.890   2.331   2.465  0.0296 -0.5317 -0.7953
 6191SOL     OW30031   0.951   2.290   3.230 -0.2401  0.5887  0.1240
 6191SOL    HW130032   0.972   2.197   3.232 -0.7082  0.4948  0.4080
 6191SOL    HW230033   1.026   2.328   3.277 -1.7283  3.1583  0.4351
 6192SOL     OW30034   2.464   4.720   9.274 -0.5776  0.3595  0.2342
 6192SOL    HW130035   2.527   0.040   9.216  0.4435 -1.4444 -0.0088
 6192SOL    HW230036   2.417   0.068   9.317 -0.8207  1.4151 -1.7652
 6193SOL     OW30037   0.027   1.430   5.160 -0.4474  0.5183  0.2158
 6193SOL    HW130038   0.095   1.437   5.094 -1.6546  1.8065 -0.9146
 6193SOL    HW230039   0.073   1.427   5.244  1.2345  0.6228 -0.7104
 6194SOL     OW30040   0.969   4.499   9.830 -0.1300 -0.2206 -0.2886
 6194SOL    HW130041   1.040   4.550   9.869  1.4222 -2.2789 -0.3854
 6194SOL    HW230042   0.988   4.489   9.736 -1.3605  0.8558 -0.6374
 6195SOL     OW30043   3.055   3.092   4.300  0.2738  0.3154 -0.4303
 6195SOL    HW130044   3.108   3.171   4.299 -0.3466  0.7210 -0.8433
 6195SOL    HW230045   3.075   3.058   4.387 -2.6026  0.2141  0.1724
 6196SOL     OW30046   3.741   1.126  14.920 -0.3494 -0.8856  0.6519
 6196SOL    HW130047   3.749   1.030  14.922  0.4338 -0.7981  1.7199
 6196SOL    HW230048   3.830   1.148  14.893 -0.6189  0.6939  1.0843
 6197SOL     OW30049   1.404   0.647  15.586  0.2140  0.5812  0.2757
 6197SOL    HW130050   1.493   0.656  15.551  0.0033  1.6239 -0.0057
 6197SOL    HW230051   1.421   0.702  15.662  2.1766 -1.9645  1.6907
 6198SOL     OW30052   4.677   0.667   8.529  0.1158 -0.1929 -0.7021
 6198SOL    HW130053   0.028   0.657   8.469  3.0281  0.6755  2.7386
 6198SOL    HW230054   4.608   0.704   8.473  0.8743  1.5714 -0.4584
 6199SOL     OW30055   2.297   4.167   4.797  0.6516  0.3031  0.6821
 6199SOL    HW130056   2.201   4.166   4.791  0.9337 -0.4691 -3.2026
 6199SOL    HW230057   2.305   4.137   4.888  2.0968 -0.9567  0.1242
 6200SOL     OW30058   0.592   1.306  10.839  0.0055  0.1421 -0.2501
 6200SOL    HW130059   0.511   1.258  10.823  0.1289  0.2865 -1.3003
 6200SOL    HW230060   0.558   1.392  10.865 -0.6936 -0.0791 -0.4452
 6201SOL     OW30061   0.081   1.346   1.122  0.0964  0.1248  0.1950
 6201SOL    HW130062   0.167   1.361   1.082  0.2234  0.2399  0.5074
 6201SOL    HW230063   0.022   1.418   1.099  1.7264  0.1390 -3.7973
 6202SOL     OW30064   4.638   2.686   7.368 -0.6730 -0.0948  0.0939
 6202SOL    HW130065   0.005   2.679   7.401 -1.2686  0.4947  1.8990
 6202SOL    HW230066   4.611   2.603   7.408 -1.5631 -0.7626 -1.8897
 6203SOL     OW30067   0.708   3.994   3.315 -0.1096  0.1558 -0.0465
 6203SOL    HW130068   0.764   4.034   3.248 -0.1786  1.3800  0.6267
 6203SOL    HW230069   0.714   3.905   3.280 -1.0788 -0.2317  0.8147
 6204SOL     OW30070   2.339   2.058  10.378  0.1457 -0.0163  0.0190
 6204SOL    HW130071   2.282   1.986  10.353  0.4384 -0.1740 -0.1985
 6204SOL    HW230072   2.415   2.035  10.324 -0.7248  0.1581 -1.2787
 6205SOL     OW30073   3.555   1.913   0.100  0.0995  0.4063  0.1650
 6205SOL    HW130074   3.480   1.973   0.100 -0.0946  0.1633  0.0441
 6205SOL    HW230075   3.614   1.963   0.044 -1.1626  1.5289 -0.1545
 6206SOL     OW30076   0.270   3.403   7.631 -0.7412 -0.1468  0.5341
 6206SOL    HW130077   0.305   3.461   7.699  2.0305 -0.2036 -0.8199
 6206SOL    HW230078   0.246   3.324   7.678  0.1810 -0.8142 -0.1164
 6207SOL     OW30079   4.440   0.472   2.740 -0.2489  0.0435 -0.3969
 6207SOL    HW130080   4.505   0.452   2.673  1.6771 -0.2382  1.5798
 6207SOL    HW230081   4.367   0.502   2.686  0.2350  1.0963 -0.4578
 6208SOL     OW30082   0.492   3.058  17.113 -0.9249  0.2503 -0.5971
 6208SOL    HW130083   0.471   2.987  17.052  0.9304  0.2087 -1.1676
 6208SOL    HW230084   0.414   3.062  17.169 -0.8296  0.5104 -0.4844
 6209SOL     OW30085   3.677   1.097   8.129  0.7815 -0.0222 -0.3064
 6209SOL    HW130086   3.603   1.049   8.091  1.5870 -1.6894  0.2430
 6209SOL    HW230087   3.704   1.146   8.052 -1.0133  0.7000 -0.4818
 6210SOL     OW30088   3.252   0.659   9.781  0.3396 -0.0674 -0.4679
 6210SOL    HW130089   3.285   0.588   9.836 -2.0091 -0.6923  0.1470
 6210SOL    HW230090   3.202   0.697   9.853  0.4788 -1.0672  0.1596
 6211SOL     OW30091   0.896   4.510   5.064 -0.1410 -0.6342 -0.1799
 6211SOL    HW130092   0.968   4.571   5.082 -1.8826  0.9423  1.5106
 6211SOL    HW230093   0.817   4.562   5.080 -0.1963 -0.5093 -0.8839
 6212SOL     OW30094   4.200   4.561   7.812  0.5983  0.2534  0.6981
 6212SOL    HW130095   4.155   4.566   7.728  1.3949  2.3963  0.3889
 6212SOL    HW230096   4.125   4.534   7.866  0.3372 -1.6494 -0.6087
 6213SOL     OW30097   1.069   3.149  10.070 -0.4455 -0.3349 -0.3032
 6213SOL    HW130098   1.055   3.185  10.157  2.0896  1.7459 -0.7721
 6213SOL    HW230099   1.163   3.134  10.064 -0.0146  2.0372  0.8008
 6214SOL     OW30100   1.801   4.012   1.653 -0.7458 -0.6525 -0.1031
 6214SOL    HW130101   1.816   4.067   1.575 -0.4830  0.0150  0.4176
 6214SOL    HW230102   1.746   3.946   1.610  0.9987 -1.4010 -1.2077
 6215SOL     OW30103   1.786   4.055   6.477 -0.0945 -0.1600  0.2990
 6215SOL    HW130104   1.816   3.979   6.427 -1.9468  1.0264 -2.6386
 6215SOL    HW230105   1.730   4.028   6.550 -0.8674  3.7402  1.1940
 6216SOL     OW30106   2.008   2.037  11.736 -0.0706 -0.5752 -0.2260
 6216SOL    HW130107   1.941   2.019  11.670 -1.7231 -2.1987  1.9033
 6216SOL    HW230108   2.018   1.949  11.772  1.8249  0.0920  0.8678
 6217SOL     OW30109   1.805   0.200   9.170  0.1497 -0.2583 -0.6586
 6217SOL    HW130110   1.804   0.145   9.092  0.1531 -0.5041 -0.4868
 6217SOL    HW230111   1.838   0.279   9.128 -1.1175  0.7669  0.2733
 6218SOL     OW30112   3.193   4.362   8.385  0.4884  0.1536  0.1507
 6218SOL    HW130113   3.118   4.304   8.370 -0.0238  0.4292  1.7419
 6218SOL    HW230114   3.205   4.425   8.314  1.3490 -1.3488 -1.0307
 6219SOL     OW30115   1.714   1.994   1.925  0.0136  0.5298 -0.7588
 6219SOL    HW130116   1.778   1.927   1.949  1.8010  3.5240  2.9912
 6219SOL    HW230117   1.774   2.068   1.935  0.1682  0.3258 -0.1919
 6220SOL     OW30118   1.464   4.668   6.373 -0.6972 -0.2250  0.5969
 6220SOL    HW130119   1.376   4.637   6.353 -2.2715  3.0497  2.4800
 6220SOL    HW230120   1.500   4.677   6.285 -1.6090  1.3850  0.3772
 6221SOL     OW30121   3.100   1.896   6.442  0.4770 -0.4903  0.0194
 6221SOL    HW130122   3.026   1.864   6.390 -0.5425  1.6984  0.0978
 6221SOL    HW230123   3.159   1.828   6.410  1.2295  0.2823 -0.2289
 6222SOL     OW30124   2.878   1.334   6.740  0.5104  0.4806  0.1753
 6222SOL    HW130125   2.960   1.383   6.731  1.8476 -1.9980 -0.9847
 6222SOL    HW230126   2.815   1.386   6.690 -0.1814 -0.1345  0.4169
 6223SOL     OW30127   1.356   3.722   6.970  0.6685 -0.3662  0.1727
 6223SOL    HW130128   1.313   3.682   7.046  0.3937 -1.6818 -0.6765
 6223SOL    HW230129   1.428   3.776   7.003 -0.6876  1.7569 -0.2995
 6224SOL     OW30130   2.372   1.253   5.771  0.5388 -0.2000 -0.3122
 6224SOL    HW130131   2.378   1.246   5.675 -0.0329 -0.1915 -0.3503
 6224SOL    HW230132   2.433   1.324   5.790 -0.2595  0.2630  0.4996
 6225SOL     OW30133   3.687   3.211   4.119  0.3949 -0.1707 -0.2854
 6225SOL    HW130134   3.594   3.202   4.096  0.3982  0.4014 -0.5104
 6225SOL    HW230135   3.672   3.207   4.213 -1.1395  2.0042 -0.4361
 6226SOL     OW30136   2.456   1.303   1.764 -0.5226 -0.0941  0.2985
 6226SOL    HW130137   2.402   1.224   1.772  1.3706 -1.5421 -1.2066
 6226SOL    HW230138   2.520   1.300   1.834 -1.3589 -0.7070  1.0493
 6227SOL     OW30139   1.552   0.897   3.280  0.0211  0.2278 -0.1523
 6227SOL    HW130140   1.577   0.811   3.314  1.5004  0.4096 -0.7932
 6227SOL    HW230141   1.598   0.961   3.335  1.1189 -2.8298  2.4993
 6228SOL     OW30142   3.314   4.190   5.065 -0.0069 -0.1476  0.5436
 6228SOL    HW130143   3.253   4.133   5.112  0.7063 -0.0181  1.6559
 6228SOL    HW230144   3.334   4.250   5.137 -1.6722 -0.0564  0.9307
 6229SOL     OW30145   3.532   1.313   8.555 -0.2651 -0.5082  0.3691
 6229SOL    HW130146   3.496   1.342   8.639  1.1641  1.4322  0.2984
 6229SOL    HW230147   3.453   1.273   8.518 -0.5315 -0.1672  0.5710
 6230SOL     OW30148   1.254   3.609   7.190 -0.1691 -0.4375  0.0259
 6230SOL    HW130149   1.298   3.582   7.271  0.4886 -0.5920 -0.3902
 6230SOL    HW230150   1.167   3.628   7.227 -0.1380 -0.9235  0.3446
 6231SOL     OW30151   0.441   1.904   2.065 -0.0714 -0.1554 -0.1722
 6231SOL    HW130152   0.465   1.861   2.147 -1.1329  0.0341  0.2478
 6231SOL    HW230153   0.346   1.895   2.055 -0.2450  1.2990  0.0903
 6232SOL     OW30154   0.439   0.676   5.170 -0.4782 -0.1289  0.1350
 6232SOL    HW130155   0.417   0.690   5.077  1.3846  1.2031 -0.1046
 6232SOL    HW230156   0.529   0.703   5.188  0.6240 -2.7275 -1.4484
 6233SOL     OW30157   3.553   2.883   5.366 -0.6636  0.5925 -0.4300
 6233SOL    HW130158   3.475   2.853   5.319 -0.1139 -0.1542 -0.8614
 6233SOL    HW230159   3.596   2.924   5.290 -0.0968  0.5844 -0.1092
 6234SOL     OW30160   4.574   0.410   2.517  0.2195  0.0460  0.1586
 6234SOL    HW130161   4.492   0.392   2.471  0.6998 -0.9782 -0.3062
 6234SOL    HW230162   4.619   0.329   2.494 -0.7261 -1.1093  2.4264
 6235SOL     OW30163   0.732   4.539   8.887 -0.5603 -0.0465 -0.2084
 6235SOL    HW130164   0.820   4.526   8.852  0.5525 -1.6714  3.2895
 6235SOL    HW230165   0.724   4.630   8.858 -0.5736  1.0445  3.2922
 6236SOL     OW30166   1.147   3.150   1.299 -0.1315  0.9384 -0.3579
 6236SOL    HW130167   1.071   3.167   1.244 -1.1464  1.1220  1.0887
 6236SOL    HW230168   1.190   3.231   1.272  2.0314 -0.3367 -0.7403
 6237SOL     OW30169   2.508   3.868   7.915  0.0946  0.3710  0.1561
 6237SOL    HW130170   2.481   3.861   7.823  0.9520  2.4604 -0.2759
 6237SOL    HW230171   2.481   3.956   7.941 -0.5675  0.6593 -1.4722
 6238SOL     OW30172   3.492   4.613   7.101  0.5167 -0.3973 -0.7115
 6238SOL    HW130173   3.488   4.688   7.042 -0.5805 -3.0435 -3.9874
 6238SOL    HW230174   3.439   4.552   7.050 -1.2364 -0.6341  1.3590
 6239SOL     OW30175   4.420   1.012   4.897 -0.4287  0.1355  0.1273
 6239SOL    HW130176   4.400   0.985   4.807  0.7000 -0.0128 -0.0758
 6239SOL    HW230177   4.513   0.993   4.898 -0.8120 -1.6629  1.2795
 6240SOL     OW30178   0.214   0.973   8.895  0.4434  0.3244 -0.2467
 6240SOL    HW130179   0.283   1.038   8.908 -0.5205  1.6363 -1.5873
 6240SOL    HW230180   0.129   1.012   8.916  0.7937  0.8837  0.1157
 6241SOL     OW30181   4.002   1.168   8.591 -0.0908 -0.0969 -0.3098
 6241SOL    HW130182   3.971   1.120   8.515 -0.5729  0.7540 -0.6463
 6241SOL    HW230183   3.990   1.098   8.655  0.7501  0.7249  0.7536
 6242SOL     OW30184   0.430   3.600   2.979 -0.0411 -0.4878  0.0941
 6242SOL    HW130185   0.453   3.676   2.925  0.6578 -0.9401 -0.2345
 6242SOL    HW230186   0.515   3.557   2.982  0.3423  0.1658 -1.2912
 6243SOL     OW30187   1.224   3.872   3.724 -0.4071  0.0397 -0.2162
 6243SOL    HW130188   1.288   3.811   3.761  1.0066  1.2253 -0.7063
 6243SOL    HW230189   1.246   3.854   3.632  1.1219 -0.7592  0.3030
 6244SOL     OW30190   0.141   1.502   2.562 -0.3138 -0.2301  0.7413
 6244SOL    HW130191   0.211   1.471   2.505 -1.5432  0.5748 -1.2043
 6244SOL    HW230192   0.111   1.424   2.608 -0.6826  0.6444  1.9989
 6245SOL     OW30193   3.488   3.393   5.964 -0.4398 -0.0289  0.4861
 6245SOL    HW130194   3.508   3.404   5.870  2.4373 -0.6023  1.0176
 6245SOL    HW230195   3.473   3.299   5.957 -0.1543 -0.3397  4.2332
 6246SOL     OW30196   4.357   4.239  10.343  0.5076 -0.4667 -0.5646
 6246SOL    HW130197   4.448   4.266  10.344 -0.5156  3.0168 -0.4007
 6246SOL    HW230198   4.317   4.297  10.409  1.3588  1.6086 -1.8601
 6247SOL     OW30199   0.546   3.132  14.835  0.0403  0.0278 -0.1608
 6247SOL    HW130200   0.532   3.141  14.741 -2.2234 -1.7130  0.0165
 6247SOL    HW230201   0.589   3.212  14.864  0.6217  0.3379 -1.8824
 6248SOL     OW30202   4.198   3.519   3.574 -0.0497 -0.1840  0.0673
 6248SOL    HW130203   4.132   3.452   3.593 -1.3602  0.6454 -1.5811
 6248SOL    HW230204   4.150   3.600   3.592  0.2533  0.1905 -0.7985
 6249SOL     OW30205   1.216   4.322   8.262  0.7743  0.3906  0.4319
 6249SOL    HW130206   1.214   4.322   8.358  1.9999 -0.3067  0.4605
 6249SOL    HW230207   1.227   4.416   8.248 -0.9489  0.6126  0.5953
 6250SOL     OW30208   2.292   1.090   4.963 -0.1724 -0.5914  0.6296
 6250SOL    HW130209   2.284   1.013   4.907  1.5802 -1.1056  1.0894
 6250SOL    HW230210   2.272   1.149   4.891  0.7768  1.0274  1.6766
 6251SOL     OW30211   2.203   0.340   7.847  0.3627 -0.4831  0.0776
 6251SOL    HW130212   2.216   0.393   7.926 -1.1481  2.2487 -1.5278
 6251SOL    HW230213   2.229   0.410   7.787  0.2876  0.9584  1.7136
 6252SOL     OW30214   4.516   2.737   5.082 -0.5491 -0.2092 -0.2561
 6252SOL    HW130215   4.547   2.746   4.992 -3.3111  0.7909 -1.1078
 6252SOL    HW230216   4.423   2.727   5.064 -0.8766  3.5262 -0.6101
 6253SOL     OW30217   1.385   3.498   8.205 -0.2315  0.1064 -0.0370
 6253SOL    HW130218   1.436   3.575   8.179 -0.7180  0.4702  0.1040
 6253SOL    HW230219   1.448   3.448   8.257 -1.0329 -2.1789 -1.2709
 6254SOL     OW30220   2.289   3.414  12.061  0.2447  0.5052  0.4264
 6254SOL    HW130221   2.323   3.350  12.123 -0.6516  0.3148  0.7200
 6254SOL    HW230222   2.318   3.380  11.976 -0.8574 -0.5828  0.4775
 6255SOL     OW30223   4.627   0.109   9.135 -0.0381 -0.1185 -0.8156
 6255SOL    HW130224   4.575   0.035   9.102  0.1453 -0.1606 -1.0067
 6255SOL    HW230225   4.688   0.068   9.196 -1.2700 -0.2162  0.3599
 6256SOL     OW30226   0.932   1.134   0.657  0.5295  0.2124  0.2702
 6256SOL    HW130227   0.837   1.145   0.654  0.3366 -1.2526  0.7675
 6256SOL    HW230228   0.975   1.200   0.603 -2.6435  2.4284  0.4784
 6257SOL     OW30229   4.635   2.084   5.241 -0.1892  0.0409 -0.3889
 6257SOL    HW130230   4.718   2.107   5.200 -0.7253 -0.0709 -1.5524
 6257SOL    HW230231   4.574   2.141   5.194  0.0932  0.1202 -0.6613
 6258SOL     OW30232   2.931   1.781  10.123 -0.2791  0.1661 -0.5904
 6258SOL    HW130233   2.918   1.872  10.150  0.6839  0.5649 -1.4532
 6258SOL    HW230234   2.904   1.798  10.032 -0.7176  0.7032 -0.3611
 6259SOL     OW30235   1.613   1.489   2.843 -0.2243 -0.3998 -0.2851
 6259SOL    HW130236   1.632   1.579   2.870  0.2122 -0.2123 -1.2430
 6259SOL    HW230237   1.595   1.483   2.750  0.4696  2.2042 -0.5990
 6260SOL     OW30238   0.737   1.208   5.570 -0.0089 -0.4950 -0.2701
 6260SOL    HW130239   0.656   1.241   5.609 -0.2782 -0.5196 -0.8029
 6260SOL    HW230240   0.761   1.143   5.637 -0.3510  0.3035  0.6236
 6261SOL     OW30241   2.754   1.390  12.698 -0.0350  0.0778 -0.2156
 6261SOL    HW130242   2.678   1.344  12.734  1.1949 -1.8209 -0.0318
 6261SOL    HW230243   2.778   1.326  12.631 -0.2415  0.4632 -0.6611
 6262SOL     OW30244   0.172   1.994   8.200  0.0403  0.0719  0.2502
 6262SOL    HW130245   0.113   1.927   8.235  1.2134 -0.3915  1.3500
 6262SOL    HW230246   0.197   1.958   8.115 -1.3359 -1.3212  0.4262
 6263SOL     OW30247   0.135   2.756  14.994 -0.0228  0.0659 -0.4987
 6263SOL    HW130248   0.134   2.662  15.014 -0.7620  0.7341  2.5947
 6263SOL    HW230249   0.197   2.788  15.059  1.4285 -1.2261 -1.2543
 6264SOL     OW30250   0.141   2.415  13.919  0.3280 -0.1047  0.0882
 6264SOL    HW130251   0.060   2.376  13.951  0.1742  1.3182  1.4316
 6264SOL    HW230252   0.192   2.425  13.999 -0.8189 -0.2019  0.8264
 6265SOL     OW30253   1.208   0.939  16.442 -0.3391 -0.5893 -0.2648
 6265SOL    HW130254   1.186   1.027  16.410  1.7097 -0.5446 -1.5538
 6265SOL    HW230255   1.141   0.888  16.397 -0.1431 -0.2313 -0.9574
 6266SOL     OW30256   2.004   4.591   2.947 -0.0903  0.0629 -0.1303
 6266SOL    HW130257   2.071   4.562   3.009 -0.0410  1.5357  0.5014
 6266SOL    HW230258   1.956   4.509   2.933 -2.2378  1.2399  0.2159
 6267SOL     OW30259   0.023   0.559   5.805 -0.1011 -0.0518  0.1983
 6267SOL    HW130260   4.714   0.644   5.835 -2.4027 -0.7286 -0.2991
 6267SOL    HW230261   4.680   0.497   5.837  1.6720 -0.7383  2.5422
 6268SOL     OW30262   3.571   2.746   4.270 -0.1730  0.1456 -0.1421
 6268SOL    HW130263   3.665   2.764   4.274  0.0350 -0.8574 -0.6827
 6268SOL    HW230264   3.547   2.742   4.177  1.1797 -0.0362 -0.4734
 6269SOL     OW30265   1.375   4.053   0.719  0.5191 -0.5478 -0.1376
 6269SOL    HW130266   1.293   4.101   0.732 -0.1514 -2.1219  1.3332
 6269SOL    HW230267   1.391   4.008   0.801  0.0248  0.3217  0.4354
 6270SOL     OW30268   2.228   1.961   3.900  0.2650 -0.5545  0.0092
 6270SOL    HW130269   2.137   1.954   3.929  0.4629 -0.3138  0.7092
 6270SOL    HW230270   2.253   1.870   3.913  0.3763 -0.5545 -0.2120
 6271SOL     OW30271   4.670   4.712   4.782 -0.2653  0.3546  0.0133
 6271SOL    HW130272   4.680   4.637   4.724  0.7150  0.7995 -0.3732
 6271SOL    HW230273   4.695   0.057   4.720 -1.4225  0.5625 -0.2291
 6272SOL     OW30274   2.536   1.927  10.584  0.9263 -0.0350 -0.6677
 6272SOL    HW130275   2.537   1.975  10.666  2.0564 -0.9133 -0.1640
 6272SOL    HW230276   2.497   1.999  10.535  0.4347  0.8770  1.0729
 6273SOL     OW30277   0.224   3.987   0.822 -0.1693 -0.0479  0.3567
 6273SOL    HW130278   0.151   4.042   0.793 -0.4759  0.7692  2.6569
 6273SOL    HW230279   0.254   3.948   0.741  0.7272 -0.9789  1.1318
 6274SOL     OW30280   3.927   1.682   8.432 -0.2527 -0.2192  0.4214
 6274SOL    HW130281   3.833   1.681   8.415  0.2529 -0.5033 -2.3904
 6274SOL    HW230282   3.938   1.592   8.464  2.5338 -0.8392 -2.2497
 6275SOL     OW30283   2.738   1.896   7.487  0.0710 -0.3738  0.0214
 6275SOL    HW130284   2.824   1.860   7.467  0.6637  1.2091 -0.2734
 6275SOL    HW230285   2.754   1.985   7.520  1.3021 -0.7713  0.4961
 6276SOL     OW30286   3.781   0.121   3.585 -0.2021 -0.0436 -0.3887
 6276SOL    HW130287   3.781   0.035   3.627 -0.8734 -0.1465 -0.6048
 6276SOL    HW230288   3.792   0.094   3.493 -0.5368  1.9864 -1.0148
 6277SOL     OW30289   4.342   0.087  15.604 -0.6437 -0.1114 -0.1346
 6277SOL    HW130290   4.253   0.072  15.570  0.2525 -0.4892 -2.3249
 6277SOL    HW230291   4.386   0.140  15.537 -3.2173  1.1501 -0.8554
 6278SOL     OW30292   0.850   3.588  14.710  0.2446  0.1124 -0.1405
 6278SOL    HW130293   0.797   3.513  14.736 -1.1430  1.2848  0.4213
 6278SOL    HW230294   0.885   3.601  14.799  1.6092 -0.5620 -0.5770
 6279SOL     OW30295   3.904   4.330   8.248 -0.0125  0.5270  0.0412
 6279SOL    HW130296   3.953   4.361   8.324  0.1563  0.9009 -0.2202
 6279SOL    HW230297   3.847   4.407   8.237 -1.3152 -0.4102  0.2004
 6280SOL     OW30298   0.965   0.556   6.206  0.5425  0.3132 -0.4194
 6280SOL    HW130299   1.042   0.544   6.150  0.8286  1.2103 -0.2234
 6280SOL    HW230300   0.903   0.561   6.133 -0.7593  0.2104  0.6686
 6281SOL     OW30301   2.731   2.770   2.698 -0.0627 -0.0744  0.2738
 6281SOL    HW130302   2.675   2.764   2.775 -0.1663 -2.0999  0.0358
 6281SOL    HW230303   2.731   2.677   2.675  4.1049 -0.3704  1.3387
 6282SOL     OW30304   3.880   4.359   5.559  0.4426  0.7657 -0.0183
 6282SOL    HW130305   3.975   4.350   5.564  0.5457  1.6083 -0.3592
 6282SOL    HW230306   3.877   4.409   5.477 -1.3316  0.6855  0.0115
 6283SOL     OW30307   0.498   1.575  16.261 -0.3254 -0.4065  0.1940
 6283SOL    HW130308   0.472   1.618  16.343  2.4502  1.2740  0.2088
 6283SOL    HW230309   0.524   1.650  16.207 -1.1867 -1.7157 -2.0738
 6284SOL     OW30310   2.882   3.902   2.988  0.2970  0.6487  0.0058
 6284SOL    HW130311   2.971   3.873   3.010  0.8433  1.5336 -1.0638
 6284SOL    HW230312   2.883   3.883   2.895 -0.9618 -1.2020  0.3784
 6285SOL     OW30313   0.839   0.845  14.268  0.2401 -0.1847 -0.1697
 6285SOL    HW130314   0.923   0.888  14.253  0.2428 -0.3395 -0.5912
 6285SOL    HW230315   0.853   0.753  14.291 -0.4872  0.6612  3.5832
 6286SOL     OW30316   1.038   3.229   7.613 -0.3393 -0.3833  0.2871
 6286SOL    HW130317   1.080   3.304   7.656 -0.6238  0.3656 -0.7399
 6286SOL    HW230318   1.096   3.163   7.650  0.2146 -0.1355 -0.1383
 6287SOL     OW30319   1.779   2.670   7.087  0.0081 -0.0539  0.3050
 6287SOL    HW130320   1.710   2.614   7.051 -0.7249  0.9006  0.2110
 6287SOL    HW230321   1.821   2.679   7.001 -0.8943 -1.3674 -0.2745
 6288SOL     OW30322   0.492   3.847   4.459 -0.1084 -0.3843 -0.0841
 6288SOL    HW130323   0.584   3.874   4.455 -0.2841 -0.0189 -1.9236
 6288SOL    HW230324   0.453   3.910   4.398 -1.1427 -0.7887  0.1780
 6289SOL     OW30325   0.226   0.397  13.811 -0.3679  0.4449 -0.7620
 6289SOL    HW130326   0.185   0.363  13.731 -2.3194 -0.0909  0.4744
 6289SOL    HW230327   0.267   0.315  13.839 -2.4108 -0.8178 -1.4159
 6290SOL     OW30328   0.372   1.381   1.005 -0.1838 -0.5763 -0.3654
 6290SOL    HW130329   0.409   1.360   1.091  0.5779 -0.2315 -0.6122
 6290SOL    HW230330   0.408   1.468   0.988 -1.6602 -0.1235 -1.2035
 6291SOL     OW30331   3.866   3.621  10.114 -0.0839 -0.0524 -0.6969
 6291SOL    HW130332   3.869   3.535  10.156  0.4874 -0.2350 -1.1205
 6291SOL    HW230333   3.958   3.644  10.123 -0.2669 -0.4933  2.2081
 6292SOL     OW30334   1.485   1.859   7.252 -0.2796  0.4443  0.5647
 6292SOL    HW130335   1.464   1.903   7.169 -0.4216 -0.3037  0.1974
 6292SOL    HW230336   1.560   1.807   7.224  0.9566  1.9309  1.1882
 6293SOL     OW30337   0.736   3.657   2.020 -0.0231  0.0750  0.2732
 6293SOL    HW130338   0.812   3.625   2.067  0.1839  0.4953  0.2255
 6293SOL    HW230339   0.769   3.717   1.953  0.4552 -1.1624 -0.5983
 6294SOL     OW30340   2.206   4.590   6.766 -0.0142  0.2187  0.1506
 6294SOL    HW130341   2.223   4.626   6.854 -2.6947  0.3760  0.6098
 6294SOL    HW230342   2.286   4.568   6.719  1.0709  2.4463  0.9352
 6295SOL     OW30343   3.319   2.790   6.272 -0.5205  0.5115  0.1007
 6295SOL    HW130344   3.414   2.798   6.271 -0.3957 -1.2238 -2.0833
 6295SOL    HW230345   3.288   2.866   6.223 -2.1843 -0.3715 -0.2330
 6296SOL     OW30346   0.876   0.882   0.693 -0.1816  0.2022  0.3819
 6296SOL    HW130347   0.839   0.929   0.768 -0.2412 -1.2454  1.2638
 6296SOL    HW230348   0.939   0.945   0.658 -1.4830  1.9384  1.1516
 6297SOL     OW30349   2.686   0.451   5.091  0.2395 -0.4040 -0.2052
 6297SOL    HW130350   2.593   0.431   5.097  0.7237 -2.1797  1.2027
 6297SOL    HW230351   2.723   0.433   5.177  1.5331  1.0423 -0.4534
 6298SOL     OW30352   3.214   0.030  10.059 -0.0291  0.5543  0.5390
 6298SOL    HW130353   3.248   4.676  10.106  2.2306  0.4161 -1.3147
 6298SOL    HW230354   3.267   0.096  10.103 -0.3676  1.1510  0.0485
 6299SOL     OW30355   2.885   3.913   8.539 -0.3213 -0.0329  0.5997
 6299SOL    HW130356   2.812   3.968   8.567  0.5058  1.5780 -0.3977
 6299SOL    HW230357   2.877   3.898   8.445  0.5061  1.1612  0.3426
 6300SOL     OW30358   2.322   3.730   0.520 -0.3738  0.4167  0.2641
 6300SOL    HW130359   2.390   3.725   0.587  1.1140 -0.0031 -1.2672
 6300SOL    HW230360   2.283   3.817   0.528 -2.3543 -0.2906 -1.5087
 6301SOL     OW30361   3.631   1.328   9.729 -0.9550 -0.4792 -0.3326
 6301SOL    HW130362   3.595   1.398   9.674 -1.7872 -0.1233  0.6502
 6301SOL    HW230363   3.628   1.378   9.811  2.7316 -1.4651  0.3818
 6302SOL     OW30364   4.669   0.308  13.437 -0.6269 -0.1501 -0.4374
 6302SOL    HW130365   0.016   0.374  13.434 -1.7437  1.1424  1.9362
 6302SOL    HW230366   4.596   0.348  13.389 -2.3620 -1.2132  1.3022
 6303SOL     OW30367   1.173   3.384   2.397 -0.1242  0.4854 -0.1544
 6303SOL    HW130368   1.233   3.393   2.471 -0.5198 -1.0020  0.3470
 6303SOL    HW230369   1.194   3.294   2.373 -1.2139 -0.0846  1.0429
 6304SOL     OW30370   1.197   1.230   6.139 -0.7118  0.2448 -0.6736
 6304SOL    HW130371   1.229   1.153   6.186 -1.2426  0.8188  0.6488
 6304SOL    HW230372   1.133   1.272   6.197 -0.3223 -1.0772  0.7088
 6305SOL     OW30373   2.076   2.530  14.704  0.2607 -0.7201  0.2032
 6305SOL    HW130374   2.147   2.594  14.705 -0.9078  0.6166 -1.9874
 6305SOL    HW230375   2.076   2.513  14.798  0.0910  1.2342  0.5568
 6306SOL     OW30376   2.218   4.640  13.079  0.1102 -0.1211  0.4747
 6306SOL    HW130377   2.276   4.715  13.072  0.0485  0.0143  1.4390
 6306SOL    HW230378   2.136   4.679  13.048  1.2378  0.5449 -1.6998
 6307SOL     OW30379   3.821   3.282   3.703 -0.3191  0.4669 -0.6801
 6307SOL    HW130380   3.869   3.285   3.786  0.6986 -0.2555 -1.2424
 6307SOL    HW230381   3.839   3.191   3.679  0.8465  1.3204 -3.0337
 6308SOL     OW30382   1.631   4.292   2.637  0.0487 -0.0663 -0.1401
 6308SOL    HW130383   1.633   4.312   2.731  0.8058 -0.0424 -0.1595
 6308SOL    HW230384   1.641   4.381   2.604 -0.7387 -0.0122 -0.2313
 6309SOL     OW30385   1.129   0.948   9.388 -0.0740 -0.1336  0.0660
 6309SOL    HW130386   1.053   0.892   9.406  1.2679 -1.9411  0.1024
 6309SOL    HW230387   1.137   0.933   9.294 -1.7409 -1.2950  0.1087
 6310SOL     OW30388   2.187   3.464   3.493 -0.4250  0.0232 -0.1966
 6310SOL    HW130389   2.152   3.375   3.497 -0.1009  0.0412  2.5806
 6310SOL    HW230390   2.147   3.500   3.572  0.2561  1.2560 -0.4135
 6311SOL     OW30391   0.015   3.851   8.566  0.0557 -0.1448  0.1345
 6311SOL    HW130392   0.037   3.943   8.549 -1.9785  0.5436  1.1853
 6311SOL    HW230393   0.055   3.841   8.653 -1.3688 -0.3445  0.7773
 6312SOL     OW30394   4.122   0.668   0.316  0.3751  0.6843 -0.1850
 6312SOL    HW130395   4.064   0.740   0.293 -0.0149  0.0715 -1.1100
 6312SOL    HW230396   4.102   0.610   0.243  2.0863 -1.5276  1.0684
 6313SOL     OW30397   4.243   0.067   0.748  0.9553  0.1753 -0.9360
 6313SOL    HW130398   4.200   0.113   0.820 -0.3950 -3.1058  0.3275
 6313SOL    HW230399   4.332   0.046   0.775  1.5053  0.7859 -2.2803
 6314SOL     OW30400   4.017   4.134   2.672  0.3226 -0.2305 -0.2840
 6314SOL    HW130401   4.064   4.211   2.639  0.8155 -0.8356 -1.0013
 6314SOL    HW230402   4.033   4.072   2.601  0.4666 -0.9905  0.4119
 6315SOL     OW30403   3.637   2.466   9.664  0.2151  0.3549  0.3591
 6315SOL    HW130404   3.670   2.542   9.616 -1.5754  0.6599 -0.3978
 6315SOL    HW230405   3.640   2.497   9.754  2.6830  0.3252  0.2662
 6316SOL     OW30406   0.886   3.317  14.195  0.6890 -0.3968  0.0350
 6316SOL    HW130407   0.803   3.317  14.242  0.3218 -4.1653 -0.6796
 6316SOL    HW230408   0.951   3.303  14.264  0.2774 -0.6206  0.3770
 6317SOL     OW30409   4.623   1.497  17.282 -0.2018  0.5628 -0.2508
 6317SOL    HW130410   4.706   1.474  17.324  0.5483 -0.5229 -2.2961
 6317SOL    HW230411   4.629   1.592  17.291 -2.7145  0.4982  1.9341
 6318SOL     OW30412   4.595   0.634  11.895  0.2517 -0.2956  0.8022
 6318SOL    HW130413   4.521   0.575  11.909  1.9926 -2.1439  2.1208
 6318SOL    HW230414   4.572   0.699  11.962 -0.2012 -1.4956  1.8233
 6319SOL     OW30415   2.043   3.574   2.663 -0.1452 -0.3868 -0.1496
 6319SOL    HW130416   2.121   3.615   2.700  0.0417 -0.4259 -0.4956
 6319SOL    HW230417   2.080   3.535   2.584  2.3377  0.7766  0.4306
 6320SOL     OW30418   4.210   0.053   1.848 -0.1078 -0.2866  0.3373
 6320SOL    HW130419   4.191   0.100   1.930 -2.5191 -1.9051  0.7015
 6320SOL    HW230420   4.306   0.050   1.846 -0.1824 -0.5716 -2.0469
 6321SOL     OW30421   2.753   1.678   3.153  0.1938  0.4702 -0.0223
 6321SOL    HW130422   2.661   1.699   3.168  0.0587  0.4324 -0.8159
 6321SOL    HW230423   2.752   1.675   3.058  0.2185 -2.8774  0.0956
 6322SOL     OW30424   2.103   3.151   3.074 -0.1132 -0.3982  0.3073
 6322SOL    HW130425   2.184   3.106   3.097  0.4938 -0.0123 -1.0713
 6322SOL    HW230426   2.093   3.222   3.137  0.3687 -0.3314  0.3080
 6323SOL     OW30427   0.176   3.481   6.630  0.3255 -0.4267  0.0925
 6323SOL    HW130428   0.114   3.439   6.570  1.0537  0.7003 -1.4479
 6323SOL    HW230429   0.234   3.406   6.643 -0.5958 -1.1046  0.3218
 6324SOL     OW30430   3.259   1.730   7.930 -0.0100  0.1928  0.0925
 6324SOL    HW130431   3.264   1.768   8.017  2.9204 -0.6675  0.2844
 6324SOL    HW230432   3.347   1.756   7.906 -0.2462  1.9202  1.0612
 6325SOL     OW30433   1.741   4.559   0.888  0.2973  0.3073 -0.0168
 6325SOL    HW130434   1.809   4.509   0.933  0.5891 -0.2929 -1.1116
 6325SOL    HW230435   1.738   4.636   0.946  0.7048  0.9747 -0.8742
 6326SOL     OW30436   1.259   0.108  12.558  0.4713  1.0755  0.0432
 6326SOL    HW130437   1.314   0.175  12.600  3.3363 -0.9352 -0.4700
 6326SOL    HW230438   1.176   0.150  12.579 -1.3355 -1.8663 -1.2605
 6327SOL     OW30439   3.509   0.668   7.322  0.1273  0.1155 -0.6632
 6327SOL    HW130440   3.563   0.717   7.384 -0.2335  2.0559 -1.8898
 6327SOL    HW230441   3.424   0.689   7.361  0.1760  1.8862 -1.5151
 6328SOL     OW30442   3.141   2.924   2.939  0.8084 -0.2126  0.0348
 6328SOL    HW130443   3.226   2.896   2.970 -0.3260 -2.2868  1.2518
 6328SOL    HW230444   3.161   2.970   2.857  1.0202 -0.3232  0.0270
 6329SOL     OW30445   4.574   2.340   1.096  0.1960  0.0815 -0.1390
 6329SOL    HW130446   4.583   2.309   1.006 -1.0447 -0.6914  0.0023
 6329SOL    HW230447   4.478   2.350   1.094  0.1061 -0.6953  0.3850
 6330SOL     OW30448   3.895   0.709  12.551  0.5998 -0.0097  0.2488
 6330SOL    HW130449   3.850   0.667  12.478  0.5622 -0.7356  0.6954
 6330SOL    HW230450   3.967   0.757  12.510 -0.1819 -0.0831 -1.2134
 6331SOL     OW30451   3.574   4.428  15.871  0.6262  0.6227  0.7252
 6331SOL    HW130452   3.534   4.478  15.942 -2.0717  0.3772 -0.6378
 6331SOL    HW230453   3.666   4.456  15.874  0.5199  0.9937  0.4312
 6332SOL     OW30454   3.905   4.275   3.892  0.3603  0.5103 -0.6912
 6332SOL    HW130455   3.912   4.368   3.914 -1.0052  0.2476  0.8385
 6332SOL    HW230456   3.995   4.248   3.907  0.4616  2.0213  1.4320
 6333SOL     OW30457   2.775   0.372   6.072  0.3765  0.1334  0.0944
 6333SOL    HW130458   2.695   0.411   6.109  1.4268  1.0638  1.3812
 6333SOL    HW230459   2.848   0.401   6.126  1.6361 -0.6915 -1.1909
 6334SOL     OW30460   3.208   2.868   0.720  0.3338 -0.4445 -0.0112
 6334SOL    HW130461   3.115   2.846   0.718 -0.7056  3.8653  1.6624
 6334SOL    HW230462   3.213   2.949   0.771  1.6058 -0.6791  0.2229
 6335SOL     OW30463   2.775   3.520  16.210  0.2341 -0.4017  0.1839
 6335SOL    HW130464   2.689   3.563  16.213  1.0754  1.2457  0.7432
 6335SOL    HW230465   2.751   3.427  16.215 -2.8240  0.3810  0.1705
 6336SOL     OW30466   0.329   2.136   5.629  0.4068  0.5124 -0.0665
 6336SOL    HW130467   0.422   2.150   5.649  0.7509  1.8305 -2.6371
 6336SOL    HW230468   0.301   2.225   5.610 -0.9979  0.0935  0.0712
 6337SOL     OW30469   1.307   4.418   4.440 -0.2583 -0.2292 -0.0902
 6337SOL    HW130470   1.328   4.494   4.495 -0.5071 -0.9336  0.9879
 6337SOL    HW230471   1.305   4.355   4.513 -0.0375  0.8664  0.8658
 6338SOL     OW30472   0.927   3.732  13.833 -0.3369  0.1038  0.2132
 6338SOL    HW130473   0.907   3.655  13.780 -2.4510  1.7826 -1.4748
 6338SOL    HW230474   0.853   3.793  13.826  0.1094  0.7366  0.9270
 6339SOL     OW30475   2.245   4.705   3.318 -0.0813 -0.0529  0.0053
 6339SOL    HW130476   2.221   0.063   3.273  0.0686  1.2755  2.2715
 6339SOL    HW230477   2.256   0.025   3.403 -2.2821  4.7537 -2.1148
 6340SOL     OW30478   1.819   4.676  15.889  0.6036 -0.1570 -0.1484
 6340SOL    HW130479   1.757   0.019  15.858 -0.7761 -1.1800  0.4111
 6340SOL    HW230480   1.859   0.009  15.955  1.3251 -0.2769 -0.4906
 6341SOL     OW30481   4.409   4.440   4.349 -0.2694  0.3553 -0.6500
 6341SOL    HW130482   4.501   4.418   4.363 -0.4870  0.3775  0.8019
 6341SOL    HW230483   4.422   4.535   4.352  0.7079  0.1644  1.2276
 6342SOL     OW30484   3.360   1.640   2.247 -0.3106  0.5975  0.3400
 6342SOL    HW130485   3.404   1.608   2.325  0.4489  1.8112  0.4091
 6342SOL    HW230486   3.436   1.632   2.189 -1.5582 -0.4633 -1.1683
 6343SOL     OW30487   1.092   3.212  12.381  0.7347 -0.0705 -0.6264
 6343SOL    HW130488   1.149   3.217  12.305 -0.7705 -1.2105 -1.8405
 6343SOL    HW230489   1.149   3.163  12.440  0.8129 -0.9735 -1.4432
 6344SOL     OW30490   0.530   1.211   7.430 -0.3604  0.1177  0.4442
 6344SOL    HW130491   0.486   1.294   7.446 -1.9301 -0.6674  0.2023
 6344SOL    HW230492   0.622   1.237   7.418 -0.1400 -0.3324  1.1656
 6345SOL     OW30493   3.407   3.604   6.356 -0.0953 -0.3417  0.0142
 6345SOL    HW130494   3.482   3.546   6.369 -0.1783 -0.5736 -0.5736
 6345SOL    HW230495   3.391   3.603   6.262 -1.4054 -0.5002  0.2348
 6346SOL     OW30496   2.412   1.623  15.648  0.6726 -0.4978  0.2425
 6346SOL    HW130497   2.465   1.698  15.675  0.3961 -0.4534  0.6570
 6346SOL    HW230498   2.320   1.648  15.640  0.0372 -2.4261  1.4228
 6347SOL     OW30499   0.732   2.242   6.728  0.4142  0.6530  0.6457
 6347SOL    HW130500   0.739   2.274   6.818  1.3312 -0.9564  1.1444
 6347SOL    HW230501   0.811   2.190   6.716 -1.6466 -1.8400 -2.1238
 6348SOL     OW30502   0.317   4.510   3.656 -0.4873 -0.9183 -0.3879
 6348SOL    HW130503   0.378   4.583   3.662  0.1569 -1.1614 -3.6065
 6348SOL    HW230504   0.243   4.529   3.713  0.0971 -0.7077  0.3041
 6349SOL     OW30505   1.914   3.840   2.120  0.3960 -0.1948  0.0311
 6349SOL    HW130506   1.898   3.860   2.028 -0.2417 -0.8279  0.0060
 6349SOL    HW230507   1.825   3.865   2.146  0.5772  0.1670  0.3114
 6350SOL     OW30508   3.123   3.201   5.212 -0.8908  0.0625  0.6102
 6350SOL    HW130509   3.071   3.279   5.194  0.7491  0.5609 -1.9939
 6350SOL    HW230510   3.109   3.205   5.307  1.7918  1.0904  0.9595
 6351SOL     OW30511   3.798   0.470  13.388  0.0887  0.4019 -0.2290
 6351SOL    HW130512   3.845   0.552  13.372 -1.8920  1.1319 -2.3814
 6351SOL    HW230513   3.715   0.486  13.344  0.6045 -0.2475 -1.4403
 6352SOL     OW30514   2.343   2.584   3.669  0.3334 -0.2537  0.2844
 6352SOL    HW130515   2.397   2.630   3.606  0.2145  1.3490  1.3354
 6352SOL    HW230516   2.405   2.518   3.699  0.6639 -0.3702 -0.6582
 6353SOL     OW30517   2.063   3.378   0.959  0.0778 -0.4972 -0.0952
 6353SOL    HW130518   2.004   3.318   1.005 -2.9640  0.8347 -2.2696
 6353SOL    HW230519   2.139   3.391   1.015  0.3317 -1.9057 -0.1103
 6354SOL     OW30520   2.492   4.697  14.844  0.6075  0.2475  0.6689
 6354SOL    HW130521   2.575   4.712  14.800 -0.9097  0.8221 -2.0058
 6354SOL    HW230522   2.463   0.057  14.882 -1.3865 -0.5368  0.8568
 6355SOL     OW30523   0.672   4.652   5.088 -0.0876 -0.1556  0.2311
 6355SOL    HW130524   0.591   4.664   5.039 -1.3833 -0.0995  2.3640
 6355SOL    HW230525   0.656   4.711   5.162  2.0696 -0.0588  0.6291
 6356SOL     OW30526   4.279   1.148   5.888 -0.3648 -0.2100 -0.0712
 6356SOL    HW130527   4.226   1.091   5.943  2.3394 -2.8986 -0.3003
 6356SOL    HW230528   4.322   1.207   5.950 -1.7407 -0.4533  1.1164
 6357SOL     OW30529   0.514   1.558   9.548 -0.6707  0.4384 -0.0887
 6357SOL    HW130530   0.580   1.588   9.610 -1.2807 -2.5709  2.0464
 6357SOL    HW230531   0.513   1.466   9.576  1.1057  0.3367 -0.3533
 6358SOL     OW30532   3.999   2.590   3.385 -0.6054 -0.3328 -0.4731
 6358SOL    HW130533   3.960   2.541   3.313 -0.1530 -2.2004  0.5357
 6358SOL    HW230534   4.035   2.661   3.333 -0.1559 -0.6479 -0.5985
 6359SOL     OW30535   3.588   2.635   5.146  0.7017 -0.4453 -0.0834
 6359SOL    HW130536   3.622   2.619   5.058  1.8316 -1.9119  0.6215
 6359SOL    HW230537   3.541   2.717   5.128  1.9746  0.3743  0.3488
 6360SOL     OW30538   0.960   0.939   8.741 -0.2485 -0.1423 -0.3344
 6360SOL    HW130539   0.874   0.976   8.761 -0.5253  0.0467 -1.8620
 6360SOL    HW230540   0.936   0.846   8.741  2.3895 -0.8055 -1.5997
 6361SOL     OW30541   1.239   2.188   8.805  0.6586  0.4588  0.2221
 6361SOL    HW130542   1.296   2.202   8.729  1.3841  2.7549  1.1758
 6361SOL    HW230543   1.197   2.107   8.776  0.5622 -0.1345  2.0695
 6362SOL     OW30544   2.550   1.266   4.470  0.5123  0.0389  0.2832
 6362SOL    HW130545   2.463   1.267   4.430  0.7907 -0.6850 -0.3380
 6362SOL    HW230546   2.538   1.324   4.545 -1.2819  0.6729 -0.4954
 6363SOL     OW30547   1.105   3.378   0.124 -0.2880  0.6092 -0.1634
 6363SOL    HW130548   1.131   3.457   0.171 -0.3097  2.2993 -3.0687
 6363SOL    HW230549   1.185   3.332   0.152  0.4439 -0.0295 -3.3149
 6364SOL     OW30550   0.620   3.006   0.557 -0.3370  0.0531 -0.0085
 6364SOL    HW130551   0.617   2.965   0.471  1.2081  3.7727 -1.8353
 6364SOL    HW230552   0.526   3.014   0.574 -0.6803  0.4100 -2.0690
 6365SOL     OW30553   3.238   4.245   3.114  0.1427 -0.1202  0.1103
 6365SOL    HW130554   3.251   4.240   3.208  2.5156  0.2620 -0.2053
 6365SOL    HW230555   3.144   4.228   3.109  0.2319 -0.6850  0.4243
 6366SOL     OW30556   2.908   4.574   4.227  0.1913  0.0272  0.5124
 6366SOL    HW130557   2.922   4.666   4.249 -0.6408 -0.4409  2.9323
 6366SOL    HW230558   2.979   4.558   4.164 -1.3219 -1.2970 -0.8573
 6367SOL     OW30559   0.620   0.277   3.866  0.1798  0.2750 -0.1740
 6367SOL    HW130560   0.656   0.213   3.805 -1.5452 -1.4857  0.6552
 6367SOL    HW230561   0.633   0.355   3.813  1.4137  1.5934  2.0636
 6368SOL     OW30562   3.427   1.443   2.938  1.2183 -0.1803  0.3058
 6368SOL    HW130563   3.421   1.376   2.870 -2.1207 -2.0159  2.4229
 6368SOL    HW230564   3.381   1.521   2.904 -0.4649 -0.7273  1.2900
 6369SOL     OW30565   0.186   3.638   3.945 -0.1541 -0.0954 -0.0528
 6369SOL    HW130566   0.261   3.587   3.975  0.9436  0.8777 -1.1380
 6369SOL    HW230567   0.136   3.573   3.896 -1.4724  0.5643  0.4293
 6370SOL     OW30568   1.585   0.713   1.297  0.4242 -0.8474  0.2234
 6370SOL    HW130569   1.624   0.798   1.316 -0.4349 -0.7789  1.6943
 6370SOL    HW230570   1.614   0.689   1.209  0.8321 -1.0121  0.4001
 6371SOL     OW30571   3.817   1.661   9.554 -0.1893  0.4182 -0.4545
 6371SOL    HW130572   3.782   1.678   9.641  1.0310  0.7831 -0.0277
 6371SOL    HW230573   3.829   1.566   9.563  0.6493  0.3775 -2.0113
 6372SOL     OW30574   1.556   2.147  10.754 -0.3340  0.2474 -0.0599
 6372SOL    HW130575   1.494   2.074  10.748 -0.5037  0.4309 -0.4558
 6372SOL    HW230576   1.574   2.134  10.847 -1.5885 -0.8833  0.0180
 6373SOL     OW30577   1.080   2.803   5.518 -0.0385  0.8235 -0.1045
 6373SOL    HW130578   1.048   2.881   5.564  1.9360  0.3986  2.0229
 6373SOL    HW230579   1.090   2.745   5.594  1.5223  1.3844  0.1281
 6374SOL     OW30580   3.497   3.978   6.909  0.3847  0.0501 -0.6588
 6374SOL    HW130581   3.505   4.069   6.937  0.5008  0.9318 -3.5789
 6374SOL    HW230582   3.587   3.951   6.927 -0.0232  0.5737  2.1573
 6375SOL     OW30583   4.172   4.483  15.380 -0.4873 -0.7265  0.0259
 6375SOL    HW130584   4.135   4.394  15.384  0.4125 -1.0630  0.8439
 6375SOL    HW230585   4.217   4.485  15.296  0.7987  1.1277  0.7720
 6376SOL     OW30586   0.362   0.558   7.641  0.1331  0.2907  0.2602
 6376SOL    HW130587   0.439   0.590   7.689 -0.0221  1.2625 -0.1375
 6376SOL    HW230588   0.304   0.515   7.704 -0.1484 -1.5732 -1.2807
 6377SOL     OW30589   3.634   2.994   3.216 -0.4611  0.2445 -0.3793
 6377SOL    HW130590   3.701   2.957   3.274  0.8690  2.2011 -0.6820
 6377SOL    HW230591   3.559   2.950   3.257 -1.0886  2.3368  0.7075
 6378SOL     OW30592   0.613   0.503   0.878  0.1306  0.2338  0.2051
 6378SOL    HW130593   0.628   0.597   0.891  1.1274 -0.0605  1.1068
 6378SOL    HW230594   0.518   0.501   0.867  0.1061 -1.3342  0.7245
 6379SOL     OW30595   4.253   3.508   7.230 -0.1125  0.6108  0.2163
 6379SOL    HW130596   4.324   3.571   7.220 -0.6542  1.4846  1.8984
 6379SOL    HW230597   4.294   3.436   7.277 -1.1077  0.2191  0.4967
 6380SOL     OW30598   2.449   1.039  13.684 -0.3380 -0.4175  0.5315
 6380SOL    HW130599   2.500   1.051  13.765  0.2820 -0.3856  0.1387
 6380SOL    HW230600   2.392   1.116  13.681 -0.9652 -0.9447 -1.0053
 6381SOL     OW30601   4.682   3.406  11.323 -0.5015 -0.0286  0.7382
 6381SOL    HW130602   4.639   3.385  11.240  1.1089 -1.7719  0.3424
 6381SOL    HW230603   4.615   3.380  11.387 -1.3513  1.3999  0.4248
 6382SOL     OW30604   0.885   0.953  13.218 -0.5672  0.2698 -0.0411
 6382SOL    HW130605   0.833   1.009  13.275 -0.4172 -2.3590  2.6774
 6382SOL    HW230606   0.907   0.876  13.272  1.1058  0.2844 -0.6907
 6383SOL     OW30607   0.139   3.432   6.921  0.9343  0.4094  0.6847
 6383SOL    HW130608   0.071   3.415   6.856  1.5530 -0.9389  0.3938
 6383SOL    HW230609   0.193   3.354   6.905  0.8038  0.4404  0.0851
 6384SOL     OW30610   2.423   4.321   4.123  0.4190 -0.4725  0.0721
 6384SOL    HW130611   2.400   4.261   4.194 -2.9215 -1.3123 -1.7251
 6384SOL    HW230612   2.383   4.272   4.051 -1.5906 -0.9541  1.5283
 6385SOL     OW30613   4.102   3.775  13.779  0.1295 -0.2026 -0.4010
 6385SOL    HW130614   4.077   3.734  13.696 -1.2922  0.4807 -0.2985
 6385SOL    HW230615   4.028   3.834  13.789  0.7408  0.2840  1.1953
 6386SOL     OW30616   4.517   4.418   7.498 -0.3596  0.2395  0.1782
 6386SOL    HW130617   4.562   4.390   7.419 -2.5647  3.7400 -2.3249
 6386SOL    HW230618   4.477   4.498   7.464 -1.5981  0.2872  1.7521
 6387SOL     OW30619   1.572   0.596   4.870 -0.1134 -0.2775 -0.3056
 6387SOL    HW130620   1.504   0.657   4.897 -1.5129 -1.6125 -0.8761
 6387SOL    HW230621   1.638   0.632   4.930 -1.6561  0.4435  0.9349
 6388SOL     OW30622   3.056   2.898   1.011 -0.5153 -0.0951  0.3750
 6388SOL    HW130623   3.104   2.970   1.052 -0.1696 -0.3094  0.3496
 6388SOL    HW230624   2.976   2.940   0.978  1.0428  3.2631  0.8726
 6389SOL     OW30625   3.068   4.085   5.979  0.7995 -0.1935 -0.7121
 6389SOL    HW130626   3.070   3.993   6.004 -2.0888 -0.1854 -0.4474
 6389SOL    HW230627   3.066   4.131   6.063  0.5724 -1.1736 -0.1902
 6390SOL     OW30628   3.711   2.974   7.146  0.0563 -0.3802 -0.1078
 6390SOL    HW130629   3.673   3.061   7.157 -0.5019 -0.5718 -0.4901
 6390SOL    HW230630   3.647   2.915   7.186  1.5668 -0.7169  1.7981
 6391SOL     OW30631   2.416   1.603   2.849 -0.4498  0.2694  0.5023
 6391SOL    HW130632   2.451   1.617   2.761 -0.8736  1.7477  0.5772
 6391SOL    HW230633   2.389   1.511   2.841  0.4042 -0.0017  0.7439
 6392SOL     OW30634   1.431   3.343  12.498 -0.2017 -0.5795  0.2727
 6392SOL    HW130635   1.498   3.407  12.474 -1.0017 -0.9111 -2.8445
 6392SOL    HW230636   1.477   3.274  12.545  1.2190  1.7394  2.2624
 6393SOL     OW30637   1.275   2.723  16.658 -0.0790 -0.4122 -0.0924
 6393SOL    HW130638   1.192   2.677  16.651 -0.3139 -0.1703  0.9739
 6393SOL    HW230639   1.274   2.740  16.753 -0.5825  0.1963 -0.2067
 6394SOL     OW30640   0.097   1.651   6.509  0.5398  1.0089  0.2923
 6394SOL    HW130641   0.105   1.734   6.556  0.8000  1.8111 -1.1697
 6394SOL    HW230642   0.099   1.665   6.415  0.7745 -0.4876  0.0641
 6395SOL     OW30643   4.009   0.995   8.808 -0.2905 -0.6655 -0.7007
 6395SOL    HW130644   3.923   1.016   8.846  0.9641  0.2296  1.6131
 6395SOL    HW230645   4.058   0.987   8.890  0.5847  2.4626 -0.9333
 6396SOL     OW30646   2.288   0.413   4.359 -0.6113  0.1623 -0.3541
 6396SOL    HW130647   2.210   0.364   4.387 -0.9732  1.6934  1.3436
 6396SOL    HW230648   2.266   0.505   4.370 -0.1344  0.2316  0.0102
 6397SOL     OW30649   4.566   0.871   7.527 -0.5531  0.3033  0.1524
 6397SOL    HW130650   4.621   0.849   7.452 -0.5587 -0.9830  0.5196
 6397SOL    HW230651   4.632   0.889   7.595  0.7260  0.3165 -1.0980
 6398SOL     OW30652   0.554   4.619   4.308  0.2148 -0.0263 -0.0729
 6398SOL    HW130653   0.463   4.616   4.278 -0.3117  1.7523  1.3727
 6398SOL    HW230654   0.584   4.695   4.258  0.2919  0.4928  0.7643
 6399SOL     OW30655   3.325   4.445   1.003 -0.1118 -0.3380  0.5281
 6399SOL    HW130656   3.334   4.508   0.932  1.2394 -0.0394  0.9775
 6399SOL    HW230657   3.232   4.423   1.011 -0.4415  0.8947  0.0229
 6400SOL     OW30658   0.058   3.741  10.183  0.1287 -0.4327  0.0069
 6400SOL    HW130659   0.085   3.764  10.272  0.8506  0.4126 -0.4279
 6400SOL    HW230660   4.696   3.696  10.183 -0.3568  0.4702  0.6669
 6401SOL     OW30661   1.817   4.645   1.500 -0.4607  0.1722  0.3568
 6401SOL    HW130662   1.776   4.709   1.441  1.2754 -0.1321 -1.2051
 6401SOL    HW230663   1.847   4.572   1.446 -3.2339 -0.3295 -0.5001
 6402SOL     OW30664   2.654   0.001   2.660 -0.3855 -0.0800  0.4576
 6402SOL    HW130665   2.719   0.027   2.725 -0.1300  0.2062  0.0870
 6402SOL    HW230666   2.659   0.071   2.594 -1.0370 -0.0028  0.4837
 6403SOL     OW30667   3.127   4.198   4.347 -0.1069  0.5770  0.5735
 6403SOL    HW130668   3.091   4.128   4.402 -0.5774  0.0275 -0.4254
 6403SOL    HW230669   3.044   4.245   4.340 -1.0273 -1.1351 -0.0703
 6404SOL     OW30670   4.034   4.020   0.211  0.3188 -0.1300  0.5103
 6404SOL    HW130671   3.961   4.023   0.148  0.7936 -0.5162 -0.0564
 6404SOL    HW230672   4.088   4.003   0.134  0.7419  1.6883  0.4142
 6405SOL     OW30673   2.342   4.469   3.814  0.2266  0.0703 -0.4933
 6405SOL    HW130674   2.330   4.417   3.734  1.3834 -0.7702 -0.1096
 6405SOL    HW230675   2.301   4.412   3.880 -0.3857  1.0236 -0.0525
 6406SOL     OW30676   4.031   4.542   6.369  0.6145  0.0292 -0.2534
 6406SOL    HW130677   4.070   4.526   6.283  0.1191  0.3777 -0.5433
 6406SOL    HW230678   3.994   4.456   6.386  0.7684  0.0986  0.4543
 6407SOL     OW30679   3.188   2.258   8.784  0.4404  0.0990 -0.4244
 6407SOL    HW130680   3.223   2.213   8.861 -0.5184  2.9026  1.6359
 6407SOL    HW230681   3.151   2.339   8.817 -2.0999 -1.1544 -0.2320
 6408SOL     OW30682   1.603   3.593  14.045 -0.7437  0.7014 -0.3469
 6408SOL    HW130683   1.518   3.583  14.088 -0.1154  1.1022  0.9669
 6408SOL    HW230684   1.614   3.688  14.047 -1.3698  0.6810  2.7307
 6409SOL     OW30685   1.661   2.539   7.773 -0.1796  0.0953 -0.3055
 6409SOL    HW130686   1.705   2.582   7.699 -0.9482 -0.3057 -0.9936
 6409SOL    HW230687   1.571   2.570   7.773 -0.1547  0.1426  1.3950
 6410SOL     OW30688   2.889   4.186   6.461  0.1340  0.0136  0.6437
 6410SOL    HW130689   2.938   4.268   6.467  3.1597 -1.7917  0.2113
 6410SOL    HW230690   2.906   4.155   6.550 -1.5135 -1.0612  0.5721
 6411SOL     OW30691   2.267   3.172  15.034 -0.3357 -0.2949 -0.3673
 6411SOL    HW130692   2.294   3.237  14.970 -0.4512  0.1501  0.0306
 6411SOL    HW230693   2.342   3.115  15.019 -0.7075 -0.4307 -1.6927
 6412SOL     OW30694   2.124   4.367  15.122 -1.0249 -0.3637 -0.0900
 6412SOL    HW130695   2.092   4.283  15.155 -2.2375 -0.2545 -0.9514
 6412SOL    HW230696   2.186   4.397  15.187 -0.1575 -2.2886 -0.0253
 6413SOL     OW30697   2.118   4.090   5.526  0.0182 -0.0343 -0.1616
 6413SOL    HW130698   2.164   4.081   5.609 -1.5726  0.6346  0.7900
 6413SOL    HW230699   2.185   4.087   5.458  3.0820  0.9208  2.8195
 6414SOL     OW30700   3.958   3.248   0.962 -0.7128  0.0651  0.2820
 6414SOL    HW130701   3.979   3.284   1.048  0.1816 -2.4749  1.1344
 6414SOL    HW230702   3.892   3.313   0.938  1.8981  2.1185 -1.3130
 6415SOL     OW30703   1.578   3.851   7.111 -0.0929  0.2273 -0.1225
 6415SOL    HW130704   1.626   3.809   7.182 -0.1504  0.7001  0.1954
 6415SOL    HW230705   1.642   3.854   7.040 -0.5572  2.2043 -0.4527
 6416SOL     OW30706   1.243   4.564   6.597  0.1390 -0.0833 -0.0441
 6416SOL    HW130707   1.320   4.511   6.618 -0.7670 -2.5611 -3.0008
 6416SOL    HW230708   1.196   4.565   6.680  1.0670  0.3892  0.4776
 6417SOL     OW30709   1.304   0.457  16.485  0.2034 -0.0495  0.0811
 6417SOL    HW130710   1.361   0.414  16.547  0.2993 -0.2342 -0.1355
 6417SOL    HW230711   1.224   0.404  16.495  1.5678 -2.4385 -1.7593
 6418SOL     OW30712   1.448   0.175   4.609  0.8928 -0.0383  0.0202
 6418SOL    HW130713   1.460   0.238   4.538  1.3452 -0.1741 -0.0227
 6418SOL    HW230714   1.511   0.200   4.677 -0.0399 -2.1787  1.6618
 6419SOL     OW30715   4.525   0.065   5.608  0.2189 -0.0226 -0.2679
 6419SOL    HW130716   4.555   0.073   5.699 -0.5891  1.5200 -0.1242
 6419SOL    HW230717   4.446   0.118   5.614  1.0820  1.0128  2.0235
 6420SOL     OW30718   4.597   3.924  10.736  0.5672 -0.6970  0.0987
 6420SOL    HW130719   4.672   3.984  10.733  0.0313  0.1173  3.4993
 6420SOL    HW230720   4.542   3.953  10.663  0.2205  1.4439  1.2113
 6421SOL     OW30721   3.182   0.782   0.140  0.0168  0.1184 -0.5493
 6421SOL    HW130722   3.266   0.779   0.095 -0.0195  0.3291 -0.6297
 6421SOL    HW230723   3.212   0.741   0.221 -0.4878 -0.5016 -0.6717
 6422SOL     OW30724   0.074   3.723   4.762  0.7756  0.0558 -0.0546
 6422SOL    HW130725   0.042   3.807   4.728 -2.1077 -1.3602 -0.8016
 6422SOL    HW230726   0.008   3.673   4.715 -0.4453 -0.1986  1.9489
 6423SOL     OW30727   0.167   3.596   2.102 -0.4377  0.4170  0.4320
 6423SOL    HW130728   0.135   3.653   2.171 -2.3078  1.4359 -1.2685
 6423SOL    HW230729   0.262   3.609   2.107 -0.5642  1.0591  1.0483
 6424SOL     OW30730   2.157   3.579   3.785  0.4555  0.2415 -0.3320
 6424SOL    HW130731   2.101   3.537   3.851  1.9964 -1.4358 -0.1016
 6424SOL    HW230732   2.144   3.669   3.815  1.6250  0.7934 -1.4707
 6425SOL     OW30733   2.063   0.186  17.551 -0.0639 -0.4603  0.4333
 6425SOL    HW130734   2.074   0.168  17.644  0.9538  1.3419  0.6580
 6425SOL    HW230735   1.974   0.152  17.540 -0.5553  1.3083 -1.2181
 6426SOL     OW30736   1.453   0.639   4.455  0.2196 -0.1503 -0.0828
 6426SOL    HW130737   1.507   0.694   4.399  0.1965  1.4409  1.4431
 6426SOL    HW230738   1.519   0.586   4.500  1.1729 -0.1321 -1.4651
 6427SOL     OW30739   2.569   3.945  16.197  0.6098  0.1686  0.0350
 6427SOL    HW130740   2.564   4.026  16.248 -3.6834  1.8635 -3.0464
 6427SOL    HW230741   2.519   3.967  16.118 -1.4481 -0.0008  1.2910
 6428SOL     OW30742   0.965   2.119   9.727 -0.2703  0.1078  0.3797
 6428SOL    HW130743   0.963   2.024   9.720 -0.7506  0.2124 -1.1477
 6428SOL    HW230744   0.881   2.140   9.767  0.1899 -0.2573  1.5119
 6429SOL     OW30745   2.170   3.281   9.075 -0.0619 -0.2133  0.1891
 6429SOL    HW130746   2.156   3.339   9.150 -2.4804  1.0083 -1.1934
 6429SOL    HW230747   2.102   3.218   9.098  0.8734 -1.8552 -1.5359
 6430SOL     OW30748   0.821   1.226   7.736  0.7412  0.1890 -0.2809
 6430SOL    HW130749   0.875   1.285   7.683  0.0689  0.4602 -0.6643
 6430SOL    HW230750   0.878   1.212   7.812  0.2229  1.3556  0.3169
 6431SOL     OW30751   2.983   1.951   5.272  0.0490  0.4068 -0.0637
 6431SOL    HW130752   2.970   1.878   5.211 -0.0795 -0.1072  0.5825
 6431SOL    HW230753   2.908   1.939   5.330  0.2463  1.5520  0.4313
 6432SOL     OW30754   0.631   1.567   9.253 -0.0710 -0.4017 -0.2696
 6432SOL    HW130755   0.709   1.618   9.230  0.1945 -0.9577 -0.6122
 6432SOL    HW230756   0.599   1.593   9.339  1.3444 -1.4064  0.5641
 6433SOL     OW30757   1.927   2.284   5.265 -0.0367 -0.3847  0.2384
 6433SOL    HW130758   1.945   2.192   5.244  3.9776 -0.1573  2.6835
 6433SOL    HW230759   1.872   2.304   5.189 -0.0685  0.2922  0.4448
 6434SOL     OW30760   1.225   1.267  12.795 -0.2902 -0.0993 -0.3404
 6434SOL    HW130761   1.244   1.312  12.713  0.7609 -0.1527 -0.1289
 6434SOL    HW230762   1.311   1.230  12.815 -1.1839 -1.5067  0.9441
 6435SOL     OW30763   2.683   3.668   3.612  0.0230 -0.2176  0.4106
 6435SOL    HW130764   2.680   3.729   3.539  3.1989 -1.9375 -1.1535
 6435SOL    HW230765   2.605   3.614   3.597  0.7558 -1.2243  0.1582
 6436SOL     OW30766   2.840   2.884  15.036 -0.3377 -0.0121  0.4508
 6436SOL    HW130767   2.814   2.885  15.128  1.3096 -1.1644  0.9175
 6436SOL    HW230768   2.796   2.804  15.007  2.0785  0.2973 -4.0456
 6437SOL     OW30769   0.747   2.878   5.323  0.8382  0.1868 -0.6126
 6437SOL    HW130770   0.671   2.880   5.381  0.7922  1.4449 -0.7036
 6437SOL    HW230771   0.760   2.972   5.310 -1.0277  0.4389 -0.7203
 6438SOL     OW30772   1.591   1.672   8.354  0.2699 -0.6171 -0.2657
 6438SOL    HW130773   1.674   1.716   8.375 -0.6192  0.4213  1.0665
 6438SOL    HW230774   1.560   1.649   8.442 -0.9439  1.0102 -0.2648
 6439SOL     OW30775   0.446   2.202   2.118  0.1899  0.2513  0.0705
 6439SOL    HW130776   0.464   2.108   2.128 -1.3269 -0.2030 -1.5693
 6439SOL    HW230777   0.456   2.208   2.023  1.2508  1.9378  0.2876
 6440SOL     OW30778   3.112   3.911   8.354 -0.7406  0.4555  0.0382
 6440SOL    HW130779   3.067   3.924   8.271 -2.3906 -0.6743  0.7778
 6440SOL    HW230780   3.105   4.005   8.373 -0.0441  0.3824  0.6703
 6441SOL     OW30781   1.299   3.477  12.298 -0.3220  0.3372 -0.1099
 6441SOL    HW130782   1.364   3.492  12.229  1.0848 -0.2759  1.0888
 6441SOL    HW230783   1.346   3.452  12.378  1.2762  2.2261 -0.4360
 6442SOL     OW30784   1.494   3.728  10.019 -0.5136 -0.0867  0.0194
 6442SOL    HW130785   1.569   3.787  10.028 -0.1252 -0.4027 -1.0912
 6442SOL    HW230786   1.484   3.665  10.090 -2.2434  1.1811  0.8875
 6443SOL     OW30787   3.818   2.023   6.669 -0.3479  0.0310  0.3714
 6443SOL    HW130788   3.753   1.975   6.721 -2.3142  0.4256 -1.7109
 6443SOL    HW230789   3.775   2.018   6.583 -0.0011 -2.0909  0.3162
 6444SOL     OW30790   1.037   0.660   3.608 -0.0740  0.2022  0.1814
 6444SOL    HW130791   1.017   0.753   3.615 -3.3687 -0.4584 -0.6536
 6444SOL    HW230792   1.048   0.647   3.513 -2.7398 -1.7915  0.1559
 6445SOL     OW30793   1.325   0.731   6.243 -0.0200  0.3360  0.3258
 6445SOL    HW130794   1.321   0.803   6.305 -0.1464  0.8912 -0.3303
 6445SOL    HW230795   1.251   0.765   6.193  0.4474 -1.5457 -1.6714
 6446SOL     OW30796   0.458   2.032   7.765 -0.6459 -0.1211  0.4857
 6446SOL    HW130797   0.484   2.079   7.844  0.1706 -0.0606  0.1747
 6446SOL    HW230798   0.516   2.069   7.699 -1.5149 -1.2649 -0.9075
 6447SOL     OW30799   2.694   3.482   7.471  0.0618  0.2756  0.5011
 6447SOL    HW130800   2.654   3.562   7.439 -1.9050 -0.3926  1.2843
 6447SOL    HW230801   2.686   3.507   7.563 -0.8672 -1.2048  0.8329
 6448SOL     OW30802   0.800   0.316   3.461  0.1473 -0.8567  0.1119
 6448SOL    HW130803   0.821   0.341   3.371  0.4795 -1.9752 -0.1149
 6448SOL    HW230804   0.705   0.318   3.450  0.4724  2.6404 -2.2209
 6449SOL     OW30805   4.514   2.630   7.083  0.3586  0.6038 -0.2889
 6449SOL    HW130806   4.568   2.570   7.134 -0.0405  1.2506  0.9138
 6449SOL    HW230807   4.428   2.588   7.093 -0.6356  2.4244 -1.1553
 6450SOL     OW30808   3.890   3.083   6.786 -0.2286  0.2281 -0.4954
 6450SOL    HW130809   3.961   3.101   6.848 -1.4460  1.3225  0.5835
 6450SOL    HW230810   3.939   3.010   6.747 -1.2997  0.7811 -2.8169
 6451SOL     OW30811   2.606   0.110   9.598  0.4939 -0.1087 -0.0093
 6451SOL    HW130812   2.617   0.020   9.567 -0.3384  0.0036 -0.6163
 6451SOL    HW230813   2.666   0.099   9.672 -1.0788  0.1539  1.2965
 6452SOL     OW30814   3.277   4.505  16.745 -0.2231  0.0832 -0.0379
 6452SOL    HW130815   3.184   4.527  16.744 -0.0264  0.9534  1.2574
 6452SOL    HW230816   3.286   4.418  16.706 -1.6021  0.5625 -1.4004
 6453SOL     OW30817   0.704   1.294   2.520  0.0989 -0.4877  0.8731
 6453SOL    HW130818   0.787   1.298   2.472 -1.3256 -0.4739 -1.6321
 6453SOL    HW230819   0.650   1.333   2.451 -0.1349 -2.8626 -0.2648
 6454SOL     OW30820   1.508   3.442   1.069  0.2003  0.5758 -0.4462
 6454SOL    HW130821   1.566   3.517   1.060 -0.2674  1.0617  0.5891
 6454SOL    HW230822   1.572   3.371   1.084 -0.6549 -0.1955 -0.4626
 6455SOL     OW30823   3.842   1.241   7.355 -0.1192  0.1602 -0.5552
 6455SOL    HW130824   3.869   1.289   7.433 -1.5586  1.8138 -1.0746
 6455SOL    HW230825   3.852   1.147   7.371  1.7479  0.2563 -1.1967
 6456SOL     OW30826   4.429   3.123   5.119  0.2137  0.2511  0.7322
 6456SOL    HW130827   4.497   3.119   5.052  0.7235  1.5215  1.1790
 6456SOL    HW230828   4.461   3.057   5.181  1.7172  0.1303 -0.1646
 6457SOL     OW30829   1.494   3.148   7.644 -0.0784 -0.0593  0.2459
 6457SOL    HW130830   1.503   3.196   7.562  0.8215  0.3507  0.5897
 6457SOL    HW230831   1.440   3.071   7.623  0.1834 -0.0426 -0.5107
 6458SOL     OW30832   4.495   2.237   7.006  0.0498  0.3530  0.3715
 6458SOL    HW130833   4.467   2.254   7.096 -1.9946  0.0308 -0.2107
 6458SOL    HW230834   4.419   2.266   6.957  0.4609 -0.3318 -0.6729
 6459SOL     OW30835   1.701   2.498   8.167 -0.0022  0.4023  0.0474
 6459SOL    HW130836   1.727   2.587   8.194  0.1082  0.2331  0.5128
 6459SOL    HW230837   1.769   2.452   8.217  0.9755  0.3280 -1.3471
 6460SOL     OW30838   2.947   2.736   6.094  0.6359 -0.2755  1.1203
 6460SOL    HW130839   2.930   2.686   6.174 -0.0271 -0.2903  0.9741
 6460SOL    HW230840   2.936   2.825   6.129 -0.4019  0.7022 -1.6653
 6461SOL     OW30841   1.786   2.763   3.862 -0.4626  0.1473  0.2607
 6461SOL    HW130842   1.757   2.674   3.842 -0.2616  0.4147 -1.2548
 6461SOL    HW230843   1.725   2.811   3.806  0.2684 -0.0332 -0.7024
 6462SOL     OW30844   3.136   1.416  13.285  0.3849 -0.2031 -0.3149
 6462SOL    HW130845   3.213   1.379  13.242  0.3401  1.6404 -2.0341
 6462SOL    HW230846   3.136   1.499  13.237  2.3924  0.4590  0.8594
 6463SOL     OW30847   1.485   2.421   4.216 -0.3424 -0.5154 -0.4182
 6463SOL    HW130848   1.470   2.492   4.278 -1.2840 -1.9220  0.9622
 6463SOL    HW230849   1.410   2.363   4.222 -0.4587 -0.5677 -2.1677
 6464SOL     OW30850   0.745   2.706   5.892  0.6744  0.2571 -0.0235
 6464SOL    HW130851   0.834   2.670   5.898  0.4010 -0.6167 -1.4096
 6464SOL    HW230852   0.774   2.797   5.902  0.2220  0.3889  0.0956
 6465SOL     OW30853   4.491   1.689   8.375  0.1437  0.0589  0.4879
 6465SOL    HW130854   4.475   1.650   8.289 -0.9836  0.2780  0.6043
 6465SOL    HW230855   4.475   1.781   8.357  1.7906  0.3640  0.5145
 6466SOL     OW30856   3.519   4.079   7.263 -0.7419 -0.6076 -0.2745
 6466SOL    HW130857   3.569   4.100   7.184  2.1644  1.4226  2.0996
 6466SOL    HW230858   3.564   3.996   7.281 -3.3059 -1.5530  1.7960
 6467SOL     OW30859   1.129   2.566  12.335  0.5094  0.0096  0.1254
 6467SOL    HW130860   1.136   2.472  12.318 -1.3593  0.2535 -1.8648
 6467SOL    HW230861   1.188   2.591  12.264  3.1972 -1.8018  1.6643
 6468SOL     OW30862   1.011   4.243   9.688 -0.2883  0.1608 -0.1673
 6468SOL    HW130863   0.926   4.200   9.686  0.9847 -2.2896 -2.1200
 6468SOL    HW230864   1.000   4.305   9.615 -1.0486 -1.6662 -1.6087
 6469SOL     OW30865   4.511   3.580  16.656  0.2887  0.3568  0.1396
 6469SOL    HW130866   4.460   3.643  16.606  0.4149  1.0908  0.9287
 6469SOL    HW230867   4.600   3.594  16.624  0.1825  0.6482 -0.0293
 6470SOL     OW30868   0.143   0.553   4.513  0.1100  0.0205  0.6745
 6470SOL    HW130869   0.142   0.475   4.568  1.3609 -0.9907 -0.7402
 6470SOL    HW230870   0.228   0.586   4.543 -0.7230  2.6809  0.1596
 6471SOL     OW30871   3.478   4.032  11.237 -0.2868 -0.4536 -0.0841
 6471SOL    HW130872   3.559   4.027  11.286  0.3569  2.2563 -0.8293
 6471SOL    HW230873   3.436   3.951  11.263  0.6359 -0.9524 -0.1608
 6472SOL     OW30874   0.446   2.608   5.596  0.9945  0.6385 -0.1840
 6472SOL    HW130875   0.401   2.524   5.597  0.3440  0.9778 -0.7760
 6472SOL    HW230876   0.538   2.583   5.605  1.4895  2.9003  1.3082
 6473SOL     OW30877   1.779   2.697  16.358 -0.4780 -0.5989  0.3104
 6473SOL    HW130878   1.688   2.692  16.388 -1.3915 -1.7723 -2.7131
 6473SOL    HW230879   1.817   2.614  16.387  0.0303 -0.8596 -1.1095
 6474SOL     OW30880   1.205   2.735  12.522 -0.7955 -0.6173  0.2465
 6474SOL    HW130881   1.175   2.670  12.457  1.5806 -0.7250 -0.7187
 6474SOL    HW230882   1.282   2.779  12.488 -1.6649 -0.8885 -2.0546
 6475SOL     OW30883   4.718   0.103   3.043  0.1529 -0.6404 -0.7016
 6475SOL    HW130884   0.019   0.190   3.012 -1.4572 -0.2962 -0.9582
 6475SOL    HW230885   4.692   0.123   3.133  3.1333 -1.1969  0.2930
 6476SOL     OW30886   0.131   2.855   9.941 -0.4848  0.1628 -0.1366
 6476SOL    HW130887   0.209   2.860   9.886 -1.8265 -0.7351 -2.1137
 6476SOL    HW230888   0.159   2.859  10.032 -0.6729  0.7541 -0.1023
 6477SOL     OW30889   0.937   1.964  11.543 -0.4219 -0.2999 -0.3156
 6477SOL    HW130890   0.893   2.010  11.471 -1.7231  0.9004  1.2431
 6477SOL    HW230891   1.016   1.940  11.494  0.4065  1.2923  0.2474
 6478SOL     OW30892   2.302   0.211   5.736 -0.0720  0.5252  0.0798
 6478SOL    HW130893   2.381   0.165   5.705 -1.1817 -0.6889 -0.9380
 6478SOL    HW230894   2.318   0.206   5.830 -1.2257 -0.7509  0.2025
 6479SOL     OW30895   0.823   0.099  12.342  0.4294  0.6191  0.4314
 6479SOL    HW130896   0.783   0.152  12.273  0.2429  0.2398  0.2535
 6479SOL    HW230897   0.822   0.167  12.410 -1.4209  1.1723 -0.1491
 6480SOL     OW30898   0.315   3.298   1.575 -0.2470  0.7726 -0.1035
 6480SOL    HW130899   0.338   3.377   1.624  0.1924 -0.7359  2.1720
 6480SOL    HW230900   0.275   3.321   1.492 -1.2764 -1.2094 -0.1753
 6481SOL     OW30901   1.607   4.608  10.163 -0.4860 -0.4504  0.3541
 6481SOL    HW130902   1.615   4.531  10.220 -1.7664  0.7480  2.1561
 6481SOL    HW230903   1.553   4.671  10.211 -1.0548 -0.8537  0.2413
 6482SOL     OW30904   3.216   4.673  10.842 -0.3661 -0.1318  0.0821
 6482SOL    HW130905   3.286   0.002  10.801 -1.5982  0.7704 -0.8593
 6482SOL    HW230906   3.262   4.596  10.877 -2.2933 -0.2766  2.2400
 6483SOL     OW30907   0.350   2.967   3.302 -0.4199 -0.1441 -0.0857
 6483SOL    HW130908   0.408   2.891   3.309 -1.3694 -0.9908 -1.3905
 6483SOL    HW230909   0.307   2.964   3.388 -0.7088  0.7860 -0.1934
 6484SOL     OW30910   3.231   0.948   4.416  0.0073  0.8157 -0.5733
 6484SOL    HW130911   3.156   0.888   4.413 -0.0446  0.8629 -0.2260
 6484SOL    HW230912   3.204   1.027   4.371 -0.0996  1.5243  0.7427
 6485SOL     OW30913   3.220   3.755   5.629 -0.0087 -0.6286  0.0904
 6485SOL    HW130914   3.126   3.752   5.644 -0.0105  0.0964  0.2239
 6485SOL    HW230915   3.245   3.665   5.607 -2.2163 -0.7405 -1.9241
 6486SOL     OW30916   1.987   3.771   3.439  0.1391 -0.7057  0.6957
 6486SOL    HW130917   1.968   3.763   3.345  2.7230  0.0752  0.0957
 6486SOL    HW230918   1.907   3.731   3.472  0.2947 -0.7080  1.0634
 6487SOL     OW30919   3.764   3.616   3.777 -0.1395 -0.0553  0.2813
 6487SOL    HW130920   3.717   3.553   3.832 -1.1752  0.3808 -0.1003
 6487SOL    HW230921   3.691   3.664   3.738 -1.8465 -1.2947  1.9958
 6488SOL     OW30922   0.957   3.278   8.381  0.2431  0.5804 -0.2457
 6488SOL    HW130923   1.019   3.274   8.309 -0.7816 -0.4656 -1.0719
 6488SOL    HW230924   0.932   3.371   8.373 -0.6840  0.2888 -0.7960
 6489SOL     OW30925   2.058   4.364   7.871 -0.2063 -0.4525  0.4925
 6489SOL    HW130926   2.055   4.365   7.967  0.1090 -0.3906  0.5024
 6489SOL    HW230927   2.151   4.342   7.865 -0.3355 -1.0368  0.5736
 6490SOL     OW30928   3.575   2.837  13.968  0.6147 -0.1866  0.0884
 6490SOL    HW130929   3.623   2.802  13.893  0.0508  0.0210 -0.3712
 6490SOL    HW230930   3.611   2.780  14.036  0.2225  0.8841  1.1798
 6491SOL     OW30931   2.167   3.896   1.016  0.2615  0.2683  0.5633
 6491SOL    HW130932   2.236   3.914   1.080 -0.4831 -1.3368  1.8156
 6491SOL    HW230933   2.157   3.973   0.960  1.5324 -0.3384 -0.5075
 6492SOL     OW30934   4.100   1.212   6.305  0.4815 -0.4622  0.4487
 6492SOL    HW130935   4.077   1.302   6.328  3.8353  0.8584 -1.4792
 6492SOL    HW230936   4.063   1.162   6.378 -1.5808 -0.2727 -0.4651
 6493SOL     OW30937   1.229   3.278   0.937  0.1485  0.7716  0.0509
 6493SOL    HW130938   1.314   3.275   0.980  1.2045  0.9985 -2.0197
 6493SOL    HW230939   1.206   3.185   0.924 -2.0590  1.1594  1.1603
 6494SOL     OW30940   2.468   3.696  15.991 -0.2553 -0.0430  0.3455
 6494SOL    HW130941   2.486   3.690  16.085  0.2817  1.3068  0.3321
 6494SOL    HW230942   2.552   3.720  15.950  0.2950  0.6500  1.8677
 6495SOL     OW30943   2.462   4.112   2.667  0.0864 -0.6478  0.4667
 6495SOL    HW130944   2.516   4.123   2.589 -0.8631  1.2077  0.0819
 6495SOL    HW230945   2.530   4.132   2.731 -1.3311  1.1273  1.4338
 6496SOL     OW30946   3.337   2.844   2.310  0.3182  0.2267 -0.5089
 6496SOL    HW130947   3.298   2.763   2.278  1.1777 -0.1653 -0.5872
 6496SOL    HW230948   3.278   2.858   2.384  0.2479  2.1478 -0.9320
 6497SOL     OW30949   3.751   3.589   3.119  0.3007  0.6706 -0.1132
 6497SOL    HW130950   3.683   3.586   3.187 -0.2775  1.8931 -0.6400
 6497SOL    HW230951   3.713   3.656   3.061  0.1561 -0.3592 -1.2187
 6498SOL     OW30952   0.545   1.601   2.455  0.0150 -0.5697  0.8544
 6498SOL    HW130953   0.574   1.542   2.385  2.4347 -1.2590  2.4410
 6498SOL    HW230954   0.460   1.563   2.480 -1.3837  2.5849  0.8689
 6499SOL     OW30955   2.102   0.807   3.438 -0.1253 -0.5367 -0.3543
 6499SOL    HW130956   2.184   0.759   3.432  0.8417  0.9751  0.6542
 6499SOL    HW230957   2.117   0.869   3.366 -1.1920 -1.9981 -1.8165
 6500SOL     OW30958   4.293   1.452   8.905  0.7459  0.4209  0.7104
 6500SOL    HW130959   4.238   1.519   8.865  0.2913  0.3122  1.1517
 6500SOL    HW230960   4.238   1.373   8.901  2.4534 -0.7833  0.9988
 6501SOL     OW30961   1.915   1.382   2.126 -0.3856  0.4645 -0.1929
 6501SOL    HW130962   1.870   1.329   2.061  1.8057 -0.2390 -1.1260
 6501SOL    HW230963   1.877   1.464   2.095  1.2514  1.5568  0.6728
 6502SOL     OW30964   3.442   3.187   5.342 -0.0309 -0.3339 -0.3123
 6502SOL    HW130965   3.354   3.205   5.309 -0.9905  3.2293  4.1296
 6502SOL    HW230966   3.504   3.198   5.270  1.2174 -2.4157  0.4497
 6503SOL     OW30967   3.683   3.174   1.466  0.4733  0.4273  0.8918
 6503SOL    HW130968   3.773   3.156   1.494  0.3425  0.8594  1.5974
 6503SOL    HW230969   3.651   3.091   1.432  2.9702 -1.5832  3.5239
 6504SOL     OW30970   3.865   2.577  11.243 -0.0776  0.7824  0.1832
 6504SOL    HW130971   3.925   2.509  11.275  1.3840  1.5778 -0.8742
 6504SOL    HW230972   3.907   2.652  11.284 -0.6215  1.4024 -0.3989
 6505SOL     OW30973   3.619   1.391   9.290  0.3986  0.0746  0.0931
 6505SOL    HW130974   3.597   1.310   9.244 -3.2409  1.2302 -0.2202
 6505SOL    HW230975   3.545   1.420   9.344 -0.3366  0.1973 -0.9636
 6506SOL     OW30976   4.104   2.366   1.971 -0.6292  0.1494 -0.1098
 6506SOL    HW130977   4.063   2.283   1.997 -1.8996  0.4970 -1.0050
 6506SOL    HW230978   4.171   2.369   2.039 -0.0055  1.3461 -0.7864
 6507SOL     OW30979   0.089   2.820   5.360  0.5967  0.0846  0.5452
 6507SOL    HW130980   0.108   2.911   5.385  0.7175 -0.7738  3.4489
 6507SOL    HW230981   0.110   2.772   5.439  0.5964  0.5325  0.8156
 6508SOL     OW30982   1.268   3.305  12.699 -0.4381  0.4572  0.5041
 6508SOL    HW130983   1.298   3.303  12.608  0.0644  1.3020  0.6494
 6508SOL    HW230984   1.296   3.222  12.737  0.0224  0.0070 -0.8159
 6509SOL     OW30985   0.611   0.243   4.715  0.3007 -0.0789 -0.0506
 6509SOL    HW130986   0.665   0.320   4.728  0.5741 -0.4645  1.0957
 6509SOL    HW230987   0.680   0.190   4.673 -0.7811  0.9527 -3.1383
 6510SOL     OW30988   3.194   0.313  15.631  0.9527 -0.3899 -0.2699
 6510SOL    HW130989   3.253   0.279  15.698 -0.3248  0.2164  1.1493
 6510SOL    HW230990   3.222   0.404  15.627 -2.5944  0.6872 -0.1386
 6511SOL     OW30991   1.890   0.533   3.465 -0.0331  0.2201  0.8265
 6511SOL    HW130992   1.887   0.590   3.388 -1.1468 -1.3686 -0.3299
 6511SOL    HW230993   1.808   0.485   3.453  1.6105 -1.7584 -2.6279
 6512SOL     OW30994   2.778   1.286   5.692 -0.2211  0.3908  0.8869
 6512SOL    HW130995   2.846   1.219   5.698  0.5973  1.2991  1.8411
 6512SOL    HW230996   2.743   1.272   5.604 -0.5133 -1.4121  1.2901
 6513SOL     OW30997   1.806   4.032   4.857 -0.0233 -0.7607  0.5804
 6513SOL    HW130998   1.751   3.966   4.899 -2.9958 -0.2826 -2.5800
 6513SOL    HW230999   1.745   4.105   4.870  0.0930 -0.7378  1.0132
 6514SOL     OW31000   1.367   1.201  14.724  0.2274  0.2377 -0.1422
 6514SOL    HW131001   1.401   1.269  14.666 -2.9434 -0.3005 -2.6063
 6514SOL    HW231002   1.453   1.168  14.753  0.9778  1.7116 -0.6889
 6515SOL     OW31003   2.733   4.057   3.428  0.2434 -0.2968 -0.0542
 6515SOL    HW131004   2.664   4.120   3.404  1.2147  0.3818 -1.0578
 6515SOL    HW231005   2.748   4.058   3.522 -0.5729  1.0127  0.0589
 6516SOL     OW31006   1.199   3.667   2.291 -0.1630 -0.4615 -0.2285
 6516SOL    HW131007   1.276   3.652   2.236 -0.5934  0.0249 -0.9635
 6516SOL    HW231008   1.197   3.586   2.341  1.1637 -0.6361 -0.4738
 6517SOL     OW31009   1.276   1.408   9.030 -0.2657  0.1841  0.1077
 6517SOL    HW131010   1.338   1.399   9.102  0.0799  1.2791 -0.0566
 6517SOL    HW231011   1.192   1.408   9.076 -2.3860 -0.8040 -3.7654
 6518SOL     OW31012   3.851   3.054   4.264  0.1258 -0.6413  0.0697
 6518SOL    HW131013   3.808   3.089   4.186 -0.7163 -0.2557  0.6903
 6518SOL    HW231014   3.779   3.056   4.328  1.1272 -0.9571  1.2086
 6519SOL     OW31015   0.250   4.290   5.925  0.1316  0.5321  0.2263
 6519SOL    HW131016   0.265   4.306   5.832  0.3912  1.5703  0.4545
 6519SOL    HW231017   0.176   4.344   5.951 -0.6870 -0.9749  1.0808
 6520SOL     OW31018   1.051   0.405   2.402 -0.0705  0.4805  0.4369
 6520SOL    HW131019   1.115   0.469   2.433 -0.4297  0.6256  0.8723
 6520SOL    HW231020   1.026   0.363   2.484  1.4328 -0.6947  0.2808
 6521SOL     OW31021   2.096   1.131   9.702  0.1298  0.0506 -0.3589
 6521SOL    HW131022   2.028   1.164   9.643  0.4953  0.9316 -0.2890
 6521SOL    HW231023   2.147   1.086   9.635 -1.4741 -2.9831  0.4300
 6522SOL     OW31024   2.924   0.014   7.421  0.1902 -0.3577 -0.4271
 6522SOL    HW131025   2.923   0.013   7.325  1.9326  1.1175 -0.4557
 6522SOL    HW231026   2.986   4.667   7.442  0.2488 -0.3465 -0.5632
 6523SOL     OW31027   2.720   4.651   3.430 -0.7909  0.0460  0.5599
 6523SOL    HW131028   2.645   4.695   3.388  1.1430  2.4630 -0.3485
 6523SOL    HW231029   2.785   4.714   3.461  0.0336 -1.1013  1.1263
 6524SOL     OW31030   0.630   0.951  14.113  0.1989  0.6597  0.5252
 6524SOL    HW131031   0.676   1.002  14.046  1.3489 -0.9607  0.0943
 6524SOL    HW231032   0.698   0.902  14.159  1.7244  1.3460 -1.0179
 6525SOL     OW31033   1.135   4.673   8.573  0.2292 -0.5974  0.3387
 6525SOL    HW131034   1.138   4.722   8.655  1.2744 -1.9476  1.1076
 6525SOL    HW231035   1.045   4.690   8.546  0.5191 -0.4550 -0.5244
 6526SOL     OW31036   0.481   3.310  14.185  0.1709 -0.1457 -0.5362
 6526SOL    HW131037   0.546   3.267  14.130  0.2563  1.8092 -1.9394
 6526SOL    HW231038   0.540   3.367  14.234  0.3373  0.8172 -1.8796
 6527SOL     OW31039   4.603   1.129   6.337 -0.1623  0.3066  0.3316
 6527SOL    HW131040   4.624   1.086   6.419  3.1692 -0.0555 -0.7036
 6527SOL    HW231041   4.668   1.199   6.335  0.3237 -0.1231  1.0613
 6528SOL     OW31042   3.858   1.488   8.092  0.1653  0.3860  0.4245
 6528SOL    HW131043   3.780   1.463   8.042  1.9291 -1.9237 -1.1678
 6528SOL    HW231044   3.866   1.417   8.156 -1.1446  0.7199  0.9579
 6529SOL     OW31045   1.877   4.396   4.369  0.3006 -0.6919 -0.4045
 6529SOL    HW131046   1.936   4.336   4.415  2.3203  1.5524 -0.0742
 6529SOL    HW231047   1.879   4.353   4.284 -2.6840 -0.1223 -0.7468
 6530SOL     OW31048   2.863   2.696   0.476 -0.1962  0.1958  0.0629
 6530SOL    HW131049   2.810   2.625   0.515  0.8736 -1.0275 -0.7219
 6530SOL    HW231050   2.910   2.728   0.553 -0.2144 -0.4109  0.3327
 6531SOL     OW31051   3.681   2.581   1.830  0.0662 -0.5948  0.3261
 6531SOL    HW131052   3.687   2.504   1.886 -1.4889 -1.2645 -0.4312
 6531SOL    HW231053   3.760   2.627   1.860 -1.6222  2.3899  0.1518
 6532SOL     OW31054   3.067   3.096   9.511 -0.4731  0.0739  0.1227
 6532SOL    HW131055   3.141   3.149   9.484  0.3069 -1.8701 -1.5949
 6532SOL    HW231056   2.994   3.142   9.470  0.4250  0.1411 -1.3687
 6533SOL     OW31057   4.153   1.507   2.067 -0.0084 -0.2843 -0.1474
 6533SOL    HW131058   4.121   1.443   2.002 -0.2208 -0.3091 -0.0183
 6533SOL    HW231059   4.114   1.465   2.144  0.4659 -0.4113  0.0230
 6534SOL     OW31060   0.642   3.205   6.959 -0.2506 -0.2395  0.3582
 6534SOL    HW131061   0.616   3.268   6.891  2.0230  0.1925 -0.0975
 6534SOL    HW231062   0.581   3.230   7.028 -0.2908  0.4558  0.0687
 6535SOL     OW31063   2.464   3.200  10.981  0.7709 -0.8933 -0.0712
 6535SOL    HW131064   2.376   3.237  10.970 -0.1590 -2.9684  0.3792
 6535SOL    HW231065   2.503   3.281  11.013  1.7033 -1.5810  0.5342
 6536SOL     OW31066   2.264   4.035   8.917  0.7298  0.5016 -0.7150
 6536SOL    HW131067   2.349   3.991   8.922 -0.7207 -2.0704  1.1247
 6536SOL    HW231068   2.276   4.099   8.987 -1.5818  0.3941 -0.2046
 6537SOL     OW31069   3.000   0.563  17.501  0.0077  0.3117  0.1473
 6537SOL    HW131070   2.931   0.592  17.442  0.5355  2.3518  0.5189
 6537SOL    HW231071   2.953   0.532  17.579 -3.0451  2.3546 -0.9000
 6538SOL     OW31072   3.778   1.016   8.430  0.8499  0.1330 -0.0431
 6538SOL    HW131073   3.699   1.069   8.434  0.3241 -0.7001  0.6174
 6538SOL    HW231074   3.772   0.986   8.339 -1.3372  0.1867  0.0745
 6539SOL     OW31075   3.925   4.089   4.159  0.1967  0.3905  0.0898
 6539SOL    HW131076   3.891   4.130   4.079 -0.4850 -0.1986  0.0835
 6539SOL    HW231077   3.903   4.000   4.135  3.2072 -0.4769  0.4824
 6540SOL     OW31078   0.980   4.497   7.654  0.2044 -0.0269  0.3832
 6540SOL    HW131079   0.931   4.431   7.606  2.4166 -0.5174 -1.1763
 6540SOL    HW231080   0.918   4.552   7.702  0.9587  0.9843  0.2140
 6541SOL     OW31081   1.584   2.808   0.406 -0.3021  0.2652 -0.0284
 6541SOL    HW131082   1.518   2.744   0.381  1.2380 -0.9734 -0.9421
 6541SOL    HW231083   1.589   2.878   0.340 -4.5206  1.2388  0.6580
 6542SOL     OW31084   3.625   0.322   6.316 -0.0173  0.1406  0.4184
 6542SOL    HW131085   3.636   0.258   6.246 -0.7067 -0.5580  0.9433
 6542SOL    HW231086   3.657   0.266   6.387 -0.6608 -0.3550  0.3181
 6543SOL     OW31087   2.545   1.680   3.557 -0.4579 -0.5773 -0.1957
 6543SOL    HW131088   2.518   1.770   3.538 -0.9986 -0.8354 -0.6453
 6543SOL    HW231089   2.489   1.656   3.630  1.1507  1.8166  1.8539
 6544SOL     OW31090   1.567   0.052   7.606 -0.3165 -0.9198 -0.1134
 6544SOL    HW131091   1.644   4.719   7.613  1.6830  1.7291 -1.2877
 6544SOL    HW231092   1.529   0.019   7.525  1.7279  1.0387 -1.8628
 6545SOL     OW31093   3.505   1.415   4.838 -0.2667 -0.7589 -0.4161
 6545SOL    HW131094   3.491   1.495   4.890  0.4556 -0.6053 -0.4533
 6545SOL    HW231095   3.484   1.443   4.749 -2.9771  0.3415  0.5837
 6546SOL     OW31096   2.983   2.007   4.154 -0.1069 -0.1563 -0.1255
 6546SOL    HW131097   2.991   1.912   4.165  2.1718 -0.0710 -0.9965
 6546SOL    HW231098   3.073   2.024   4.125  0.0760  0.4397  0.7815
 6547SOL     OW31099   0.776   1.333   8.695  0.0630 -0.3375  0.8109
 6547SOL    HW131100   0.728   1.251   8.707  0.6926 -0.8648 -0.3120
 6547SOL    HW231101   0.708   1.391   8.659 -0.7136 -2.4119 -1.0860
 6548SOL     OW31102   0.092   2.810  14.715 -0.0629  0.4083  0.5137
 6548SOL    HW131103   0.109   2.803  14.809 -2.0058 -1.8661  0.6896
 6548SOL    HW231104   0.182   2.805  14.684 -0.9904  0.1744 -2.0610
 6549SOL     OW31105   4.623   2.340  14.043 -0.0025  0.6375 -0.0776
 6549SOL    HW131106   4.646   2.300  14.126 -1.9070 -2.6513 -1.1553
 6549SOL    HW231107   4.552   2.280  14.020 -1.0395  1.0240  2.1070
 6550SOL     OW31108   3.633   1.855   3.052 -0.6521  0.1284  0.2719
 6550SOL    HW131109   3.643   1.847   2.957  0.5684  2.9099  0.1634
 6550SOL    HW231110   3.543   1.886   3.060 -1.0115 -0.5638 -1.2130
 6551SOL     OW31111   1.209   3.024  13.877  0.0620 -0.0849 -0.2531
 6551SOL    HW131112   1.304   3.026  13.864  0.0421 -2.6982 -0.8693
 6551SOL    HW231113   1.208   2.976  13.960  0.1057  0.2598 -0.0534
 6552SOL     OW31114   1.676   4.580   4.421 -0.4149 -0.0290  0.1946
 6552SOL    HW131115   1.739   4.512   4.399 -2.1816 -2.6726  3.2638
 6552SOL    HW231116   1.687   4.579   4.516 -0.6588 -2.4491  0.1906
 6553SOL     OW31117   3.656   2.316   9.436 -0.4641  0.1298  0.0522
 6553SOL    HW131118   3.687   2.317   9.346  0.0820  0.5370  0.2443
 6553SOL    HW231119   3.734   2.358   9.473 -0.6924  1.1750 -0.6448
 6554SOL     OW31120   3.624   2.643  15.230 -0.4574  0.1497 -0.3434
 6554SOL    HW131121   3.544   2.626  15.280  1.3851  0.8615  2.8694
 6554SOL    HW231122   3.587   2.629  15.143 -0.5872  0.0528 -0.2706
 6555SOL     OW31123   3.650   4.366   8.048  0.0689 -0.1115  0.2373
 6555SOL    HW131124   3.729   4.319   8.022  0.0242 -0.8059  1.3295
 6555SOL    HW231125   3.692   4.437   8.096  0.9118 -0.8254  0.5632
 6556SOL     OW31126   0.265   1.717   4.107  0.2929 -0.1116 -0.3357
 6556SOL    HW131127   0.199   1.669   4.158  0.1621 -1.1994 -1.5333
 6556SOL    HW231128   0.211   1.760   4.041  0.8876  1.7246  0.3842
 6557SOL     OW31129   4.587   3.105  11.529 -0.4724 -0.1399  0.4471
 6557SOL    HW131130   4.660   3.164  11.546  0.1779 -1.1624  1.1627
 6557SOL    HW231131   4.639   3.041  11.479 -1.2576 -1.1191  0.8757
 6558SOL     OW31132   4.692   1.948   3.694 -0.3718  0.1272 -0.1046
 6558SOL    HW131133   0.013   1.982   3.616 -0.4803 -0.6587 -0.5035
 6558SOL    HW231134   4.600   1.948   3.667 -0.7326  0.1706  1.0865
 6559SOL     OW31135   2.995   2.838  10.304 -0.2894  0.0279 -0.0954
 6559SOL    HW131136   3.005   2.839  10.399  0.5472  2.1850 -0.2035
 6559SOL    HW231137   3.082   2.802  10.284  0.8723  2.6489  0.2241
 6560SOL     OW31138   4.083   2.047   2.781 -0.3638 -0.3210  0.2912
 6560SOL    HW131139   4.134   2.077   2.706 -3.8918 -1.3069 -2.4626
 6560SOL    HW231140   4.020   1.992   2.734 -0.2810 -1.1839  1.1792
 6561SOL     OW31141   2.787   4.362   8.698 -0.6854  0.0553  0.0626
 6561SOL    HW131142   2.765   4.449   8.731 -0.2926 -0.6664  2.2440
 6561SOL    HW231143   2.719   4.310   8.742 -0.4525 -0.3650 -0.0682
 6562SOL     OW31144   0.522   1.278  12.944 -0.3320  0.2954  0.4487
 6562SOL    HW131145   0.506   1.266  12.850  2.8735 -2.7864  0.2729
 6562SOL    HW231146   0.472   1.359  12.951 -0.7681  0.1463 -0.8085
 6563SOL     OW31147   1.499   1.966   8.014 -0.5540  0.9910  0.4086
 6563SOL    HW131148   1.480   1.993   7.924  0.2401  0.3991  0.0587
 6563SOL    HW231149   1.593   1.979   8.028 -0.2389  1.5935 -2.2211
 6564SOL     OW31150   0.111   3.644  14.943  0.1985 -0.2272  0.6071
 6564SOL    HW131151   0.114   3.610  14.853 -0.9161  1.0413  0.0969
 6564SOL    HW231152   0.171   3.718  14.935 -0.6540  0.1929 -1.7603
 6565SOL     OW31153   1.739   1.454  17.548  0.2552 -0.3452  0.3956
 6565SOL    HW131154   1.831   1.461  17.523 -0.1201 -1.8806 -1.3947
 6565SOL    HW231155   1.751   1.420  17.637  2.8232  1.0469  0.5807
 6566SOL     OW31156   3.816   3.401   2.655  0.2134 -0.3471 -0.4977
 6566SOL    HW131157   3.795   3.494   2.662  1.7241 -0.0232 -0.3985
 6566SOL    HW231158   3.753   3.367   2.592 -0.4058 -0.2977  0.0905
 6567SOL     OW31159   2.255   3.937   8.306  0.6298 -0.1583  0.0939
 6567SOL    HW131160   2.247   3.889   8.224 -0.2855  1.4838 -0.7747
 6567SOL    HW231161   2.176   3.990   8.307 -0.8623 -2.3803  0.8253
 6568SOL     OW31162   3.622   1.418   4.457 -0.1391 -0.5205  0.0664
 6568SOL    HW131163   3.690   1.352   4.446  1.1853  1.0097 -0.8235
 6568SOL    HW231164   3.553   1.387   4.398 -1.4440 -0.0048  1.3018
 6569SOL     OW31165   2.212   4.494  11.252 -0.0938 -1.1082 -0.0716
 6569SOL    HW131166   2.218   4.438  11.329  1.1287 -0.6150  0.1790
 6569SOL    HW231167   2.249   4.433  11.189  0.2376  0.4208 -1.3514
 6570SOL     OW31168   0.246   4.371   7.684 -0.1003  0.8433  0.3407
 6570SOL    HW131169   0.278   4.461   7.684  0.1682  0.7451 -1.3611
 6570SOL    HW231170   0.159   4.399   7.656  0.3095  1.2830 -0.5105
 6571SOL     OW31171   2.668   4.571   9.902 -0.2887 -0.4127  0.0461
 6571SOL    HW131172   2.684   4.663   9.880 -0.9334 -0.4485 -0.5738
 6571SOL    HW231173   2.581   4.559   9.864 -0.9847 -0.9797  1.8082
 6572SOL     OW31174   4.144   0.216   0.951  0.3962  0.5598 -0.3866
 6572SOL    HW131175   4.170   0.202   1.042  1.0800  2.8350 -0.2207
 6572SOL    HW231176   4.171   0.306   0.931 -0.9116  0.9543 -0.4379
 6573SOL     OW31177   2.532   1.340   8.684 -0.1802  0.5977  0.1756
 6573SOL    HW131178   2.589   1.266   8.704 -0.6884  0.5948  1.6758
 6573SOL    HW231179   2.444   1.303   8.696 -1.0309  2.5919  0.2073
 6574SOL     OW31180   2.361   3.143   8.945  0.1592 -0.2508  0.4200
 6574SOL    HW131181   2.419   3.145   9.021 -0.0460  0.2952  0.5642
 6574SOL    HW231182   2.281   3.160   8.996  1.2260 -1.6659  2.5824
 6575SOL     OW31183   1.236   4.428  15.673 -0.0178 -0.7178  0.8349
 6575SOL    HW131184   1.245   4.519  15.648 -0.1256 -0.0654  3.1328
 6575SOL    HW231185   1.281   4.393  15.596  1.5508 -0.1030  1.4813
 6576SOL     OW31186   1.313   1.064   4.266  0.2085 -0.5378  0.0804
 6576SOL    HW131187   1.267   1.070   4.350  1.6120 -1.3932  0.9198
 6576SOL    HW231188   1.270   0.990   4.223  0.2515 -0.8914  0.6377
 6577SOL     OW31189   3.335   1.753   4.517 -0.1686 -0.0826  0.3283
 6577SOL    HW131190   3.297   1.681   4.567  2.5614 -2.2284 -0.6525
 6577SOL    HW231191   3.270   1.820   4.537  0.4028  0.8152 -0.8380
 6578SOL     OW31192   2.431   3.789   2.963 -0.5252  0.1174  0.9000
 6578SOL    HW131193   2.388   3.841   3.031  0.1050  1.8664 -0.0440
 6578SOL    HW231194   2.494   3.853   2.930 -1.5241 -1.2143 -3.5576
 6579SOL     OW31195   3.834   0.277   5.578 -0.2886  0.4825  0.5429
 6579SOL    HW131196   3.767   0.315   5.634 -2.3097  3.3997 -3.8177
 6579SOL    HW231197   3.862   0.204   5.632  0.6548  1.3486  1.2109
 6580SOL     OW31198   4.221   0.192   2.950 -0.3429 -0.3327 -0.2375
 6580SOL    HW131199   4.208   0.275   2.904  1.3375  0.1792  0.2119
 6580SOL    HW231200   4.291   0.157   2.894 -2.3449 -1.2735 -2.1436
 6581SOL     OW31201   0.228   2.962   2.054  0.3499  0.3605  0.2656
 6581SOL    HW131202   0.160   3.023   2.026  0.2800 -0.4339 -1.3029
 6581SOL    HW231203   0.175   2.894   2.094  1.5832 -0.7965 -0.0543
 6582SOL     OW31204   3.394   1.225  10.092  0.0874 -0.1312  0.7152
 6582SOL    HW131205   3.376   1.162  10.162 -1.9776 -1.2492 -0.8178
 6582SOL    HW231206   3.489   1.218  10.095  0.2767  3.2907  2.1424
 6583SOL     OW31207   3.254   1.988   2.085 -0.1447  0.3022 -0.2080
 6583SOL    HW131208   3.170   2.029   2.105  0.7367  1.9434  0.1348
 6583SOL    HW231209   3.260   1.927   2.158  0.5129  2.2186  1.3264
 6584SOL     OW31210   4.590   2.189   2.973 -0.1943  0.0267 -0.2471
 6584SOL    HW131211   4.684   2.181   2.988 -0.4380 -0.2874  1.1335
 6584SOL    HW231212   4.597   2.209   2.880  0.3944  2.5389  0.3211
 6585SOL     OW31213   4.540   3.125   4.370  0.2409 -0.1333 -0.7529
 6585SOL    HW131214   4.455   3.090   4.343 -0.3810  0.2448  0.7200
 6585SOL    HW231215   4.583   3.041   4.359  1.0230  0.1103  0.4502
 6586SOL     OW31216   3.811   4.360  10.680 -0.2485 -0.1289 -1.0703
 6586SOL    HW131217   3.882   4.333  10.739 -2.9406 -0.1346  2.1612
 6586SOL    HW231218   3.733   4.356  10.736  0.1747  1.1373 -0.3814
 6587SOL     OW31219   1.191   0.087   3.045  0.0183  0.0183 -1.0231
 6587SOL    HW131220   1.237   0.143   3.107  0.4472  0.2763 -1.5701
 6587SOL    HW231221   1.124   0.052   3.104  1.5128 -1.5765 -0.2787
 6588SOL     OW31222   1.671   3.166  13.056  0.2678  0.5058  0.3367
 6588SOL    HW131223   1.653   3.122  13.139 -3.1209  0.6057 -0.3666
 6588SOL    HW231224   1.766   3.149  13.057  0.6238  2.3984 -0.8259
 6589SOL     OW31225   4.281   0.538   7.203 -0.2428  0.0075  0.1685
 6589SOL    HW131226   4.316   0.622   7.176 -0.3688  0.5173  1.5617
 6589SOL    HW231227   4.256   0.504   7.117  1.3927 -1.6059  0.3295
 6590SOL     OW31228   0.349   4.365  11.099 -0.3834 -0.2822  0.7150
 6590SOL    HW131229   0.284   4.429  11.128 -1.4172 -1.0022  0.0031
 6590SOL    HW231230   0.292   4.304  11.052  0.7711 -0.7134 -0.1154
 6591SOL     OW31231   2.324   1.237   7.978 -0.0136 -0.0607 -0.3484
 6591SOL    HW131232   2.352   1.163   8.033 -0.4534 -0.9801 -1.3531
 6591SOL    HW231233   2.408   1.263   7.940 -0.1724 -1.2869 -1.5264
 6592SOL     OW31234   3.424   3.763   9.395 -0.4343  0.1188 -0.8653
 6592SOL    HW131235   3.519   3.778   9.396 -0.8059  2.5943 -1.5684
 6592SOL    HW231236   3.412   3.808   9.479 -1.1716  0.8836 -1.3842
 6593SOL     OW31237   3.979   3.934   5.570  0.2373 -0.0452 -0.0711
 6593SOL    HW131238   3.910   3.974   5.517  0.2384 -1.4327 -1.1399
 6593SOL    HW231239   3.929   3.933   5.652  0.5006 -0.9264  0.0716
 6594SOL     OW31240   0.965   4.007   3.103  0.2114  0.5705 -0.0267
 6594SOL    HW131241   1.038   4.067   3.119 -0.5345  1.8234 -1.2324
 6594SOL    HW231242   0.996   3.952   3.032 -0.5196 -2.4059  1.9875
 6595SOL     OW31243   2.356   0.991   6.899 -0.2392  0.4064 -0.1557
 6595SOL    HW131244   2.435   0.937   6.900 -0.5791 -0.1059 -0.8631
 6595SOL    HW231245   2.285   0.927   6.900  1.6243 -1.6810 -0.8058
 6596SOL     OW31246   3.567   0.382   5.987 -0.3546  0.4751 -0.7089
 6596SOL    HW131247   3.593   0.471   6.010  1.9013 -0.3667  0.0385
 6596SOL    HW231248   3.587   0.400   5.895  1.2275 -1.2118 -0.6999
 6597SOL     OW31249   1.098   2.917   0.689 -0.3600 -0.1428 -0.1611
 6597SOL    HW131250   1.050   2.998   0.672 -0.1660 -0.1221 -0.6111
 6597SOL    HW231251   1.135   2.900   0.602 -2.2088  1.6537 -1.2940
 6598SOL     OW31252   0.198   1.585  15.636 -0.2389 -0.0337  0.4305
 6598SOL    HW131253   0.277   1.628  15.604 -0.5349 -0.3666 -0.7341
 6598SOL    HW231254   0.164   1.539  15.559 -0.4158 -0.0192  0.5003
 6599SOL     OW31255   2.004   0.974   5.742  0.1176  0.9039 -0.4276
 6599SOL    HW131256   2.032   0.889   5.709  1.1657 -0.1802  3.1666
 6599SOL    HW231257   1.993   0.947   5.833  0.2922  1.9424 -0.0951
 6600SOL     OW31258   4.483   2.879   3.026  0.4887  0.4102 -0.2290
 6600SOL    HW131259   4.490   2.974   3.015 -2.2516  0.6986  0.6769
 6600SOL    HW231260   4.574   2.852   3.009  1.1549  0.3756  3.3234
 6601SOL     OW31261   0.829   4.240   0.259 -0.1526  0.2239  0.0610
 6601SOL    HW131262   0.881   4.308   0.301  1.0063 -0.9418  0.4825
 6601SOL    HW231263   0.775   4.215   0.334 -0.5578 -0.0948 -0.3270
 6602SOL     OW31264   3.129   1.431   7.460  0.0400  0.3555 -0.0336
 6602SOL    HW131265   3.054   1.471   7.417 -0.1585  2.7779  2.6009
 6602SOL    HW231266   3.107   1.339   7.444  0.7723  0.3920 -1.2171
 6603SOL     OW31267   3.101   0.997   5.927  0.3171 -0.4671  0.0069
 6603SOL    HW131268   3.006   0.992   5.916  0.5138  1.3369 -2.6726
 6603SOL    HW231269   3.128   1.045   5.848  1.5430 -2.3200 -0.6973
 6604SOL     OW31270   0.117   0.017   4.033 -0.2600 -0.7801  0.3041
 6604SOL    HW131271   0.034   0.010   4.080 -1.3833  0.5582 -1.4814
 6604SOL    HW231272   0.127   0.110   4.053  0.7545 -1.2953  2.1981
 6605SOL     OW31273   4.324   0.802   2.354 -0.1326  0.3892  0.5896
 6605SOL    HW131274   4.258   0.865   2.327 -0.7615  0.0062  1.2302
 6605SOL    HW231275   4.358   0.779   2.268 -1.1937  0.4413  0.1580
 6606SOL     OW31276   3.630   2.640   8.798 -0.2381 -0.5517 -0.3698
 6606SOL    HW131277   3.700   2.575   8.800  0.2444  0.0291  2.2206
 6606SOL    HW231278   3.645   2.696   8.875 -1.8625 -0.4804 -0.1064
 6607SOL     OW31279   3.463   1.431   3.555  0.9138  0.0512 -0.0931
 6607SOL    HW131280   3.433   1.503   3.499  1.1027 -0.9204 -1.4654
 6607SOL    HW231281   3.405   1.446   3.629  0.9760 -1.4565  0.2553
 6608SOL     OW31282   4.293   3.510   2.618  0.2848 -0.3395 -0.3175
 6608SOL    HW131283   4.230   3.573   2.582 -0.8256 -0.2048  1.8771
 6608SOL    HW231284   4.266   3.431   2.573  1.1061 -0.3028 -0.8907
 6609SOL     OW31285   1.334   0.461  14.661 -0.8295  0.0184  0.3869
 6609SOL    HW131286   1.389   0.535  14.634  1.4567 -0.6138  3.3701
 6609SOL    HW231287   1.250   0.495  14.630 -0.9512 -0.0668  0.6214
 6610SOL     OW31288   0.843   4.264   7.588 -0.2181  0.3285  0.1024
 6610SOL    HW131289   0.781   4.290   7.520  0.7151 -0.5590 -1.0734
 6610SOL    HW231290   0.908   4.232   7.526 -1.8481 -2.3124 -0.2410
 6611SOL     OW31291   1.631   3.200   5.138 -0.1267  0.5635  0.4464
 6611SOL    HW131292   1.551   3.162   5.175 -0.1403 -0.4587 -0.6369
 6611SOL    HW231293   1.611   3.293   5.125 -1.2606  0.2638 -0.0161
 6612SOL     OW31294   0.913   3.202   1.175 -0.3241  0.2655 -0.1146
 6612SOL    HW131295   0.890   3.110   1.172 -0.4769  0.3304 -0.8581
 6612SOL    HW231296   0.861   3.238   1.246  0.2642 -0.9445  0.9321
 6613SOL     OW31297   2.380   1.170   9.985 -0.1595  0.5513 -0.2989
 6613SOL    HW131298   2.457   1.125   9.950  0.7682  0.0301  2.4434
 6613SOL    HW231299   2.391   1.182  10.079 -1.0380  1.1281 -0.2657
 6614SOL     OW31300   3.732   1.827   2.211  0.0030  0.6802 -0.7455
 6614SOL    HW131301   3.795   1.809   2.141 -1.6010 -0.5924 -1.8744
 6614SOL    HW231302   3.664   1.764   2.184 -0.5234  0.8986  0.0575
 6615SOL     OW31303   1.401   2.830   4.738 -0.4149  0.6379 -0.1397
 6615SOL    HW131304   1.359   2.899   4.686 -1.6458  0.0506  0.0767
 6615SOL    HW231305   1.361   2.857   4.821  0.3731  0.6722  0.2319
 6616SOL     OW31306   2.209   3.984   6.458  0.0715 -0.0760 -0.1636
 6616SOL    HW131307   2.290   3.964   6.411  0.3044 -0.1505  0.2722
 6616SOL    HW231308   2.212   4.080   6.450  0.8412  0.0004  1.0512
 6617SOL     OW31309   0.579   1.575   3.526  0.0884 -0.1621  0.6115
 6617SOL    HW131310   0.571   1.484   3.498  0.9913 -0.6131  1.8008
 6617SOL    HW231311   0.658   1.589   3.578  0.1739  0.0093  0.4331
 6618SOL     OW31312   0.449   3.454  15.104  0.2205 -0.8089 -0.2439
 6618SOL    HW131313   0.504   3.410  15.169  0.4413  2.3166  1.6832
 6618SOL    HW231314   0.448   3.546  15.130 -0.3946 -1.1143  0.7893
 6619SOL     OW31315   2.691   0.116   9.060 -0.0080  0.4273  0.0341
 6619SOL    HW131316   2.671   0.093   8.969 -0.8333  0.3013  0.2469
 6619SOL    HW231317   2.732   0.202   9.052  0.4157  0.2069 -0.1859
 6620SOL     OW31318   3.327   2.845   8.404  0.0858 -0.1658  0.1789
 6620SOL    HW131319   3.391   2.869   8.338 -1.9632 -0.3591 -1.8837
 6620SOL    HW231320   3.242   2.833   8.362 -0.5496  0.0963  1.3720
 6621SOL     OW31321   3.375   2.165   3.728 -0.1956 -0.4892  0.1867
 6621SOL    HW131322   3.319   2.119   3.666  1.2299  0.4296 -1.7963
 6621SOL    HW231323   3.311   2.214   3.780 -2.0926 -0.4383 -2.2318
 6622SOL     OW31324   2.417   2.105  14.823 -0.2979 -0.4576  0.6790
 6622SOL    HW131325   2.397   2.160  14.747  1.2346  0.2313  0.7507
 6622SOL    HW231326   2.507   2.129  14.848  0.7966 -2.9659 -0.8492
 6623SOL     OW31327   3.414   1.592  10.520  0.3923  0.1768 -0.0982
 6623SOL    HW131328   3.505   1.562  10.522 -0.5156 -2.5732  0.5110
 6623SOL    HW231329   3.423   1.653  10.593  1.7783  0.6163 -0.6385
 6624SOL     OW31330   4.666   1.799   1.120 -0.3208 -0.3649  0.0523
 6624SOL    HW131331   4.610   1.841   1.184  0.8032 -0.4409  1.0803
 6624SOL    HW231332   4.624   1.713   1.116 -1.6432  0.3009 -0.3763
 6625SOL     OW31333   4.585   1.311   3.751 -0.1048 -0.1904 -0.1015
 6625SOL    HW131334   4.611   1.239   3.694 -2.8268  0.7845 -2.5853
 6625SOL    HW231335   4.583   1.266   3.835  2.4904  1.5032  0.8856
 6626SOL     OW31336   4.049   3.967   1.942 -0.8569 -0.5131 -0.2024
 6626SOL    HW131337   3.973   3.921   1.907 -1.6960  0.6818  0.0226
 6626SOL    HW231338   4.005   4.047   1.971  0.4772 -0.2777  1.1818
 6627SOL     OW31339   1.379   1.633   7.799  0.0749  0.1204  0.4085
 6627SOL    HW131340   1.353   1.694   7.729  2.0243  0.2621 -0.1985
 6627SOL    HW231341   1.328   1.665   7.873 -0.0590 -1.1716  0.8726
 6628SOL     OW31342   2.677   0.246   2.562 -0.1809  0.3526 -0.3637
 6628SOL    HW131343   2.763   0.225   2.526 -1.2298 -1.0024 -2.1094
 6628SOL    HW231344   2.654   0.330   2.523 -0.9465  1.7699  3.2282
 6629SOL     OW31345   3.067   2.807   6.408 -0.1647  0.2767 -0.4240
 6629SOL    HW131346   3.069   2.771   6.497  0.2143 -1.1473 -1.0109
 6629SOL    HW231347   3.146   2.778   6.363  0.7648  0.3232  1.1688
 6630SOL     OW31348   1.413   1.155   3.517 -0.6303  0.1908 -0.3461
 6630SOL    HW131349   1.398   1.206   3.438 -0.0282 -0.0487 -0.6224
 6630SOL    HW231350   1.328   1.128   3.550  0.3855 -2.2262  0.3193
 6631SOL     OW31351   2.733   4.260   6.902  0.2337 -0.2149 -0.1130
 6631SOL    HW131352   2.776   4.311   6.970  1.1925  1.0090 -1.6410
 6631SOL    HW231353   2.661   4.223   6.954  1.9469  0.1111  2.4852
 6632SOL     OW31354   0.251   4.149  10.248 -0.5473  0.0551 -0.0708
 6632SOL    HW131355   0.167   4.107  10.270  0.7211 -1.7119  1.3467
 6632SOL    HW231356   0.265   4.205  10.324 -1.3677 -0.4410  0.4518
 6633SOL     OW31357   1.914   4.645  10.106  0.0045 -0.0731 -0.1530
 6633SOL    HW131358   1.832   4.683  10.140  0.6553 -0.2090  1.5923
 6633SOL    HW231359   1.960   4.638  10.190  0.2027 -2.6193 -0.4799
 6634SOL     OW31360   2.686   4.591   5.010 -0.0337  0.0954  0.1598
 6634SOL    HW131361   2.640   4.674   5.009  0.8054  0.5693  0.7567
 6634SOL    HW231362   2.734   4.589   5.093  0.2941  1.5343  0.0042
 6635SOL     OW31363   0.300   3.400  14.894 -0.6624 -0.1468 -0.1064
 6635SOL    HW131364   0.354   3.414  14.971  1.4720 -3.6056 -0.9966
 6635SOL    HW231365   0.233   3.468  14.908 -0.4944  0.3773 -1.8873
 6636SOL     OW31366   1.924   0.075   7.395 -0.4270  0.4592  0.8588
 6636SOL    HW131367   1.919   0.055   7.489 -3.1200  0.0161  0.6279
 6636SOL    HW231368   2.008   0.120   7.389  0.0338 -0.5788 -0.3600
 6637SOL     OW31369   1.617   3.791   0.436  0.6766  0.1577  0.6403
 6637SOL    HW131370   1.610   3.870   0.491 -1.7565  0.3641  0.0575
 6637SOL    HW231371   1.554   3.741   0.488  1.8098 -0.4316  1.4471
 6638SOL     OW31372   0.405   4.580   8.514  0.1017  0.0648  0.0751
 6638SOL    HW131373   0.393   4.546   8.425 -0.5558 -1.6345  0.8200
 6638SOL    HW231374   0.311   4.588   8.527  0.4415  0.5042  2.2950
 6639SOL     OW31375   0.387   3.723  15.177  0.9802  0.1278 -0.2028
 6639SOL    HW131376   0.423   3.754  15.260  1.8880 -0.9044 -0.2060
 6639SOL    HW231377   0.301   3.694  15.205  1.0242 -0.5302 -0.7340
 6640SOL     OW31378   2.143   0.204   7.423  0.2352 -0.5601  0.2115
 6640SOL    HW131379   2.204   0.151   7.372 -1.1250 -0.8583 -1.0905
 6640SOL    HW231380   2.162   0.282   7.372 -0.6685 -1.0975 -0.9470
 6641SOL     OW31381   4.268   1.692   2.451  0.2653  0.0381  0.2583
 6641SOL    HW131382   4.305   1.672   2.365 -0.7371 -0.8971  0.0470
 6641SOL    HW231383   4.211   1.617   2.468 -0.0237  0.4915  1.3037
 6642SOL     OW31384   3.261   3.696   1.707  0.0087  0.3598  0.1208
 6642SOL    HW131385   3.289   3.784   1.731 -0.1051  0.5169 -0.3385
 6642SOL    HW231386   3.168   3.717   1.714 -0.5023 -1.6020 -0.8272
 6643SOL     OW31387   2.208   1.312  11.128 -0.1598 -0.6257 -0.3662
 6643SOL    HW131388   2.260   1.316  11.047  1.4735  0.4926  0.7274
 6643SOL    HW231389   2.126   1.269  11.106  0.5659 -0.3203 -3.5854
 6644SOL     OW31390   2.336   4.387  14.131  0.5124  0.3152  0.1210
 6644SOL    HW131391   2.271   4.375  14.200  1.9590  1.2681  1.6526
 6644SOL    HW231392   2.399   4.450  14.166 -0.7744  1.1538  0.9393
 6645SOL     OW31393   4.581   1.849   5.365 -0.4918 -0.0592 -0.4646
 6645SOL    HW131394   4.551   1.786   5.300  0.7547 -1.2771  0.1570
 6645SOL    HW231395   4.612   1.929   5.322  0.8543 -0.7831 -0.8114
 6646SOL     OW31396   3.886   2.847   8.756 -0.6010 -0.0167 -0.2375
 6646SOL    HW131397   3.923   2.838   8.844 -0.2217  1.3565 -0.2612
 6646SOL    HW231398   3.864   2.939   8.755  0.0609  0.1256 -1.7151
 6647SOL     OW31399   0.663   3.830  17.209  0.1891 -0.4353 -0.3785
 6647SOL    HW131400   0.685   3.855  17.119 -0.6424  0.9371 -0.2047
 6647SOL    HW231401   0.621   3.912  17.237  3.4550  1.2947 -0.5146
 6648SOL     OW31402   3.884   0.253   3.355  0.0352 -0.2643 -0.1496
 6648SOL    HW131403   3.806   0.229   3.304 -0.2017  1.0343 -0.3894
 6648SOL    HW231404   3.953   0.195   3.324  1.0564  0.3323  1.0255
 6649SOL     OW31405   2.730   0.192   6.346  0.2047 -0.0568 -0.3866
 6649SOL    HW131406   2.760   0.264   6.291 -2.2567  2.0236  0.9899
 6649SOL    HW231407   2.772   0.214   6.429  2.5574  0.2587 -1.6657
 6650SOL     OW31408   4.688   0.558  16.484 -0.2332 -0.1388 -0.3280
 6650SOL    HW131409   4.687   0.474  16.438 -1.1464 -0.5695  0.4770
 6650SOL    HW231410   4.633   0.545  16.561  0.2521  5.0815  0.9220
 6651SOL     OW31411   0.832   0.729   3.388  0.6041  0.1067  0.0877
 6651SOL    HW131412   0.793   0.713   3.302  3.7954  2.2614 -1.7831
 6651SOL    HW231413   0.877   0.813   3.376  2.0547 -0.5373  1.0442
 6652SOL     OW31414   0.281   3.540   4.723 -0.4512 -0.4230 -0.0349
 6652SOL    HW131415   0.224   3.615   4.741  1.3250  1.3976 -1.9087
 6652SOL    HW231416   0.367   3.583   4.720 -0.4555 -0.3427  1.1072
 6653SOL     OW31417   1.790   2.745   8.258  0.1421  0.3332 -0.0802
 6653SOL    HW131418   1.837   2.794   8.325  1.4920 -0.2312 -0.6173
 6653SOL    HW231419   1.713   2.795   8.229  0.2874  0.8036  0.3371
 6654SOL     OW31420   3.167   3.032   4.614 -0.2905  0.1531  0.1077
 6654SOL    HW131421   3.164   2.982   4.696  1.4901 -0.3907 -0.1591
 6654SOL    HW231422   3.098   3.097   4.625  0.7618  1.4914 -1.1962
 6655SOL     OW31423   0.699   3.211   8.550  0.0937  0.4285 -0.0707
 6655SOL    HW131424   0.666   3.249   8.468  1.5140 -0.7123 -1.1761
 6655SOL    HW231425   0.793   3.198   8.541 -0.2881 -1.0334 -2.0360
 6656SOL     OW31426   4.319   4.172  16.196 -0.3795  0.7258 -0.1724
 6656SOL    HW131427   4.396   4.229  16.189  0.4820 -0.2731  1.1989
 6656SOL    HW231428   4.325   4.129  16.281  0.7449 -0.4860 -0.8677
 6657SOL     OW31429   1.521   3.587   8.532  0.0532  0.5309  0.1425
 6657SOL    HW131430   1.487   3.517   8.476  1.0498 -0.8456  1.2585
 6657SOL    HW231431   1.614   3.589   8.510 -0.2255  1.4105 -0.9907
 6658SOL     OW31432   2.937   4.587   6.025 -0.0361 -0.4217  0.1517
 6658SOL    HW131433   3.008   4.525   6.034 -0.4913 -0.9389  0.1561
 6658SOL    HW231434   2.874   4.538   5.972  0.8728 -1.0888 -0.2991
 6659SOL     OW31435   3.270   2.950   0.464  0.2244 -0.1687 -0.3647
 6659SOL    HW131436   3.213   3.027   0.471  0.5530  0.1534 -1.2807
 6659SOL    HW231437   3.275   2.927   0.557  0.6598 -4.7132 -1.5244
 6660SOL     OW31438   3.957   2.123   1.098 -0.1214  0.0529 -0.1349
 6660SOL    HW131439   3.969   2.208   1.057 -0.2925  1.0468  1.9120
 6660SOL    HW231440   3.943   2.072   1.018 -0.1551  1.7772 -1.2141
 6661SOL     OW31441   4.389   2.916  15.501  0.0399  0.3696 -0.7031
 6661SOL    HW131442   4.367   2.841  15.447  2.8325 -1.3565  0.5589
 6661SOL    HW231443   4.309   2.967  15.486  0.9244  2.4601  1.6844
 6662SOL     OW31444   0.893   2.238   1.720 -0.2338 -0.4429 -0.3237
 6662SOL    HW131445   0.982   2.243   1.687 -0.1348  1.8735  0.2760
 6662SOL    HW231446   0.900   2.179   1.794 -1.1195  0.0526  0.1625
 6663SOL     OW31447   3.984   2.015   4.020 -0.8841 -0.0708  0.0510
 6663SOL    HW131448   3.969   2.110   4.023  3.1078  0.5907 -1.7750
 6663SOL    HW231449   4.069   2.007   3.978 -0.5517  1.8101  0.3714
 6664SOL     OW31450   0.944   2.428   4.199 -0.3829  0.6764 -0.3901
 6664SOL    HW131451   0.880   2.403   4.265 -1.3610 -0.1551 -1.6539
 6664SOL    HW231452   0.917   2.520   4.206 -1.0664  0.3297  1.4805
 6665SOL     OW31453   1.133   1.921  11.366 -0.1638  0.1344 -0.0332
 6665SOL    HW131454   1.085   1.851  11.322  2.0145 -1.8629  0.7661
 6665SOL    HW231455   1.152   1.979  11.293  0.6780 -1.8815 -1.4081
 6666SOL     OW31456   1.842   2.646   0.642 -0.1776 -0.0540  0.0255
 6666SOL    HW131457   1.889   2.718   0.599 -1.8159  0.0435 -1.6074
 6666SOL    HW231458   1.754   2.682   0.652 -0.7627 -1.3565 -0.4897
 6667SOL     OW31459   1.440   2.603  17.133  0.0307 -0.1608  0.2273
 6667SOL    HW131460   1.362   2.550  17.149  1.1901 -1.2836  2.1723
 6667SOL    HW231461   1.392   2.686  17.127  1.2976  0.3645 -2.5571
 6668SOL     OW31462   2.896   0.537  16.182  0.0363  0.2336 -0.2752
 6668SOL    HW131463   2.875   0.555  16.274  0.3808 -0.3934 -0.0798
 6668SOL    HW231464   2.921   0.445  16.185 -3.6242 -0.7920 -0.4231
 6669SOL     OW31465   3.332   2.804   8.848 -0.3121 -0.0005  0.4852
 6669SOL    HW131466   3.297   2.774   8.764  0.9779  1.2104 -0.4718
 6669SOL    HW231467   3.426   2.791   8.846 -0.5515 -1.5598 -1.0780
 6670SOL     OW31468   0.501   3.677   8.723 -0.0008 -0.4143  0.3070
 6670SOL    HW131469   0.515   3.583   8.713  0.1442 -0.5046  1.2937
 6670SOL    HW231470   0.552   3.700   8.801  0.6838  0.8769 -0.5306
 6671SOL     OW31471   3.872   0.229   4.125  0.4262  0.1186 -0.7204
 6671SOL    HW131472   3.901   0.293   4.191 -2.9425  0.0342  0.8249
 6671SOL    HW231473   3.948   0.233   4.067  0.7066  1.1033 -0.2924
 6672SOL     OW31474   3.186   0.567   6.109  0.8316 -0.3012  0.1249
 6672SOL    HW131475   3.173   0.593   6.017 -0.5854 -0.5213  0.2664
 6672SOL    HW231476   3.212   0.646   6.155  0.5987 -0.9694  1.3867
 6673SOL     OW31477   2.154   3.776   1.696 -0.2781  0.2691 -0.0944
 6673SOL    HW131478   2.128   3.684   1.707 -0.2195  0.3996  1.1448
 6673SOL    HW231479   2.165   3.791   1.602  2.0668  0.9961  0.3033
 6674SOL     OW31480   4.448   0.336   5.217  0.2492 -0.3833 -0.6131
 6674SOL    HW131481   4.493   0.394   5.156 -0.2129  0.9553  0.3281
 6674SOL    HW231482   4.516   0.302   5.276  0.8062  2.0367  0.1237
 6675SOL     OW31483   3.120   2.776   7.504 -0.3836 -0.3422  0.0223
 6675SOL    HW131484   3.170   2.722   7.443  0.7212  1.1578 -0.3966
 6675SOL    HW231485   3.048   2.807   7.448 -0.9216  0.3606  1.1071
 6676SOL     OW31486   1.652   4.262   1.252  0.2906 -0.5790  0.0566
 6676SOL    HW131487   1.621   4.232   1.167  1.7370  1.0539 -1.0446
 6676SOL    HW231488   1.646   4.357   1.237 -0.1227 -0.9629 -2.2256
 6677SOL     OW31489   1.040   2.632  16.601  0.2866 -0.0844 -0.3816
 6677SOL    HW131490   1.005   2.645  16.513 -0.8861  1.7657  0.3725
 6677SOL    HW231491   1.011   2.544  16.625 -3.1536  0.7679 -1.4804
 6678SOL     OW31492   4.429   3.544   8.052 -0.2899  0.4482 -0.6752
 6678SOL    HW131493   4.461   3.523   8.140 -1.6610 -0.4365 -0.3932
 6678SOL    HW231494   4.493   3.503   7.995  0.0839 -0.5617  0.4603
 6679SOL     OW31495   2.949   0.489   7.938  0.5955  0.5641  0.4013
 6679SOL    HW131496   2.938   0.396   7.917  1.5623  0.6569 -0.5005
 6679SOL    HW231497   2.938   0.535   7.855 -0.7595  1.1843  0.9325
 6680SOL     OW31498   0.087   0.586   5.221  0.2039 -0.3921  0.8150
 6680SOL    HW131499   0.076   0.628   5.306  0.4121  0.0753  0.6088
 6680SOL    HW231500   0.130   0.506   5.252  1.1553 -0.1387  0.1166
 6681SOL     OW31501   1.988   1.777   6.407 -0.0207  0.4148  0.3534
 6681SOL    HW131502   1.974   1.682   6.412 -0.4702  0.5848  2.0838
 6681SOL    HW231503   1.973   1.788   6.313  0.2842  1.8305  0.4747
 6682SOL     OW31504   0.460   0.305  14.577  0.0970  0.1486 -0.0425
 6682SOL    HW131505   0.397   0.251  14.529  0.0302 -1.0953  1.4539
 6682SOL    HW231506   0.468   0.249  14.654  0.3143 -0.6631 -0.6540
 6683SOL     OW31507   1.620   3.791   1.548 -0.5469  0.2392 -0.4905
 6683SOL    HW131508   1.537   3.787   1.501 -1.4752 -1.4667  1.2603
 6683SOL    HW231509   1.645   3.699   1.560  2.2706  1.0646 -0.1020
 6684SOL     OW31510   2.433   0.199  16.236  0.6208  0.4048  0.1385
 6684SOL    HW131511   2.460   0.184  16.146 -0.9210  1.6535 -0.5366
 6684SOL    HW231512   2.499   0.263  16.265 -0.5621  1.1228  1.2923
 6685SOL     OW31513   2.272   1.914   9.563 -0.0036 -0.6949 -0.4422
 6685SOL    HW131514   2.356   1.898   9.520 -0.0803 -2.0502 -0.1015
 6685SOL    HW231515   2.228   1.830   9.546 -1.4158  0.0563 -0.4566
 6686SOL     OW31516   1.881   3.688   6.103  0.2492 -0.3171 -0.2895
 6686SOL    HW131517   1.888   3.782   6.087 -0.6197 -0.2090 -0.0523
 6686SOL    HW231518   1.967   3.676   6.143  0.1766 -0.6909 -0.2446
 6687SOL     OW31519   0.093   3.888   7.993 -0.3594 -0.3136  0.4859
 6687SOL    HW131520   0.101   3.983   7.985  1.9092 -0.5711 -0.3556
 6687SOL    HW231521   0.074   3.884   8.086 -0.0031  0.9507  0.6139
 6688SOL     OW31522   0.131   4.574   8.817  0.5851 -0.5407  0.0476
 6688SOL    HW131523   0.119   4.550   8.726  1.0642  1.7545 -0.6191
 6688SOL    HW231524   0.104   4.666   8.815 -2.3865 -1.4290 -0.7011
 6689SOL     OW31525   1.568   4.523   6.662  0.1212  0.3861  0.1618
 6689SOL    HW131526   1.513   4.588   6.707 -0.7376 -0.3572  0.1826
 6689SOL    HW231527   1.651   4.561   6.691  0.5133 -0.8382  0.6459
 6690SOL     OW31528   2.420   0.009   7.835  0.5511 -0.2917 -0.5258
 6690SOL    HW131529   2.453   0.089   7.875 -0.5225 -0.0901 -0.0463
 6690SOL    HW231530   2.401   0.047   7.750  1.4289  2.2096  0.3880
 6691SOL     OW31531   1.771   4.054   3.527 -0.0919 -0.3958  0.1912
 6691SOL    HW131532   1.850   4.000   3.531 -0.4642 -1.1796 -2.6163
 6691SOL    HW231533   1.786   4.112   3.602  0.6199 -0.8178  0.3766
 6692SOL     OW31534   0.163   2.157   6.290  0.4529  0.9414  0.0410
 6692SOL    HW131535   0.068   2.163   6.293  0.2663 -0.6641 -2.3539
 6692SOL    HW231536   0.177   2.250   6.274  1.2944  0.8295  0.1283
 6693SOL     OW31537   4.056   0.232  11.514  0.1125 -0.1503  0.0827
 6693SOL    HW131538   4.032   0.289  11.587 -1.0928  1.2804 -1.4149
 6693SOL    HW231539   3.975   0.183  11.497 -0.2118  0.6749 -0.7606
 6694SOL     OW31540   4.700   1.122   4.270 -0.6354 -0.2137  0.2987
 6694SOL    HW131541   0.024   1.185   4.325 -0.9515 -0.3448  0.7134
 6694SOL    HW231542   0.045   1.053   4.274  1.1751  1.5417 -0.1218
 6695SOL     OW31543   1.101   1.657   4.268  0.1468 -0.7916  1.2135
 6695SOL    HW131544   1.108   1.698   4.182  1.5193 -1.2905  1.0981
 6695SOL    HW231545   1.151   1.578   4.249  2.3322  0.7071  0.7639
 6696SOL     OW31546   4.327   0.634  16.143 -0.3594 -0.4786 -0.4478
 6696SOL    HW131547   4.407   0.646  16.195  0.2968 -1.1762 -1.2951
 6696SOL    HW231548   4.351   0.670  16.057  0.0292 -0.3412 -0.2815
 6697SOL     OW31549   3.266   0.189   5.439  0.3562 -0.0357  0.0957
 6697SOL    HW131550   3.323   0.196   5.515  0.0189 -0.6866  0.4094
 6697SOL    HW231551   3.328   0.179   5.367  0.0534 -0.1658 -0.1442
 6698SOL     OW31552   0.571   4.403  12.077  0.2951 -1.0335 -0.3182
 6698SOL    HW131553   0.644   4.399  12.139  1.1604  3.7684 -1.0194
 6698SOL    HW231554   0.608   4.453  12.004 -3.9542  0.0127 -1.7399
 6699SOL     OW31555   4.458   3.349  11.470 -0.4884  0.0317  1.2765
 6699SOL    HW131556   4.453   3.266  11.516 -0.4341 -0.5808  0.1789
 6699SOL    HW231557   4.366   3.375  11.473 -0.5196  0.2889 -1.7383
 6700SOL     OW31558   4.260   3.938   7.336 -0.1835  0.7688 -0.3714
 6700SOL    HW131559   4.214   3.882   7.399  1.1137 -1.4487 -1.3947
 6700SOL    HW231560   4.343   3.957   7.380  0.0289 -0.9468 -0.0354
 6701SOL     OW31561   0.443   2.814   4.168 -0.2936  0.2520  0.0330
 6701SOL    HW131562   0.471   2.724   4.150 -0.6914  0.3564 -1.1032
 6701SOL    HW231563   0.524   2.855   4.138  0.0507 -1.4747 -1.4119
 6702SOL     OW31564   3.454   4.469  14.823  0.0744  0.2694 -0.0054
 6702SOL    HW131565   3.425   4.377  14.820  0.4872  0.1928 -1.7361
 6702SOL    HW231566   3.402   4.495  14.898 -2.6292 -2.8223 -0.8121
 6703SOL     OW31567   3.649   3.688   1.897  0.2730 -0.2268  0.2780
 6703SOL    HW131568   3.585   3.729   1.956 -0.5978  1.1281 -1.6130
 6703SOL    HW231569   3.597   3.610   1.879 -1.7550  0.8647  1.4402
 6704SOL     OW31570   0.653   2.947   4.040 -0.2092  0.6769  0.2148
 6704SOL    HW131571   0.648   2.902   3.955 -2.6260  0.7439  0.3157
 6704SOL    HW231572   0.668   3.036   4.008 -1.1659  0.4807 -0.8002
 6705SOL     OW31573   0.552   0.051   3.377  0.3331 -0.6949  0.0112
 6705SOL    HW131574   0.536   0.132   3.329  0.7458 -1.8318 -2.0516
 6705SOL    HW231575   0.498   4.714   3.325  2.4761  0.5517 -3.6177
 6706SOL     OW31576   1.145   0.504   3.371 -0.6072 -0.1846  0.6440
 6706SOL    HW131577   1.107   0.491   3.284  0.0682 -0.8107  0.4413
 6706SOL    HW231578   1.219   0.561   3.353 -1.6357  0.8739 -0.2535
 6707SOL     OW31579   0.445   1.574   5.630  0.3155 -0.6773 -0.4714
 6707SOL    HW131580   0.485   1.632   5.695 -2.0451  1.1512 -0.6658
 6707SOL    HW231581   0.357   1.603   5.609 -0.3741 -1.9946  0.5364
 6708SOL     OW31582   3.645   4.666   1.861 -0.8794 -0.2001 -0.2741
 6708SOL    HW131583   3.650   4.596   1.927 -0.0375  1.3829  1.3630
 6708SOL    HW231584   3.612   0.009   1.922  2.0736  0.5346  0.5314
 6709SOL     OW31585   2.563   1.369  15.304  0.4274 -0.2717 -0.4847
 6709SOL    HW131586   2.645   1.417  15.289  0.9593 -0.1406  2.8488
 6709SOL    HW231587   2.500   1.441  15.296 -0.3247 -0.8890 -0.0320
 6710SOL     OW31588   3.317   3.944   3.722 -0.0389 -0.2028  0.1144
 6710SOL    HW131589   3.391   3.953   3.783  0.0051  2.3222 -0.3192
 6710SOL    HW231590   3.259   4.017   3.747 -0.9926 -0.7111 -0.6286
 6711SOL     OW31591   2.054   2.039  11.044 -0.0567  0.4189 -0.0219
 6711SOL    HW131592   2.011   2.125  11.042  0.3226  0.5792 -1.3602
 6711SOL    HW231593   1.987   1.976  11.018  2.6791 -1.4843 -2.5088
 6712SOL     OW31594   2.087   3.376   7.374  0.4272  0.1981 -0.2860
 6712SOL    HW131595   2.114   3.462   7.342  1.7698  0.1961  0.8200
 6712SOL    HW231596   2.028   3.344   7.306 -1.8293  0.0138  1.7421
 6713SOL     OW31597   3.275   3.922  14.167  0.2701  0.5767  0.1187
 6713SOL    HW131598   3.338   3.986  14.135 -0.3171  1.5920  1.0101
 6713SOL    HW231599   3.333   3.852  14.198 -2.1152 -1.3077  0.3132
 6714SOL     OW31600   4.181   1.769   8.658  0.8243  0.0109 -0.2207
 6714SOL    HW131601   4.267   1.810   8.643  0.0009  1.7698 -0.1461
 6714SOL    HW231602   4.203   1.689   8.609 -1.5851 -0.8531  0.1300
 6715SOL     OW31603   4.544   3.109  15.762 -0.3118  0.1349  0.0874
 6715SOL    HW131604   4.467   3.076  15.716 -0.2396 -1.0686  0.8307
 6715SOL    HW231605   4.558   3.199  15.731  0.0531  0.7643  2.0793
 6716SOL     OW31606   1.692   0.511  14.156  0.6072  0.0860  0.3160
 6716SOL    HW131607   1.696   0.422  14.121  2.9153 -0.1685  1.2139
 6716SOL    HW231608   1.662   0.496  14.245 -0.5518 -0.8260 -0.2294
 6717SOL     OW31609   3.650   4.464   2.016 -0.3960 -0.4953  0.2220
 6717SOL    HW131610   3.692   4.383   2.042  0.5789  0.5401  1.8806
 6717SOL    HW231611   3.561   4.452   2.049 -0.7521  4.6924  1.1622
 6718SOL     OW31612   1.734   3.599   5.872  0.0081 -0.2711  0.3324
 6718SOL    HW131613   1.642   3.618   5.888 -0.0306 -1.3665  1.3894
 6718SOL    HW231614   1.772   3.626   5.955 -1.8448 -1.3699  1.5380
 6719SOL     OW31615   2.120   0.997   8.398 -0.5839 -0.3534 -0.3109
 6719SOL    HW131616   2.091   0.963   8.482  1.8445  0.6290  0.9184
 6719SOL    HW231617   2.125   1.092   8.410 -0.2707 -0.2698 -1.0821
 6720SOL     OW31618   3.048   3.850   4.758 -0.4809 -0.0903  0.2534
 6720SOL    HW131619   2.991   3.922   4.732  1.4263  1.3675  0.0789
 6720SOL    HW231620   3.139   3.880   4.752  0.1859 -1.9709  0.8523
 6721SOL     OW31621   1.502   4.718   7.348 -0.0333  0.1846 -0.6300
 6721SOL    HW131622   1.426   4.666   7.323 -0.9127 -0.4964  3.4704
 6721SOL    HW231623   1.495   0.080   7.304  2.1653  1.9839  2.5199
 6722SOL     OW31624   0.772   3.362   5.329 -0.1362 -0.3247  0.2503
 6722SOL    HW131625   0.741   3.417   5.257  0.9053 -1.0202 -0.7410
 6722SOL    HW231626   0.852   3.410   5.350 -1.6951  2.4180 -0.1132
 6723SOL     OW31627   1.626   4.025   0.606  0.2443 -0.9594 -0.2906
 6723SOL    HW131628   1.552   4.024   0.667  0.6821  0.5777  0.2872
 6723SOL    HW231629   1.594   4.095   0.549 -0.9137 -1.0156  0.2950
 6724SOL     OW31630   4.114   2.615   8.814 -0.0839  0.0001 -0.5037
 6724SOL    HW131631   4.041   2.653   8.766  1.9803  1.4931 -2.4785
 6724SOL    HW231632   4.091   2.631   8.906 -1.4095 -1.6212 -0.5518
 6725SOL     OW31633   3.555   2.186   2.146 -0.0277 -0.2440 -0.1160
 6725SOL    HW131634   3.592   2.152   2.228  2.1864  1.0917 -0.5552
 6725SOL    HW231635   3.462   2.196   2.165 -0.0365 -0.2477 -0.1565
 6726SOL     OW31636   0.086   0.245   9.888 -0.1393  0.3468  0.1882
 6726SOL    HW131637   0.069   0.186   9.814  3.4638  1.4402 -1.4922
 6726SOL    HW231638   0.112   0.183   9.956  1.1274 -0.4271 -0.9960
 6727SOL     OW31639   0.762   2.732   2.946 -0.1960  0.5851 -0.1736
 6727SOL    HW131640   0.697   2.696   3.006 -0.8069  3.0998  0.6575
 6727SOL    HW231641   0.812   2.652   2.928  0.2894  0.5457  1.3416
 6728SOL     OW31642   3.076   1.191   7.389 -0.1325  0.2128 -0.4036
 6728SOL    HW131643   3.054   1.133   7.316 -2.7840  0.2532  0.3485
 6728SOL    HW231644   3.055   1.125   7.456 -0.9238 -0.5528 -1.3874
 6729SOL     OW31645   1.667   2.737   4.113  0.2315 -0.4521 -0.1594
 6729SOL    HW131646   1.726   2.794   4.064  1.2460 -1.2824  0.0916
 6729SOL    HW231647   1.708   2.650   4.113  1.9190  0.3291 -0.5638
 6730SOL     OW31648   4.299   3.466   4.988 -0.2257 -0.2557  0.1884
 6730SOL    HW131649   4.310   3.371   4.980 -0.0004 -0.0501 -1.9118
 6730SOL    HW231650   4.363   3.501   4.927  0.3689 -0.8902  0.4478
 6731SOL     OW31651   4.522   4.436   0.797 -0.3269  0.5227 -0.3885
 6731SOL    HW131652   4.439   4.389   0.807 -0.0609 -0.0841 -0.9795
 6731SOL    HW231653   4.580   4.392   0.859 -1.0770 -0.2071 -0.2097
 6732SOL     OW31654   1.806   1.013  17.342  0.7159 -0.1279 -0.4639
 6732SOL    HW131655   1.739   1.082  17.350  1.4300  0.4592  0.4554
 6732SOL    HW231656   1.826   0.999  17.434 -0.9010  1.0882  0.0799
 6733SOL     OW31657   0.290   2.433   8.027 -0.1262  0.2788  1.0269
 6733SOL    HW131658   0.310   2.373   8.099  0.5717  0.8186  1.2840
 6733SOL    HW231659   0.212   2.401   7.983  1.8792 -1.3753 -1.3624
 6734SOL     OW31660   2.976   4.439   5.113  0.3813 -0.2382  0.3892
 6734SOL    HW131661   2.962   4.362   5.056  0.2233  0.1702 -0.1282
 6734SOL    HW231662   3.044   4.487   5.066  0.9934 -1.0923  0.4051
 6735SOL     OW31663   4.703   2.659   6.574 -0.1259 -0.1295 -0.5401
 6735SOL    HW131664   0.015   2.596   6.511 -2.5929 -0.4847 -1.5170
 6735SOL    HW231665   0.066   2.677   6.615 -0.9381  0.5539  0.8898
 6736SOL     OW31666   0.962   2.434   1.018 -0.3530  0.1740  0.5422
 6736SOL    HW131667   0.950   2.497   0.946  0.0724  1.5765  1.6846
 6736SOL    HW231668   0.871   2.418   1.041 -0.8153  2.1328  0.1472
 6737SOL     OW31669   0.792   1.249   4.242  0.2032 -0.1159 -0.3141
 6737SOL    HW131670   0.766   1.331   4.285 -0.0459 -0.2867 -0.1429
 6737SOL    HW231671   0.707   1.208   4.258  1.3474 -1.6233  2.0068
 6738SOL     OW31672   3.053   3.047   7.290  0.0310 -0.3835  0.1458
 6738SOL    HW131673   2.974   3.002   7.261  0.3843 -0.3677 -0.8321
 6738SOL    HW231674   3.033   3.095   7.370 -0.6976  0.9543 -0.8413
 6739SOL     OW31675   2.347   1.350   3.252  0.1729 -0.6180 -0.5325
 6739SOL    HW131676   2.363   1.259   3.278  1.2283 -0.3901 -0.3828
 6739SOL    HW231677   2.295   1.384   3.325  0.4203  1.3485 -1.2812
 6740SOL     OW31678   3.437   2.726   7.204  0.0600  0.2207  0.2468
 6740SOL    HW131679   3.409   2.721   7.113  3.5495  0.5054 -0.8379
 6740SOL    HW231680   3.494   2.649   7.196  0.0606  0.1932  0.5286
 6741SOL     OW31681   2.035   1.824  12.790  0.0234 -0.3348  0.8904
 6741SOL    HW131682   1.948   1.802  12.823  0.5400 -1.4958  1.5232
 6741SOL    HW231683   2.014   1.871  12.709 -3.4666 -0.1543  1.8805
 6742SOL     OW31684   3.682   1.679   9.323  0.0855 -0.0887 -0.0320
 6742SOL    HW131685   3.754   1.630   9.365 -0.5192 -1.2127 -0.3152
 6742SOL    HW231686   3.670   1.755   9.380  1.6393  1.3273 -1.6036
 6743SOL     OW31687   3.695   3.558   8.443 -0.0793  0.2372  0.3891
 6743SOL    HW131688   3.615   3.604   8.466  0.9681  2.4461 -0.4045
 6743SOL    HW231689   3.757   3.631   8.440 -0.6753  0.7930  1.7766
 6744SOL     OW31690   1.618   2.577   2.830  0.1010 -0.5155 -0.7859
 6744SOL    HW131691   1.605   2.669   2.854 -1.1661 -0.9809  0.3194
 6744SOL    HW231692   1.703   2.588   2.788  0.3923 -1.4613 -0.4305
 6745SOL     OW31693   2.200   0.013   5.180 -0.6969 -0.2693  0.2953
 6745SOL    HW131694   2.141   4.716   5.253 -0.8241 -0.9265  0.0274
 6745SOL    HW231695   2.279   4.688   5.207 -1.8635 -1.5005  1.5398
 6746SOL     OW31696   1.395   0.567   7.508  0.0728 -0.0867 -0.1210
 6746SOL    HW131697   1.423   0.478   7.486 -0.3439  0.1665 -1.6810
 6746SOL    HW231698   1.375   0.552   7.601  0.6468 -1.4345 -0.2176
 6747SOL     OW31699   1.767   0.063   1.081  0.7836  0.2803  0.6207
 6747SOL    HW131700   1.675   0.088   1.093  0.7546  1.7336 -2.6629
 6747SOL    HW231701   1.798   0.025   1.163 -1.6522  0.0004  1.4216
 6748SOL     OW31702   1.526   0.504  16.314 -0.7672  0.1544  0.1089
 6748SOL    HW131703   1.507   0.433  16.375 -1.4566  1.5790  1.5524
 6748SOL    HW231704   1.449   0.560  16.323 -0.0376  1.0256  0.8281
 6749SOL     OW31705   0.635   1.630   7.100 -0.5934  0.1278 -0.1137
 6749SOL    HW131706   0.622   1.589   7.186  1.8372  1.6132  0.9755
 6749SOL    HW231707   0.707   1.572   7.076 -1.0439 -0.4179 -0.1521
 6750SOL     OW31708   3.831   2.525   0.763 -0.4036  0.1069 -0.2011
 6750SOL    HW131709   3.790   2.607   0.737 -0.9600 -0.0606  0.1510
 6750SOL    HW231710   3.756   2.477   0.799  0.9865 -0.1888  2.2267
 6751SOL     OW31711   4.071   4.266   9.630 -0.4151 -0.4662 -0.1630
 6751SOL    HW131712   4.156   4.281   9.590 -1.5823  1.0743 -2.0318
 6751SOL    HW231713   4.039   4.197   9.572 -2.8665 -0.8776  1.6730
 6752SOL     OW31714   0.896   0.309  13.276  0.5152 -0.2476 -0.3673
 6752SOL    HW131715   0.935   0.228  13.310  2.9319  1.4984  1.0428
 6752SOL    HW231716   0.848   0.340  13.353  0.4823  1.9789 -1.2983
 6753SOL     OW31717   0.983   2.653   0.831  0.1214 -0.3668 -0.3141
 6753SOL    HW131718   1.047   2.710   0.789  0.9320  0.0757  1.5268
 6753SOL    HW231719   0.970   2.589   0.762 -1.9639 -0.2116 -0.0538
 6754SOL     OW31720   0.663   0.147   4.239  0.5768 -0.7505  0.2034
 6754SOL    HW131721   0.703   0.234   4.228  0.8960 -1.0884 -1.2572
 6754SOL    HW231722   0.643   0.135   4.147 -0.7114  3.1505 -0.0405
 6755SOL     OW31723   3.449   0.427   7.531 -0.0167  0.1745 -0.2593
 6755SOL    HW131724   3.481   0.500   7.584 -2.6974 -0.0334  1.6584
 6755SOL    HW231725   3.535   0.412   7.492  0.0181 -0.7829  0.2003
 6756SOL     OW31726   3.307   2.647  17.028  0.6093 -0.5275  0.1290
 6756SOL    HW131727   3.235   2.706  17.049  1.2617 -0.2458  1.6007
 6756SOL    HW231728   3.362   2.704  16.975 -1.2443 -1.0874 -2.4107
 6757SOL     OW31729   0.219   3.452  16.312 -0.0827  0.5069 -0.1413
 6757SOL    HW131730   0.224   3.536  16.359 -0.5537  1.0420 -1.0358
 6757SOL    HW231731   0.160   3.486  16.245 -3.1794 -1.0828  1.7822
 6758SOL     OW31732   0.009   2.475   2.153 -0.2765  0.1806 -0.6702
 6758SOL    HW131733   0.059   2.411   2.102  0.7160 -0.4537  1.0759
 6758SOL    HW231734   0.067   2.492   2.227 -3.4261 -1.2247  2.1705
 6759SOL     OW31735   4.226   3.276   1.464 -0.0320 -0.4097  0.1495
 6759SOL    HW131736   4.216   3.354   1.410  1.7149 -0.6161 -0.4805
 6759SOL    HW231737   4.295   3.317   1.516 -0.6849 -0.7358  1.2964
 6760SOL     OW31738   4.570   3.084  10.752 -0.4213 -0.3406 -0.2731
 6760SOL    HW131739   4.483   3.052  10.775  0.2120 -1.2360  0.8780
 6760SOL    HW231740   4.622   3.080  10.833 -0.7507  0.7441  0.0015
 6761SOL     OW31741   3.120   2.064   7.236  0.0828 -0.1770  0.1210
 6761SOL    HW131742   3.181   2.134   7.215  0.4277 -0.3737  0.4474
 6761SOL    HW231743   3.079   2.047   7.152 -0.2923  0.0749  0.2512
 6762SOL     OW31744   4.214   2.363   9.268 -0.2677 -0.0677  0.4038
 6762SOL    HW131745   4.270   2.285   9.272 -0.8852 -0.4563  1.4704
 6762SOL    HW231746   4.138   2.341   9.214 -0.0870  0.7229 -0.1854
 6763SOL     OW31747   4.328   0.654   5.532  0.4897  0.4066  0.2829
 6763SOL    HW131748   4.350   0.739   5.570 -0.1936  1.0890 -0.8275
 6763SOL    HW231749   4.397   0.603   5.573  0.1997 -1.3103 -1.3625
 6764SOL     OW31750   0.992   0.952   6.792  0.4037 -0.5117 -0.1105
 6764SOL    HW131751   0.986   0.887   6.722  2.7755 -2.6191  1.6301
 6764SOL    HW231752   0.957   0.905   6.868  1.5052 -0.8256  0.2151
 6765SOL     OW31753   0.651   4.450   4.565 -0.0927  0.5906 -0.3231
 6765SOL    HW131754   0.742   4.420   4.573 -0.0631  0.8199  0.1867
 6765SOL    HW231755   0.645   4.528   4.621 -0.2293  0.1836  0.2244
 6766SOL     OW31756   4.364   2.134   8.877 -0.2792 -0.2285 -0.2019
 6766SOL    HW131757   4.303   2.126   8.950  2.1299 -1.9450  1.6307
 6766SOL    HW231758   4.386   2.042   8.887  0.6844 -0.0632 -0.6714
 6767SOL     OW31759   0.714   3.034   2.557  0.3832  0.3319  0.0045
 6767SOL    HW131760   0.656   2.988   2.618  0.3927 -0.2380 -0.4222
 6767SOL    HW231761   0.801   3.021   2.596 -0.3776 -0.8422  1.2905
 6768SOL     OW31762   2.794   1.312   9.099 -0.1182  0.5159  0.5108
 6768SOL    HW131763   2.816   1.328   9.191  1.5015 -0.0335  0.2234
 6768SOL    HW231764   2.703   1.339   9.087 -0.1365  0.1377 -0.1852
 6769SOL     OW31765   2.917   2.130   3.873  0.4344 -0.1338 -0.6607
 6769SOL    HW131766   2.824   2.115   3.889  0.1022  0.9596 -1.5752
 6769SOL    HW231767   2.946   2.119   3.963 -0.4706 -0.0692 -0.3607
 6770SOL     OW31768   3.622   4.074  15.433 -0.2522  0.0186  0.3913
 6770SOL    HW131769   3.707   4.052  15.471  0.4370  0.9748 -0.5910
 6770SOL    HW231770   3.593   4.128  15.507 -1.7215  0.0353 -0.1866
 6771SOL     OW31771   2.248   4.265   2.492 -0.4121  0.3038  0.2917
 6771SOL    HW131772   2.185   4.211   2.539  0.8911 -0.1637  1.5309
 6771SOL    HW231773   2.200   4.347   2.498  0.4074  0.6762  1.8065
 6772SOL     OW31774   2.068   0.018   5.984 -0.3851  0.4276 -0.2760
 6772SOL    HW131775   1.997   0.014   6.048  0.5403 -0.7233  0.6665
 6772SOL    HW231776   2.133   4.696   6.037 -1.8546  0.0244  1.1968
 6773SOL     OW31777   0.782   2.946   8.859  0.2625 -0.2950  0.2688
 6773SOL    HW131778   0.780   2.866   8.806 -0.0631  1.6182 -2.5820
 6773SOL    HW231779   0.740   2.903   8.934 -1.4142  1.1908  0.1674
 6774SOL     OW31780   2.198   3.033  14.107 -0.1368  0.1827  0.3085
 6774SOL    HW131781   2.283   3.030  14.062  0.5337 -4.7765  1.9429
 6774SOL    HW231782   2.147   2.972  14.055 -2.0701  3.4146 -1.6263
 6775SOL     OW31783   1.990   3.709   7.938 -0.1088 -0.5373  0.5103
 6775SOL    HW131784   1.910   3.743   7.979  0.5320 -0.1046  1.4022
 6775SOL    HW231785   1.972   3.755   7.856 -1.0707  1.7234  1.9760
 6776SOL     OW31786   0.271   3.146   5.034 -0.0296 -0.1749  0.0503
 6776SOL    HW131787   0.271   3.219   5.096 -0.5809  1.7545 -2.2402
 6776SOL    HW231788   0.273   3.191   4.950 -0.0550  1.8622  1.1183
 6777SOL     OW31789   1.359   2.438   9.671  0.1546  0.3044  0.0176
 6777SOL    HW131790   1.446   2.412   9.701  0.1926 -1.7060 -1.9238
 6777SOL    HW231791   1.292   2.378   9.702 -0.2344  0.4268 -0.6061
 6778SOL     OW31792   4.447   1.913   2.932  0.6532 -0.2468  0.4043
 6778SOL    HW131793   4.514   1.980   2.948 -0.4526  1.3302 -1.5436
 6778SOL    HW231794   4.461   1.888   2.841  0.5115  1.6460 -0.1407
 6779SOL     OW31795   4.506   1.585  12.052 -0.3368 -0.4348  0.2888
 6779SOL    HW131796   4.529   1.535  11.973  1.2889  1.0216 -0.1785
 6779SOL    HW231797   4.445   1.653  12.022  0.2404  0.0502  0.1854
 6780SOL     OW31798   1.274   2.760   1.438 -0.6904 -0.4275  0.0852
 6780SOL    HW131799   1.310   2.798   1.358 -2.6134 -0.4116 -0.7746
 6780SOL    HW231800   1.197   2.816   1.447 -0.1781  0.2486  0.2132
 6781SOL     OW31801   1.927   3.515  12.400  0.2800  0.5821  0.3431
 6781SOL    HW131802   2.017   3.499  12.429  0.2433  1.7250  1.0810
 6781SOL    HW231803   1.893   3.512  12.490 -0.1443  0.3031  0.1709
 6782SOL     OW31804   1.163   0.520   6.038 -0.4878 -0.2007 -0.0308
 6782SOL    HW131805   1.198   0.608   6.025  1.6892 -1.0779 -0.0487
 6782SOL    HW231806   1.233   0.461   6.009 -0.1173 -0.3311  1.1493
 6783SOL     OW31807   1.792   2.294  11.133 -0.4028  0.0411  0.0023
 6783SOL    HW131808   1.882   2.328  11.136 -0.4980  0.2677  0.3919
 6783SOL    HW231809   1.752   2.344  11.205  1.4091 -0.4098  1.3136
 6784SOL     OW31810   0.691   0.354   8.974 -0.2963 -0.1256 -0.2954
 6784SOL    HW131811   0.697   0.357   8.879  1.9777  0.1408 -0.1413
 6784SOL    HW231812   0.636   0.430   8.991  2.4538  1.6671  0.5615
 6785SOL     OW31813   2.043   0.983   6.369 -0.3227 -0.0378 -0.1603
 6785SOL    HW131814   2.075   0.895   6.391 -0.9777  0.3661  2.3046
 6785SOL    HW231815   2.118   1.035   6.397  0.5420 -2.7501  2.5687
 6786SOL     OW31816   4.617   1.322  15.411 -0.0540 -0.1865  0.1412
 6786SOL    HW131817   4.669   1.401  15.422 -0.2114 -0.0799  0.1190
 6786SOL    HW231818   4.526   1.352  15.412  0.3394  1.0821 -1.4651
 6787SOL     OW31819   4.563   1.016   1.009 -0.1457 -0.1951 -0.0611
 6787SOL    HW131820   4.584   0.928   0.977 -1.3079 -1.5402  2.9367
 6787SOL    HW231821   4.508   1.053   0.939  0.2683  0.6611  0.0727
 6788SOL     OW31822   3.144   2.331   7.962  0.2238  0.1993  0.0707
 6788SOL    HW131823   3.219   2.375   7.922  1.0311 -1.1146  0.1642
 6788SOL    HW231824   3.089   2.291   7.894  0.7521 -3.4044  1.7915
 6789SOL     OW31825   1.899   1.620  17.293 -0.3940 -0.2560 -0.0853
 6789SOL    HW131826   1.986   1.620  17.334  0.7880  0.2292 -2.5965
 6789SOL    HW231827   1.859   1.699  17.330  1.6014  1.2814 -1.2222
 6790SOL     OW31828   1.280   2.842   0.138 -0.7338  0.4038  0.2302
 6790SOL    HW131829   1.221   2.898   0.188 -0.1256  1.2683 -0.0092
 6790SOL    HW231830   1.287   2.903   0.064  0.1569 -2.5038 -2.0882
 6791SOL     OW31831   1.428   2.641   0.194  0.0401  0.7443  0.6150
 6791SOL    HW131832   1.384   2.598   0.267 -1.9553  1.9155  0.0970
 6791SOL    HW231833   1.363   2.710   0.182  0.5661  0.6708 -2.7128
 6792SOL     OW31834   2.895   1.854   1.717 -0.2472  0.6357 -0.2665
 6792SOL    HW131835   2.838   1.865   1.794 -0.3547  0.1166 -0.2722
 6792SOL    HW231836   2.974   1.881   1.763  1.9025 -1.0057 -3.0574
 6793SOL     OW31837   1.970   4.293   4.133 -0.4598  0.2922  0.4004
 6793SOL    HW131838   2.016   4.210   4.149 -0.6339  0.0529 -0.3532
 6793SOL    HW231839   1.946   4.298   4.041 -0.2797 -1.5142  0.2555
 6794SOL     OW31840   4.012   3.197   8.306  0.4103 -0.3330  0.3795
 6794SOL    HW131841   4.068   3.190   8.383 -2.1553  0.1371  2.2808
 6794SOL    HW231842   4.021   3.291   8.289 -1.0279  0.1759  2.4879
 6795SOL     OW31843   2.811   0.335   1.773 -0.1033 -0.1824 -0.5878
 6795SOL    HW131844   2.737   0.394   1.757 -0.2278 -0.2459 -0.2371
 6795SOL    HW231845   2.776   0.246   1.768  2.2294 -1.1380  0.4022
 6796SOL     OW31846   4.121   1.840   3.688  0.6072  0.3415  0.0014
 6796SOL    HW131847   4.135   1.754   3.650  2.1790 -0.4067  2.3161
 6796SOL    HW231848   4.068   1.811   3.762  0.8919  1.0654  0.4878
 6797SOL     OW31849   1.826   2.287   3.593  0.6007 -0.1543 -0.2937
 6797SOL    HW131850   1.779   2.327   3.520  0.1650  0.5380  0.3609
 6797SOL    HW231851   1.903   2.344   3.605  0.7830 -0.6101  0.7167
 6798SOL     OW31852   3.577   3.954   8.469 -0.0742  0.2798 -0.0495
 6798SOL    HW131853   3.552   3.876   8.518 -1.6817  0.5401 -0.4428
 6798SOL    HW231854   3.498   4.008   8.460  1.3363  2.5336  1.2462
 6799SOL     OW31855   0.522   2.242  12.834  0.0042  0.2301 -0.6872
 6799SOL    HW131856   0.555   2.317  12.883 -0.5556  0.1266 -0.1442
 6799SOL    HW231857   0.561   2.167  12.878 -2.5763 -0.4900  0.3965
 6800SOL     OW31858   3.351   3.239   8.445  0.0481  0.5784 -0.7400
 6800SOL    HW131859   3.263   3.248   8.408 -1.4679 -2.5766  2.1283
 6800SOL    HW231860   3.329   3.224   8.537 -1.6279 -1.3449 -1.4590
 6801SOL     OW31861   2.948   3.992   8.087 -0.3332 -0.0683 -0.2182
 6801SOL    HW131862   2.887   4.047   8.036 -0.3937 -0.0529 -0.1305
 6801SOL    HW231863   2.878   3.938   8.123  0.5792  0.2001  1.9367
 6802SOL     OW31864   3.757   2.655  10.947 -0.1080 -0.5144  0.0308
 6802SOL    HW131865   3.789   2.640  11.036  0.3293 -1.0288 -0.2111
 6802SOL    HW231866   3.765   2.572  10.900  1.4453 -0.5091  0.2835
 6803SOL     OW31867   1.661   4.626   3.827  1.0712  0.2775  0.2824
 6803SOL    HW131868   1.735   4.634   3.767 -0.2707 -2.5005 -1.7810
 6803SOL    HW231869   1.694   4.665   3.907  1.1404  1.1162 -0.1551
 6804SOL     OW31870   0.388   0.740   2.405 -0.9527 -0.1427  0.1275
 6804SOL    HW131871   0.339   0.788   2.338  0.8234  1.9425  0.3472
 6804SOL    HW231872   0.332   0.663   2.417 -3.2762  1.8150  1.7465
 6805SOL     OW31873   1.876   1.780   6.924  0.0199 -0.0631 -0.2569
 6805SOL    HW131874   1.965   1.770   6.956  0.4029  0.0613 -1.2975
 6805SOL    HW231875   1.883   1.738   6.838 -0.5470  1.7938 -1.2118
 6806SOL     OW31876   1.953   4.411   3.871  0.3414 -0.4327  0.1033
 6806SOL    HW131877   2.006   4.485   3.841 -0.3510  0.7800  1.8703
 6806SOL    HW231878   1.891   4.387   3.802  0.7829  0.9481 -0.7814
 6807SOL     OW31879   3.926   3.380   8.028  0.0111  0.0467 -0.0060
 6807SOL    HW131880   4.009   3.398   8.073 -0.7308 -0.3038  1.4739
 6807SOL    HW231881   3.898   3.464   7.990  2.1252 -0.6557 -3.1897
 6808SOL     OW31882   1.674   4.129   4.021 -0.0318  0.3323  0.8422
 6808SOL    HW131883   1.591   4.092   3.989 -0.8741  1.3984  1.8117
 6808SOL    HW231884   1.632   4.211   4.047  2.0187  0.3171  4.0649
 6809SOL     OW31885   2.930   0.168   7.188 -0.0203 -0.3163 -0.3203
 6809SOL    HW131886   2.943   0.209   7.274 -0.6939 -1.0661  0.1370
 6809SOL    HW231887   2.996   0.207   7.130 -0.8241  2.4101  0.5708
 6810SOL     OW31888   3.206   3.586   1.314  0.1836 -0.1356  0.2895
 6810SOL    HW131889   3.274   3.625   1.368 -0.4512  2.5899 -0.8870
 6810SOL    HW231890   3.174   3.665   1.271 -1.1299 -1.1990 -0.6883
 6811SOL     OW31891   3.386   4.226   0.813 -0.3005 -0.1104  0.3366
 6811SOL    HW131892   3.366   4.308   0.857  0.3623  0.5081 -0.5244
 6811SOL    HW231893   3.308   4.183   0.849 -0.1438 -1.1725 -0.5770
 6812SOL     OW31894   4.334   2.676   0.639  0.3229  0.3014 -0.1044
 6812SOL    HW131895   4.402   2.621   0.678 -0.5353 -0.3470  0.4677
 6812SOL    HW231896   4.260   2.660   0.697 -0.2613  1.2987 -0.5765
 6813SOL     OW31897   1.153   1.511   9.471  0.0904  0.4425 -0.4297
 6813SOL    HW131898   1.128   1.420   9.453 -0.7418  0.0377  2.9036
 6813SOL    HW231899   1.243   1.502   9.437 -0.2146  0.1710 -1.1764
 6814SOL     OW31900   2.750   2.772   3.844  0.2357 -0.2353 -0.4999
 6814SOL    HW131901   2.736   2.851   3.895  0.2091 -0.9474  0.6012
 6814SOL    HW231902   2.730   2.703   3.906  0.9555  0.7448  0.8125
 6815SOL     OW31903   0.102   0.667   1.150  0.5271  0.4122 -0.7222
 6815SOL    HW131904   0.120   0.709   1.234  0.4580 -1.5962  0.3054
 6815SOL    HW231905   0.035   0.727   1.117 -1.0148 -1.1355 -0.4000
 6816SOL     OW31906   3.852   1.183   4.423  0.1682 -0.1790 -0.8130
 6816SOL    HW131907   3.839   1.211   4.333  0.2389  0.8755 -0.4984
 6816SOL    HW231908   3.846   1.088   4.413  0.2886 -0.0550 -2.0148
 6817SOL     OW31909   4.166   3.435   8.157  0.8035 -0.2047 -0.0151
 6817SOL    HW131910   4.212   3.454   8.239 -1.8661  1.2933  1.1283
 6817SOL    HW231911   4.232   3.462   8.092  0.1701  0.7579 -0.2657
 6818SOL     OW31912   1.876   0.064   3.117 -0.1871  0.1007  0.4370
 6818SOL    HW131913   1.855   0.010   3.193 -0.1971 -1.8093 -0.9434
 6818SOL    HW231914   1.901   0.010   3.042 -2.5719  0.0941 -0.3634
 6819SOL     OW31915   1.650   2.791  16.752 -0.3020  0.0851 -0.3463
 6819SOL    HW131916   1.714   2.857  16.778  0.8696 -1.7874  1.4175
 6819SOL    HW231917   1.655   2.712  16.806 -4.1150 -0.1296 -0.2427
 6820SOL     OW31918   0.085   4.120   4.481  0.0684  0.1363 -0.4636
 6820SOL    HW131919   0.133   4.101   4.561 -2.4784  0.0161  1.0226
 6820SOL    HW231920   0.105   4.046   4.424 -0.2537  2.3542 -3.4812
 6821SOL     OW31921   0.946   2.502   5.078  0.0536 -0.5558 -0.3502
 6821SOL    HW131922   0.926   2.594   5.097 -2.3734 -0.8568 -1.5550
 6821SOL    HW231923   0.936   2.507   4.983 -0.4785 -1.2842 -0.3221
 6822SOL     OW31924   1.829   3.029   4.620  0.1743  0.0320  0.8431
 6822SOL    HW131925   1.761   3.002   4.682  0.1405 -1.0702  0.3295
 6822SOL    HW231926   1.896   2.980   4.668 -0.1735  2.2733  3.5693
 6823SOL     OW31927   0.765   0.420   7.054 -0.2035 -0.4154 -0.3215
 6823SOL    HW131928   0.718   0.479   7.113  2.0667  0.5840  0.5011
 6823SOL    HW231929   0.697   0.412   6.986 -0.5189 -0.8078  0.0422
 6824SOL     OW31930   3.883   4.087   8.392  0.4605 -0.3316 -0.4346
 6824SOL    HW131931   3.804   4.038   8.372 -0.1381  0.5897 -0.3325
 6824SOL    HW231932   3.882   4.166   8.337  2.6641 -0.1313 -0.2092
 6825SOL     OW31933   3.642   3.885   4.696 -0.1186  0.0660  0.0022
 6825SOL    HW131934   3.732   3.918   4.704 -0.1848 -0.2415  2.0817
 6825SOL    HW231935   3.601   3.926   4.772 -1.7090 -0.3846 -0.6073
 6826SOL     OW31936   1.995   1.772   3.027  0.0986 -0.1412 -0.2053
 6826SOL    HW131937   2.089   1.780   3.044  0.0011 -2.0918  1.2398
 6826SOL    HW231938   2.002   1.826   2.948 -1.1410 -0.8503 -0.7965
 6827SOL     OW31939   2.869   3.371   7.063 -0.9092 -0.0555 -0.2155
 6827SOL    HW131940   2.901   3.375   7.153 -0.8786  0.3146 -0.2415
 6827SOL    HW231941   2.809   3.446   7.055  1.1048  1.3838 -1.7396
 6828SOL     OW31942   4.233   2.046   8.137  0.0793  0.4200  0.6935
 6828SOL    HW131943   4.163   2.027   8.200 -1.0403 -1.6397 -1.1809
 6828SOL    HW231944   4.290   1.976   8.168 -1.9287 -0.3244  2.6710
 6829SOL     OW31945   0.364   1.871   5.598  0.4058  0.0300  0.0389
 6829SOL    HW131946   0.347   1.965   5.599 -0.3817 -0.1127  0.0982
 6829SOL    HW231947   0.430   1.851   5.663 -0.8594 -0.9967  1.0086
 6830SOL     OW31948   4.077   1.276   8.914  0.1678 -0.7350 -0.2500
 6830SOL    HW131949   4.080   1.197   8.970  1.3772 -0.5604 -0.0590
 6830SOL    HW231950   3.993   1.269   8.870  0.2342 -0.6058 -0.3947
 6831SOL     OW31951   0.739   1.161   6.576  0.1395 -0.3839  0.1335
 6831SOL    HW131952   0.834   1.150   6.563  0.3095 -0.9702  1.9445
 6831SOL    HW231953   0.746   1.220   6.651  0.7456 -1.1380  0.6639
 6832SOL     OW31954   0.899   4.647   0.649 -0.3310  0.4234  0.4815
 6832SOL    HW131955   0.966   4.692   0.700  0.7834 -0.9740  0.2572
 6832SOL    HW231956   0.883   4.702   0.573  0.9158 -0.2576 -0.2766
 6833SOL     OW31957   2.868   3.762   4.988 -0.3153 -0.3434 -0.0390
 6833SOL    HW131958   2.890   3.837   5.042  1.9896  0.8354 -2.6465
 6833SOL    HW231959   2.943   3.738   4.933 -0.4952  0.8053 -0.7719
 6834SOL     OW31960   2.479   3.485   3.613  0.7236  0.3077 -0.3992
 6834SOL    HW131961   2.400   3.509   3.565 -0.6511 -1.4478  1.0063
 6834SOL    HW231962   2.441   3.437   3.687  0.8073  1.9621  0.7063
 6835SOL     OW31963   3.226   3.046  10.200 -0.1332  0.1813 -0.2448
 6835SOL    HW131964   3.286   3.118  10.181 -0.6913  0.6521 -0.2520
 6835SOL    HW231965   3.155   3.098  10.239 -0.2980  0.9721 -1.5672
 6836SOL     OW31966   1.874   3.986   2.414 -0.1604 -0.2782 -0.4326
 6836SOL    HW131967   1.930   3.915   2.385  0.3198  0.9391 -2.4869
 6836SOL    HW231968   1.829   4.010   2.333 -0.8177 -2.2263 -0.6432
 6837SOL     OW31969   4.441   1.041  12.534  0.7409  0.6242  0.1257
 6837SOL    HW131970   4.485   0.994  12.605 -0.5158  0.7053  0.9549
 6837SOL    HW231971   4.355   1.047  12.576  0.3246 -3.1667 -0.2140
 6838SOL     OW31972   0.234   3.341   1.974 -0.0936  0.2935 -0.4433
 6838SOL    HW131973   0.198   3.305   2.055 -1.2200  1.6104 -0.3465
 6838SOL    HW231974   0.248   3.433   1.997  2.4385 -0.3503  0.5488
 6839SOL     OW31975   0.166   0.029  13.312  0.4693 -0.1985  0.0253
 6839SOL    HW131976   0.111   4.677  13.287 -2.2962  2.5295 -1.9950
 6839SOL    HW231977   0.148   0.035  13.406 -0.0692  0.9011 -0.1409
 6840SOL     OW31978   0.935   3.324   4.261  0.1331  0.4724 -0.2002
 6840SOL    HW131979   0.998   3.292   4.326  0.5057 -1.6687 -1.6231
 6840SOL    HW231980   0.872   3.372   4.315 -1.3454 -0.8439 -0.7586
 6841SOL     OW31981   1.171   3.655  11.808  0.0466 -0.6544 -0.6081
 6841SOL    HW131982   1.231   3.721  11.773 -2.5230  1.3195 -1.3122
 6841SOL    HW231983   1.222   3.575  11.813  1.0187  0.0306  0.6157
 6842SOL     OW31984   2.715   0.546   8.850 -1.0156 -0.2684 -0.2963
 6842SOL    HW131985   2.773   0.574   8.780 -0.7440 -0.2234 -0.0522
 6842SOL    HW231986   2.756   0.593   8.923  1.3624  0.2084 -1.9489
 6843SOL     OW31987   4.488   3.830   0.090 -0.0366 -0.4973 -0.1447
 6843SOL    HW131988   4.488   3.764   0.020 -1.6506  0.3978 -0.9834
 6843SOL    HW231989   4.534   3.903   0.050  0.1860 -1.5802 -1.9077
 6844SOL     OW31990   0.276   2.434   3.203  0.2611 -0.2837 -0.5434
 6844SOL    HW131991   0.242   2.514   3.242  0.4587 -1.1398  1.4014
 6844SOL    HW231992   0.344   2.414   3.268 -1.6393 -1.6790  1.0647
 6845SOL     OW31993   0.051   0.949   6.989 -0.6025  0.0230  0.1902
 6845SOL    HW131994   0.046   0.942   7.085 -0.1854 -2.3074  0.0524
 6845SOL    HW231995   0.047   1.044   6.978 -0.2437  0.0073 -0.0717
 6846SOL     OW31996   0.697   4.365   7.386 -0.3340 -0.2930 -0.1974
 6846SOL    HW131997   0.678   4.382   7.294  2.9020 -0.9430 -1.0041
 6846SOL    HW231998   0.624   4.418   7.418 -1.2117 -0.2525 -2.3003
 6847SOL     OW31999   4.329   4.105  16.572  0.6394 -0.1962 -0.1608
 6847SOL    HW132000   4.403   4.044  16.578  0.1068 -0.8667 -0.4021
 6847SOL    HW232001   4.369   4.179  16.526 -0.8794  0.7181 -0.0138
 6848SOL     OW32002   1.188   1.704  17.178 -0.2957  0.0358  0.1394
 6848SOL    HW132003   1.223   1.794  17.184 -0.3870 -0.0346  1.6705
 6848SOL    HW232004   1.156   1.700  17.268  2.1751 -1.5164  0.9501
 6849SOL     OW32005   3.499   1.971   1.970 -0.1045 -0.4836 -0.0037
 6849SOL    HW132006   3.412   1.972   2.010 -0.8279  2.3453 -1.6100
 6849SOL    HW232007   3.548   2.030   2.027 -1.2065 -0.6346  1.0956
 6850SOL     OW32008   0.155   4.460  10.593 -0.2477 -0.6102 -0.2162
 6850SOL    HW132009   0.234   4.419  10.558  0.7294  0.3985  0.8213
 6850SOL    HW232010   0.126   4.508  10.516  0.3321 -1.1057 -0.7417
 6851SOL     OW32011   4.244   3.159   5.504  0.0906 -0.4610  0.5178
 6851SOL    HW132012   4.335   3.150   5.477  1.0067  3.7312  2.2473
 6851SOL    HW232013   4.232   3.248   5.538 -2.2207 -1.4841  2.4519
 6852SOL     OW32014   0.265   1.620   9.561 -0.2689  0.2873  0.3945
 6852SOL    HW132015   0.248   1.694   9.504 -1.7269 -1.3878 -1.3310
 6852SOL    HW232016   0.360   1.608   9.562 -0.2145  0.6396 -1.9727
 6853SOL     OW32017   0.482   2.656   0.340  0.8732 -0.3244 -0.5099
 6853SOL    HW132018   0.542   2.622   0.406  1.0005  1.1604  0.1361
 6853SOL    HW232019   0.487   2.574   0.290 -2.2850 -1.6051  1.2567
 6854SOL     OW32020   3.389   3.483   8.672  0.0170 -0.1575 -0.0588
 6854SOL    HW132021   3.308   3.445   8.637  0.8752 -0.8688 -1.2756
 6854SOL    HW232022   3.447   3.408   8.682  1.1266  0.9731  1.9543
 6855SOL     OW32023   0.344   2.343   6.203  0.5257 -0.2830 -0.0986
 6855SOL    HW132024   0.361   2.429   6.164 -0.2599  0.3216  0.8993
 6855SOL    HW232025   0.383   2.284   6.138  0.5499  0.1835 -0.5051
 6856SOL     OW32026   1.590   4.152   7.029  0.2812  0.2156  0.0752
 6856SOL    HW132027   1.511   4.109   7.062 -0.5153  2.5914  1.2505
 6856SOL    HW232028   1.662   4.108   7.074 -0.1162  0.2841  0.7713
 6857SOL     OW32029   4.077   2.940  16.677  0.3024 -0.0255 -0.0646
 6857SOL    HW132030   3.987   2.937  16.647 -0.1047  0.8576  1.0860
 6857SOL    HW232031   4.060   2.930  16.770  2.7588 -1.7802  0.2277
 6858SOL     OW32032   3.180   0.532   4.900  0.0583 -0.1852 -0.3090
 6858SOL    HW132033   3.113   0.509   4.964  1.2875  1.2039  1.5091
 6858SOL    HW232034   3.128   0.581   4.837 -0.6500 -0.9118 -0.2772
 6859SOL     OW32035   2.651   1.690   9.055 -0.0504  0.5373  0.2216
 6859SOL    HW132036   2.670   1.623   8.990 -3.3859 -1.6215  1.4694
 6859SOL    HW232037   2.662   1.643   9.138  0.4151  0.2585 -0.0008
 6860SOL     OW32038   2.899   2.272  12.024  0.2608  0.5436 -0.4070
 6860SOL    HW132039   2.806   2.289  12.009  0.8006  2.6871 -1.3282
 6860SOL    HW232040   2.887   2.222  12.104 -0.6612  1.0652 -0.2133
 6861SOL     OW32041   2.335   2.155   8.771  0.5401  0.1484 -0.0765
 6861SOL    HW132042   2.378   2.215   8.832 -2.0374  1.3540  0.5853
 6861SOL    HW232043   2.410   2.141   8.713 -0.7088  1.1277 -1.9269
 6862SOL     OW32044   3.912   3.888   3.054 -0.3445  0.1537 -0.5166
 6862SOL    HW132045   3.900   3.982   3.038 -1.3837 -0.0300 -0.7748
 6862SOL    HW232046   3.831   3.845   3.029 -1.2542  1.7988 -0.4051
 6863SOL     OW32047   3.939   2.562  16.053  0.4224  0.3387  0.2659
 6863SOL    HW132048   3.922   2.550  15.960 -1.8621  1.8918  0.4840
 6863SOL    HW232049   4.000   2.635  16.053 -0.7310  1.3040  2.4024
 6864SOL     OW32050   3.892   3.446   6.765 -0.1144 -0.3228  0.4696
 6864SOL    HW132051   3.816   3.394   6.790 -0.9851  0.0372 -1.3464
 6864SOL    HW232052   3.941   3.431   6.845  0.5917 -2.0631 -0.2856
 6865SOL     OW32053   1.186   2.794   0.440 -0.1051 -0.3171  0.5181
 6865SOL    HW132054   1.133   2.740   0.382  2.1994 -0.3726 -1.5552
 6865SOL    HW232055   1.225   2.734   0.503  1.1000 -0.9656 -0.8378
 6866SOL     OW32056   1.669   2.818   2.545  0.1045 -0.0174 -0.0841
 6866SOL    HW132057   1.725   2.774   2.608 -0.2695 -0.8939 -0.3671
 6866SOL    HW232058   1.670   2.906   2.583 -0.7312  1.0306 -2.4779
 6867SOL     OW32059   4.357   1.185   9.153  0.6578 -0.1969 -0.2023
 6867SOL    HW132060   4.399   1.264   9.121 -0.8521  0.4383 -0.6381
 6867SOL    HW232061   4.432   1.130   9.174 -0.0718 -0.8443  0.7187
 6868SOL     OW32062   2.270   4.715   4.030 -0.0033  0.2083 -0.1750
 6868SOL    HW132063   2.299   4.647   4.091 -1.3950 -0.5386 -0.3559
 6868SOL    HW232064   2.327   0.068   4.044  0.7410 -0.5331  0.7884
 6869SOL     OW32065   1.149   2.718   7.912  0.6574 -0.4362  0.2690
 6869SOL    HW132066   1.067   2.669   7.914 -0.5577  1.5232 -1.0559
 6869SOL    HW232067   1.107   2.801   7.937 -1.2044 -1.3966  0.3623
 6870SOL     OW32068   3.807   1.800   5.509  0.9516 -0.2345  0.5879
 6870SOL    HW132069   3.783   1.708   5.495 -0.7198  0.1512  0.9494
 6870SOL    HW232070   3.902   1.808   5.495  0.6879 -0.3987 -1.2613
 6871SOL     OW32071   1.317   4.456  16.767 -0.4326  0.7055  0.0006
 6871SOL    HW132072   1.386   4.521  16.780  0.2868  0.1998 -1.3070
 6871SOL    HW232073   1.359   4.421  16.689 -0.0509  0.2682  0.4058
 6872SOL     OW32074   1.152   0.267   0.343 -0.2525 -0.1037 -0.5214
 6872SOL    HW132075   1.238   0.306   0.358 -0.5441  0.2074  0.3355
 6872SOL    HW232076   1.121   0.327   0.275  1.6718  0.1086 -1.2306
 6873SOL     OW32077   0.593   3.328   7.231  0.0041  0.0339  0.1178
 6873SOL    HW132078   0.653   3.256   7.254  0.9004  0.1899 -1.7463
 6873SOL    HW232079   0.640   3.390   7.287  3.1441 -0.6187 -1.7932
 6874SOL     OW32080   2.680   1.767   2.727 -0.0345 -0.2684  0.2863
 6874SOL    HW132081   2.652   1.787   2.638 -2.6143  0.1003  1.1593
 6874SOL    HW232082   2.620   1.811   2.788  0.6175 -0.2479  0.9094
 6875SOL     OW32083   0.863   2.724   1.326  0.0695  0.4543 -0.4270
 6875SOL    HW132084   0.943   2.678   1.301 -0.1769 -0.6464  0.8370
 6875SOL    HW232085   0.810   2.645   1.331  1.4111 -0.3165  1.6062
 6876SOL     OW32086   3.998   1.292  12.142  0.1051 -0.4470 -0.2084
 6876SOL    HW132087   4.036   1.295  12.229 -0.2585  0.2853 -0.0703
 6876SOL    HW232088   3.958   1.205  12.133  0.9199 -0.7501 -0.8847
 6877SOL     OW32089   4.702   2.065   6.990 -0.3393 -0.3367  0.1555
 6877SOL    HW132090   4.654   2.005   6.933  1.0037 -0.7148 -0.5689
 6877SOL    HW232091   4.625   2.122   6.994 -0.6270 -0.7366  0.2582
 6878SOL     OW32092   3.254   4.234   2.756  0.0204 -0.1481  0.4531
 6878SOL    HW132093   3.272   4.182   2.678 -2.7225 -2.0908  1.1154
 6878SOL    HW232094   3.342   4.269   2.770  0.0696  0.8287 -2.2486
 6879SOL     OW32095   2.348   2.752   3.185 -0.0368  0.1520 -0.6806
 6879SOL    HW132096   2.406   2.760   3.261 -2.8157 -3.8047  1.8695
 6879SOL    HW232097   2.416   2.755   3.118  0.4003 -0.2121 -0.2537
 6880SOL     OW32098   2.721   2.346   4.345  0.8086 -0.2279  0.4882
 6880SOL    HW132099   2.774   2.301   4.410 -0.2154 -1.6769  0.3195
 6880SOL    HW232100   2.645   2.289   4.332 -0.9082  2.4060 -1.1155
 6881SOL     OW32101   2.650   2.254   6.920 -0.7549 -0.2946  0.0815
 6881SOL    HW132102   2.637   2.180   6.860 -0.8677 -1.3513  1.4034
 6881SOL    HW232103   2.560   2.275   6.943 -0.3277  0.8841  0.6503
 6882SOL     OW32104   0.576   0.711   7.767  0.6914 -0.3269 -0.0588
 6882SOL    HW132105   0.616   0.698   7.853 -1.4262 -0.1041  0.9606
 6882SOL    HW232106   0.657   0.705   7.715  1.0309 -1.2548  0.5765
 6883SOL     OW32107   3.097   4.550   7.514  0.4911 -0.5261 -0.1186
 6883SOL    HW132108   3.107   4.532   7.608 -1.9903 -1.3900 -0.0417
 6883SOL    HW232109   3.072   4.462   7.486 -0.9463 -0.5437  1.2207
 6884SOL     OW32110   4.365   2.323   1.542 -0.7522 -0.2083 -0.2735
 6884SOL    HW132111   4.276   2.358   1.549 -0.3557  0.6802  0.3952
 6884SOL    HW232112   4.411   2.386   1.597  0.3420 -1.0043 -0.2797
 6885SOL     OW32113   2.552   1.449  16.837  0.2175 -0.5294 -0.0864
 6885SOL    HW132114   2.530   1.520  16.898  1.5433  0.7857 -1.1093
 6885SOL    HW232115   2.554   1.380  16.903 -2.6005  0.3955  0.9618
 6886SOL     OW32116   1.369   0.413   5.589 -0.1610 -0.1764  0.1061
 6886SOL    HW132117   1.463   0.430   5.586 -0.1431 -0.3700 -0.5372
 6886SOL    HW232118   1.345   0.479   5.654  0.2855 -0.0764  0.1634
 6887SOL     OW32119   2.878   3.637  10.876 -0.2774 -0.4901 -0.4728
 6887SOL    HW132120   2.859   3.721  10.917 -0.4723 -1.1460  0.7559
 6887SOL    HW232121   2.960   3.657  10.831  0.0891  1.7133  1.1904
 6888SOL     OW32122   3.546   3.090   1.682 -0.1204 -0.0421 -0.1324
 6888SOL    HW132123   3.589   3.142   1.614 -0.9875 -0.9656 -1.3943
 6888SOL    HW232124   3.585   3.131   1.759  2.9193 -0.5023 -1.4178
 6889SOL     OW32125   2.333   3.696  13.731  0.0392  0.3505  0.3950
 6889SOL    HW132126   2.365   3.765  13.673  0.3755  0.8411  1.1585
 6889SOL    HW232127   2.373   3.615  13.698  0.7631  2.1807 -3.1885
 6890SOL     OW32128   1.132   3.561   1.961  0.1814 -0.2888  0.1476
 6890SOL    HW132129   1.066   3.533   2.025 -0.3803  0.7991  0.0358
 6890SOL    HW232130   1.079   3.563   1.881 -1.2087 -1.2532  1.0434
 6891SOL     OW32131   3.182   0.032   3.857 -0.3349  0.2550 -0.2245
 6891SOL    HW132132   3.220   0.119   3.845 -1.4410  0.5392 -1.7030
 6891SOL    HW232133   3.141   0.015   3.772 -0.9973  0.0304  0.1412
 6892SOL     OW32134   4.641   3.894   6.554 -0.0110  0.0623  0.2385
 6892SOL    HW132135   4.632   3.798   6.551 -0.0773  0.0094  2.2596
 6892SOL    HW232136   4.672   3.897   6.644  1.0211 -3.4875 -0.0037
 6893SOL     OW32137   0.277   1.593   4.561 -0.0246  0.0341  1.0457
 6893SOL    HW132138   0.197   1.567   4.608 -2.0779  1.0973 -1.8598
 6893SOL    HW232139   0.282   1.687   4.575  0.7920  0.4040 -1.6435
 6894SOL     OW32140   1.559   2.098   1.255 -1.0216 -0.4769  0.4644
 6894SOL    HW132141   1.568   2.152   1.334 -0.5804 -2.2661  1.6443
 6894SOL    HW232142   1.490   2.150   1.214 -0.6297  1.4383  2.2164
 6895SOL     OW32143   1.296   3.756   3.464  0.4090  0.0365 -0.3611
 6895SOL    HW132144   1.336   3.779   3.381  3.3441  1.1292  1.3602
 6895SOL    HW232145   1.298   3.660   3.468  0.6154  0.1302  2.0247
 6896SOL     OW32146   1.145   3.035   5.306 -0.1076 -0.6643  0.3228
 6896SOL    HW132147   1.111   3.008   5.391 -0.3711  0.0677  0.4490
 6896SOL    HW232148   1.066   3.067   5.262  0.1678 -2.4042 -1.4035
 6897SOL     OW32149   4.197   0.443   4.105  0.3729  0.1902 -0.1158
 6897SOL    HW132150   4.154   0.405   4.028  0.6160 -1.9517  0.8193
 6897SOL    HW232151   4.270   0.495   4.070  1.1965 -1.0082 -0.1470
 6898SOL     OW32152   2.276   2.171   3.124 -0.1132 -0.0739  0.1412
 6898SOL    HW132153   2.304   2.121   3.201  0.8486  1.8512  1.0668
 6898SOL    HW232154   2.359   2.218   3.118 -0.4896  0.8338  1.8843
 6899SOL     OW32155   1.661   4.662   8.641  0.0257 -0.2882 -0.4937
 6899SOL    HW132156   1.709   4.621   8.570  1.4730 -0.6170  0.6636
 6899SOL    HW232157   1.613   4.586   8.676 -1.8415  0.9444 -0.3675
 6900SOL     OW32158   0.441   2.396  15.295 -0.5019  0.0368 -0.6309
 6900SOL    HW132159   0.454   2.490  15.307 -0.4977  0.0964 -1.1023
 6900SOL    HW232160   0.510   2.373  15.233 -1.8341 -0.5804 -1.8903
 6901SOL     OW32161   1.114   4.572   6.855 -0.0222  0.0562  0.1589
 6901SOL    HW132162   1.030   4.549   6.893  0.9872  0.7264  2.8208
 6901SOL    HW232163   1.156   4.610   6.933  0.2922  0.7257 -0.3419
 6902SOL     OW32164   2.764   0.514   8.179 -0.2167 -0.3016 -0.0168
 6902SOL    HW132165   2.699   0.444   8.175 -0.1843 -0.3204 -0.2311
 6902SOL    HW232166   2.813   0.491   8.100  0.2693  0.0437  0.1888
 6903SOL     OW32167   1.052   1.224  10.643  0.1372 -0.0456  0.7751
 6903SOL    HW132168   0.966   1.220  10.683 -1.2300  3.2385 -1.8369
 6903SOL    HW232169   1.101   1.162  10.697  0.5477 -1.4554 -1.1982
 6904SOL     OW32170   2.369   2.249  14.583 -0.2787 -0.7482  0.1460
 6904SOL    HW132171   2.274   2.257  14.572  0.1085  1.0327 -1.7933
 6904SOL    HW232172   2.397   2.190  14.512 -0.5911  0.5009 -1.0173
 6905SOL     OW32173   2.361   2.363  12.000  0.0849  0.0147 -0.6619
 6905SOL    HW132174   2.296   2.304  11.961  0.8968 -2.3635  1.6018
 6905SOL    HW232175   2.314   2.396  12.077 -0.3827 -1.7129 -0.2019
 6906SOL     OW32176   1.192   4.524  13.430  0.2419  0.8747 -0.4311
 6906SOL    HW132177   1.098   4.509  13.436  0.2713  0.7223 -0.3461
 6906SOL    HW232178   1.199   4.612  13.466 -1.4079 -0.2473  2.6263
 6907SOL     OW32179   4.500   0.810   8.047  0.4822 -0.5315 -0.1636
 6907SOL    HW132180   4.457   0.892   8.022 -1.0095 -1.9805 -2.3910
 6907SOL    HW232181   4.493   0.764   7.963  1.0064  1.2948 -1.2090
 6908SOL     OW32182   4.016   2.984   2.568 -0.4769  0.3346 -0.0369
 6908SOL    HW132183   3.920   2.992   2.566 -0.3935  1.2274 -0.6711
 6908SOL    HW232184   4.024   3.050   2.636 -1.5439  0.5851 -0.1458
 6909SOL     OW32185   4.016   2.761  11.399  0.0840  0.4456  0.2230
 6909SOL    HW132186   3.983   2.849  11.415  0.2837  0.2480  1.6840
 6909SOL    HW232187   4.089   2.778  11.340 -0.2260 -2.5037 -1.0497
 6910SOL     OW32188   0.495   0.100   6.058  0.2265 -0.3182 -0.5856
 6910SOL    HW132189   0.420   0.159   6.064  0.0509 -0.7004  0.9744
 6910SOL    HW232190   0.490   0.058   6.144  0.5507 -0.0365 -0.4275
 6911SOL     OW32191   4.454   0.229   4.568 -0.3765  0.6812 -0.0905
 6911SOL    HW132192   4.458   0.303   4.507 -0.4984 -0.9640 -2.0873
 6911SOL    HW232193   4.385   0.268   4.621  0.2889  1.8768 -0.1056
 6912SOL     OW32194   3.660   4.297   1.429 -0.2638  0.2703  0.0062
 6912SOL    HW132195   3.676   4.368   1.491  3.0085 -0.0358 -0.4784
 6912SOL    HW232196   3.734   4.239   1.449 -1.9083 -1.6723  0.3871
 6913SOL     OW32197   4.240   1.606  12.467  0.2341  0.0398  0.6803
 6913SOL    HW132198   4.313   1.615  12.406  1.7914 -1.3781  2.3510
 6913SOL    HW232199   4.175   1.665  12.429  0.4980  1.3349  2.2347
 6914SOL     OW32200   1.282   4.280  14.876  0.9793 -0.5224 -0.4510
 6914SOL    HW132201   1.341   4.268  14.801  0.1457 -1.3002 -0.9842
 6914SOL    HW232202   1.226   4.353  14.852  1.9152  0.4686  0.4073
 6915SOL     OW32203   1.921   4.345   9.056  0.1284 -0.0969  0.2544
 6915SOL    HW132204   1.975   4.274   9.091 -0.7347 -1.2989 -0.8560
 6915SOL    HW232205   1.950   4.340   8.965  1.0891 -0.2807  0.5697
 6916SOL     OW32206   1.061   1.622  11.635  0.0151  0.0426 -0.3262
 6916SOL    HW132207   1.015   1.692  11.588  2.1886  1.5092 -0.2149
 6916SOL    HW232208   1.131   1.587  11.581 -1.9005 -3.8045 -0.2942
 6917SOL     OW32209   4.069   1.471   2.404 -0.1401  0.4084 -0.0577
 6917SOL    HW132210   3.977   1.495   2.410 -0.4325 -0.8521  0.5169
 6917SOL    HW232211   4.061   1.414   2.327  1.5276  1.1562 -0.8086
 6918SOL     OW32212   4.084   0.063  10.140 -0.5033 -0.3857 -0.1583
 6918SOL    HW132213   4.029   0.006  10.087 -1.9664  2.2893 -1.5297
 6918SOL    HW232214   4.074   0.019  10.225  0.4323 -0.1438  0.0832
 6919SOL     OW32215   0.228   0.777   6.871 -0.5848  0.0488 -0.0743
 6919SOL    HW132216   0.179   0.849   6.910 -0.0001  0.8163 -0.7606
 6919SOL    HW232217   0.229   0.800   6.778 -0.7304  1.8593  0.3789
 6920SOL     OW32218   3.526   3.561  17.158  0.1366  0.0469 -0.3636
 6920SOL    HW132219   3.442   3.552  17.113 -0.0743  2.2137 -0.4389
 6920SOL    HW232220   3.509   3.563  17.253 -3.4479  1.2106 -1.0341
 6921SOL     OW32221   3.382   0.633  11.716  0.5714  0.0884 -0.2216
 6921SOL    HW132222   3.463   0.588  11.693 -0.8103 -0.5605 -3.7538
 6921SOL    HW232223   3.387   0.718  11.674 -0.0042  0.6719  0.8881
 6922SOL     OW32224   3.201   1.094  13.281 -0.1658 -0.1889 -0.0756
 6922SOL    HW132225   3.265   1.097  13.209  0.4052  1.4448  0.4954
 6922SOL    HW232226   3.182   1.001  13.285 -0.4941 -0.0901  0.5098
 6923SOL     OW32227   3.745   1.943   9.428  0.2534 -0.2563 -0.5339
 6923SOL    HW132228   3.790   1.882   9.488  0.0966  0.1250 -0.0324
 6923SOL    HW232229   3.703   2.002   9.490  0.7186 -0.1337 -0.3299
 6924SOL     OW32230   0.490   3.523   2.030 -0.4453  0.3400  0.4334
 6924SOL    HW132231   0.465   3.479   1.949 -1.1699  0.5388  0.5462
 6924SOL    HW232232   0.578   3.541   1.997  0.2519 -0.7544  1.7003
 6925SOL     OW32233   4.644   2.687   6.269 -0.4854  0.5081  0.2759
 6925SOL    HW132234   4.565   2.736   6.294 -1.3700 -0.7085 -0.1166
 6925SOL    HW232235   4.605   2.601   6.249 -0.4436 -0.7359  5.4046
 6926SOL     OW32236   2.279   0.597  17.456 -0.0283 -0.2530  0.3312
 6926SOL    HW132237   2.356   0.590  17.399 -0.5890 -0.8456 -0.3516
 6926SOL    HW232238   2.295   0.662  17.524 -0.6067 -1.8965  2.0493
 6927SOL     OW32239   0.398   2.000   7.245 -0.5401 -0.2946 -0.1192
 6927SOL    HW132240   0.324   1.945   7.220 -0.2076 -1.9802  2.6565
 6927SOL    HW232241   0.382   2.034   7.333 -0.3785 -1.5474  0.3939
 6928SOL     OW32242   2.676   2.908   1.120  0.3324  0.1531  0.2329
 6928SOL    HW132243   2.711   2.943   1.202  0.4158 -0.1240  0.3138
 6928SOL    HW232244   2.746   2.938   1.062  1.3254 -0.4157  1.1353
 6929SOL     OW32245   2.838   2.108   6.362 -0.0540 -0.0604 -0.0145
 6929SOL    HW132246   2.775   2.177   6.384  1.1045  1.3434 -1.1375
 6929SOL    HW232247   2.906   2.133   6.424  1.0951  0.0321 -1.3370
 6930SOL     OW32248   0.954   0.791   6.566  0.0470 -0.2498 -0.1806
 6930SOL    HW132249   0.995   0.704   6.563 -0.4637 -0.4475 -1.2536
 6930SOL    HW232250   0.861   0.769   6.566  0.1541 -0.7012 -0.5368
 6931SOL     OW32251   1.213   2.413   4.611 -0.0806 -0.3303  0.1442
 6931SOL    HW132252   1.287   2.472   4.628  0.9524 -1.7869  0.7144
 6931SOL    HW232253   1.245   2.341   4.556  1.6082  0.2380  0.3699
 6932SOL     OW32254   1.688   4.314   6.823 -0.0629  0.0100  0.0802
 6932SOL    HW132255   1.626   4.255   6.865 -1.5254  1.5654  0.0898
 6932SOL    HW232256   1.626   4.366   6.772  0.8980  1.9653  0.8992
 6933SOL     OW32257   1.110   1.313   1.651 -0.2337  0.2486 -0.0693
 6933SOL    HW132258   1.132   1.361   1.731  2.2912 -0.4661 -0.3390
 6933SOL    HW232259   1.015   1.300   1.650 -0.4424  1.6872  0.7231
 6934SOL     OW32260   4.426   4.416   1.725  0.2609 -0.6175  0.1616
 6934SOL    HW132261   4.489   4.369   1.670 -0.0810 -0.5629 -0.2746
 6934SOL    HW232262   4.479   4.438   1.801 -2.2012  1.2995  1.2996
 6935SOL     OW32263   4.210   4.223   0.708 -0.2931 -0.2270 -0.0262
 6935SOL    HW132264   4.146   4.218   0.637  1.2485  1.4919 -1.5296
 6935SOL    HW232265   4.178   4.304   0.748 -1.5047  0.1830 -1.8324
 6936SOL     OW32266   3.534   3.893   9.615  0.3383  0.1053  0.0794
 6936SOL    HW132267   3.590   3.822   9.648  0.4224  0.5845  0.9550
 6936SOL    HW232268   3.605   3.948   9.583 -0.5256  1.0110 -0.2666
 6937SOL     OW32269   3.998   2.505   4.807 -0.0945  0.4956  0.3831
 6937SOL    HW132270   4.090   2.480   4.800  0.0452  0.6111  1.9112
 6937SOL    HW232271   3.977   2.497   4.900 -0.3502 -0.9805  0.1951
 6938SOL     OW32272   4.351   1.398  15.441  0.3403 -0.1705 -0.2676
 6938SOL    HW132273   4.259   1.377  15.460  0.0170  0.2987 -1.3363
 6938SOL    HW232274   4.369   1.474  15.496 -3.0511  0.3617  0.1324
 6939SOL     OW32275   1.531   0.834  16.809  0.2500  0.2754 -0.2662
 6939SOL    HW132276   1.489   0.814  16.726  1.0230  0.5316 -0.7215
 6939SOL    HW232277   1.615   0.789  16.798 -0.1546 -0.2103 -1.2953
 6940SOL     OW32278   3.732   4.487   1.658 -0.4294 -0.0077  0.0800
 6940SOL    HW132279   3.815   4.534   1.664 -0.1309 -0.4951 -0.2325
 6940SOL    HW232280   3.679   4.550   1.708 -0.3864 -0.0756  0.2103
 6941SOL     OW32281   1.207   2.098   8.431 -0.3145  0.0572 -0.3761
 6941SOL    HW132282   1.234   2.104   8.339 -2.1324  1.4939 -0.8134
 6941SOL    HW232283   1.232   2.007   8.447 -1.2932 -0.5624 -2.3221
 6942SOL     OW32284   1.612   4.223  14.471 -0.1008  0.3922  0.2466
 6942SOL    HW132285   1.661   4.148  14.439  2.4260  2.1191  0.1096
 6942SOL    HW232286   1.649   4.288  14.412 -0.5683 -0.3794 -0.8797
 6943SOL     OW32287   0.152   4.074   2.913  0.4397  0.4900  0.1793
 6943SOL    HW132288   0.151   4.161   2.952  1.0593  0.7780 -0.4431
 6943SOL    HW232289   0.064   4.071   2.876  0.3125 -0.0161  0.5269
 6944SOL     OW32290   0.346   2.308  16.594 -0.4019 -0.6365  0.6715
 6944SOL    HW132291   0.421   2.340  16.644  1.3614 -1.8923 -1.1804
 6944SOL    HW232292   0.276   2.372  16.608  0.3586  0.0897  1.1158
 6945SOL     OW32293   2.221   0.827   8.228 -0.1812  0.1989 -0.0948
 6945SOL    HW132294   2.221   0.748   8.283 -0.5144 -0.4661 -1.0445
 6945SOL    HW232295   2.184   0.890   8.290  3.0129  1.5062  0.4796
 6946SOL     OW32296   3.607   3.309   8.539 -0.2766  0.6182 -0.3218
 6946SOL    HW132297   3.543   3.292   8.470  1.0408  0.1381 -1.4235
 6946SOL    HW232298   3.650   3.387   8.504 -1.0100  2.0659  1.9702
 6947SOL     OW32299   1.407   2.519  15.381  0.4182  0.6501  0.3200
 6947SOL    HW132300   1.403   2.614  15.368 -1.3931  0.3052 -1.6012
 6947SOL    HW232301   1.314   2.497  15.376  0.5182 -0.0820  1.6491
 6948SOL     OW32302   3.981   4.019   7.166  0.2690 -0.1491  0.0687
 6948SOL    HW132303   4.063   3.976   7.140  0.3062 -1.1458  1.8611
 6948SOL    HW232304   4.005   4.111   7.161  1.4173 -0.4664 -0.2244
 6949SOL     OW32305   2.167   3.427  12.505  0.1212  0.4476 -0.1253
 6949SOL    HW132306   2.215   3.401  12.584  0.5318  1.3700 -0.0686
 6949SOL    HW232307   2.246   3.433  12.450  0.6122  2.2738  0.7898
 6950SOL     OW32308   4.026   0.038   5.730  0.1085 -1.0531 -0.1029
 6950SOL    HW132309   3.982   0.009   5.650 -1.4913  1.3924 -0.0715
 6950SOL    HW232310   4.119   0.036   5.705 -0.0302 -0.4742 -0.6545
 6951SOL     OW32311   0.838   2.329   0.325  0.0546  0.0248  0.0101
 6951SOL    HW132312   0.846   2.234   0.340 -0.4345 -0.1913 -1.1339
 6951SOL    HW232313   0.921   2.361   0.362  0.8669 -1.4371 -0.5199
 6952SOL     OW32314   0.847   1.687   7.817  0.1265  0.0866  0.7807
 6952SOL    HW132315   0.791   1.759   7.844  1.6690  2.8633 -3.6127
 6952SOL    HW232316   0.786   1.645   7.757 -0.7788  2.1832  0.2620
 6953SOL     OW32317   4.177   0.522  13.264  0.0753  0.1154 -0.0153
 6953SOL    HW132318   4.171   0.443  13.211  1.1457 -0.8061  1.2142
 6953SOL    HW232319   4.226   0.583  13.209 -0.1427  0.0299 -0.2989
 6954SOL     OW32320   4.006   1.850   2.617 -0.7309 -0.1627  0.1890
 6954SOL    HW132321   3.996   1.755   2.607 -0.3188 -0.4287  2.3165
 6954SOL    HW232322   4.056   1.880   2.541 -0.8146  0.1998  0.2776
 6955SOL     OW32323   2.984   1.785   7.454 -0.3439  0.4205  0.6962
 6955SOL    HW132324   3.021   1.872   7.467  1.6903 -0.4145  0.6033
 6955SOL    HW232325   3.001   1.747   7.540  1.3654 -3.1091 -1.2017
 6956SOL     OW32326   3.851   3.504  13.860 -0.3158  0.4237  0.0131
 6956SOL    HW132327   3.822   3.417  13.832  0.1226 -0.2240  1.5528
 6956SOL    HW232328   3.767   3.542  13.884 -0.2220 -0.2942  1.4711
 6957SOL     OW32329   3.885   0.209   9.676  0.1022  0.1553  0.2978
 6957SOL    HW132330   3.840   0.293   9.663 -1.9588 -0.8344  0.9472
 6957SOL    HW232331   3.971   0.241   9.701 -0.7660  1.4238  1.6849
 6958SOL     OW32332   3.520   3.816   8.787  0.0889 -0.3497  0.2480
 6958SOL    HW132333   3.465   3.792   8.712  0.2638  0.7353 -0.2129
 6958SOL    HW232334   3.474   3.769   8.858  1.1676 -0.3610  0.9328
 6959SOL     OW32335   0.979   3.266   4.944  0.5637 -0.4813  0.1972
 6959SOL    HW132336   0.904   3.286   4.887  2.0576 -3.5202 -2.8715
 6959SOL    HW232337   1.032   3.342   4.921  0.1689 -0.5738 -1.0339
 6960SOL     OW32338   1.809   3.167   7.757 -0.1852  0.6915  0.1972
 6960SOL    HW132339   1.792   3.227   7.684  0.0114  1.3940  0.7318
 6960SOL    HW232340   1.892   3.196   7.795 -0.2311  0.3299  0.5733
 6961SOL     OW32341   0.055   1.802   8.609 -0.2376 -0.3741 -0.8068
 6961SOL    HW132342   0.026   1.714   8.632 -0.9314  0.4120  1.3278
 6961SOL    HW232343   0.058   1.837   8.698  0.2391  1.9559 -1.7378
 6962SOL     OW32344   0.601   2.285   8.775  0.8303 -0.2959 -0.1941
 6962SOL    HW132345   0.666   2.259   8.841  0.5298 -0.5777 -0.0084
 6962SOL    HW232346   0.526   2.234   8.807  0.0655  1.7726  1.2960
 6963SOL     OW32347   1.513   3.721  12.634 -0.0850  0.5798  0.0970
 6963SOL    HW132348   1.535   3.683  12.719 -1.0973 -0.2636 -0.0100
 6963SOL    HW232349   1.536   3.651  12.574  1.0569  0.1737  1.0157
 6964SOL     OW32350   2.464   0.413   6.799 -0.2099 -0.1146  0.1717
 6964SOL    HW132351   2.495   0.378   6.716  1.0075 -0.5948  0.8306
 6964SOL    HW232352   2.543   0.422   6.852 -0.0022  0.0449 -0.1649
 6965SOL     OW32353   3.952   2.454   8.294  0.0946  0.1867 -0.1248
 6965SOL    HW132354   4.000   2.481   8.216  2.0922 -0.4636  0.8692
 6965SOL    HW232355   4.006   2.378   8.316  0.0137  0.3616  0.7025
 6966SOL     OW32356   1.099   1.831   3.076 -0.3091  0.4679 -0.7096
 6966SOL    HW132357   1.107   1.769   3.005  1.2072  0.7120 -0.7460
 6966SOL    HW232358   1.038   1.783   3.133 -0.4310  0.4404 -0.8637
 6967SOL     OW32359   2.426   1.901   3.448 -0.2750  0.1167  1.1076
 6967SOL    HW132360   2.345   1.851   3.436  0.0972 -0.6954  1.9480
 6967SOL    HW232361   2.407   1.990   3.418  1.1629  0.6004  1.6313
 6968SOL     OW32362   3.094   3.408  11.082 -0.5863 -0.8315  0.5779
 6968SOL    HW132363   3.088   3.373  10.993  0.5752 -0.4223  0.3295
 6968SOL    HW232364   3.085   3.324  11.127 -3.6580 -0.2626  1.0047
 6969SOL     OW32365   1.559   2.261   1.492  0.8098 -0.3234 -0.1000
 6969SOL    HW132366   1.564   2.255   1.588 -0.9125  0.4293  0.0338
 6969SOL    HW232367   1.465   2.279   1.494  0.7964 -0.0811 -3.2446
 6970SOL     OW32368   4.231   0.946   4.130 -0.0617 -1.0140 -0.2517
 6970SOL    HW132369   4.212   0.860   4.167 -2.0513 -0.4608  0.0276
 6970SOL    HW232370   4.218   0.933   4.036 -0.9046 -3.8180  0.2625
 6971SOL     OW32371   4.443   3.157   6.953  0.1319 -0.1707 -0.4540
 6971SOL    HW132372   4.397   3.238   6.932 -1.9220 -0.6798  2.1142
 6971SOL    HW232373   4.382   3.117   7.014  1.1184 -0.3601  0.4163
 6972SOL     OW32374   2.788   3.812   8.262 -0.8591 -0.1036 -0.1864
 6972SOL    HW132375   2.698   3.789   8.240 -1.5167 -0.5552  2.9505
 6972SOL    HW232376   2.835   3.733   8.237 -3.6967 -1.1937 -2.0703
 6973SOL     OW32377   0.823   3.569   3.855  0.5677 -0.4293  0.1018
 6973SOL    HW132378   0.884   3.497   3.839 -0.8143 -1.5486 -0.1418
 6973SOL    HW232379   0.854   3.629   3.788  1.4450 -0.6540  0.3084
 6974SOL     OW32380   2.815   1.191   4.256  0.4259  0.4507 -0.6897
 6974SOL    HW132381   2.824   1.250   4.181  0.6086 -0.9081 -1.7322
 6974SOL    HW232382   2.852   1.251   4.321  0.5387 -2.2460  1.7390
 6975SOL     OW32383   4.566   1.829   6.310  0.5821 -0.4682 -0.2706
 6975SOL    HW132384   4.606   1.880   6.381  2.4588  0.7857 -2.2348
 6975SOL    HW232385   4.493   1.888   6.291 -0.6602 -2.3972 -1.4884
 6976SOL     OW32386   3.391   3.487  11.198  0.7853  0.4657 -0.1597
 6976SOL    HW132387   3.298   3.497  11.177  0.7211  1.0005  0.3774
 6976SOL    HW232388   3.413   3.414  11.140 -1.6512 -0.9054  0.6300
 6977SOL     OW32389   2.417   4.424   0.357 -0.1824  0.7057  0.3925
 6977SOL    HW132390   2.441   4.511   0.387  1.6048  0.2639  0.2092
 6977SOL    HW232391   2.484   4.408   0.290 -1.3370 -0.4512 -0.5034
 6978SOL     OW32392   3.593   0.293   1.267  0.5623 -0.6571 -0.2820
 6978SOL    HW132393   3.581   0.205   1.304  1.7952  0.0638  1.8782
 6978SOL    HW232394   3.613   0.261   1.179 -0.4188 -0.6383 -0.5017
 6979SOL     OW32395   0.692   4.533   5.978  0.4148  0.1447 -0.6473
 6979SOL    HW132396   0.712   4.595   5.909 -2.5435 -0.0446 -1.6940
 6979SOL    HW232397   0.771   4.546   6.031  2.1972 -0.0830 -3.2636
 6980SOL     OW32398   0.290   2.350   6.978  0.0188 -0.3250  0.2175
 6980SOL    HW132399   0.347   2.324   6.906 -0.6463 -0.0657 -0.4089
 6980SOL    HW232400   0.209   2.308   6.950 -0.1091  0.3637 -0.4381
 6981SOL     OW32401   1.905   1.020   4.299 -0.2546 -0.1692 -0.2559
 6981SOL    HW132402   1.998   0.998   4.288 -0.8850 -3.5273  1.1258
 6981SOL    HW232403   1.879   0.946   4.353  0.1035 -1.2480 -1.5621
 6982SOL     OW32404   3.331   2.651   3.366  0.3761  0.3258  0.0770
 6982SOL    HW132405   3.327   2.591   3.441  0.8808 -1.2101 -1.1331
 6982SOL    HW232406   3.340   2.587   3.295 -2.7757 -0.4829  0.4047
 6983SOL     OW32407   2.765   3.038   6.498  0.1490 -0.0699  0.0670
 6983SOL    HW132408   2.702   3.075   6.436  2.8928  1.0125 -2.0368
 6983SOL    HW232409   2.849   3.069   6.466 -0.3960  1.4532  0.1338
 6984SOL     OW32410   3.667   0.122   2.691 -0.3151  0.6777  1.1449
 6984SOL    HW132411   3.748   0.164   2.663 -1.3983  1.3247 -1.0503
 6984SOL    HW232412   3.606   0.194   2.707 -0.3301  0.5395  1.7207
 6985SOL     OW32413   2.993   1.323  10.777  0.1609 -0.1026 -0.2185
 6985SOL    HW132414   3.064   1.259  10.772 -1.5846 -2.2416  2.3511
 6985SOL    HW232415   3.042   1.400  10.806  0.4007 -0.4594  0.3157
 6986SOL     OW32416   1.644   0.254   8.300 -0.4549 -0.6459 -0.8588
 6986SOL    HW132417   1.553   0.244   8.272 -0.1636 -2.5666 -1.1014
 6986SOL    HW232418   1.660   0.166   8.334 -0.5448  0.5458  2.2345
 6987SOL     OW32419   0.131   3.251   2.239 -0.3372  0.0264 -0.0696
 6987SOL    HW132420   0.136   3.327   2.297 -0.8603 -1.1354  1.4961
 6987SOL    HW232421   0.038   3.231   2.226 -0.4531  0.1089  0.6507
 6988SOL     OW32422   4.177   0.233   2.488  0.1333  0.3212  0.3453
 6988SOL    HW132423   4.129   0.191   2.417  1.2279 -2.4205  1.2345
 6988SOL    HW232424   4.247   0.280   2.442  0.6222 -0.7274  0.0260
 6989SOL     OW32425   2.169   1.185   5.957  0.8451  0.0325 -0.0694
 6989SOL    HW132426   2.096   1.142   5.914  1.2099  2.2128 -2.8876
 6989SOL    HW232427   2.230   1.197   5.884  0.6012  0.1256 -0.2600
 6990SOL     OW32428   3.642   0.206   2.005 -0.1880 -0.2842  0.1097
 6990SOL    HW132429   3.602   0.289   1.981 -1.1132 -0.5235  0.8048
 6990SOL    HW232430   3.629   0.196   2.100  0.8820  1.0794  0.3942
 6991SOL     OW32431   2.342   3.707   4.623 -0.0709  0.6933 -0.5074
 6991SOL    HW132432   2.420   3.761   4.613  1.7789 -2.0334 -0.6711
 6991SOL    HW232433   2.342   3.687   4.716  2.0675 -1.1375 -0.9203
 6992SOL     OW32434   4.326   4.173   2.338  0.0868 -0.3599  0.2593
 6992SOL    HW132435   4.314   4.135   2.251 -2.2214 -0.9183  0.8170
 6992SOL    HW232436   4.285   4.109   2.396 -0.9141  0.7411  0.7693
 6993SOL     OW32437   0.971   0.363   2.144 -0.1986 -0.0013 -0.1298
 6993SOL    HW132438   1.008   0.388   2.229 -0.7470 -0.3039  0.1994
 6993SOL    HW232439   0.912   0.435   2.126  0.5255  0.6563  0.1134
 6994SOL     OW32440   2.337   4.215   8.597  0.1373  0.0392 -1.0187
 6994SOL    HW132441   2.378   4.265   8.527  1.3741  1.2335  0.5346
 6994SOL    HW232442   2.247   4.239   8.573 -0.5875 -2.4158 -0.7066
 6995SOL     OW32443   0.986   1.503  11.905  0.0521 -0.2845  0.2315
 6995SOL    HW132444   1.029   1.568  11.849 -1.1202  1.1088  0.9626
 6995SOL    HW232445   1.013   1.419  11.868 -0.8409 -0.9185  1.0395
 6996SOL     OW32446   0.368   3.714   6.598 -0.7857  0.0159  0.0917
 6996SOL    HW132447   0.312   3.637   6.594 -1.4813  0.5785 -1.0912
 6996SOL    HW232448   0.397   3.702   6.688 -0.9292  0.4102  0.1933
 6997SOL     OW32449   0.572   2.506   5.162 -0.1200 -0.1594 -0.5155
 6997SOL    HW132450   0.595   2.543   5.076  1.3294  1.8133  0.7320
 6997SOL    HW232451   0.529   2.582   5.200 -0.9979 -0.7293 -0.3796
 6998SOL     OW32452   1.776   3.764   6.925  0.3790  0.0472 -0.0185
 6998SOL    HW132453   1.758   3.731   6.837 -2.5652 -0.9708  0.9711
 6998SOL    HW232454   1.848   3.710   6.958  2.3009  1.4126 -1.9812
 6999SOL     OW32455   4.125   4.403   6.944 -0.1658 -0.0949  0.1075
 6999SOL    HW132456   4.122   4.392   6.849 -0.1164 -1.5693  0.2828
 6999SOL    HW232457   4.032   4.395   6.966  0.0348 -1.6515  0.3807
 7000SOL     OW32458   0.007   3.360  12.712 -0.1480  0.1576 -0.0499
 7000SOL    HW132459   0.057   3.396  12.785  1.5197  0.3480 -1.2885
 7000SOL    HW232460   4.651   3.336  12.761  1.6214 -1.6980  1.8627
 7001SOL     OW32461   2.088   2.825   2.659  0.2544 -0.1464  0.1620
 7001SOL    HW132462   2.088   2.818   2.564  0.0489 -0.2831  0.1716
 7001SOL    HW232463   2.153   2.894   2.669  0.1961 -0.2380  1.1625
 7002SOL     OW32464   3.676   0.449   7.391  0.3090 -0.4883  0.2044
 7002SOL    HW132465   3.648   0.511   7.324  2.6687 -0.4710 -0.7617
 7002SOL    HW232466   3.769   0.470   7.393  0.2850 -0.2633 -0.8216
 7003SOL     OW32467   2.112   1.649   8.905 -1.0058  0.3472  0.1890
 7003SOL    HW132468   2.094   1.628   8.813 -0.4357  2.0506 -0.3041
 7003SOL    HW232469   2.117   1.744   8.899  0.3068  0.2122 -0.6581
 7004SOL     OW32470   3.835   3.354   2.989 -0.0021 -0.2875 -0.3285
 7004SOL    HW132471   3.783   3.426   3.025  0.6888 -0.0657  0.2277
 7004SOL    HW232472   3.775   3.283   3.013  1.1395 -0.9515  0.5128
 7005SOL     OW32473   1.618   2.473   3.076 -0.2528  0.6170 -0.4026
 7005SOL    HW132474   1.607   2.510   2.989  0.4447 -1.0321 -1.1882
 7005SOL    HW232475   1.631   2.380   3.058 -0.7275  0.4379  0.1906
 7006SOL     OW32476   2.417   1.523   5.562  0.0237 -0.3988  0.5099
 7006SOL    HW132477   2.491   1.576   5.592 -1.2896  0.6769  1.8459
 7006SOL    HW232478   2.345   1.535   5.624  0.8456  1.5069  1.1005
 7007SOL     OW32479   1.005   0.181   4.610 -0.0655 -0.2546  0.4708
 7007SOL    HW132480   1.079   0.242   4.615 -1.2137  0.9777  2.4545
 7007SOL    HW232481   0.947   0.223   4.548 -1.0042 -2.1785  0.0506
 7008SOL     OW32482   3.854   3.002   2.039 -0.0865 -0.5152 -0.3558
 7008SOL    HW132483   3.835   2.942   1.967  0.8851  1.8457 -2.6018
 7008SOL    HW232484   3.820   2.954   2.114 -0.4496  0.5775  0.1761
 7009SOL     OW32485   3.894   1.666   7.319  0.0361 -0.1453 -0.1185
 7009SOL    HW132486   3.937   1.732   7.375 -0.4479  0.0911 -0.0275
 7009SOL    HW232487   3.906   1.583   7.365  0.4911  0.7793  1.4446
 7010SOL     OW32488   0.763   1.807   8.393 -0.2816 -0.2417  0.3560
 7010SOL    HW132489   0.687   1.756   8.365 -0.5638  0.9500 -1.0743
 7010SOL    HW232490   0.716   1.857   8.460  2.1083  0.6983  1.3327
 7011SOL     OW32491   4.707   4.371   8.341 -0.1287 -0.8155  0.0262
 7011SOL    HW132492   4.616   4.397   8.327 -0.1727 -0.3642  1.0812
 7011SOL    HW232493   0.033   4.442   8.301 -0.0581  0.6966  2.7514
 7012SOL     OW32494   1.113   2.408   6.271 -0.2237 -0.1286 -0.5231
 7012SOL    HW132495   1.094   2.388   6.363  0.8339  2.8311  0.3287
 7012SOL    HW232496   1.205   2.388   6.256 -0.0671 -0.3510  0.7190
 7013SOL     OW32497   0.496   2.717   5.980 -0.3566 -0.6995 -0.1848
 7013SOL    HW132498   0.580   2.729   5.935 -1.0577  0.2295 -1.2459
 7013SOL    HW232499   0.447   2.741   5.901  0.0893 -0.7247 -0.4685
 7014SOL     OW32500   2.284   4.634   6.141 -0.1145 -0.1214 -0.0346
 7014SOL    HW132501   2.331   4.714   6.163 -0.2056 -0.2023  0.4628
 7014SOL    HW232502   2.265   4.608   6.231  1.9727  0.0156  0.4363
 7015SOL     OW32503   2.969   0.214  15.755  0.1378  0.0557 -0.4597
 7015SOL    HW132504   3.035   0.265  15.708  0.8654 -0.6169 -0.1721
 7015SOL    HW232505   2.899   0.199  15.691  1.4053  1.0628 -2.0713
 7016SOL     OW32506   1.646   0.648  15.469 -0.1986  0.1205  0.1619
 7016SOL    HW132507   1.662   0.562  15.430  1.9848 -0.6889  2.8270
 7016SOL    HW232508   1.727   0.674  15.513 -0.0281  1.4810 -0.9307
 7017SOL     OW32509   1.582   3.413   6.964 -0.2135 -0.4393  0.1539
 7017SOL    HW132510   1.524   3.483   6.934 -0.2933 -0.4244  0.3386
 7017SOL    HW232511   1.666   3.456   6.979 -0.8986  1.1329 -0.5094
 7018SOL     OW32512   1.702   3.521  17.105  0.0642  0.1967 -0.2109
 7018SOL    HW132513   1.633   3.585  17.121  0.3356  1.0259 -2.3857
 7018SOL    HW232514   1.687   3.509  17.011 -0.3099  2.9523 -0.5061
 7019SOL     OW32515   3.413   1.331  14.400  0.4249  0.4474 -0.2089
 7019SOL    HW132516   3.354   1.296  14.334  0.9948 -0.9653  0.0456
 7019SOL    HW232517   3.459   1.395  14.345 -0.8252  2.1829  0.7621
 7020SOL     OW32518   1.000   3.099   7.176  0.0539  0.3656 -0.2161
 7020SOL    HW132519   1.077   3.152   7.153  1.0033 -0.7405  0.4230
 7020SOL    HW232520   1.014   3.090   7.270  4.3483 -1.1984 -0.9873
 7021SOL     OW32521   3.958   1.849  13.268 -1.0889  0.3094 -0.6399
 7021SOL    HW132522   3.934   1.823  13.357 -0.9740 -0.3190 -0.7879
 7021SOL    HW232523   3.939   1.942  13.260  3.2254  1.3086  0.2787
 7022SOL     OW32524   1.586   3.525   6.474 -0.7601  0.3387  0.2725
 7022SOL    HW132525   1.656   3.515   6.409  0.2127 -0.5616  1.4472
 7022SOL    HW232526   1.511   3.557   6.425 -1.3823 -2.4014 -0.5887
 7023SOL     OW32527   1.306   3.241  12.172  0.1033 -0.0436 -0.4176
 7023SOL    HW132528   1.394   3.228  12.205  0.0638 -0.8253 -0.6007
 7023SOL    HW232529   1.293   3.330  12.203  1.3569  0.2089 -0.6167
 7024SOL     OW32530   4.241   2.007   3.926  0.0114 -0.0507  0.5057
 7024SOL    HW132531   4.257   1.973   3.838 -2.0030 -0.6188  0.3452
 7024SOL    HW232532   4.329   2.017   3.961  0.1379 -1.1310  0.4966
 7025SOL     OW32533   4.206   1.816  14.613  0.6480 -0.0474 -0.4341
 7025SOL    HW132534   4.215   1.812  14.518  0.2701  0.3413 -0.4833
 7025SOL    HW232535   4.274   1.883  14.625 -1.0450  1.3282  1.3678
 7026SOL     OW32536   1.189   4.393  11.765  0.4352  0.0990  0.4330
 7026SOL    HW132537   1.251   4.337  11.810 -1.2309 -1.2403  1.0679
 7026SOL    HW232538   1.168   4.443  11.844 -1.7547 -0.9833  0.5314
 7027SOL     OW32539   0.422   1.248   0.521  0.0466  0.3653 -0.5370
 7027SOL    HW132540   0.381   1.290   0.597  1.2253  1.3605 -0.4745
 7027SOL    HW232541   0.346   1.196   0.492 -0.5791  0.2287  1.3050
 7028SOL     OW32542   4.565   3.310   2.476  0.4077  0.0713  0.1499
 7028SOL    HW132543   4.594   3.387   2.525 -0.3484  0.5971 -0.2258
 7028SOL    HW232544   4.571   3.246   2.547  0.8951 -0.2148 -0.1517
 7029SOL     OW32545   0.250   3.028  12.558 -0.1232 -0.3441  0.0922
 7029SOL    HW132546   0.334   3.004  12.518 -0.6594 -0.1852 -1.1302
 7029SOL    HW232547   0.198   2.951  12.536  0.0793 -0.6991  0.8499
 7030SOL     OW32548   4.364   3.821   6.104 -0.5350 -0.2443  0.2467
 7030SOL    HW132549   4.390   3.839   6.194 -1.9989 -1.3757  0.8876
 7030SOL    HW232550   4.407   3.736   6.101  0.7301  0.4415 -1.3873
 7031SOL     OW32551   4.064   2.762   4.744  0.0934 -0.9598  0.0728
 7031SOL    HW132552   4.135   2.770   4.807 -2.4103 -0.7990  2.8562
 7031SOL    HW232553   4.028   2.677   4.769 -0.2659 -0.8523 -0.0817
 7032SOL     OW32554   3.294   1.086  10.322 -0.0483 -0.4441 -0.5847
 7032SOL    HW132555   3.358   1.093  10.392  0.3767 -0.1021 -1.0100
 7032SOL    HW232556   3.215   1.125  10.359 -0.0512 -0.4964 -0.5357
 7033SOL     OW32557   0.602   3.310   5.519 -0.0417 -0.3566  0.8912
 7033SOL    HW132558   0.611   3.366   5.596 -2.6557 -0.7196  1.4758
 7033SOL    HW232559   0.667   3.350   5.462  0.4241 -0.8128  1.0914
 7034SOL     OW32560   4.518   0.428   5.593  0.1281 -0.1802 -0.3939
 7034SOL    HW132561   4.453   0.359   5.609 -1.7868  1.5691 -0.6994
 7034SOL    HW232562   4.560   0.426   5.680  0.9974 -1.5340 -0.8358
 7035SOL     OW32563   3.864   4.170   1.504 -0.7448  0.2632  0.0080
 7035SOL    HW132564   3.926   4.097   1.509 -3.2333 -1.8201  0.1489
 7035SOL    HW232565   3.904   4.226   1.570  0.3055  1.9682 -2.0596
 7036SOL     OW32566   3.039   3.179  10.865 -0.5328 -0.0775 -0.5342
 7036SOL    HW132567   3.036   3.088  10.893 -1.2043 -0.4214 -1.7173
 7036SOL    HW232568   2.997   3.176  10.780 -0.8751  1.0653 -0.4117
 7037SOL     OW32569   1.816   3.302   3.693 -0.5678  0.1705 -0.1890
 7037SOL    HW132570   1.801   3.309   3.599  0.2207 -0.9072 -0.3914
 7037SOL    HW232571   1.763   3.226   3.714  1.4349 -1.0675  0.4532
 7038SOL     OW32572   3.033   1.575   8.203  0.3096 -0.1897 -0.0172
 7038SOL    HW132573   3.004   1.615   8.285  1.9218  0.3684  0.2824
 7038SOL    HW232574   2.990   1.630   8.137 -0.5458  1.0257  1.5428
 7039SOL     OW32575   3.500   3.111   5.880  0.0730  0.1917  0.2555
 7039SOL    HW132576   3.592   3.091   5.866  0.2653 -0.2576  2.1149
 7039SOL    HW232577   3.479   3.112   5.787  0.0266  1.1314  0.2795
 7040SOL     OW32578   1.439   1.938  10.008 -0.2152  0.4508  0.0336
 7040SOL    HW132579   1.478   1.897  10.085 -1.3623  0.2211  0.4984
 7040SOL    HW232580   1.379   2.001  10.048 -2.8856 -1.9883 -0.1298
 7041SOL     OW32581   2.220   4.585   0.550 -0.4594 -0.1406 -0.0918
 7041SOL    HW132582   2.142   4.630   0.518 -0.5196 -0.2632 -0.1181
 7041SOL    HW232583   2.283   4.657   0.542 -0.1540 -0.3353  0.6368
 7042SOL     OW32584   3.156   3.149   1.060 -0.1025  0.0137  0.5524
 7042SOL    HW132585   3.228   3.203   1.094 -0.8919  0.7396  1.0742
 7042SOL    HW232586   3.156   3.180   0.969 -1.2262 -1.0382  0.2055
 7043SOL     OW32587   1.229   1.751   7.307 -0.2883 -0.1708  0.6042
 7043SOL    HW132588   1.321   1.771   7.287 -1.4120  1.4865 -3.0187
 7043SOL    HW232589   1.189   1.773   7.223  1.7960  0.5087 -0.2192
 7044SOL     OW32590   2.426   2.055   4.090 -0.0628  0.3339  0.1228
 7044SOL    HW132591   2.381   2.128   4.132 -2.0981 -0.1935 -1.1387
 7044SOL    HW232592   2.364   2.016   4.028  1.4521 -0.4084 -0.9453
 7045SOL     OW32593   3.893   1.232   8.222  0.3445  0.5018  0.0589
 7045SOL    HW132594   3.828   1.284   8.268  0.3205 -1.9194  2.7920
 7045SOL    HW232595   3.839   1.157   8.196  0.3441  1.2697 -2.1535
 7046SOL     OW32596   4.647   1.722  16.696 -0.2058  0.0347 -0.1746
 7046SOL    HW132597   4.559   1.736  16.730  0.1649 -2.0911  1.6611
 7046SOL    HW232598   4.688   1.682  16.773 -0.6595 -3.0653 -1.5637
 7047SOL     OW32599   0.303   1.808  14.119 -0.5878  0.3138 -0.0723
 7047SOL    HW132600   0.275   1.871  14.053  1.6224  0.8538 -0.4838
 7047SOL    HW232601   0.295   1.726  14.069 -1.0233  0.7922 -0.7822
 7048SOL     OW32602   2.790   0.523  13.789  0.2439 -0.5521  0.0668
 7048SOL    HW132603   2.760   0.476  13.711  0.3962  0.8272 -0.8266
 7048SOL    HW232604   2.719   0.587  13.791  0.5279 -0.1980 -1.1949
 7049SOL     OW32605   1.342   3.218   0.148 -0.6555  0.1346  0.3272
 7049SOL    HW132606   1.369   3.206   0.239  0.2490  0.0428  0.0481
 7049SOL    HW232607   1.420   3.206   0.094 -0.0306  0.7502  1.0946
 7050SOL     OW32608   1.030   1.499   7.911  0.2217  0.9469 -0.2332
 7050SOL    HW132609   1.075   1.478   7.829  0.6911  1.4719 -0.1124
 7050SOL    HW232610   0.962   1.561   7.883 -1.9377 -0.3703  2.0989
 7051SOL     OW32611   0.850   3.119  14.507 -0.1094  0.0372  0.2972
 7051SOL    HW132612   0.945   3.131  14.498 -0.3130  0.7322 -0.9285
 7051SOL    HW232613   0.836   3.028  14.484  0.7757  0.3484 -1.4873
 7052SOL     OW32614   0.724   0.075   6.637  0.5349 -0.1291 -0.0523
 7052SOL    HW132615   0.706   0.030   6.720  2.6279 -1.5794 -0.3902
 7052SOL    HW232616   0.663   0.149   6.641  1.4586  0.6555 -0.5627
 7053SOL     OW32617   0.367   0.786   3.899 -0.5844  0.1476  0.3859
 7053SOL    HW132618   0.283   0.832   3.893 -1.5364 -1.7815 -1.2069
 7053SOL    HW232619   0.432   0.851   3.871  0.4611 -0.6800  0.9274
 7054SOL     OW32620   1.507   3.355   8.393  0.2560  0.5173  0.1499
 7054SOL    HW132621   1.454   3.279   8.417  2.9767 -1.2854  0.3026
 7054SOL    HW232622   1.593   3.335   8.428  0.3421 -1.5435 -1.3024
 7055SOL     OW32623   0.039   1.620   0.025  0.3312  0.5894 -0.2995
 7055SOL    HW132624   0.009   1.531   0.044 -1.3842  1.4054  0.7962
 7055SOL    HW232625   4.683   1.662  17.682 -0.5847  0.8139  2.0106
 7056SOL     OW32626   4.445   3.376   6.330  0.3147 -0.2402  0.1371
 7056SOL    HW132627   4.371   3.421   6.371  0.7323  0.0865  0.5383
 7056SOL    HW232628   4.403   3.293   6.309 -0.4096 -0.3678  2.1287
 7057SOL     OW32629   0.786   4.593  14.742  0.1234  0.2964  0.1587
 7057SOL    HW132630   0.694   4.591  14.719  0.6247  1.9190 -1.9726
 7057SOL    HW232631   0.819   4.678  14.711  0.9873  0.2153  0.8413
 7058SOL     OW32632   3.485   4.703   5.519 -0.6592 -0.2025 -0.4532
 7058SOL    HW132633   3.465   4.625   5.571  2.1232 -0.1464  0.6663
 7058SOL    HW232634   3.449   0.044   5.582 -0.0849 -0.2453 -0.0813
 7059SOL     OW32635   2.284   1.146   9.204  0.0799 -0.7616 -0.0254
 7059SOL    HW132636   2.327   1.134   9.119  1.9423 -1.1438  0.9577
 7059SOL    HW232637   2.195   1.119   9.186  0.6995 -3.1222  0.5056
 7060SOL     OW32638   3.277   1.225  16.997 -0.0009 -0.4229  0.7250
 7060SOL    HW132639   3.233   1.157  16.946 -0.3438 -0.5402  1.1715
 7060SOL    HW232640   3.283   1.194  17.087  0.2687 -2.9303 -0.1513
 7061SOL     OW32641   2.677   0.388  11.862 -0.1838 -0.1576  0.2541
 7061SOL    HW132642   2.674   0.300  11.899 -2.5033 -0.6131 -1.0197
 7061SOL    HW232643   2.601   0.385  11.804 -0.0902  1.1859  0.0478
 7062SOL     OW32644   0.681   2.330   3.223 -0.0375 -0.0905  1.0982
 7062SOL    HW132645   0.697   2.414   3.266 -1.6874  0.8356 -0.1010
 7062SOL    HW232646   0.773   2.303   3.222 -0.3147 -1.0647  2.1222
 7063SOL     OW32647   4.564   2.914   7.665 -0.3583 -0.2320 -0.5687
 7063SOL    HW132648   4.616   2.874   7.735 -1.0227  0.7031  0.4524
 7063SOL    HW232649   4.501   2.849   7.634  1.7296 -1.4999 -2.1127
 7064SOL     OW32650   4.335   0.262   2.030  0.2878 -1.2348  0.2011
 7064SOL    HW132651   4.365   0.251   1.940 -1.2484 -1.1605 -0.3083
 7064SOL    HW232652   4.402   0.217   2.082  2.2255 -0.5566 -1.7359
 7065SOL     OW32653   0.641   4.086   4.710 -0.2125 -0.4031  0.0437
 7065SOL    HW132654   0.618   4.098   4.802 -0.5441  3.0563 -0.5104
 7065SOL    HW232655   0.582   4.144   4.663  1.5065  1.3383  0.0218
 7066SOL     OW32656   3.155   3.266   3.408  0.0991  0.2070  0.0200
 7066SOL    HW132657   3.078   3.323   3.403 -0.7618 -0.8603  1.0073
 7066SOL    HW232658   3.228   3.323   3.385  0.7712  0.9409  3.9216
 7067SOL     OW32659   2.919   0.692   4.456  0.5196  0.1765 -0.1139
 7067SOL    HW132660   2.947   0.734   4.538 -0.5770 -1.0678  0.9044
 7067SOL    HW232661   2.908   0.767   4.398 -1.4558  1.1944  1.5725
 7068SOL     OW32662   0.391   2.405  12.242 -0.0153  0.4157 -0.1653
 7068SOL    HW132663   0.325   2.354  12.193 -1.6997  2.5226 -0.0763
 7068SOL    HW232664   0.445   2.438  12.170 -0.6507  2.7736  0.4377
 7069SOL     OW32665   1.370   4.708  15.406 -0.0741  0.1354 -0.2306
 7069SOL    HW132666   1.404   0.017  15.322  1.7496 -1.4038 -0.0600
 7069SOL    HW232667   1.317   4.636  15.372 -1.3581 -0.4120  2.9207
 7070SOL     OW32668   3.380   0.249   3.946  0.1268 -0.5290  0.2021
 7070SOL    HW132669   3.465   0.207   3.932  0.7145  0.9542 -0.7364
 7070SOL    HW232670   3.403   0.341   3.961  2.3638 -1.0734  0.0331
 7071SOL     OW32671   3.207   2.741   3.610  0.1060 -0.2926  0.1821
 7071SOL    HW132672   3.120   2.747   3.647  0.9583  3.1650  1.6000
 7071SOL    HW232673   3.192   2.764   3.518  1.0939  0.9948  0.3515
 7072SOL     OW32674   1.831   2.318   8.638 -0.3124 -0.3035  0.3205
 7072SOL    HW132675   1.801   2.405   8.664  1.1393  1.0147 -2.3680
 7072SOL    HW232676   1.837   2.283   8.727  2.5667  1.4687  0.8283
 7073SOL     OW32677   3.078   3.596   3.550 -0.2985 -0.5482 -0.5444
 7073SOL    HW132678   3.110   3.626   3.465 -1.5286  2.7718  0.1503
 7073SOL    HW232679   3.006   3.536   3.530 -1.0900  1.1161 -2.6625
 7074SOL     OW32680   1.924   1.322  13.208 -0.5744 -0.3785  0.2078
 7074SOL    HW132681   1.996   1.263  13.185 -1.4876 -2.3384  2.4092
 7074SOL    HW232682   1.889   1.270  13.279 -0.4002 -0.3038  0.3480
 7075SOL     OW32683   2.440   0.367  11.730  0.2801 -0.4024  0.3271
 7075SOL    HW132684   2.349   0.367  11.699 -0.7875 -1.1892  3.3865
 7075SOL    HW232685   2.490   0.352  11.650  2.5701  1.9874  1.3522
 7076SOL     OW32686   1.923   1.157   2.277  0.2276 -0.3816  0.1434
 7076SOL    HW132687   1.930   1.248   2.247  2.7213 -0.9050 -0.9033
 7076SOL    HW232688   2.001   1.112   2.243 -0.4361 -0.7126 -0.9393
 7077SOL     OW32689   0.643   3.489   0.934  0.0307  0.0991 -0.0315
 7077SOL    HW132690   0.579   3.452   0.994  1.7387 -1.6332  0.7076
 7077SOL    HW232691   0.588   3.538   0.872 -0.7180 -1.3331 -0.5032
 7078SOL     OW32692   1.567   0.871  15.340 -0.4923  0.8880 -0.2955
 7078SOL    HW132693   1.571   0.938  15.409 -0.1001  0.8280 -0.2559
 7078SOL    HW232694   1.612   0.797  15.382  1.4418  2.1181 -0.1787
 7079SOL     OW32695   1.897   0.170   8.583  0.4778  0.0670  0.3219
 7079SOL    HW132696   1.903   0.095   8.524  0.0128  0.2997 -0.0176
 7079SOL    HW232697   1.965   0.137   8.642 -0.0935  1.1668  1.5696
 7080SOL     OW32698   2.930   1.256   8.113 -0.1182  0.1461  0.3300
 7080SOL    HW132699   2.999   1.270   8.179  1.8588 -1.1271 -1.4611
 7080SOL    HW232700   2.902   1.166   8.130  0.5457  0.2355  1.9345
 7081SOL     OW32701   1.220   1.271   1.409 -0.0186  0.3092 -0.0583
 7081SOL    HW132702   1.164   1.347   1.393 -0.1091  0.2093 -0.2163
 7081SOL    HW232703   1.193   1.249   1.498  0.3117 -0.0328 -0.0439
 7082SOL     OW32704   1.382   4.009   9.282  0.2794  0.1602  0.4749
 7082SOL    HW132705   1.420   4.037   9.366 -3.3555 -1.2196  2.5902
 7082SOL    HW232706   1.443   3.942   9.249  0.1229  1.2130 -1.9380
 7083SOL     OW32707   2.364   3.566  15.780  0.2761 -0.2136  0.5327
 7083SOL    HW132708   2.283   3.598  15.819 -0.3790  0.4284 -1.3473
 7083SOL    HW232709   2.425   3.590  15.849  0.4282  0.1660  0.2656
 7084SOL     OW32710   2.535   0.872   4.862  0.1326  0.2461 -0.4175
 7084SOL    HW132711   2.578   0.790   4.838 -1.9635  0.1906 -3.9944
 7084SOL    HW232712   2.493   0.893   4.779 -2.2298  1.8358  1.1823
 7085SOL     OW32713   0.089   2.383   3.704  0.1345 -0.2121  0.0982
 7085SOL    HW132714   0.027   2.455   3.716  0.3203 -0.5947  3.4492
 7085SOL    HW232715   0.030   2.315   3.671 -1.9318  2.3823 -1.4738
 7086SOL     OW32716   3.894   1.046   3.698  0.9057  0.2482 -0.4750
 7086SOL    HW132717   3.967   1.061   3.639  0.0935  0.6842 -1.3537
 7086SOL    HW232718   3.821   1.015   3.644 -0.1055 -1.4351  1.8470
 7087SOL     OW32719   2.418   4.003   6.753  0.8474  0.6144  0.0371
 7087SOL    HW132720   2.342   3.954   6.722  0.7125  1.8603 -1.6279
 7087SOL    HW232721   2.397   4.040   6.839 -0.6066  0.6368 -0.3264
 7088SOL     OW32722   3.150   3.613  12.479  0.4939 -0.1193 -0.2827
 7088SOL    HW132723   3.222   3.586  12.422  2.0938  4.6394 -0.4531
 7088SOL    HW232724   3.128   3.697  12.439  0.7921 -0.1749 -0.5662
 7089SOL     OW32725   0.927   0.444  10.158  0.0029 -0.1462  0.3445
 7089SOL    HW132726   0.880   0.513  10.110  2.3712  1.5789  0.5015
 7089SOL    HW232727   1.005   0.435  10.103  0.7050  1.2347  1.1483
 7090SOL     OW32728   4.124   4.508   2.209  0.1048  0.2294 -0.2523
 7090SOL    HW132729   4.124   4.491   2.114 -2.3604 -0.9520 -0.0407
 7090SOL    HW232730   4.030   4.508   2.229  0.4532  0.8470  1.3714
 7091SOL     OW32731   1.009   4.408  13.845  0.0746 -0.5627  0.2856
 7091SOL    HW132732   0.914   4.401  13.849  0.1627 -0.4919  2.5141
 7091SOL    HW232733   1.040   4.319  13.857  1.7473  0.2281  1.8020
 7092SOL     OW32734   0.061   2.726   8.368  0.0828 -0.2658 -0.3424
 7092SOL    HW132735   4.708   2.735   8.427 -0.6533 -1.3625 -1.1250
 7092SOL    HW232736   0.115   2.804   8.385  0.1465 -0.0986 -1.3353
 7093SOL     OW32737   2.453   2.594   4.622 -0.3255 -0.1271 -0.3916
 7093SOL    HW132738   2.542   2.589   4.659 -0.3922  0.4025 -0.1643
 7093SOL    HW232739   2.464   2.664   4.558  0.0442  1.8156  1.8254
 7094SOL     OW32740   0.409   0.804  14.816 -0.7396 -0.7192 -0.1011
 7094SOL    HW132741   0.447   0.840  14.896  0.1267  1.7825 -1.6452
 7094SOL    HW232742   0.428   0.710  14.814  1.7011 -0.2575  1.5530
 7095SOL     OW32743   0.725   1.049   5.794  0.1503 -0.1384 -0.0249
 7095SOL    HW132744   0.722   0.954   5.784 -0.0730 -0.1261 -0.0779
 7095SOL    HW232745   0.644   1.066   5.842  0.0743 -0.8710  0.1019
 7096SOL     OW32746   3.097   0.707   9.546  0.4239 -0.7305  0.3360
 7096SOL    HW132747   3.136   0.697   9.633  0.9070 -0.2407  0.1766
 7096SOL    HW232748   3.040   0.783   9.559  0.8742 -0.0841 -1.4820
 7097SOL     OW32749   4.361   4.528  15.590 -0.2860 -0.0435 -0.2627
 7097SOL    HW132750   4.383   4.617  15.617  0.0104 -0.1659 -0.0965
 7097SOL    HW232751   4.328   4.543  15.501  0.8659 -0.5923 -0.7945
 7098SOL     OW32752   0.977   3.068   8.544  0.4970  0.3700  0.0270
 7098SOL    HW132753   0.978   2.984   8.497  1.2584  0.8375 -0.7849
 7098SOL    HW232754   0.986   3.139   8.481 -0.2864  1.5954  1.3016
 7099SOL     OW32755   1.862   0.543   6.396  0.3608  0.1937  0.0653
 7099SOL    HW132756   1.831   0.564   6.484  1.1488 -2.2679  0.9342
 7099SOL    HW232757   1.799   0.590   6.341 -1.0071  1.4397  2.6569
 7100SOL     OW32758   0.025   4.126  10.458  0.6748  0.0900  0.4361
 7100SOL    HW132759   4.664   4.083  10.444  2.3751 -3.3020  0.6697
 7100SOL    HW232760   0.004   4.206  10.410  1.8417  0.8628  1.1998
 7101SOL     OW32761   4.300   1.368   3.725  0.4294 -0.4679 -0.0231
 7101SOL    HW132762   4.354   1.335   3.797  0.8337 -0.3757 -0.2826
 7101SOL    HW232763   4.317   1.321   3.643  0.8514 -0.2935 -0.0377
 7102SOL     OW32764   4.500   2.924   6.790  0.1957  0.3604  0.2987
 7102SOL    HW132765   4.491   2.993   6.856  0.3907 -0.3348  1.0652
 7102SOL    HW232766   4.592   2.932   6.765 -0.2258  0.7658 -1.1195
 7103SOL     OW32767   4.593   3.190   2.240  0.1898 -0.3321  0.3140
 7103SOL    HW132768   4.564   3.250   2.309 -0.5857 -1.3436  0.8549
 7103SOL    HW232769   4.580   3.108   2.287 -1.3515  0.7050  1.6805
 7104SOL     OW32770   1.820   0.663   0.969 -0.3194 -0.4523 -0.6711
 7104SOL    HW132771   1.911   0.645   0.946 -0.5598 -1.0755 -1.1446
 7104SOL    HW232772   1.835   0.698   1.057 -0.4794  0.5591 -1.0471
 7105SOL     OW32773   1.116   1.889   3.753 -0.4854 -0.2173 -0.1220
 7105SOL    HW132774   1.171   1.932   3.819  1.4823 -0.3648 -1.6737
 7105SOL    HW232775   1.105   1.799   3.784  1.3226 -0.4630 -0.1916
 7106SOL     OW32776   3.845   0.113  16.765 -0.5094  0.1003 -0.8034
 7106SOL    HW132777   3.805   0.162  16.836  0.5165  1.7348 -1.3444
 7106SOL    HW232778   3.903   0.179  16.726  0.0712  0.4935  0.7247
 7107SOL     OW32779   4.174   1.081   5.654  0.0137  0.1872  0.1664
 7107SOL    HW132780   4.211   1.121   5.733 -1.0823  0.5876  0.4779
 7107SOL    HW232781   4.210   1.135   5.583  0.8907 -1.6933 -0.8162
 7108SOL     OW32782   0.911   4.561  12.304 -0.4777  0.1737 -0.3935
 7108SOL    HW132783   0.962   4.595  12.232 -3.1285  0.0160 -2.3637
 7108SOL    HW232784   0.901   4.638  12.360 -0.5249 -0.9659  1.1617
 7109SOL     OW32785   1.847   4.360   4.907 -0.0708 -0.3194  0.2914
 7109SOL    HW132786   1.915   4.306   4.865 -2.2496 -0.2259 -3.3821
 7109SOL    HW232787   1.856   4.438   4.851  0.8976 -0.9617 -0.4492
 7110SOL     OW32788   2.772   2.775   6.561  0.1880  0.4404 -0.6870
 7110SOL    HW132789   2.768   2.867   6.586 -0.6577  0.0059  0.7776
 7110SOL    HW232790   2.788   2.785   6.467  1.4149 -2.5362 -0.8134
 7111SOL     OW32791   3.785   3.231   6.530 -0.2672  0.4453  0.1872
 7111SOL    HW132792   3.829   3.195   6.607  0.1156  1.3178  0.3759
 7111SOL    HW232793   3.828   3.194   6.453 -1.3913 -1.2750  0.3858
 7112SOL     OW32794   4.069   0.963   3.114  0.2697 -0.3156  0.0995
 7112SOL    HW132795   4.076   0.868   3.111  2.5613 -0.1535  0.6191
 7112SOL    HW232796   4.044   0.977   3.023 -0.1930 -1.9958 -0.0262
 7113SOL     OW32797   2.614   1.846   3.871  0.3621 -0.2242  0.6804
 7113SOL    HW132798   2.653   1.874   3.788 -0.6017  0.2082  0.3683
 7113SOL    HW232799   2.553   1.777   3.844  1.3370 -2.5448  4.5052
 7114SOL     OW32800   1.719   4.601   5.965 -0.3307  0.1501  0.3171
 7114SOL    HW132801   1.691   4.637   5.881  0.9208 -1.7937 -0.9256
 7114SOL    HW232802   1.779   4.534   5.933 -3.2316 -2.6435  0.6732
 7115SOL     OW32803   2.305   1.328   2.130  0.4179  0.2387  0.4042
 7115SOL    HW132804   2.248   1.372   2.193  0.1611  0.6933 -0.1477
 7115SOL    HW232805   2.282   1.369   2.047  2.0216 -3.4466 -1.8299
 7116SOL     OW32806   3.551   2.348  10.114 -0.0803 -1.1508 -0.5554
 7116SOL    HW132807   3.572   2.292  10.039  1.8519 -0.9299 -0.1969
 7116SOL    HW232808   3.496   2.418  10.080  0.3489 -0.5777 -0.0900
 7117SOL     OW32809   0.873   3.683   4.114  0.2223 -0.0914 -0.4177
 7117SOL    HW132810   0.887   3.684   4.019 -0.0461  1.3425 -0.4560
 7117SOL    HW232811   0.955   3.644   4.144  0.9274  3.1393  1.8784
 7118SOL     OW32812   2.311   4.382   6.065 -0.8880  0.4512  0.2773
 7118SOL    HW132813   2.325   4.357   6.157  1.8950 -0.6729 -0.4602
 7118SOL    HW232814   2.288   4.475   6.070 -0.8155  0.5393 -1.0954
 7119SOL     OW32815   4.143   4.137   4.364  0.5967 -0.5202 -0.6217
 7119SOL    HW132816   4.129   4.100   4.277  1.1065 -0.7814 -0.5914
 7119SOL    HW232817   4.107   4.071   4.423 -1.3874 -0.2268 -1.4817
 7120SOL     OW32818   2.872   2.180   6.003  0.5096 -0.7254  0.1129
 7120SOL    HW132819   2.867   2.243   6.075 -0.9685  0.9968 -1.5403
 7120SOL    HW232820   2.928   2.113   6.043  0.1935  0.0250  1.8232
 7121SOL     OW32821   4.168   2.882   7.538 -0.6898  0.4376  0.7672
 7121SOL    HW132822   4.252   2.910   7.500 -1.0944  0.0315 -0.4158
 7121SOL    HW232823   4.200   2.803   7.580  3.7791  0.6514 -2.2153
 7122SOL     OW32824   3.271   0.233   7.507 -0.8226  0.1274 -0.6177
 7122SOL    HW132825   3.343   0.179   7.541 -0.3355  0.0178 -1.8200
 7122SOL    HW232826   3.312   0.319   7.511 -0.1975 -0.1737 -0.5052
 7123SOL     OW32827   0.534   1.356   3.381 -0.2457 -0.0609 -0.1139
 7123SOL    HW132828   0.581   1.400   3.310 -0.1366  1.9933  1.2349
 7123SOL    HW232829   0.553   1.266   3.356  1.6877  0.8951 -2.1185
 7124SOL     OW32830   1.217   0.122   6.777  0.1807  0.4813 -0.0880
 7124SOL    HW132831   1.176   0.038   6.756  1.0311  0.4580 -1.6539
 7124SOL    HW232832   1.148   0.188   6.782 -0.6442 -0.5404  1.9276
 7125SOL     OW32833   2.376   3.996   5.648 -0.1116  0.3487 -0.4453
 7125SOL    HW132834   2.409   3.984   5.559  0.4886 -0.8380 -0.0567
 7125SOL    HW232835   2.431   4.058   5.697 -0.8647  0.2537  0.5155
 7126SOL     OW32836   0.233   1.542   2.933  0.6242  0.4561 -0.2030
 7126SOL    HW132837   0.156   1.587   2.898  1.6315  2.1290 -0.2738
 7126SOL    HW232838   0.303   1.602   2.908  1.0380 -1.1973 -3.1289
 7127SOL     OW32839   2.263   1.666   8.037 -0.1196 -0.1352  0.3007
 7127SOL    HW132840   2.352   1.640   8.059  0.4963  0.4936 -1.4658
 7127SOL    HW232841   2.275   1.722   7.960  1.4102 -0.7471  0.1110
 7128SOL     OW32842   3.407   3.496  12.805  0.1505  0.0627 -0.0556
 7128SOL    HW132843   3.478   3.465  12.749 -0.5475  1.1055 -1.4811
 7128SOL    HW232844   3.370   3.409  12.820 -0.0867 -0.0663 -1.4029
 7129SOL     OW32845   0.199   1.061   2.902  0.0644 -0.1537 -0.0549
 7129SOL    HW132846   0.105   1.042   2.912 -0.0281  0.2129 -0.2210
 7129SOL    HW232847   0.205   1.143   2.952 -1.2414  0.2884 -0.5939
 7130SOL     OW32848   2.647   2.330  11.382  0.7591 -0.2208 -0.6326
 7130SOL    HW132849   2.572   2.359  11.329 -0.6045 -2.0539  0.2723
 7130SOL    HW232850   2.642   2.381  11.464 -2.2736 -0.9399 -0.3610
 7131SOL     OW32851   3.276   0.200   6.652 -0.1641 -0.1113  0.3986
 7131SOL    HW132852   3.280   0.216   6.558 -0.3858 -1.1770  0.2056
 7131SOL    HW232853   3.239   0.113   6.665 -0.6949 -0.0865 -0.9265
 7132SOL     OW32854   0.815   1.547  15.409  0.3164 -0.1912  0.1384
 7132SOL    HW132855   0.867   1.494  15.348 -0.3031 -0.2874 -0.3080
 7132SOL    HW232856   0.862   1.536  15.491 -0.4285  0.1513  0.6127
 7133SOL     OW32857   3.329   3.086   1.446  0.1064 -0.3017 -0.4727
 7133SOL    HW132858   3.415   3.115   1.418  0.1190 -0.6560 -0.7970
 7133SOL    HW232859   3.278   3.166   1.433  0.1657 -0.2175 -0.1998
 7134SOL     OW32860   1.988   0.897  14.322  0.4362  0.0775 -0.3024
 7134SOL    HW132861   1.977   0.802  14.324 -1.6476  0.3187 -0.0287
 7134SOL    HW232862   2.070   0.912  14.368  1.4514 -0.8494 -1.8011
 7135SOL     OW32863   0.074   2.067   7.705 -0.1205  0.4881  0.2751
 7135SOL    HW132864   0.027   1.983   7.700  1.3974 -0.2915 -0.7080
 7135SOL    HW232865   0.068   2.093   7.613  2.0995  0.3922  0.1229
 7136SOL     OW32866   1.313   3.992   7.418  1.0198 -0.7230  0.0510
 7136SOL    HW132867   1.374   3.924   7.445 -1.7100 -1.6620  3.8989
 7136SOL    HW232868   1.265   3.999   7.501 -1.4540  0.6928 -1.4752
 7137SOL     OW32869   2.279   3.876  10.710 -0.2834 -0.5359 -0.9055
 7137SOL    HW132870   2.285   3.864  10.615  0.6500 -1.4952 -0.7214
 7137SOL    HW232871   2.337   3.812  10.750  0.8560  0.6940 -0.6107
 7138SOL     OW32872   3.678   4.611  12.265  0.2533  0.0471 -0.0084
 7138SOL    HW132873   3.637   4.629  12.180  1.1568  0.4020 -0.3602
 7138SOL    HW232874   3.686   4.517  12.248 -1.6489 -0.4084  1.5549
 7139SOL     OW32875   3.126   2.534   8.250 -0.2438  0.2206 -0.1739
 7139SOL    HW132876   3.081   2.453   8.276  2.1507 -0.4399  1.9376
 7139SOL    HW232877   3.217   2.515   8.272 -0.2598  0.1136 -0.1963
 7140SOL     OW32878   0.491   3.131   1.245  0.4624  0.3196 -0.2655
 7140SOL    HW132879   0.539   3.055   1.276 -2.0466 -1.0825  0.1720
 7140SOL    HW232880   0.415   3.088   1.206 -0.2108  0.4724  0.8811
 7141SOL     OW32881   2.293   3.362   0.075  0.2429  0.2687 -0.0630
 7141SOL    HW132882   2.352   3.436   0.062  0.4105  0.2682  0.7045
 7141SOL    HW232883   2.203   3.395   0.080 -0.2296 -0.7893 -1.5209
 7142SOL     OW32884   3.787   0.581  10.828 -0.2454 -0.4295 -0.1274
 7142SOL    HW132885   3.744   0.659  10.795 -0.6635 -0.6592 -0.1291
 7142SOL    HW232886   3.726   0.566  10.901  1.0213  0.9086  1.1860
 7143SOL     OW32887   2.448   1.429   6.814  0.0688  0.1497 -0.4805
 7143SOL    HW132888   2.396   1.350   6.796  1.7199 -0.8270 -1.0160
 7143SOL    HW232889   2.533   1.384   6.818 -0.2215 -0.2737  1.0200
 7144SOL     OW32890   0.071   1.000  12.256 -0.5133 -0.1521  0.2358
 7144SOL    HW132891   4.699   1.011  12.239 -0.0454  1.6229 -1.3166
 7144SOL    HW232892   0.094   0.924  12.203 -1.7270  0.8154 -1.7199
 7145SOL     OW32893   1.739   2.745   9.676 -0.1205 -0.1206 -0.8895
 7145SOL    HW132894   1.785   2.798   9.741  1.7507 -0.3851 -2.0192
 7145SOL    HW232895   1.646   2.756   9.695  0.0856 -1.7577  1.0198
 7146SOL     OW32896   4.452   0.314  14.257  0.4412 -0.2974 -0.7442
 7146SOL    HW132897   4.460   0.345  14.347  0.3431 -0.7702 -0.5714
 7146SOL    HW232898   4.454   0.219  14.268 -0.6380 -0.3098 -0.6362
 7147SOL     OW32899   2.377   3.951   1.692  0.0992  0.1163  0.8489
 7147SOL    HW132900   2.300   3.894   1.697 -0.0106  0.1953  0.1580
 7147SOL    HW232901   2.343   4.029   1.736 -1.8561 -0.7349  0.8659
 7148SOL     OW32902   1.084   2.356   7.287 -0.1432  0.0050 -0.4031
 7148SOL    HW132903   1.177   2.380   7.295 -0.2399  0.1591  0.2672
 7148SOL    HW232904   1.085   2.263   7.266 -3.3191  0.0009 -0.5827
 7149SOL     OW32905   0.166   1.878   2.051 -0.4743 -0.0964 -0.1413
 7149SOL    HW132906   0.125   1.813   1.995  3.8686 -3.0719  0.1474
 7149SOL    HW232907   0.178   1.949   1.988 -0.5240 -0.7857 -0.9240
 7150SOL     OW32908   1.023   0.131   8.743 -0.3807 -0.4680  0.3475
 7150SOL    HW132909   1.029   0.226   8.750  0.3389 -0.5963  1.4026
 7150SOL    HW232910   0.961   0.116   8.814 -0.8761  0.9671  0.2188
 7151SOL     OW32911   2.524   3.498   8.549 -0.2080 -0.1315 -0.6307
 7151SOL    HW132912   2.579   3.555   8.604  0.9788 -0.4397 -1.5246
 7151SOL    HW232913   2.497   3.567   8.488  0.9209 -0.4681 -1.5004
 7152SOL     OW32914   0.931   4.041  15.153  0.1603 -0.2347 -0.2698
 7152SOL    HW132915   1.011   4.033  15.204 -1.2602 -1.2633  1.7852
 7152SOL    HW232916   0.932   4.137  15.144 -1.0097 -0.1685  0.3195
 7153SOL     OW32917   1.953   3.718  10.751 -0.7288 -0.3156  0.5204
 7153SOL    HW132918   1.901   3.742  10.674 -0.1822  1.8398  0.8149
 7153SOL    HW232919   1.931   3.782  10.818  2.0085  0.8000  0.3565
 7154SOL     OW32920   3.265   4.618   6.238 -0.2391  0.2961  0.3539
 7154SOL    HW132921   3.242   4.675   6.165 -1.2568 -0.0611  0.3939
 7154SOL    HW232922   3.346   4.574   6.212 -2.1300 -2.4555 -0.9242
 7155SOL     OW32923   2.697   4.642  13.966  0.1531 -0.0766 -0.2733
 7155SOL    HW132924   2.656   4.599  13.891  1.5718 -1.1713 -0.4366
 7155SOL    HW232925   2.725   4.570  14.023  0.7811  0.4459  0.0729
 7156SOL     OW32926   4.636   1.295   7.274  0.8971 -0.2860 -0.0421
 7156SOL    HW132927   4.720   1.330   7.305 -0.1759  0.0083  2.5890
 7156SOL    HW232928   4.591   1.269   7.355 -3.2311  2.3052 -1.4776
 7157SOL     OW32929   4.635   0.870   5.289 -0.4313  0.3246 -0.3933
 7157SOL    HW132930   4.636   0.797   5.351  4.0908 -0.1479 -0.9809
 7157SOL    HW232931   0.006   0.893   5.285 -0.6088  1.4162  1.8709
 7158SOL     OW32932   2.777   1.596   3.955  0.4494  0.7224 -0.5384
 7158SOL    HW132933   2.832   1.649   4.013 -1.0935  2.3202 -0.5087
 7158SOL    HW232934   2.810   1.637   3.876 -2.0927  2.4726 -0.7059
 7159SOL     OW32935   2.991   4.233  11.067 -0.3022 -0.1915  0.0294
 7159SOL    HW132936   3.005   4.240  10.973  2.1740 -1.1550  0.3204
 7159SOL    HW232937   3.081   4.215  11.093 -0.2303 -0.5423 -0.4638
 7160SOL     OW32938   3.507   2.065   7.775  0.1845  0.7156  0.5443
 7160SOL    HW132939   3.427   2.098   7.736 -0.3957  1.2894  2.2279
 7160SOL    HW232940   3.546   2.140   7.820  1.8262  1.0884 -1.4838
 7161SOL     OW32941   1.841   3.487  11.671 -0.2352  0.5146 -0.3131
 7161SOL    HW132942   1.753   3.462  11.643 -0.4105 -1.1766  1.7585
 7161SOL    HW232943   1.885   3.495  11.586 -1.4321 -0.6143 -1.0315
 7162SOL     OW32944   2.618   3.983   5.106  0.5317 -0.0437 -0.1363
 7162SOL    HW132945   2.642   4.061   5.056  1.1944 -0.4182 -0.4008
 7162SOL    HW232946   2.678   3.992   5.179  1.3359 -0.2790 -0.7723
 7163SOL     OW32947   3.114   1.180  10.494  0.2464  0.2035  0.2507
 7163SOL    HW132948   3.112   1.275  10.481 -0.1620  0.4581  2.1359
 7163SOL    HW232949   3.160   1.170  10.578 -0.4513 -1.2593  0.4544
 7164SOL     OW32950   1.165   2.906   4.288 -0.6886 -0.0275 -0.5066
 7164SOL    HW132951   1.218   2.834   4.254 -0.0270 -1.1468  2.8092
 7164SOL    HW232952   1.084   2.892   4.239 -1.1896  0.3039  0.2242
 7165SOL     OW32953   0.555   1.002   4.132  0.2014  0.6137  0.0030
 7165SOL    HW132954   0.531   1.081   4.181  0.0915  0.8381 -0.4189
 7165SOL    HW232955   0.589   1.036   4.050  0.6029  0.7790  0.2367
 7166SOL     OW32956   0.239   0.551  14.534  0.5023 -0.0723  0.6645
 7166SOL    HW132957   0.302   0.506  14.478  1.2120 -0.8123  2.0757
 7166SOL    HW232958   0.291   0.555  14.614 -2.1385  2.6982  2.2609
 7167SOL     OW32959   1.419   2.515   3.260  0.0970  0.6697  0.0421
 7167SOL    HW132960   1.463   2.599   3.273 -0.0569  0.7879 -0.2011
 7167SOL    HW232961   1.468   2.482   3.185 -0.7580 -0.4244 -0.0371
 7168SOL     OW32962   1.471   0.685   2.494  0.4882 -0.0928  0.0904
 7168SOL    HW132963   1.521   0.659   2.417  1.1611  1.1449  0.1058
 7168SOL    HW232964   1.537   0.704   2.560 -0.3080 -0.3776  0.9643
 7169SOL     OW32965   0.391   3.074   5.558 -0.0219  0.1643  0.1658
 7169SOL    HW132966   0.389   3.169   5.551 -0.4630 -0.0219 -2.0339
 7169SOL    HW232967   0.435   3.053   5.475  0.5082  2.3025 -0.0845
 7170SOL     OW32968   4.298   2.673   2.139 -0.2916 -0.3162  0.4912
 7170SOL    HW132969   4.358   2.597   2.143 -0.3772 -0.4438 -0.7820
 7170SOL    HW232970   4.334   2.714   2.061  1.9812  0.1753  1.7808
 7171SOL     OW32971   0.737   4.181   3.074 -0.3771 -0.1500  0.4643
 7171SOL    HW132972   0.810   4.120   3.060  0.5117  1.1603 -0.5858
 7171SOL    HW232973   0.749   4.243   3.002  0.4971 -0.4126  0.3861
 7172SOL     OW32974   0.419   3.281  14.637 -0.0548 -0.1257  0.1597
 7172SOL    HW132975   0.390   3.297  14.726 -1.7913  0.5232 -0.5176
 7172SOL    HW232976   0.435   3.372  14.610 -1.1143  0.6929  2.2879
 7173SOL     OW32977   1.401   3.122   5.252  0.3811  0.1146 -0.0729
 7173SOL    HW132978   1.442   3.038   5.274 -0.4315 -0.1410  0.4710
 7173SOL    HW232979   1.313   3.107   5.287  0.4061 -0.6489 -0.3273
 7174SOL     OW32980   1.545   0.253   0.402 -0.4576 -0.0204 -0.0870
 7174SOL    HW132981   1.626   0.304   0.401  0.9686 -2.2969 -3.8449
 7174SOL    HW232982   1.479   0.320   0.421 -1.0974 -1.0375  1.2971
 7175SOL     OW32983   1.021   1.742   9.442  1.2386 -0.4982  0.4300
 7175SOL    HW132984   1.061   1.657   9.458  1.9499  0.1491  2.0830
 7175SOL    HW232985   1.103   1.780   9.410  1.8199 -0.0900  2.4286
 7176SOL     OW32986   3.411   0.495   9.336  0.6085 -0.1117  0.2538
 7176SOL    HW132987   3.418   0.447   9.418 -1.7295  1.0064  1.0965
 7176SOL    HW232988   3.478   0.564   9.343  0.0142  0.4863  0.0379
 7177SOL     OW32989   3.015   3.857  12.335  0.0112 -0.5915 -0.2985
 7177SOL    HW132990   3.074   3.866  12.260  1.5735  0.9169  1.0905
 7177SOL    HW232991   2.986   3.948  12.339 -1.0622 -0.9485  0.1333
 7178SOL     OW32992   3.254   2.507   4.785 -0.5091  0.2007  0.4184
 7178SOL    HW132993   3.333   2.539   4.743 -0.6621 -0.8304 -0.6484
 7178SOL    HW232994   3.266   2.554   4.867  1.5331  1.0364 -0.3748
 7179SOL     OW32995   0.918   2.839   6.583  0.0431  0.4931 -0.5362
 7179SOL    HW132996   0.869   2.857   6.503 -0.9210  0.8753  0.1405
 7179SOL    HW232997   0.910   2.743   6.584 -2.7941  0.7286  0.2121
 7180SOL     OW32998   3.616   0.593   1.287 -0.5943 -0.1448  0.2232
 7180SOL    HW132999   3.523   0.614   1.288  0.0668  2.7571  0.8846
 7180SOL    HW233000   3.605   0.500   1.302 -2.3448 -0.1042 -0.8381
 7181SOL     OW33001   1.119   1.282   9.770 -0.3934  0.0196 -0.2678
 7181SOL    HW133002   1.032   1.294   9.734 -1.1080 -0.7496  1.2047
 7181SOL    HW233003   1.172   1.265   9.692 -0.3574 -0.6699 -0.0911
 7182SOL     OW33004   0.436   1.077  12.415  0.1660  0.2930  0.8098
 7182SOL    HW133005   0.422   1.155  12.362 -0.4598  0.1327  0.7493
 7182SOL    HW233006   0.498   1.025  12.363 -0.3631  1.3228 -0.8223
 7183SOL     OW33007   0.225   3.912   3.418  0.2147  0.2905 -0.5551
 7183SOL    HW133008   0.274   3.931   3.498  1.5962 -1.3384 -1.0107
 7183SOL    HW233009   0.226   3.818   3.401  0.4488  0.3179 -0.6902
 7184SOL     OW33010   0.550   1.929   5.173  0.4271  0.1357 -0.0347
 7184SOL    HW133011   0.566   1.867   5.244 -1.9766 -2.4154 -1.7222
 7184SOL    HW233012   0.595   2.007   5.205  0.4521  1.3640 -3.0874
 7185SOL     OW33013   4.659   3.409   4.843 -0.4284  0.3107  0.1658
 7185SOL    HW133014   4.628   3.380   4.757  3.4020  0.1669 -1.1631
 7185SOL    HW233015   4.685   3.329   4.889  0.5763 -0.2576 -1.3686
 7186SOL     OW33016   1.247   0.195   5.701 -0.0127 -0.1178 -0.6670
 7186SOL    HW133017   1.197   0.250   5.762  1.9783  0.1147  0.7241
 7186SOL    HW233018   1.311   0.261   5.676 -2.5315  2.1115 -1.2948
 7187SOL     OW33019   1.744   3.146  11.791  0.2312 -0.0805  0.3981
 7187SOL    HW133020   1.708   3.235  11.791  0.9512  0.2041 -3.2187
 7187SOL    HW233021   1.836   3.171  11.792  0.4171 -0.7355 -0.1533
 7188SOL     OW33022   3.162   3.546   2.983 -0.8079 -0.7440  0.2130
 7188SOL    HW133023   3.104   3.503   2.919  0.5822 -0.3422 -1.3207
 7188SOL    HW233024   3.137   3.495   3.060  1.6052 -0.3871  1.2197
 7189SOL     OW33025   2.519   1.438  17.437  0.2276  0.5689 -0.2035
 7189SOL    HW133026   2.591   1.450  17.498  0.3707 -1.7691  0.0951
 7189SOL    HW233027   2.456   1.494  17.482  0.7232  1.1049 -0.1654
 7190SOL     OW33028   3.428   3.649  17.400  0.2204 -0.0249 -1.2325
 7190SOL    HW133029   3.345   3.648  17.352 -0.2226  0.8239 -0.4810
 7190SOL    HW233030   3.428   3.562  17.441 -0.1385  0.0658 -1.0338
 7191SOL     OW33031   4.045   3.452   7.055  0.5131 -0.0309 -0.0774
 7191SOL    HW133032   3.985   3.381   7.077 -0.0489  0.9683  1.6392
 7191SOL    HW233033   4.095   3.458   7.137  1.0521  2.0225 -0.5540
 7192SOL     OW33034   2.118   4.164  12.193  0.2910 -0.4331  0.1519
 7192SOL    HW133035   2.029   4.141  12.221  0.5817 -2.6218 -0.7249
 7192SOL    HW233036   2.109   4.183  12.100  1.6399  0.7557  0.2740
 7193SOL     OW33037   4.563   2.509   6.774  0.2453 -0.7264 -0.0029
 7193SOL    HW133038   4.625   2.577   6.746 -0.0583 -0.4310  0.0484
 7193SOL    HW233039   4.483   2.556   6.795  0.1058 -0.6065 -0.8208
 7194SOL     OW33040   3.071   1.152   6.999  0.0475  0.0909 -0.7805
 7194SOL    HW133041   3.163   1.142   6.974  0.1214  0.0999 -0.5109
 7194SOL    HW233042   3.088   1.232   7.048 -1.4060 -1.0325  1.5272
 7195SOL     OW33043   4.039   2.278   7.685  0.9122 -0.0179 -0.2484
 7195SOL    HW133044   3.945   2.265   7.682  1.3491 -3.0748 -1.5963
 7195SOL    HW233045   4.053   2.262   7.778  0.4926 -1.1531 -0.3814
 7196SOL     OW33046   0.488   3.072   6.572 -0.5755  0.1551  0.0749
 7196SOL    HW133047   0.528   3.010   6.633 -0.8845  0.4296  0.5630
 7196SOL    HW233048   0.526   3.047   6.488 -0.9728 -1.5246  0.3977
 7197SOL     OW33049   0.771   3.334   1.647  0.0784  0.3660 -0.2080
 7197SOL    HW133050   0.793   3.252   1.691 -0.3371  1.4476  2.0104
 7197SOL    HW233051   0.762   3.294   1.561  0.5755  0.9390 -0.5246
 7198SOL     OW33052   3.751   0.017   7.645  0.4567 -0.0592  0.0009
 7198SOL    HW133053   3.736   0.006   7.739 -3.3690  1.0043 -0.4614
 7198SOL    HW233054   3.803   0.098   7.647 -0.8914  0.8226 -0.1981
 7199SOL     OW33055   0.847   2.843   9.422 -0.2086  0.4807 -0.7959
 7199SOL    HW133056   0.926   2.816   9.376 -0.9577  0.2630 -1.9534
 7199SOL    HW233057   0.807   2.913   9.371 -1.0994  1.9562  1.9353
 7200SOL     OW33058   1.634   0.980   9.218  0.1506  0.1980  0.6863
 7200SOL    HW133059   1.566   0.925   9.257  0.8700 -2.3028 -1.5534
 7200SOL    HW233060   1.703   0.968   9.284  0.0716  1.3691  0.9786
 7201SOL     OW33061   4.483   0.447   7.941  0.2171 -0.0761  0.0503
 7201SOL    HW133062   4.476   0.374   7.879  2.4746 -0.3292  0.0858
 7201SOL    HW233063   4.546   0.411   8.003 -0.7577  0.3904  1.3250
 7202SOL     OW33064   3.302   4.143   4.095 -0.2863  0.6100  0.2321
 7202SOL    HW133065   3.327   4.050   4.092 -2.3454  0.1162 -1.0359
 7202SOL    HW233066   3.269   4.137   4.185 -1.9384  0.2198 -0.4088
 7203SOL     OW33067   0.154   4.273   1.998  0.3084  0.1220  0.1080
 7203SOL    HW133068   0.227   4.266   1.938  0.1911 -1.8666  0.1778
 7203SOL    HW233069   0.198   4.242   2.078  0.1681 -1.2795 -0.3530
 7204SOL     OW33070   3.667   3.819   5.490  0.1963  0.5548 -0.0512
 7204SOL    HW133071   3.694   3.813   5.581 -0.6131 -0.6047  0.1119
 7204SOL    HW233072   3.683   3.913   5.479  0.9299  0.3920 -0.4097
 7205SOL     OW33073   3.254   0.489  16.047 -0.1756  0.3733  0.7550
 7205SOL    HW133074   3.299   0.421  15.997 -0.4145 -1.0150  2.3914
 7205SOL    HW233075   3.312   0.496  16.123 -1.1842  1.4903  1.4235
 7206SOL     OW33076   3.921   2.347   2.226  0.3360  0.3096 -0.0211
 7206SOL    HW133077   4.011   2.344   2.258  0.5789  1.2024 -0.6252
 7206SOL    HW233078   3.925   2.297   2.144  1.4116 -0.7823  0.6856
 7207SOL     OW33079   1.985   2.891   8.073 -0.0577  0.5972  0.1235
 7207SOL    HW133080   1.925   2.827   8.036 -0.6953  1.3787 -0.1998
 7207SOL    HW233081   1.925   2.965   8.083 -0.9500 -0.2396  0.9862
 7208SOL     OW33082   3.265   4.435   5.949 -0.1321 -0.5445 -0.0987
 7208SOL    HW133083   3.205   4.410   6.019 -0.5518 -1.4561 -0.7939
 7208SOL    HW233084   3.285   4.347   5.918 -0.7171 -0.5683 -0.4125
 7209SOL     OW33085   0.441   1.018   2.605 -0.0938 -0.2551 -0.3252
 7209SOL    HW133086   0.426   1.104   2.646  2.4278  0.5362 -1.0827
 7209SOL    HW233087   0.422   1.039   2.514 -1.5032  0.6801  0.1826
 7210SOL     OW33088   2.526   2.462  14.653  0.4206 -0.7631  0.6173
 7210SOL    HW133089   2.447   2.512  14.673  1.0560  0.5867 -0.2220
 7210SOL    HW233090   2.487   2.377  14.632 -0.3295 -0.5481  1.1642
 7211SOL     OW33091   3.521   4.311   2.848 -0.2255 -0.0586  0.4117
 7211SOL    HW133092   3.455   4.323   2.916 -2.8239  0.7690 -2.2697
 7211SOL    HW233093   3.587   4.369   2.885  1.3551 -0.0778 -2.4257
 7212SOL     OW33094   2.874   0.117   3.123 -0.0688 -0.3995 -0.0208
 7212SOL    HW133095   2.965   0.092   3.143 -0.7713 -1.7157  1.5608
 7212SOL    HW233096   2.848   0.141   3.212  0.4099  0.2580 -0.0542
 7213SOL     OW33097   3.734   0.855  12.706 -0.5933  0.2158  0.3249
 7213SOL    HW133098   3.776   0.937  12.679  2.4401 -0.2597  3.5782
 7213SOL    HW233099   3.778   0.793  12.648  2.1672  1.2379  1.3318
 7214SOL     OW33100   0.684   2.481   0.511  0.2780 -0.2749 -0.1283
 7214SOL    HW133101   0.730   2.416   0.458  1.8488 -0.3698  1.3746
 7214SOL    HW233102   0.752   2.504   0.574  0.0134 -0.0418  0.0708
 7215SOL     OW33103   4.628   3.332   8.635  0.1295 -0.1345 -0.0553
 7215SOL    HW133104   4.582   3.402   8.587 -0.1826 -0.3451 -0.0634
 7215SOL    HW233105   4.641   3.371   8.721  0.9264  0.6652 -0.5339
 7216SOL     OW33106   3.932   1.077  16.451 -0.2875  0.1388 -0.6818
 7216SOL    HW133107   3.855   1.129  16.429  0.9533  1.7725 -1.1811
 7216SOL    HW233108   3.995   1.150  16.447  0.7853 -0.7773 -0.5209
 7217SOL     OW33109   0.608   0.973   7.574  0.0262  0.2087 -0.5098
 7217SOL    HW133110   0.542   0.905   7.567 -2.0556  2.3989 -2.1324
 7217SOL    HW233111   0.595   1.021   7.492  0.4332 -1.8980 -1.8053
 7218SOL     OW33112   2.867   1.739   6.319 -0.0558 -0.0056  0.2323
 7218SOL    HW133113   2.880   1.655   6.274 -0.1065 -0.3312  0.8293
 7218SOL    HW233114   2.785   1.772   6.284 -0.4930  0.6364  1.8577
 7219SOL     OW33115   0.642   4.164   2.101  0.0822  0.0057 -0.0755
 7219SOL    HW133116   0.727   4.140   2.138  0.7138  0.2891 -1.3462
 7219SOL    HW233117   0.597   4.081   2.109  3.5439 -2.0612 -2.0210
 7220SOL     OW33118   1.710   0.884   6.713 -0.4437 -0.4901  0.1025
 7220SOL    HW133119   1.655   0.814   6.677  1.6630 -1.8726 -0.4431
 7220SOL    HW233120   1.798   0.866   6.681  0.1540 -2.1410  2.7441
 7221SOL     OW33121   2.226   2.386  15.929  0.4524  0.3679  0.6219
 7221SOL    HW133122   2.240   2.384  15.835 -1.5939 -0.6106  0.3423
 7221SOL    HW233123   2.222   2.294  15.954  2.4719  0.1721  0.2003
 7222SOL     OW33124   2.432   4.569   4.179 -0.5436 -0.3093 -0.2315
 7222SOL    HW133125   2.420   4.477   4.156 -0.3839 -0.1465 -0.9808
 7222SOL    HW233126   2.509   4.592   4.127  2.1604 -0.6143  3.6182
 7223SOL     OW33127   0.057   1.630   8.954  0.2549  0.0529 -0.0526
 7223SOL    HW133128   0.118   1.661   9.022  1.2137 -0.9285 -0.4636
 7223SOL    HW233129   0.079   1.538   8.944  1.2129  0.1610  0.9742
 7224SOL     OW33130   3.349   0.273   6.404  0.1894 -0.0516  0.5211
 7224SOL    HW133131   3.344   0.279   6.308 -2.3637  0.7036  0.7249
 7224SOL    HW233132   3.438   0.308   6.413  0.4391 -0.8284  1.0419
 7225SOL     OW33133   1.869   1.940  16.908 -0.4500 -0.5253 -0.2204
 7225SOL    HW133134   1.905   1.906  16.990 -0.4626  1.7483  0.7345
 7225SOL    HW233135   1.843   1.861  16.861 -0.6166 -1.9138  2.2301
 7226SOL     OW33136   4.104   0.476   9.538 -0.0185 -0.6828  0.1820
 7226SOL    HW133137   4.058   0.421   9.474 -0.4519 -0.2156  0.0995
 7226SOL    HW233138   4.036   0.491   9.603  0.4595  2.6720 -0.1296
 7227SOL     OW33139   2.556   4.219   5.735  0.0446 -0.5490 -0.1741
 7227SOL    HW133140   2.528   4.255   5.651  0.2999 -2.3193 -1.0147
 7227SOL    HW233141   2.650   4.213   5.717  0.2748 -1.1931  1.2662
 7228SOL     OW33142   3.753   4.408   3.671 -0.5518  0.1669 -0.7174
 7228SOL    HW133143   3.810   4.364   3.734 -1.6110  0.8490  0.7216
 7228SOL    HW233144   3.807   4.397   3.593  0.1955 -0.2234 -0.1493
 7229SOL     OW33145   4.687   3.391   6.497 -0.0218 -0.2956  0.9641
 7229SOL    HW133146   4.639   3.384   6.579 -2.2179  1.4140 -0.1788
 7229SOL    HW233147   4.612   3.379   6.439  0.6881  0.4633 -0.1127
 7230SOL     OW33148   3.682   0.394  11.344  0.0881 -0.5685 -0.2973
 7230SOL    HW133149   3.616   0.382  11.411 -0.8322 -2.5506 -1.5550
 7230SOL    HW233150   3.742   0.323  11.367  0.4229  0.0792  0.8176
 7231SOL     OW33151   4.576   3.624   8.570  0.3214 -0.5545  0.1983
 7231SOL    HW133152   4.628   3.703   8.554 -0.5764 -0.0814 -0.3898
 7231SOL    HW233153   4.559   3.640   8.663 -0.2189 -0.6753  0.1170
 7232SOL     OW33154   2.474   1.898  11.628  0.5564  0.1885 -0.0156
 7232SOL    HW133155   2.385   1.932  11.624  1.3820  2.5131  1.2083
 7232SOL    HW233156   2.523   1.979  11.617 -1.9611  1.6986 -0.0449
 7233SOL     OW33157   4.186   2.414  17.144  0.0817 -0.4526  0.4683
 7233SOL    HW133158   4.185   2.509  17.157  1.2322 -0.6798  2.1974
 7233SOL    HW233159   4.109   2.404  17.088 -0.6599  1.3344  1.1705
 7234SOL     OW33160   0.886   0.125   4.029  0.2068  0.4357  0.6052
 7234SOL    HW133161   0.946   0.071   4.081  0.7925  0.7483  0.2523
 7234SOL    HW233162   0.914   0.102   3.941  0.0867 -1.3287  1.0185
 7235SOL     OW33163   0.067   1.053  13.072  0.8033 -0.0427  0.6958
 7235SOL    HW133164   0.096   1.123  13.014  1.3289  0.9731  2.1893
 7235SOL    HW233165   0.145   1.047  13.128  0.0133 -1.7484  1.6275
 7236SOL     OW33166   0.419   2.731   2.972  0.2469  0.3317 -0.2089
 7236SOL    HW133167   0.384   2.648   2.939 -1.1959  0.9415 -0.1785
 7236SOL    HW233168   0.392   2.792   2.903 -3.2084 -1.3735 -0.3447
 7237SOL     OW33169   2.894   1.858   7.918 -0.4027  0.3189 -0.4872
 7237SOL    HW133170   2.964   1.896   7.972 -0.1169 -1.2798  0.2472
 7237SOL    HW233171   2.859   1.942   7.889 -0.6673 -0.2578 -1.8102
 7238SOL     OW33172   2.089   2.470   2.071 -0.0247  0.4363 -0.2920
 7238SOL    HW133173   2.072   2.385   2.112 -1.2243  0.3798 -0.9142
 7238SOL    HW233174   2.028   2.475   1.997  0.4176 -0.8651 -0.7439
 7239SOL     OW33175   2.979   0.507  14.987 -0.0980  0.5508 -0.5540
 7239SOL    HW133176   3.033   0.582  14.962 -0.7157  1.5268  1.0285
 7239SOL    HW233177   2.959   0.482  14.897 -0.2913 -1.3076  0.0204
 7240SOL     OW33178   4.015   3.925   1.524  0.0078 -0.3208  0.1815
 7240SOL    HW133179   4.104   3.948   1.551 -0.0474 -1.8956  1.7220
 7240SOL    HW233180   3.975   3.896   1.606 -1.7393  2.7539  0.4304
 7241SOL     OW33181   2.007   2.350   4.946 -0.0588  0.1535 -0.0081
 7241SOL    HW133182   1.920   2.386   4.928 -0.0350 -0.6294 -1.6907
 7241SOL    HW233183   2.021   2.302   4.864  1.2718 -1.4625  1.1860
 7242SOL     OW33184   2.034   2.739   3.111 -0.1497 -0.4863  0.3454
 7242SOL    HW133185   2.077   2.823   3.129 -0.7413 -0.1530  0.2012
 7242SOL    HW233186   2.082   2.689   3.177  1.6597  0.1777 -0.4711
 7243SOL     OW33187   4.351   4.423  10.548 -0.8985 -0.0803 -0.7091
 7243SOL    HW133188   4.438   4.397  10.579 -1.6309 -0.5461  0.9640
 7243SOL    HW233189   4.306   4.449  10.629 -0.8892 -2.3792  0.0495
 7244SOL     OW33190   1.549   2.390   8.449 -0.0201 -0.3989  0.0950
 7244SOL    HW133191   1.482   2.430   8.393  0.0609  2.2301  1.8909
 7244SOL    HW233192   1.595   2.468   8.480  2.5085 -2.2316  0.9326
 7245SOL     OW33193   4.148   2.665  13.641 -1.0279  0.2766 -0.4306
 7245SOL    HW133194   4.065   2.628  13.671 -0.9213 -0.6441 -1.2795
 7245SOL    HW233195   4.200   2.585  13.640 -2.4425 -0.6419 -1.5554
 7246SOL     OW33196   1.512   4.459   0.299 -0.3069  0.3851  0.1269
 7246SOL    HW133197   1.464   4.541   0.296 -2.1224 -0.6739  0.4224
 7246SOL    HW233198   1.591   4.483   0.348 -0.9958  1.0258  0.9319
 7247SOL     OW33199   1.340   2.641   3.750  0.0691 -0.1411  0.0559
 7247SOL    HW133200   1.383   2.593   3.679  0.6058  3.3987 -2.0015
 7247SOL    HW233201   1.250   2.613   3.734  0.2406  0.2280 -1.5360
 7248SOL     OW33202   2.821   0.328  13.071  0.1314 -0.2956  0.3241
 7248SOL    HW133203   2.820   0.310  13.165 -0.2048 -0.6129  0.2598
 7248SOL    HW233204   2.734   0.362  13.049  1.3204 -0.0061 -4.0076
 7249SOL     OW33205   1.051   2.175  13.424 -0.3842 -0.4626 -0.0000
 7249SOL    HW133206   0.998   2.152  13.501 -0.7511  0.9959  0.1737
 7249SOL    HW233207   0.993   2.229  13.371 -1.8327 -2.7251 -0.7305
 7250SOL     OW33208   1.301   1.427   6.454  0.5682  0.1746 -0.0685
 7250SOL    HW133209   1.272   1.465   6.537 -1.9992 -1.4706 -0.2115
 7250SOL    HW233210   1.270   1.492   6.390  0.2619 -0.0470 -0.1442
 7251SOL     OW33211   2.603   0.410   7.033 -0.3995  0.3032 -0.5418
 7251SOL    HW133212   2.593   0.382   7.124 -1.4385  0.7886 -0.4985
 7251SOL    HW233213   2.561   0.496   7.029  1.8466  1.5683  3.2758
 7252SOL     OW33214   4.384   3.123  12.156 -0.1767 -0.7042 -0.0214
 7252SOL    HW133215   4.421   3.035  12.145  1.7524 -0.0450  1.1321
 7252SOL    HW233216   4.420   3.149  12.240 -1.2415 -1.6183  0.7139
 7253SOL     OW33217   1.175   2.107   6.069 -0.6692 -0.7715 -0.1049
 7253SOL    HW133218   1.225   2.188   6.069 -1.0081 -0.5655  1.4538
 7253SOL    HW233219   1.223   2.068   6.143 -1.7275  1.6565  1.8514
 7254SOL     OW33220   2.529   3.740   9.093  0.4600  0.0886  0.2417
 7254SOL    HW133221   2.565   3.803   9.156  1.9872 -0.3724 -0.1671
 7254SOL    HW233222   2.495   3.800   9.027 -0.2293  1.3769  1.7612
 7255SOL     OW33223   1.439   3.311   1.428 -0.4557  0.0976 -0.0293
 7255SOL    HW133224   1.385   3.339   1.354  1.1267  0.1876 -1.1708
 7255SOL    HW233225   1.514   3.272   1.382 -1.4140  0.4159 -1.8460
 7256SOL     OW33226   3.399   3.089   8.136  0.2728  0.2284  0.4224
 7256SOL    HW133227   3.396   3.183   8.153 -0.3211  0.1847  0.5757
 7256SOL    HW233228   3.473   3.053   8.184 -0.5322  0.2419  1.6577
 7257SOL     OW33229   0.368   4.030  10.014 -0.6637  0.2172 -0.0212
 7257SOL    HW133230   0.361   3.943  10.053  1.5279  0.0934  0.0840
 7257SOL    HW233231   0.339   4.079  10.092 -3.6773  1.0319 -1.6558
 7258SOL     OW33232   0.069   2.319   5.949 -0.1693  0.2425  0.0029
 7258SOL    HW133233   0.007   2.246   5.942  1.5173 -1.1378 -0.5991
 7258SOL    HW233234   0.153   2.275   5.961 -0.4305 -0.9376 -2.2648
 7259SOL     OW33235   2.939   3.548   1.377 -0.3723  1.0136 -0.3759
 7259SOL    HW133236   3.017   3.593   1.345 -0.1028 -0.3979 -1.7304
 7259SOL    HW233237   2.972   3.459   1.387  0.0753  1.1344 -0.7606
 7260SOL     OW33238   3.494   4.323   2.268  0.3541 -0.0607  0.5244
 7260SOL    HW133239   3.537   4.295   2.349  0.8757 -1.8953 -0.3681
 7260SOL    HW233240   3.494   4.235   2.229  0.8523 -0.2974  1.0565
 7261SOL     OW33241   1.811   0.411  17.249 -0.3925 -0.0891  0.3214
 7261SOL    HW133242   1.879   0.418  17.317  0.7491  0.4485 -0.8853
 7261SOL    HW233243   1.827   0.491  17.199  1.7023  0.4193  1.7779
 7262SOL     OW33244   1.935   3.140   4.032 -0.3258 -0.4093 -0.2696
 7262SOL    HW133245   1.858   3.162   3.979 -2.8059  1.7428  4.2381
 7262SOL    HW233246   1.969   3.061   3.991 -0.5491  0.8408 -2.8877
 7263SOL     OW33247   2.030   3.855   7.393  0.2907 -0.0602 -0.0676
 7263SOL    HW133248   2.077   3.925   7.347 -0.5661  1.4740  1.4070
 7263SOL    HW233249   2.059   3.774   7.351  0.1472 -0.7648  1.2045
 7264SOL     OW33250   1.644   0.457   8.919 -0.4616  0.1134  0.3531
 7264SOL    HW133251   1.609   0.368   8.928 -0.7904  0.3191  1.1664
 7264SOL    HW233252   1.576   0.522   8.901  0.5635  0.2666 -2.9609
 7265SOL     OW33253   3.462   1.135  14.884 -0.0460 -0.2055 -0.3284
 7265SOL    HW133254   3.557   1.123  14.892 -0.2058 -0.1862  1.5078
 7265SOL    HW233255   3.429   1.045  14.884  1.2052 -0.6650  0.6714
 7266SOL     OW33256   2.684   4.540   8.887  0.6791 -0.2438  0.5241
 7266SOL    HW133257   2.604   4.588   8.905  0.2776 -0.9569  0.6623
 7266SOL    HW233258   2.740   4.612   8.858  1.4185 -0.1994  2.0601
 7267SOL     OW33259   1.190   1.236  14.276 -0.3275 -0.4226  1.0323
 7267SOL    HW133260   1.283   1.253  14.294 -0.4523  0.7950  0.4918
 7267SOL    HW233261   1.195   1.194  14.191  1.1827 -0.5500  1.1738
 7268SOL     OW33262   3.420   3.241  11.018  0.0346  0.6827  0.1903
 7268SOL    HW133263   3.420   3.200  10.931  3.6031  2.7102 -0.7405
 7268SOL    HW233264   3.509   3.220  11.045 -0.2291  1.1657  1.4150
 7269SOL     OW33265   1.046   1.754   2.270  0.4064  0.2743  0.5086
 7269SOL    HW133266   0.964   1.803   2.281 -0.9172 -2.6675  3.7103
 7269SOL    HW233267   1.099   1.829   2.296 -0.6940  0.4230  2.3139
 7270SOL     OW33268   4.657   1.604  11.513  0.4593 -0.1224  0.2629
 7270SOL    HW133269   4.632   1.623  11.604 -0.0388 -0.4140  0.1874
 7270SOL    HW233270   4.681   1.512  11.522  0.1767  0.1526  3.8267
 7271SOL     OW33271   4.246   2.191   5.087 -0.0494 -0.7122  0.0882
 7271SOL    HW133272   4.258   2.099   5.109  2.3729 -0.5887 -0.6976
 7271SOL    HW233273   4.274   2.195   4.996 -1.6117  2.2310 -0.2494
 7272SOL     OW33274   3.727   4.512   8.874 -0.0558  0.2627  0.0812
 7272SOL    HW133275   3.666   4.576   8.911 -0.5377  0.8337 -1.6810
 7272SOL    HW233276   3.685   4.427   8.888  2.2522 -0.8341  0.3210
 7273SOL     OW33277   4.242   3.157  17.629  0.0591 -0.0309  0.3657
 7273SOL    HW133278   4.266   3.078  17.581  0.3261 -0.2909  0.9347
 7273SOL    HW233279   4.162   3.189  17.587 -0.7862 -0.8128  1.3729
 7274SOL     OW33280   4.474   2.812   4.300 -0.3036  0.2232 -0.0941
 7274SOL    HW133281   4.454   2.729   4.256 -0.4548 -0.7175  1.7848
 7274SOL    HW233282   4.474   2.792   4.393  1.9203  1.2564  0.1205
 7275SOL     OW33283   3.508   3.746   5.051  0.0190  0.2587  0.1186
 7275SOL    HW133284   3.578   3.752   5.117  0.4809 -0.6069 -0.2934
 7275SOL    HW233285   3.474   3.661   5.076  3.3300 -0.9064  0.7481
 7276SOL     OW33286   3.953   3.844  14.858  0.6469  0.1495  0.6989
 7276SOL    HW133287   3.936   3.751  14.876  0.6012 -0.5222 -2.6564
 7276SOL    HW233288   4.048   3.838  14.858  0.6382 -0.1840 -0.9456
 7277SOL     OW33289   2.117   1.345   8.915 -0.1298  0.1364 -0.1854
 7277SOL    HW133290   2.167   1.426   8.907 -1.4760  1.1224  1.3523
 7277SOL    HW233291   2.171   1.292   8.856  1.2875 -0.1262  1.3451
 7278SOL     OW33292   2.818   0.782   0.850  0.1100 -0.1616 -0.1919
 7278SOL    HW133293   2.804   0.760   0.942 -0.6395  1.0771 -0.0043
 7278SOL    HW233294   2.730   0.807   0.823  0.1148 -1.9148 -1.8083
 7279SOL     OW33295   3.394   0.695   4.206  0.3194 -0.7594 -0.5965
 7279SOL    HW133296   3.375   0.679   4.299 -2.1638 -0.5018 -1.0633
 7279SOL    HW233297   3.382   0.608   4.169 -0.5795 -0.6701 -0.5101
 7280SOL     OW33298   1.896   1.800   5.473  0.8793  0.2392  0.4820
 7280SOL    HW133299   1.808   1.806   5.434  1.1901  1.6195  0.0060
 7280SOL    HW233300   1.945   1.877   5.444  0.4616  0.8316  1.3543
 7281SOL     OW33301   0.275   3.908   7.455 -0.0582 -0.0959 -0.0615
 7281SOL    HW133302   0.229   3.824   7.464 -0.0174 -0.0854  0.2246
 7281SOL    HW233303   0.284   3.935   7.546  1.1502 -0.1707 -0.1530
 7282SOL     OW33304   3.653   0.268  13.199 -0.1618  0.0509  0.3924
 7282SOL    HW133305   3.648   0.188  13.147  0.2973  0.1562  0.1893
 7282SOL    HW233306   3.578   0.249  13.255  0.9759 -0.7942  1.6328
 7283SOL     OW33307   1.954   4.187   2.590  0.2297  0.5083  1.0031
 7283SOL    HW133308   1.937   4.095   2.609 -0.7290  0.5731  0.4633
 7283SOL    HW233309   1.882   4.197   2.527  0.8951  1.2234  0.3593
 7284SOL     OW33310   2.008   2.248   9.017  0.0207 -0.8753 -0.3774
 7284SOL    HW133311   2.034   2.312   8.951  1.9321  0.7857  1.9842
 7284SOL    HW233312   1.923   2.220   8.982 -0.5299  0.0633  0.2080
 7285SOL     OW33313   2.057   0.934   0.797  0.4493  0.1303 -0.0122
 7285SOL    HW133314   2.058   0.864   0.862 -1.2693  1.9904  1.9935
 7285SOL    HW233315   2.053   1.010   0.855 -2.5171 -0.3434  0.3961
 7286SOL     OW33316   2.584   0.725   2.770 -0.0716  0.0779  0.4004
 7286SOL    HW133317   2.502   0.681   2.791  1.0721 -2.0271  0.4179
 7286SOL    HW233318   2.557   0.812   2.739 -0.7162 -0.6078 -0.9892
 7287SOL     OW33319   3.439   1.559  10.040  0.3603 -0.2469 -0.2807
 7287SOL    HW133320   3.435   1.648  10.076  0.9158 -0.5205  0.4461
 7287SOL    HW233321   3.534   1.549  10.040  0.2609 -1.1362  1.3749
 7288SOL     OW33322   1.834   0.808   4.468 -0.5011 -0.4201  0.1512
 7288SOL    HW133323   1.816   0.809   4.562  0.7596  0.4871  0.3688
 7288SOL    HW233324   1.885   0.728   4.455  0.7059  0.1980  1.1516
 7289SOL     OW33325   0.769   0.218   8.551  0.4577  0.6399  0.6606
 7289SOL    HW133326   0.822   0.139   8.544 -0.3830  0.2218 -1.0823
 7289SOL    HW233327   0.683   0.176   8.545  0.0914  1.4714  0.1207
 7290SOL     OW33328   3.968   2.634  11.803  0.4396 -0.2974  0.1917
 7290SOL    HW133329   3.921   2.629  11.719  0.7315 -1.6547  0.1044
 7290SOL    HW233330   4.048   2.668  11.763 -0.6199  1.1537 -0.7327
 7291SOL     OW33331   3.493   3.913   6.033  0.8793  0.6062 -0.1234
 7291SOL    HW133332   3.408   3.907   6.076  1.3615 -0.0103  0.7447
 7291SOL    HW233333   3.482   3.855   5.958  4.7527 -0.8229  0.4129
 7292SOL     OW33334   0.613   0.961   9.386 -0.7401  0.0193 -0.1122
 7292SOL    HW133335   0.559   0.918   9.452  0.1794  0.1265  0.7046
 7292SOL    HW233336   0.664   0.883   9.361 -1.2987 -0.7852  1.2537
 7293SOL     OW33337   3.474   0.781   8.291 -0.0397  0.6501 -0.0502
 7293SOL    HW133338   3.471   0.873   8.315 -0.1218  0.8944 -0.9994
 7293SOL    HW233339   3.497   0.741   8.375 -2.2252  1.1099  0.7538
 7294SOL     OW33340   3.678   3.447   3.973  0.3175  0.0738  0.2710
 7294SOL    HW133341   3.723   3.395   3.907  0.5460  0.6712 -0.0417
 7294SOL    HW233342   3.694   3.392   4.050 -1.7225  1.0941  1.4268
 7295SOL     OW33343   1.097   3.897   9.629 -0.4346 -0.5530 -0.2642
 7295SOL    HW133344   1.069   3.887   9.538 -0.3199 -0.6071 -0.2924
 7295SOL    HW233345   1.120   3.989   9.642  2.5829 -1.1570 -1.3416
 7296SOL     OW33346   1.067   1.622   5.210 -0.1034  0.1365 -0.1030
 7296SOL    HW133347   1.108   1.664   5.135 -0.0785 -0.3045 -0.3350
 7296SOL    HW233348   1.144   1.578   5.246  0.9569  1.4179 -0.8068
 7297SOL     OW33349   2.908   4.645   9.109 -0.0472 -0.9645 -0.0160
 7297SOL    HW133350   2.854   4.609   9.179 -1.4692 -0.6125 -0.9186
 7297SOL    HW233351   2.849   4.713   9.076 -0.2326 -0.5600  1.1758
 7298SOL     OW33352   4.130   4.575   8.130 -0.4255 -0.6115 -0.1011
 7298SOL    HW133353   4.216   4.579   8.171 -0.1082  0.1314 -0.8462
 7298SOL    HW233354   4.109   4.668   8.141  0.1971 -0.5489  0.5694
 7299SOL     OW33355   2.502   2.144  13.039 -0.2147  0.1549 -0.3157
 7299SOL    HW133356   2.511   2.053  13.069  0.0696  0.2014 -0.2605
 7299SOL    HW233357   2.415   2.149  12.999 -0.4320 -1.0885 -0.0225
 7300SOL     OW33358   4.615   2.215   4.243 -0.1906  0.3490 -0.3228
 7300SOL    HW133359   4.690   2.198   4.301 -0.5716  2.4396  0.7768
 7300SOL    HW233360   4.653   2.274   4.178 -0.2883  1.4490  0.6108
 7301SOL     OW33361   2.298   1.581   6.307  0.9903  0.3229 -0.1604
 7301SOL    HW133362   2.358   1.627   6.366 -1.6957  1.4955  1.6556
 7301SOL    HW233363   2.264   1.516   6.369  1.7712 -0.5318 -0.6158
 7302SOL     OW33364   2.490   2.894   4.529 -0.0410 -0.2066  0.0982
 7302SOL    HW133365   2.536   2.970   4.492 -0.1046  0.2673  0.9911
 7302SOL    HW233366   2.412   2.887   4.475  1.1109 -4.0890 -1.0518
 7303SOL     OW33367   4.162   1.490   9.582  0.0410  0.1935  0.5531
 7303SOL    HW133368   4.215   1.426   9.630 -3.3508 -2.5952  0.5818
 7303SOL    HW233369   4.074   1.453   9.594  0.4807 -0.9481  0.2604
 7304SOL     OW33370   3.218   2.742  13.337  0.2137 -0.0720  0.2019
 7304SOL    HW133371   3.249   2.723  13.249  0.5731  2.3624 -0.2073
 7304SOL    HW233372   3.155   2.670  13.344 -0.5098  0.6124  0.7090
 7305SOL     OW33373   1.911   4.209   6.700  0.1970  0.9186 -0.6684
 7305SOL    HW133374   1.888   4.122   6.666  2.9495 -0.4939  1.0401
 7305SOL    HW233375   1.829   4.240   6.739  1.3207 -0.8278  3.0765
 7306SOL     OW33376   0.445   1.169   6.214  0.4355 -0.1677  0.5809
 7306SOL    HW133377   0.518   1.223   6.243 -2.6537  2.8702  2.6037
 7306SOL    HW233378   0.390   1.182   6.291 -0.1975 -0.8432  0.2496
 7307SOL     OW33379   0.221   3.630   7.498  0.0788 -0.0064  0.0309
 7307SOL    HW133380   0.219   3.548   7.548  1.0701  0.6239  1.1092
 7307SOL    HW233381   0.209   3.600   7.408  0.1382 -0.5896  0.2134
 7308SOL     OW33382   1.433   3.536   1.616 -0.2143 -0.3483 -0.0991
 7308SOL    HW133383   1.447   3.453   1.572  0.4715  0.2702 -1.0688
 7308SOL    HW233384   1.403   3.501   1.699  0.7170 -1.9742 -0.4421
 7309SOL     OW33385   0.528   0.748   2.641 -0.0905 -0.1749 -0.0964
 7309SOL    HW133386   0.483   0.732   2.558 -1.3820  0.7352  0.4331
 7309SOL    HW233387   0.498   0.837   2.661  2.4980  0.9203 -1.0441
 7310SOL     OW33388   3.289   2.969   6.709 -0.1764  0.1464 -0.1816
 7310SOL    HW133389   3.243   3.006   6.784 -0.1951 -2.9005  1.3137
 7310SOL    HW233390   3.237   2.891   6.688 -0.8984  0.7456 -0.6167
 7311SOL     OW33391   1.245   3.117   4.100  0.3667 -0.2449  0.5474
 7311SOL    HW133392   1.160   3.137   4.062  0.9409 -1.3842 -1.3491
 7311SOL    HW233393   1.220   3.046   4.158  0.7133 -0.0203  0.9732
 7312SOL     OW33394   2.147   4.381   2.081 -0.1234  0.0176 -0.3591
 7312SOL    HW133395   2.238   4.355   2.092 -0.3531 -0.5493  0.2455
 7312SOL    HW233396   2.099   4.301   2.106 -0.1787 -0.0223 -0.5986
 7313SOL     OW33397   3.076   4.216   2.163  0.2947  0.0207 -0.0373
 7313SOL    HW133398   3.092   4.134   2.116 -3.2548 -1.8922  2.0642
 7313SOL    HW233399   3.137   4.271   2.115 -0.4092  1.4633  0.7113
 7314SOL     OW33400   3.388   4.482  14.493 -0.3818  0.2022  0.0881
 7314SOL    HW133401   3.325   4.504  14.561  0.0470 -0.4367  0.6909
 7314SOL    HW233402   3.347   4.432  14.423 -0.0367  0.0887 -0.0344
 7315SOL     OW33403   3.905   2.052  14.346  0.0837 -0.0958 -0.1337
 7315SOL    HW133404   3.834   2.116  14.352 -0.2281 -0.3530 -1.0050
 7315SOL    HW233405   3.968   2.104  14.295  0.5069  0.4520  0.9490
 7316SOL     OW33406   1.418   0.886   6.502 -0.2000  0.0112  0.3319
 7316SOL    HW133407   1.459   0.838   6.575 -0.4582  0.2457  0.6272
 7316SOL    HW233408   1.326   0.885   6.529 -1.1829  3.4690 -2.9849
 7317SOL     OW33409   1.384   3.960   2.155  0.2877 -0.1196  0.0115
 7317SOL    HW133410   1.364   3.917   2.072 -0.5601 -0.5032  0.4193
 7317SOL    HW233411   1.333   3.902   2.212 -1.6399  0.3945 -1.1708
 7318SOL     OW33412   2.322   2.991   2.047  0.0655  0.1188 -0.2712
 7318SOL    HW133413   2.378   2.996   2.125 -0.0040 -0.9844 -0.1577
 7318SOL    HW233414   2.329   2.902   2.012 -1.6096  0.1380 -0.6508
 7319SOL     OW33415   1.391   2.580   5.978 -0.0511  0.2423  0.1003
 7319SOL    HW133416   1.470   2.616   6.018  0.2163 -1.6515  1.2384
 7319SOL    HW233417   1.436   2.524   5.914  0.5369  0.3596  0.4189
 7320SOL     OW33418   4.653   3.530   5.956 -0.0972 -0.1141 -0.3850
 7320SOL    HW133419   0.006   3.560   5.905 -0.2298  0.7038 -0.0898
 7320SOL    HW233420   4.587   3.558   5.894  0.0919  1.9253  0.3399
 7321SOL     OW33421   4.120   4.068  17.013 -0.1470 -0.2827  0.0133
 7321SOL    HW133422   4.029   4.062  17.040 -0.2755  1.5295 -0.0100
 7321SOL    HW233423   4.110   4.070  16.917  1.6019 -3.2378 -0.2056
 7322SOL     OW33424   2.523   1.427   4.681 -0.6680 -0.1684 -0.0367
 7322SOL    HW133425   2.507   1.520   4.698 -1.0525  0.0152 -1.4065
 7322SOL    HW233426   2.522   1.391   4.769  1.2723  1.3861  0.6278
 7323SOL     OW33427   2.375   2.266   4.545  0.1186 -0.1172 -0.1503
 7323SOL    HW133428   2.402   2.179   4.575  1.9632 -0.2143 -2.0611
 7323SOL    HW233429   2.389   2.319   4.623  0.8077 -0.3713 -0.1023
 7324SOL     OW33430   1.195   2.078   3.962  0.1288  0.1872  0.5438
 7324SOL    HW133431   1.143   2.071   4.042 -1.7881 -0.6160 -0.7523
 7324SOL    HW233432   1.200   2.173   3.958 -1.4294  0.3103  1.1463
 7325SOL     OW33433   3.189   2.882   5.130  0.0740 -0.1653  0.7021
 7325SOL    HW133434   3.156   2.963   5.167 -0.2642 -0.6317  1.4335
 7325SOL    HW233435   3.122   2.820   5.161  0.6602 -2.6632 -3.0983
 7326SOL     OW33436   0.590   2.559   9.598 -0.0787  0.1798 -0.4162
 7326SOL    HW133437   0.566   2.497   9.667 -1.3664  1.5074  0.3249
 7326SOL    HW233438   0.509   2.609   9.608 -0.7872 -0.8221 -1.1561
 7327SOL     OW33439   2.934   0.632   7.679 -0.2777  0.1896  0.3761
 7327SOL    HW133440   3.000   0.645   7.612  1.0224 -0.7435  1.4728
 7327SOL    HW233441   2.869   0.695   7.648  0.8445  0.5707 -1.1752
 7328SOL     OW33442   3.367   1.095   2.375 -0.0863  0.0711 -0.0267
 7328SOL    HW133443   3.350   1.093   2.281 -0.6578 -1.1640  0.1113
 7328SOL    HW233444   3.454   1.057   2.382 -0.5391 -1.2258 -1.4859
 7329SOL     OW33445   4.057   2.356   3.124 -0.4235  0.3375  0.0832
 7329SOL    HW133446   4.142   2.312   3.115 -0.7880 -0.5844  1.3704
 7329SOL    HW233447   4.004   2.308   3.060  0.8279 -0.4983 -0.3437
 7330SOL     OW33448   2.347   3.471   4.508  0.2326 -0.0631 -0.1590
 7330SOL    HW133449   2.319   3.552   4.550  0.1959 -0.5752  0.7913
 7330SOL    HW233450   2.341   3.496   4.416  0.3121  0.0134 -0.1427
 7331SOL     OW33451   2.676   1.187   3.940  0.4230 -0.7172  0.4744
 7331SOL    HW133452   2.621   1.256   3.902  1.0783  0.2135  1.1982
 7331SOL    HW233453   2.705   1.136   3.865 -2.2884  1.3576 -1.9936
 7332SOL     OW33454   0.249   4.688   2.102  0.0176 -0.4492 -0.6573
 7332SOL    HW133455   0.250   0.011   2.186  0.5589 -0.7196 -0.5203
 7332SOL    HW233456   0.299   0.019   2.041  0.8093  1.1291  1.4057
 7333SOL     OW33457   2.503   2.552   5.340  0.0021 -0.7272 -0.1449
 7333SOL    HW133458   2.591   2.573   5.370 -0.9036  0.6297  1.5359
 7333SOL    HW233459   2.468   2.506   5.417 -0.5476  0.9836  0.6414
 7334SOL     OW33460   4.181   3.175  11.992  0.1396  1.0768 -0.1241
 7334SOL    HW133461   4.110   3.142  12.048  0.8438  0.1041  0.1952
 7334SOL    HW233462   4.262   3.175  12.044  1.0438 -1.3442 -1.5505
 7335SOL     OW33463   3.202   3.961   3.264 -0.4603 -0.3816 -0.3206
 7335SOL    HW133464   3.218   3.939   3.172  1.8739 -2.2770  0.5241
 7335SOL    HW233465   3.289   3.970   3.303 -0.0690 -3.3092 -0.4978
 7336SOL     OW33466   3.553   3.038   8.883  0.2562  0.1349  0.4412
 7336SOL    HW133467   3.644   3.020   8.906  0.4190  1.2553  0.7102
 7336SOL    HW233468   3.554   3.008   8.792  2.3654 -0.5056  0.6803
 7337SOL     OW33469   4.183   4.333   3.627 -0.2366  0.6393  0.1945
 7337SOL    HW133470   4.272   4.316   3.656  0.8349  1.2480 -2.8372
 7337SOL    HW233471   4.155   4.399   3.692 -0.4301 -1.6244  2.4321
 7338SOL     OW33472   2.316   0.833   7.776 -0.2724  0.5935  0.0238
 7338SOL    HW133473   2.268   0.916   7.770 -1.7850 -0.3201 -0.5506
 7338SOL    HW233474   2.345   0.852   7.865  1.2706 -0.8246 -0.1855
 7339SOL     OW33475   2.918   0.902  16.865 -0.0448 -0.0281 -0.1906
 7339SOL    HW133476   2.928   0.964  16.937 -0.2681 -0.4506  0.2048
 7339SOL    HW233477   2.841   0.944  16.827 -0.9050 -3.2113 -1.9887
 7340SOL     OW33478   4.615   2.044   9.074 -0.2626  0.4474 -0.2138
 7340SOL    HW133479   4.605   2.136   9.052  0.3236  1.0218  1.9424
 7340SOL    HW233480   4.542   2.030   9.134  0.8243 -2.1968  0.5099
 7341SOL     OW33481   0.504   1.861   9.852  0.3024 -0.0190  0.1488
 7341SOL    HW133482   0.529   1.866   9.760 -1.2769 -0.3458 -0.3011
 7341SOL    HW233483   0.582   1.900   9.891  0.6265  0.2543 -0.7665
 7342SOL     OW33484   2.998   3.724   6.406  0.0847 -0.2582  0.1783
 7342SOL    HW133485   2.949   3.777   6.468  1.2013 -0.1534  0.9795
 7342SOL    HW233486   3.087   3.741   6.439 -0.2319 -0.6135  1.2247
 7343SOL     OW33487   4.143   4.667   5.416 -0.7917 -0.0775 -0.2396
 7343SOL    HW133488   4.178   0.006   5.351 -1.2403 -0.0619 -0.4702
 7343SOL    HW233489   4.199   4.594   5.394 -0.8944 -0.0799 -0.4949
 7344SOL     OW33490   2.482   2.319   7.881  0.4999  0.1969  0.1050
 7344SOL    HW133491   2.426   2.258   7.927  0.2269  0.0463 -0.4276
 7344SOL    HW233492   2.443   2.402   7.910  2.0366  0.8022  0.4466
 7345SOL     OW33493   0.237   1.269   9.896 -0.3034 -0.7078  0.1589
 7345SOL    HW133494   0.203   1.206   9.959 -2.9277  0.8953  0.3287
 7345SOL    HW233495   0.249   1.222   9.813 -0.2212 -0.2114 -0.1088
 7346SOL     OW33496   2.280   1.309  12.626  0.4224 -0.4347  0.0432
 7346SOL    HW133497   2.256   1.400  12.646  0.2706 -0.9633  2.3371
 7346SOL    HW233498   2.228   1.265  12.694 -3.2103  1.0015 -1.7688
 7347SOL     OW33499   2.570   2.702   8.013 -0.2012  0.1479  0.1192
 7347SOL    HW133500   2.533   2.776   8.062 -0.0988  0.3274 -0.0741
 7347SOL    HW233501   2.495   2.657   7.973  1.3227 -0.5763 -1.9242
 7348SOL     OW33502   2.065   2.401  12.438 -0.1213 -0.2035  0.1467
 7348SOL    HW133503   2.113   2.456  12.499  2.6586 -2.3318 -0.1279
 7348SOL    HW233504   2.134   2.359  12.387  0.0448  0.5678 -0.2654
 7349SOL     OW33505   1.325   4.665   2.813  0.3851  0.2752  0.6569
 7349SOL    HW133506   1.253   4.605   2.793  2.1096 -1.6088  0.1840
 7349SOL    HW233507   1.301   4.679   2.904 -1.5377  2.0232 -0.0937
 7350SOL     OW33508   1.258   3.723   5.802 -0.1424 -0.7904 -0.0982
 7350SOL    HW133509   1.189   3.658   5.795  0.6734 -1.6878  0.2024
 7350SOL    HW233510   1.208   3.803   5.819 -0.4061 -0.5277 -2.1417
 7351SOL     OW33511   4.088   4.310   7.239  0.1666  0.3264 -0.3268
 7351SOL    HW133512   4.075   4.351   7.154 -0.2880  0.7923 -0.0326
 7351SOL    HW233513   4.036   4.373   7.289  1.9071  1.1271  0.5095
 7352SOL     OW33514   2.825   0.532  16.450  0.1617  0.5147  0.3346
 7352SOL    HW133515   2.780   0.587  16.513 -3.7759  0.5038 -2.4550
 7352SOL    HW233516   2.895   0.487  16.498  0.3226 -1.0121 -1.3135
 7353SOL     OW33517   3.695   3.483  14.750  0.2530  0.3479 -0.3093
 7353SOL    HW133518   3.639   3.560  14.750  1.3114  1.1245  0.5683
 7353SOL    HW233519   3.773   3.518  14.793 -0.4203  1.3142  0.1283
 7354SOL     OW33520   0.995   4.416   0.388 -0.1612  0.3146 -0.1286
 7354SOL    HW133521   1.054   4.385   0.457 -0.5123  1.8471  0.8665
 7354SOL    HW233522   1.045   4.425   0.307  1.1745 -0.3305  0.6322
 7355SOL     OW33523   3.756   1.597   3.857 -0.3318 -0.3168 -0.3158
 7355SOL    HW133524   3.790   1.522   3.808  0.1248  0.4428 -1.1718
 7355SOL    HW233525   3.747   1.559   3.944 -1.3440 -1.2778 -0.8393
 7356SOL     OW33526   2.436   4.356   8.156  0.2983  0.0412 -0.0795
 7356SOL    HW133527   2.482   4.394   8.081 -0.2098  0.3102 -0.2575
 7356SOL    HW233528   2.343   4.374   8.140  0.9174  2.2522 -1.1927
 7357SOL     OW33529   0.402   0.302   7.935 -0.5698 -0.0084  0.1654
 7357SOL    HW133530   0.473   0.337   7.989 -2.6447 -0.0708  2.9169
 7357SOL    HW233531   0.383   0.219   7.978  1.1076 -0.3785  0.1890
 7358SOL     OW33532   2.927   3.500  12.637  0.0332 -0.2039  0.4839
 7358SOL    HW133533   2.967   3.534  12.557 -1.8494  0.0989 -0.3184
 7358SOL    HW233534   2.983   3.546  12.699  0.1620  1.0527 -0.5625
 7359SOL     OW33535   4.117   2.345  11.770  0.5577  0.3713 -0.0758
 7359SOL    HW133536   4.197   2.346  11.823  0.0058 -0.7175  0.8012
 7359SOL    HW233537   4.142   2.417  11.713 -0.8859  0.6949 -0.2837
 7360SOL     OW33538   3.410   0.454   5.084  0.0724  0.4994 -0.0234
 7360SOL    HW133539   3.473   0.524   5.063  0.0974  1.1144  2.0867
 7360SOL    HW233540   3.333   0.478   5.032 -0.1256  0.4823  0.2631
 7361SOL     OW33541   0.354   2.671  15.291  0.3842  0.2950 -0.8998
 7361SOL    HW133542   0.326   2.759  15.265 -1.6614 -0.2329 -0.4870
 7361SOL    HW233543   0.406   2.696  15.367 -1.3577 -3.7231  1.5964
 7362SOL     OW33544   2.735   0.224   4.934  0.7107 -0.0617 -0.1716
 7362SOL    HW133545   2.662   0.181   4.977  0.5143 -0.5181 -0.9615
 7362SOL    HW233546   2.735   0.306   4.983 -0.3648 -0.3045  0.2247
 7363SOL     OW33547   1.220   4.397  10.701 -0.2247 -0.6703  0.5108
 7363SOL    HW133548   1.290   4.360  10.754  1.4793 -0.7517 -1.7646
 7363SOL    HW233549   1.221   4.322  10.641  0.7421  1.2345 -1.8857
 7364SOL     OW33550   2.777   0.657   6.670 -0.1554 -0.1112 -0.0728
 7364SOL    HW133551   2.861   0.624   6.703  0.4946  2.0733  0.4923
 7364SOL    HW233552   2.774   0.628   6.579 -1.5558 -0.0468 -0.0511
 7365SOL     OW33553   1.068   0.985   9.653 -0.6120 -0.4375 -0.0630
 7365SOL    HW133554   1.130   1.001   9.582 -0.5732  0.2943  0.1317
 7365SOL    HW233555   1.052   1.069   9.696  0.3240  0.9948 -2.5019
 7366SOL     OW33556   4.603   4.398  10.664  0.0710 -0.7011  0.4543
 7366SOL    HW133557   4.686   4.420  10.622 -1.0618  2.1846 -0.2682
 7366SOL    HW233558   4.588   4.484  10.702 -0.3213 -1.5470  2.1950
 7367SOL     OW33559   1.721   1.747   7.164 -0.3990 -0.1359 -0.5313
 7367SOL    HW133560   1.764   1.754   7.078  1.4731 -0.6462  0.3647
 7367SOL    HW233561   1.803   1.737   7.213 -0.6747 -0.2328 -0.1001
 7368SOL     OW33562   1.672   4.531   5.411  0.0871  0.0723  0.0893
 7368SOL    HW133563   1.727   4.527   5.333 -1.7446  0.7072 -1.2303
 7368SOL    HW233564   1.585   4.517   5.374  0.4611 -0.4626 -0.5920
 7369SOL     OW33565   1.728   2.868   1.319  0.0642 -0.6083  0.4985
 7369SOL    HW133566   1.813   2.903   1.292 -0.2908  0.1712  0.3939
 7369SOL    HW233567   1.699   2.824   1.239 -1.7422  0.6862  0.4380
 7370SOL     OW33568   3.214   3.324   4.243 -0.3056 -0.2238 -0.0987
 7370SOL    HW133569   3.265   3.282   4.173  1.5343  0.8071  0.6315
 7370SOL    HW233570   3.259   3.295   4.322  0.2265  0.5664 -0.1083
 7371SOL     OW33571   2.000   4.585  16.508  0.0339 -0.4299  0.2442
 7371SOL    HW133572   1.980   4.678  16.508 -0.0667 -0.4483  0.8778
 7371SOL    HW233573   1.976   4.562  16.598 -0.9077 -2.9170 -0.6297
 7372SOL     OW33574   1.955   4.331  13.951  0.5135  0.2086  0.0642
 7372SOL    HW133575   2.025   4.310  13.890  2.2472  0.9910  1.7844
 7372SOL    HW233576   1.882   4.325  13.890  0.8812 -2.8993 -0.0716
 7373SOL     OW33577   1.148   1.677  10.402  0.0341  0.4226 -0.1514
 7373SOL    HW133578   1.203   1.668  10.480 -1.4513  2.2203  1.1013
 7373SOL    HW233579   1.169   1.592  10.363  1.1396  0.8364 -0.4590
 7374SOL     OW33580   0.712   3.062   4.721  0.5004  0.2296 -0.5051
 7374SOL    HW133581   0.727   3.151   4.752 -0.0697  0.5016 -0.9773
 7374SOL    HW233582   0.636   3.081   4.666  0.1321 -0.8532 -0.3714
 7375SOL     OW33583   4.396   4.323   7.729  0.1619 -0.5397 -0.3813
 7375SOL    HW133584   4.425   4.353   7.643 -0.2686  1.3993  0.1437
 7375SOL    HW233585   4.302   4.331   7.713  0.1770 -0.5992 -0.4926
 7376SOL     OW33586   1.300   4.704  15.669 -0.0842 -0.2436  0.3880
 7376SOL    HW133587   1.324   0.028  15.589 -3.6076  0.8384 -0.0163
 7376SOL    HW233588   1.345   0.030  15.739 -0.6131 -1.2478  1.4316
 7377SOL     OW33589   1.802   0.489  15.140  0.0150  0.3382  0.0030
 7377SOL    HW133590   1.886   0.445  15.153  0.1812  0.8203  0.5467
 7377SOL    HW233591   1.754   0.469  15.220 -1.1475  0.3479 -0.6881
 7378SOL     OW33592   4.614   2.322   4.879  0.0384  0.2819  0.5151
 7378SOL    HW133593   4.568   2.300   4.960  1.5187  2.0885  1.8643
 7378SOL    HW233594   4.623   2.243   4.827 -0.3479 -1.0034  2.4148
 7379SOL     OW33595   4.460   0.716   4.359  0.1326  0.3375  0.6456
 7379SOL    HW133596   4.407   0.782   4.314 -1.2339  1.3478  3.7958
 7379SOL    HW233597   4.533   0.714   4.297 -0.8074  0.0918 -0.4688
 7380SOL     OW33598   0.243   3.397  12.287 -0.4065  0.6888 -0.1719
 7380SOL    HW133599   0.334   3.371  12.275 -1.4377 -1.5887 -3.0777
 7380SOL    HW233600   0.202   3.337  12.349  1.6423 -0.0485  0.4607
 7381SOL     OW33601   3.216   4.118  15.521  0.1556  0.0319  0.1543
 7381SOL    HW133602   3.149   4.168  15.474 -0.4093 -0.2421  0.6655
 7381SOL    HW233603   3.179   4.117  15.609  0.0014 -1.9953  0.0651
 7382SOL     OW33604   4.384   1.747   5.753 -0.0076  0.3077 -0.1190
 7382SOL    HW133605   4.399   1.705   5.838  2.2115  2.8727  0.7583
 7382SOL    HW233606   4.316   1.811   5.774 -1.3781 -0.6763 -1.5834
 7383SOL     OW33607   1.883   0.897   9.331  0.7423 -0.1388 -0.4029
 7383SOL    HW133608   1.838   0.822   9.293 -1.3407  0.1359  1.4810
 7383SOL    HW233609   1.948   0.851   9.383 -1.0817  0.7299  2.6633
 7384SOL     OW33610   4.572   3.172   3.377  0.0599 -0.1209 -0.0448
 7384SOL    HW133611   4.485   3.177   3.339  0.3783 -0.3428 -0.7906
 7384SOL    HW233612   4.547   3.196   3.467 -1.5211 -0.1836 -0.4751
 7385SOL     OW33613   3.200   0.751   5.895 -0.2735 -0.3671  0.4051
 7385SOL    HW133614   3.147   0.718   5.822  0.5687 -2.0239  0.5338
 7385SOL    HW233615   3.158   0.834   5.918  0.2722  0.0076  0.0554
 7386SOL     OW33616   4.556   0.200   3.944 -0.3712  0.4150  0.1186
 7386SOL    HW133617   4.572   0.172   3.854  0.9911 -0.4108  0.6304
 7386SOL    HW233618   4.554   0.294   3.927 -1.0014  0.1389 -1.4052
 7387SOL     OW33619   2.663   0.160   2.954 -0.1239 -0.1615 -0.0500
 7387SOL    HW133620   2.740   0.109   2.981  0.3352  0.5323 -0.0691
 7387SOL    HW233621   2.681   0.242   3.000  1.9081 -1.1409  0.8978
 7388SOL     OW33622   3.019   3.303   8.387 -0.8784 -0.1638 -0.5127
 7388SOL    HW133623   2.956   3.315   8.315 -0.5202  0.7087 -0.6723
 7388SOL    HW233624   3.020   3.207   8.394  0.5481 -0.0347  0.9520
 7389SOL     OW33625   1.961   2.802   8.692 -0.6462  0.1001 -0.2104
 7389SOL    HW133626   1.991   2.846   8.772 -2.7484  2.6877 -0.8387
 7389SOL    HW233627   1.887   2.749   8.720 -0.1587 -0.6238 -0.2726
 7390SOL     OW33628   3.563   2.243   6.011  0.1402  0.0223 -0.2566
 7390SOL    HW133629   3.576   2.309   6.079 -3.1632  2.4018 -1.9594
 7390SOL    HW233630   3.568   2.303   5.937  2.3180 -1.0323 -0.9396
 7391SOL     OW33631   3.744   0.249   7.886 -1.2317  0.5915  0.2293
 7391SOL    HW133632   3.733   0.254   7.791  1.6896  3.6157  0.0567
 7391SOL    HW233633   3.691   0.324   7.912 -0.4907  0.8718  0.8937
 7392SOL     OW33634   3.349   4.497   3.221  0.5160  0.3881  0.0165
 7392SOL    HW133635   3.384   4.557   3.287  1.4395 -1.7136  1.4231
 7392SOL    HW233636   3.403   4.419   3.235  2.0840  1.4359 -0.2169
 7393SOL     OW33637   3.538   2.792  16.972 -0.0671 -0.3198 -0.3080
 7393SOL    HW133638   3.612   2.732  16.963  1.6769  1.5730  1.2132
 7393SOL    HW233639   3.501   2.801  16.885 -0.8402  0.0945  0.0623
 7394SOL     OW33640   0.086   1.312   6.286  0.5021  0.5812  0.0567
 7394SOL    HW133641   0.131   1.256   6.223 -0.9409 -0.4391 -0.0369
 7394SOL    HW233642   0.068   1.384   6.225  1.0223 -1.1873 -2.1832
 7395SOL     OW33643   2.512   1.577   4.067 -0.2840  0.3288  0.6738
 7395SOL    HW133644   2.512   1.638   4.140  0.6410  0.2114  0.7694
 7395SOL    HW233645   2.602   1.602   4.047 -0.5525 -1.3131 -2.7940
 7396SOL     OW33646   2.168   4.089   3.279 -0.0014 -0.0010 -0.6086
 7396SOL    HW133647   2.077   4.060   3.285  0.0469 -0.1330 -0.4992
 7396SOL    HW233648   2.168   4.179   3.245 -1.1128  0.1730 -0.1365
 7397SOL     OW33649   2.590   0.745   8.237  0.3026 -0.3458 -0.1225
 7397SOL    HW133650   2.657   0.677   8.235  1.1836  0.4795  1.6711
 7397SOL    HW233651   2.557   0.730   8.325  1.6524 -0.1635  0.4133
 7398SOL     OW33652   2.727   0.629  10.488 -0.0274  0.3156  0.0764
 7398SOL    HW133653   2.754   0.548  10.531  0.6736  1.3643  1.6283
 7398SOL    HW233654   2.700   0.600  10.401  2.6085  0.3526 -0.7508
 7399SOL     OW33655   3.747   2.799   0.734  0.0358  0.2270  0.1941
 7399SOL    HW133656   3.722   2.810   0.826 -2.9703  0.1529 -0.5890
 7399SOL    HW233657   3.738   2.890   0.706  2.1353  0.0396 -1.0293
 7400SOL     OW33658   3.088   1.935  16.572  0.5669  0.2674 -0.2689
 7400SOL    HW133659   3.043   1.893  16.645  0.1382 -1.6025 -1.6142
 7400SOL    HW233660   3.042   2.017  16.555  0.3558  0.3045  0.4679
 7401SOL     OW33661   2.414   3.975   8.526 -0.0802 -0.6697  0.1185
 7401SOL    HW133662   2.381   4.042   8.586  1.6446 -1.5756  2.0658
 7401SOL    HW233663   2.343   3.975   8.461  0.1717  0.0468 -0.1601
 7402SOL     OW33664   1.456   4.522   1.808  0.1811 -1.1930  0.8232
 7402SOL    HW133665   1.369   4.532   1.767  0.6303  0.4709  0.2652
 7402SOL    HW233666   1.421   4.542   1.895  1.0059 -0.7689  1.0579
 7403SOL     OW33667   3.707   0.129   0.612 -0.1517 -0.4480  0.0387
 7403SOL    HW133668   3.796   0.149   0.581 -0.0990 -0.2168  0.3343
 7403SOL    HW233669   3.691   0.043   0.573  1.1076 -0.5961 -0.1775
 7404SOL     OW33670   3.693   0.296   3.141  0.2142  0.2823  0.4283
 7404SOL    HW133671   3.735   0.254   3.065 -2.7236  0.6438 -1.4123
 7404SOL    HW233672   3.743   0.377   3.136 -1.3033  1.1217 -1.5088
 7405SOL     OW33673   4.344   1.323  12.573 -0.2359 -0.4983  0.2176
 7405SOL    HW133674   4.363   1.312  12.480  0.9981  1.3149  0.2445
 7405SOL    HW233675   4.322   1.233  12.596  0.4944 -0.5997  0.5132
 7406SOL     OW33676   0.771   3.342   4.787  0.9075  0.1346  0.0636
 7406SOL    HW133677   0.751   3.409   4.721 -0.1704 -3.1387 -2.8869
 7406SOL    HW233678   0.737   3.400   4.856 -1.2616  0.4576 -1.2621
 7407SOL     OW33679   0.754   2.134   2.716 -0.0389 -0.2385  0.2811
 7407SOL    HW133680   0.754   2.188   2.795  0.1234 -0.2980  0.3208
 7407SOL    HW233681   0.803   2.197   2.663  0.0923 -0.3446  0.2769
 7408SOL     OW33682   1.936   4.431   8.584  0.3386  0.5544 -0.0896
 7408SOL    HW133683   1.865   4.413   8.522 -0.1974 -0.0106  0.6853
 7408SOL    HW233684   1.899   4.397   8.666  0.8278 -0.8474 -0.4462
 7409SOL     OW33685   0.836   4.056   7.036 -0.4186  0.5073 -0.5659
 7409SOL    HW133686   0.842   4.005   6.955  1.1391 -1.0354  0.5428
 7409SOL    HW233687   0.749   4.094   7.022 -1.1715 -1.4803 -1.2721
 7410SOL     OW33688   1.396   0.291   6.671 -0.6651 -0.4905 -0.4643
 7410SOL    HW133689   1.392   0.368   6.727 -0.0774 -0.0441 -1.0424
 7410SOL    HW233690   1.329   0.235   6.710 -1.5717  2.3430  2.0004
 7411SOL     OW33691   3.103   2.644   1.050  0.4280 -0.1945  0.1165
 7411SOL    HW133692   3.096   2.740   1.045  3.0623  0.0471  1.1997
 7411SOL    HW233693   3.075   2.619   0.962 -2.1112 -1.4603  1.2705
 7412SOL     OW33694   4.146   3.954   6.373  0.0419  0.1612  0.2276
 7412SOL    HW133695   4.107   3.867   6.363 -0.4866  0.0957  2.8138
 7412SOL    HW233696   4.198   3.975   6.295 -0.7057  2.7460  0.4425
 7413SOL     OW33697   0.438   0.251   6.649 -0.5006  0.1027  0.3197
 7413SOL    HW133698   0.436   0.333   6.599 -0.4568  0.3361  0.6986
 7413SOL    HW233699   0.421   0.185   6.582 -0.0388  1.2834 -0.9743
 7414SOL     OW33700   3.266   1.010   8.036 -0.0515 -0.1718 -0.6800
 7414SOL    HW133701   3.208   0.975   7.968 -0.0215  0.5260 -1.0619
 7414SOL    HW233702   3.339   1.031   7.979  0.9731 -0.7717  0.4271
 7415SOL     OW33703   0.682   2.134   3.784  0.3188  0.0919  0.1868
 7415SOL    HW133704   0.678   2.081   3.864 -1.5469  0.0013  0.0323
 7415SOL    HW233705   0.775   2.138   3.765  0.3210 -1.6930 -0.1950
 7416SOL     OW33706   1.066   1.734   6.502 -0.0438  0.3275 -0.2478
 7416SOL    HW133707   1.000   1.778   6.556  0.9807  0.1931  1.1360
 7416SOL    HW233708   1.024   1.650   6.483  0.7299 -0.1134 -0.0382
 7417SOL     OW33709   1.579   0.195   7.013 -0.4400 -0.0039  0.5918
 7417SOL    HW133710   1.513   0.210   7.081  0.6873 -0.7704  1.8562
 7417SOL    HW233711   1.662   0.183   7.059  1.4764  0.5599 -2.7671
 7418SOL     OW33712   3.483   0.632   9.574  0.1347  0.6553  0.3494
 7418SOL    HW133713   3.399   0.602   9.609  0.1315 -0.7034 -0.8272
 7418SOL    HW233714   3.502   0.689   9.649 -2.2303 -0.7284  2.0024
 7419SOL     OW33715   4.029   1.288   2.851  0.1000  0.3603  0.8755
 7419SOL    HW133716   4.078   1.325   2.778 -1.0828 -0.3128 -0.2546
 7419SOL    HW233717   4.086   1.303   2.926  0.7519  2.1811  0.0106
 7420SOL     OW33718   0.780   2.826   7.299  0.5866  0.1890 -0.9470
 7420SOL    HW133719   0.835   2.904   7.309  0.2122  0.6261 -2.1559
 7420SOL    HW233720   0.730   2.845   7.219  0.7196  1.8025 -0.6566
 7421SOL     OW33721   0.813   2.142   7.821 -0.3266  0.3688  1.0072
 7421SOL    HW133722   0.747   2.159   7.753  0.4021  2.2914  0.7764
 7421SOL    HW233723   0.818   2.048   7.804  0.4519  0.8312 -1.3040
 7422SOL     OW33724   0.021   3.685   6.788 -0.2125  0.3857 -0.4459
 7422SOL    HW133725   0.070   3.614   6.746 -2.1630 -2.1561  1.5476
 7422SOL    HW233726   0.082   3.708   6.859 -0.4614  2.3305 -0.8591
 7423SOL     OW33727   2.641   2.119   2.528 -0.0146 -0.6889 -0.1920
 7423SOL    HW133728   2.558   2.072   2.539 -1.3643  2.0480  1.3783
 7423SOL    HW233729   2.699   2.051   2.495  0.7503 -0.0260 -0.1991
 7424SOL     OW33730   0.862   1.702  14.491 -0.0669 -0.2073 -0.2148
 7424SOL    HW133731   0.909   1.644  14.551 -0.3471  0.9872  1.1648
 7424SOL    HW233732   0.771   1.671  14.497 -0.4633  0.8807 -0.6579
 7425SOL     OW33733   4.156   1.653   8.267 -0.4737  0.0628  0.2275
 7425SOL    HW133734   4.069   1.668   8.302 -1.3941 -2.2537 -1.0344
 7425SOL    HW233735   4.194   1.594   8.332  1.9342  0.2436 -1.0050
 7426SOL     OW33736   1.364   1.269   2.763  0.0277  0.6004  0.4530
 7426SOL    HW133737   1.413   1.192   2.791 -3.1171 -0.7139  2.4266
 7426SOL    HW233738   1.423   1.308   2.699  0.2903 -1.2686 -0.4633
 7427SOL     OW33739   1.539   2.161   4.692 -0.2394 -0.5958 -0.2083
 7427SOL    HW133740   1.529   2.240   4.745  0.2713 -2.3536  2.5507
 7427SOL    HW233741   1.539   2.088   4.754  1.0987 -0.3036  0.1437
 7428SOL     OW33742   3.763   3.142  12.945 -0.0625  0.2910 -0.7727
 7428SOL    HW133743   3.832   3.095  12.898  1.1874  1.9010 -0.5263
 7428SOL    HW233744   3.714   3.073  12.990  0.4064  0.9443  0.7218
 7429SOL     OW33745   2.855   2.041   0.822  0.3372  0.5130  0.0423
 7429SOL    HW133746   2.818   2.127   0.843 -1.0759  0.2222 -1.3081
 7429SOL    HW233747   2.827   1.993   0.900 -0.7068  1.2406  0.1053
 7430SOL     OW33748   3.531   0.089   1.447 -0.5559 -0.6006  0.0621
 7430SOL    HW133749   3.542   0.135   1.530 -0.3324 -1.3342  0.4340
 7430SOL    HW233750   3.587   0.012   1.458 -0.8395 -1.1176 -1.9235
 7431SOL     OW33751   3.664   1.217  10.368  0.4163 -0.5227 -0.3582
 7431SOL    HW133752   3.645   1.142  10.312 -0.7667  0.2144 -0.9458
 7431SOL    HW233753   3.666   1.286  10.302 -1.0459  1.0663  1.2539
 7432SOL     OW33754   3.293   3.968   1.762  0.8159 -0.4174 -0.3436
 7432SOL    HW133755   3.224   3.968   1.828 -2.0315 -1.4730 -3.3017
 7432SOL    HW233756   3.358   4.026   1.801  0.7179 -0.4245 -0.1711
 7433SOL     OW33757   0.796   1.366  13.270 -0.5150 -0.0926 -0.1112
 7433SOL    HW133758   0.710   1.382  13.309 -0.1484  2.5330 -0.4003
 7433SOL    HW233759   0.866   1.377  13.334 -0.6686 -1.9157  0.3823
 7434SOL     OW33760   3.271   1.444   1.863 -0.4907  0.3116 -0.0297
 7434SOL    HW133761   3.223   1.375   1.816  1.3889 -0.5920 -0.5940
 7434SOL    HW233762   3.350   1.458   1.812 -1.0154  1.3599 -0.5585
 7435SOL     OW33763   2.528   4.388  15.704 -0.1859  0.5227  0.2484
 7435SOL    HW133764   2.592   4.416  15.639  0.2800  0.7266  0.7920
 7435SOL    HW233765   2.506   4.302  15.669  4.1193  0.0997 -1.3993
 7436SOL     OW33766   1.446   4.330  16.592  0.1672  0.0467  0.7696
 7436SOL    HW133767   1.473   4.256  16.537 -1.7364 -0.5293  0.6157
 7436SOL    HW233768   1.516   4.394  16.581  0.8667 -1.3021 -2.6817
 7437SOL     OW33769   2.631   1.507   5.083 -0.6124  0.7435  0.1336
 7437SOL    HW133770   2.642   1.504   5.178 -1.6255 -1.0719  0.1824
 7437SOL    HW233771   2.692   1.576   5.055 -0.3631  0.3278 -0.3356
 7438SOL     OW33772   1.232   2.360   2.198 -0.2094  0.6739 -0.2612
 7438SOL    HW133773   1.281   2.311   2.133  0.3769  0.1208  0.5966
 7438SOL    HW233774   1.150   2.311   2.204  0.2217 -0.1795 -1.4705
 7439SOL     OW33775   2.601   0.053   1.446 -0.9308 -0.0841 -0.3184
 7439SOL    HW133776   2.664   0.037   1.376  0.1082 -0.5518  0.7095
 7439SOL    HW233777   2.672   0.075   1.507  0.4742 -0.4112 -1.8227
 7440SOL     OW33778   3.679   2.556   4.884 -0.4148 -0.6143  0.0799
 7440SOL    HW133779   3.609   2.548   4.820 -1.6401  0.1340  1.3493
 7440SOL    HW233780   3.728   2.479   4.855  2.1610  0.0588  2.6737
 7441SOL     OW33781   2.362   4.432   2.754  0.3898  0.4535 -0.0134
 7441SOL    HW133782   2.404   4.349   2.779  1.4238  1.5721  1.9565
 7441SOL    HW233783   2.292   4.408   2.693  0.0681 -0.5344  0.7419
 7442SOL     OW33784   2.791   1.348   4.925 -0.3523  0.2607  0.3673
 7442SOL    HW133785   2.725   1.390   4.979  1.0552  0.2244  2.1033
 7442SOL    HW233786   2.757   1.259   4.922  0.7771 -0.1578 -0.0779
 7443SOL     OW33787   0.127   4.385   4.185  0.0302  0.0898 -0.1950
 7443SOL    HW133788   0.125   4.310   4.125 -0.6552 -0.1685  0.1498
 7443SOL    HW233789   0.192   4.439   4.140  0.2646  1.3301  1.6486
 7444SOL     OW33790   2.132   4.070   4.176  0.0048 -0.2688  1.0935
 7444SOL    HW133791   2.111   3.977   4.180  0.8885 -0.5559 -1.5538
 7444SOL    HW233792   2.222   4.058   4.207 -0.1121 -1.1618  1.0760
 7445SOL     OW33793   3.036   2.917   8.647 -0.2179 -0.0361  0.1656
 7445SOL    HW133794   3.031   2.823   8.666 -1.0187  0.0911  0.6071
 7445SOL    HW233795   2.969   2.944   8.710 -1.6354 -1.4269 -0.7546
 7446SOL     OW33796   3.926   0.625   7.786  0.0846 -0.1333 -0.7834
 7446SOL    HW133797   3.950   0.548   7.733  1.7122  0.5648 -1.0630
 7446SOL    HW233798   3.903   0.586   7.870  1.6541 -0.9683 -0.7300
 7447SOL     OW33799   0.048   1.520  15.352  0.4748  0.2796  0.3943
 7447SOL    HW133800   0.142   1.522  15.369  0.7219 -1.3129 -0.8121
 7447SOL    HW233801   0.053   1.490  15.262 -1.7211 -0.7454  0.5978
 7448SOL     OW33802   4.119   4.121  13.200  0.0063 -0.3201  0.2972
 7448SOL    HW133803   4.029   4.098  13.224  0.2268 -0.1422  1.2778
 7448SOL    HW233804   4.153   4.142  13.287  2.1783 -0.5483 -0.5028
 7449SOL     OW33805   1.306   1.793   8.021  0.4229  0.1171  0.3902
 7449SOL    HW133806   1.384   1.849   8.027 -0.2082  1.2327 -1.7261
 7449SOL    HW233807   1.332   1.710   8.059  0.5573 -0.4062 -0.8339
 7450SOL     OW33808   0.663   4.366   4.271  0.3011 -0.3737 -0.3042
 7450SOL    HW133809   0.668   4.366   4.366  0.7932  0.6838 -0.3311
 7450SOL    HW233810   0.632   4.457   4.273 -0.8665 -0.8212  2.1425
 7451SOL     OW33811   1.927   1.266  14.114  0.3050 -0.3037 -0.1434
 7451SOL    HW133812   1.878   1.334  14.068  3.0018  2.4871  1.1980
 7451SOL    HW233813   1.993   1.324  14.150 -2.2405  1.4224  1.7574
 7452SOL     OW33814   4.344   3.727   5.528  0.6522 -0.1550 -0.1644
 7452SOL    HW133815   4.391   3.720   5.445  1.3637 -0.6174  0.2775
 7452SOL    HW233816   4.254   3.717   5.497  0.6867 -3.5158  0.8185
 7453SOL     OW33817   4.469   0.220   7.802 -0.2702 -0.1559  0.2830
 7453SOL    HW133818   4.439   0.159   7.734 -0.8131 -0.0432  0.4224
 7453SOL    HW233819   4.417   0.180   7.872 -0.7933  2.4777  1.3643
 7454SOL     OW33820   2.206   3.047   8.712  0.0500 -0.6001 -0.3635
 7454SOL    HW133821   2.261   2.970   8.695  0.6149 -0.4183  0.5975
 7454SOL    HW233822   2.261   3.096   8.774  0.0266  0.3436 -1.0941
 7455SOL     OW33823   1.510   1.558  11.042  0.5224  0.0921 -0.7141
 7455SOL    HW133824   1.575   1.587  11.106 -2.2904 -1.2071  2.7756
 7455SOL    HW233825   1.494   1.649  11.019  1.4664  0.7104  1.0547
 7456SOL     OW33826   3.482   4.538   4.467 -0.1212 -0.2617  0.8704
 7456SOL    HW133827   3.575   4.530   4.488 -0.1688 -0.5727  0.9656
 7456SOL    HW233828   3.442   4.454   4.490 -0.0377 -0.6103 -0.2163
 7457SOL     OW33829   1.662   4.167   7.851  0.0272 -0.4250 -0.0707
 7457SOL    HW133830   1.722   4.203   7.916 -0.0996  1.5680 -1.0372
 7457SOL    HW233831   1.592   4.232   7.851 -0.6512 -1.1645  0.2602
 7458SOL     OW33832   4.642   3.721   5.568  0.4791  0.3461  0.0994
 7458SOL    HW133833   4.718   3.719   5.625  0.1699  4.1947  0.6378
 7458SOL    HW233834   4.578   3.695   5.634  1.4085 -1.2117  0.3946
 7459SOL     OW33835   0.337   1.292   5.942 -0.5774 -0.2062  0.3228
 7459SOL    HW133836   0.291   1.282   5.859  1.5952  1.1924 -1.0338
 7459SOL    HW233837   0.298   1.240   6.012 -1.2904  0.2246  0.2462
 7460SOL     OW33838   2.212   0.463   5.641  0.6258 -0.0915 -0.3613
 7460SOL    HW133839   2.242   0.388   5.691  0.9346  0.3104  0.0595
 7460SOL    HW233840   2.165   0.429   5.565  0.0042  0.6794 -0.3247
 7461SOL     OW33841   3.058   2.074   9.376 -0.2545  0.1978  0.0808
 7461SOL    HW133842   3.102   2.062   9.292 -0.6433  1.5677 -0.3154
 7461SOL    HW233843   3.035   2.166   9.386  1.7070  0.7745 -0.6019
 7462SOL     OW33844   3.168   2.143   6.283 -0.3328  0.7424 -0.6234
 7462SOL    HW133845   3.137   2.065   6.235 -0.6350 -0.9842  2.3659
 7462SOL    HW233846   3.090   2.150   6.338 -0.6247 -1.8822 -0.6755
 7463SOL     OW33847   2.258   2.320   5.150 -1.1032 -0.1514 -0.3429
 7463SOL    HW133848   2.191   2.328   5.082  0.3354  0.5642 -1.6767
 7463SOL    HW233849   2.266   2.413   5.174  0.4976 -0.6164  0.8866
 7464SOL     OW33850   2.508   1.360   3.748  0.3943 -0.4281 -0.5678
 7464SOL    HW133851   2.423   1.325   3.723  0.0503 -0.2827  0.3967
 7464SOL    HW233852   2.532   1.397   3.663  1.9338  0.8540  0.4275
 7465SOL     OW33853   4.491   2.683  17.169  0.0668 -0.0136 -0.0962
 7465SOL    HW133854   4.506   2.755  17.230 -0.9261 -1.4439  1.8744
 7465SOL    HW233855   4.542   2.711  17.093  1.9046 -2.6151  0.1610
 7466SOL     OW33856   1.254   2.051   0.058 -0.2386  0.2916  0.2831
 7466SOL    HW133857   1.349   2.059   0.069 -0.2792  0.9277  0.1732
 7466SOL    HW233858   1.244   1.957   0.040 -0.6553  0.0955  1.5612
 7467SOL     OW33859   4.541   2.375  12.379 -0.3184 -0.4968  0.0751
 7467SOL    HW133860   4.474   2.330  12.430 -0.1023 -0.2235  0.5939
 7467SOL    HW233861   4.573   2.439  12.442 -2.6373 -0.8795  1.6437
 7468SOL     OW33862   2.819   1.121  12.986 -0.4799 -0.1642 -0.3609
 7468SOL    HW133863   2.819   1.181  13.061 -1.6119 -0.6428  0.0232
 7468SOL    HW233864   2.761   1.179  12.936 -0.0977  0.6922  0.1780
 7469SOL     OW33865   2.702   1.621   6.973 -0.2450  0.1135  0.1707
 7469SOL    HW133866   2.668   1.654   7.056  0.4634 -1.0365  0.9297
 7469SOL    HW233867   2.763   1.550   6.996 -0.9166 -1.2881 -2.3387
 7470SOL     OW33868   2.095   3.810   3.894  0.9818 -0.1406 -0.5682
 7470SOL    HW133869   2.038   3.792   3.969 -0.3622  1.0873 -1.2933
 7470SOL    HW233870   2.065   3.899   3.873  0.0680 -0.1435  0.7272
 7471SOL     OW33871   4.081   2.927   5.130  0.0987  0.3067  0.3188
 7471SOL    HW133872   3.998   2.911   5.086  0.4642  1.9542 -0.9739
 7471SOL    HW233873   4.088   2.842   5.172 -0.8330 -1.5050 -3.2528
 7472SOL     OW33874   2.938   1.732   9.404 -0.3178  0.1453  0.5590
 7472SOL    HW133875   2.970   1.649   9.439 -0.5157 -0.3197 -0.3398
 7472SOL    HW233876   3.021   1.776   9.385  0.0269 -1.4118 -1.5008
 7473SOL     OW33877   3.790   4.428  16.113  0.1124 -1.0319  0.2096
 7473SOL    HW133878   3.757   4.342  16.139  0.0880 -0.8020  0.9296
 7473SOL    HW233879   3.835   4.462  16.190 -0.5813 -1.3915  0.7711
 7474SOL     OW33880   3.788   4.399  14.930  0.1008 -0.2345 -0.2060
 7474SOL    HW133881   3.870   4.375  14.886  1.1987 -2.4491  3.0424
 7474SOL    HW233882   3.728   4.408  14.857 -1.3596  0.5306  1.0808
 7475SOL     OW33883   1.298   4.609   8.978 -0.2791  0.1585  0.0380
 7475SOL    HW133884   1.353   4.677   8.939  0.5887  0.0724  1.0844
 7475SOL    HW233885   1.362   4.538   8.982 -1.9396 -1.3664 -0.6781
 7476SOL     OW33886   3.560   2.573   2.441  0.3775  0.1163  0.5070
 7476SOL    HW133887   3.569   2.567   2.346 -2.0538  1.2105  0.2184
 7476SOL    HW233888   3.633   2.519   2.472 -0.0380 -1.3147 -1.0100
 7477SOL     OW33889   0.818   2.602   7.687 -0.1965  0.1728 -0.4471
 7477SOL    HW133890   0.868   2.540   7.634  1.4019  0.8372  0.2894
 7477SOL    HW233891   0.842   2.570   7.774  0.4982  1.4126 -0.1934
 7478SOL     OW33892   0.196   3.017   8.176 -0.3589 -0.5759  0.0433
 7478SOL    HW133893   0.237   2.979   8.254  1.2381 -2.7212 -1.8416
 7478SOL    HW233894   0.191   3.105   8.213 -0.2348  0.0723 -1.5026
 7479SOL     OW33895   1.873   0.926   2.080 -0.4005  0.0330  0.2821
 7479SOL    HW133896   1.914   0.979   2.011  0.6404  0.0358  0.9046
 7479SOL    HW233897   1.801   0.981   2.112 -0.7473 -0.4552  0.3457
 7480SOL     OW33898   4.552   3.467   1.596  0.0893  0.4657 -0.2533
 7480SOL    HW133899   4.644   3.453   1.615 -0.5032 -1.7172  1.0652
 7480SOL    HW233900   4.519   3.485   1.684 -1.2629  1.8663 -1.0258
 7481SOL     OW33901   3.117   0.032   3.187  0.3559 -0.4808  0.0796
 7481SOL    HW133902   3.113   4.681   3.249 -0.1237 -1.2473 -0.8696
 7481SOL    HW233903   3.208   0.023   3.157  0.7665  0.4912  1.0088
 7482SOL     OW33904   0.421   0.022   2.461 -0.2901  0.1046  0.6827
 7482SOL    HW133905   0.376   4.675   2.508  2.2378 -0.8715  1.6751
 7482SOL    HW233906   0.496   4.697   2.424 -0.7187 -0.6836  0.8319
 7483SOL     OW33907   0.174   2.492   8.411  0.3677 -0.3964  0.1545
 7483SOL    HW133908   0.136   2.578   8.392  0.8610  0.0119  1.0409
 7483SOL    HW233909   0.147   2.442   8.334  1.7452 -0.1225 -0.5123
 7484SOL     OW33910   4.299   3.747   0.795 -0.2683 -0.4902 -0.0869
 7484SOL    HW133911   4.248   3.820   0.760 -0.5368 -1.2378 -1.2400
 7484SOL    HW233912   4.306   3.700   0.712  0.0253 -1.2077  0.3429
 7485SOL     OW33913   4.716   1.302   7.013 -0.6146 -0.2351  0.3558
 7485SOL    HW133914   4.670   1.298   7.097  0.5629 -0.7305  0.9777
 7485SOL    HW233915   0.043   1.384   7.021  0.1801 -0.7787  1.1024
 7486SOL     OW33916   1.569   1.482   5.743 -0.4816  0.4442  0.2762
 7486SOL    HW133917   1.585   1.390   5.767 -2.4242 -0.3697 -1.4965
 7486SOL    HW233918   1.655   1.509   5.712 -0.1936 -1.1051 -0.3204
 7487SOL     OW33919   3.400   1.679   5.968 -0.0044 -0.2042 -0.2112
 7487SOL    HW133920   3.431   1.696   6.057  1.5629  0.0802 -0.8196
 7487SOL    HW233921   3.363   1.765   5.951  1.9774  0.7390  0.2693
 7488SOL     OW33922   3.189   0.795   6.948 -0.5558 -0.2305 -0.3671
 7488SOL    HW133923   3.254   0.733   6.914 -0.5716 -0.4225 -0.0460
 7488SOL    HW233924   3.253   0.837   7.004 -2.5377 -1.6728  2.9512
 7489SOL     OW33925   3.867   4.427   1.220  0.1422  0.4072 -0.1878
 7489SOL    HW133926   3.929   4.453   1.288  0.1545 -0.5910  0.1790
 7489SOL    HW233927   3.933   4.432   1.151  0.5230 -0.0105  0.1490
 7490SOL     OW33928   3.378   1.051   1.685  0.0436 -0.3001  0.4132
 7490SOL    HW133929   3.393   1.006   1.602 -2.7193 -0.5349  0.0162
 7490SOL    HW233930   3.316   1.113   1.646 -0.5165  0.0020  1.7878
 7491SOL     OW33931   3.446   0.219   5.217  0.0043  0.1767 -0.5597
 7491SOL    HW133932   3.525   0.235   5.165  1.3866 -1.4134  1.0736
 7491SOL    HW233933   3.387   0.283   5.178 -2.6708 -1.2459  1.1222
 7492SOL     OW33934   0.309   1.591  15.373  0.2785 -0.6581 -0.4506
 7492SOL    HW133935   0.305   1.667  15.315  1.0599 -0.6877 -0.5432
 7492SOL    HW233936   0.396   1.555  15.357  1.1990  0.3459  2.2852
 7493SOL     OW33937   1.141   1.650   1.440 -0.0705 -0.4439  0.0275
 7493SOL    HW133938   1.180   1.735   1.419  1.4718 -0.6754  2.0468
 7493SOL    HW233939   1.203   1.592   1.395 -0.5053 -0.7889 -0.1312
 7494SOL     OW33940   0.359   1.408   8.987  0.4679  0.1086 -0.7274
 7494SOL    HW133941   0.328   1.325   9.022  1.0187  0.1282 -0.1821
 7494SOL    HW233942   0.315   1.468   9.047  1.0828  0.9184 -1.0849
 7495SOL     OW33943   2.018   1.421   6.005 -0.5017 -0.7730  0.3695
 7495SOL    HW133944   2.081   1.349   5.998 -1.3821 -1.3990 -1.0602
 7495SOL    HW233945   1.998   1.431   5.912 -4.3316  0.5635  1.3152
 7496SOL     OW33946   4.643   0.615  11.615  0.0379 -0.1510 -0.1966
 7496SOL    HW133947   4.634   0.630  11.709 -0.9867  1.5012 -0.5629
 7496SOL    HW233948   4.654   0.520  11.620 -1.5254 -0.2516  1.1696
 7497SOL     OW33949   2.304   2.666  15.909 -0.3636 -0.0781  0.1733
 7497SOL    HW133950   2.280   2.573  15.903  0.1662 -0.2121  0.1255
 7497SOL    HW233951   2.252   2.698  15.982  1.0753  2.4321  0.0949
 7498SOL     OW33952   3.763   3.666   8.094 -0.1123  0.0750 -0.0885
 7498SOL    HW133953   3.717   3.730   8.149  2.4995  0.1836  1.9551
 7498SOL    HW233954   3.776   3.719   8.016 -2.1056 -1.0678 -1.2013
 7499SOL     OW33955   0.440   0.602  13.222  0.1767 -0.1002  0.2910
 7499SOL    HW133956   0.457   0.520  13.176  0.8468  0.8377 -1.1404
 7499SOL    HW233957   0.496   0.659  13.170 -1.7746  1.9700  0.4259
 7500SOL     OW33958   3.325   3.599   9.586  0.1249 -0.0973  0.4944
 7500SOL    HW133959   3.310   3.688   9.618 -2.1368  0.5532 -2.3845
 7500SOL    HW233960   3.338   3.611   9.492 -0.4152  0.7705  0.5305
 7501SOL     OW33961   3.520   0.683  15.339  0.2229 -0.8639 -0.0638
 7501SOL    HW133962   3.550   0.710  15.426 -1.3929 -3.9538  1.4543
 7501SOL    HW233963   3.446   0.741  15.320  0.4075 -0.6304 -0.0702
 7502SOL     OW33964   4.693   3.587   5.059  0.2365  0.2158 -0.2043
 7502SOL    HW133965   4.705   3.535   4.979  3.4322  2.0814 -0.9294
 7502SOL    HW233966   4.643   3.523   5.110 -1.2460 -1.5606 -3.8212
 7503SOL     OW33967   0.185   3.374   0.413  1.0502  0.2204  0.0065
 7503SOL    HW133968   0.097   3.375   0.377  1.6959  1.3144 -1.5617
 7503SOL    HW233969   0.193   3.282   0.437 -1.7028  0.0293  0.1341
 7504SOL     OW33970   3.062   2.132   3.622 -0.2493  0.4023  0.3937
 7504SOL    HW133971   3.022   2.150   3.707  0.0091  2.6025  0.0437
 7504SOL    HW233972   3.043   2.039   3.616  2.6134 -0.2090  0.8269
 7505SOL     OW33973   4.701   1.311   8.344  0.2820  0.4992 -1.0056
 7505SOL    HW133974   0.005   1.279   8.258  1.7851  0.3870 -0.5092
 7505SOL    HW233975   4.610   1.335   8.329 -0.1334 -1.4006 -1.4424
 7506SOL     OW33976   3.761   2.993   2.637  0.8843  0.3985  0.1124
 7506SOL    HW133977   3.703   3.059   2.674 -2.2620 -1.1382 -2.0171
 7506SOL    HW233978   3.723   2.908   2.659 -2.1002  2.3698  2.5399
 7507SOL     OW33979   4.438   2.926   5.599  0.0276  1.2483  0.4673
 7507SOL    HW133980   4.395   2.951   5.680  1.2061 -4.4552  2.8946
 7507SOL    HW233981   4.459   3.012   5.562  0.1586  0.4796 -1.2288
 7508SOL     OW33982   4.105   4.358   2.543  0.2585  0.5821 -0.2849
 7508SOL    HW133983   4.019   4.357   2.500 -0.3506 -1.9808  1.0090
 7508SOL    HW233984   4.150   4.389   2.464  0.7464  0.4659 -0.0529
 7509SOL     OW33985   4.242   0.370  16.277  0.3300  0.0189 -0.3453
 7509SOL    HW133986   4.158   0.335  16.248  1.2291 -2.7566  0.3387
 7509SOL    HW233987   4.245   0.455  16.232  2.6900  0.5576  0.8230
 7510SOL     OW33988   2.411   2.294  11.683  0.5484 -0.2385 -0.8290
 7510SOL    HW133989   2.385   2.383  11.707  1.3031 -0.3927  0.5759
 7510SOL    HW233990   2.339   2.254  11.634  0.3476 -0.2422 -0.5319
 7511SOL     OW33991   0.718   3.998   1.064 -0.6423 -0.0310  0.4542
 7511SOL    HW133992   0.641   3.984   1.009 -0.8304  1.7275  0.2721
 7511SOL    HW233993   0.678   3.981   1.149  2.7861 -1.4321  1.8082
 7512SOL     OW33994   2.508   3.666   6.654 -0.0223  0.8899 -0.2584
 7512SOL    HW133995   2.574   3.597   6.662 -1.5953 -0.5882  0.0788
 7512SOL    HW233996   2.517   3.696   6.563  1.2480  0.3825 -0.2969
 7513SOL     OW33997   4.305   2.698   3.476  0.2196 -0.6094 -0.2016
 7513SOL    HW133998   4.224   2.742   3.450  1.0239 -0.0047 -1.7281
 7513SOL    HW233999   4.359   2.728   3.403  0.5115  1.7911  1.0124
 7514SOL     OW34000   1.018   3.726   1.486 -0.2018  0.0393  0.4912
 7514SOL    HW134001   0.935   3.689   1.518 -0.8943  3.4189  2.6601
 7514SOL    HW234002   1.078   3.653   1.503 -1.1538 -0.8136  0.2147
 7515SOL     OW34003   2.902   2.999   5.935  0.1742  0.2113 -0.2622
 7515SOL    HW134004   2.968   2.972   5.998 -0.0281  0.8513  0.2302
 7515SOL    HW234005   2.956   3.016   5.858 -0.7979 -1.7109 -1.3471
 7516SOL     OW34006   0.615   3.943   6.290  0.0034 -0.8269 -0.6744
 7516SOL    HW134007   0.529   3.918   6.324  0.1283 -0.3565 -0.0130
 7516SOL    HW234008   0.658   3.922   6.373 -0.5234  2.4845  0.4000
 7517SOL     OW34009   1.637   3.390   2.804 -0.0434 -0.1006  0.7090
 7517SOL    HW134010   1.591   3.472   2.784  0.0566 -0.7645 -2.3110
 7517SOL    HW234011   1.723   3.399   2.763 -0.2067 -2.9954 -0.2428
 7518SOL     OW34012   3.726   1.831   6.066  0.5106 -0.1422 -0.4631
 7518SOL    HW134013   3.814   1.795   6.058 -0.5127 -2.4418 -1.2282
 7518SOL    HW234014   3.709   1.870   5.980 -0.4261 -1.0235 -0.6770
 7519SOL     OW34015   2.621   1.455   2.156  0.7643 -0.5026  0.0275
 7519SOL    HW134016   2.537   1.494   2.179  2.2268  2.3700  0.5238
 7519SOL    HW234017   2.667   1.536   2.133  1.4800 -1.1138 -0.6858
 7520SOL     OW34018   0.675   4.112  13.211  0.2501 -0.2134 -0.8174
 7520SOL    HW134019   0.585   4.087  13.230  0.5892 -0.6016  0.2598
 7520SOL    HW234020   0.717   4.027  13.204 -1.6240 -1.2730  0.9644
 7521SOL     OW34021   2.671   1.328   2.587  0.1523 -0.1608 -0.4492
 7521SOL    HW134022   2.598   1.386   2.565 -0.2887  0.4809  2.6343
 7521SOL    HW234023   2.652   1.251   2.534  0.6702  1.4286 -2.9602
 7522SOL     OW34024   3.383   3.389   6.843  0.1389  0.0319 -0.2091
 7522SOL    HW134025   3.425   3.332   6.907 -0.7528  0.4362  0.7463
 7522SOL    HW234026   3.302   3.421   6.883  0.5399  1.8440 -0.8358
 7523SOL     OW34027   4.030   3.973   5.035  0.3389  0.3938  0.4624
 7523SOL    HW134028   4.057   3.930   5.116  1.0887 -0.5919 -0.3168
 7523SOL    HW234029   4.003   4.061   5.061 -0.9200  0.8620 -2.4667
 7524SOL     OW34030   4.451   3.338  11.956 -0.1495  0.2616 -0.3188
 7524SOL    HW134031   4.467   3.266  11.896 -1.6068 -1.2487  1.0964
 7524SOL    HW234032   4.454   3.288  12.038 -0.1792  2.3549  0.9781
 7525SOL     OW34033   1.038   3.213   3.224  0.8956 -0.1131  0.2714
 7525SOL    HW134034   0.945   3.229   3.237  1.1330  1.1988  0.3233
 7525SOL    HW234035   1.037   3.193   3.130  2.1709 -0.3667  0.3106
 7526SOL     OW34036   0.607   2.771  14.936 -0.0497  0.5786  0.2357
 7526SOL    HW134037   0.572   2.848  14.980  0.8976  0.6861  0.8059
 7526SOL    HW234038   0.635   2.793  14.847 -1.1319 -1.9000 -0.7283
 7527SOL     OW34039   4.437   1.456   2.732 -0.3127  0.6942 -0.2289
 7527SOL    HW134040   4.498   1.522   2.765  0.4862  1.5977 -3.5140
 7527SOL    HW234041   4.355   1.506   2.734 -1.2777 -0.9392  1.3518
 7528SOL     OW34042   0.174   0.115   2.312 -0.4619  0.3463 -0.4532
 7528SOL    HW134043   0.240   0.107   2.381 -0.4309  0.5053 -0.4653
 7528SOL    HW234044   0.103   0.149   2.366  0.1575  2.2100 -0.8070
 7529SOL     OW34045   2.102   0.990   3.239 -0.2137  0.0965 -0.7600
 7529SOL    HW134046   2.106   0.926   3.168 -0.6389  1.9656 -2.4499
 7529SOL    HW234047   2.151   1.061   3.198  0.3048  1.5732  2.4242
 7530SOL     OW34048   0.890   1.070  15.955 -0.2224 -0.2370 -0.3005
 7530SOL    HW134049   0.934   1.155  15.965  0.1493 -0.4587 -0.0631
 7530SOL    HW234050   0.952   1.012  15.912 -1.0115 -0.2653 -1.3970
 7531SOL     OW34051   4.320   0.510   8.331 -0.1489  0.1638  0.8796
 7531SOL    HW134052   4.376   0.478   8.402  1.2617  2.2006  0.7210
 7531SOL    HW234053   4.236   0.514   8.375  0.5232 -0.7838  2.2413
 7532SOL     OW34054   3.427   3.447  10.771 -0.2586 -0.2846  0.5542
 7532SOL    HW134055   3.400   3.448  10.679  2.4073  1.6755 -0.2115
 7532SOL    HW234056   3.381   3.369  10.801 -0.0214 -0.6580 -0.0663
 7533SOL     OW34057   2.851   3.464   3.131 -0.3351 -0.5879 -0.3745
 7533SOL    HW134058   2.756   3.463   3.128 -0.2942 -2.9613 -0.4212
 7533SOL    HW234059   2.864   3.558   3.146 -0.0557 -0.6362 -0.3023
 7534SOL     OW34060   3.761   2.901   9.715 -0.1905 -0.4957  0.0026
 7534SOL    HW134061   3.683   2.891   9.770 -0.7816 -1.0236 -0.9365
 7534SOL    HW234062   3.826   2.853   9.767 -0.6058 -2.3132 -1.1623
 7535SOL     OW34063   4.329   2.038   6.738 -0.2264  0.2421 -0.3009
 7535SOL    HW134064   4.313   2.110   6.798 -2.8875 -0.7279  0.1647
 7535SOL    HW234065   4.308   2.076   6.653 -0.0870  2.6044  0.7320
 7536SOL     OW34066   4.413   2.560   3.036  0.1369 -0.0676  0.1582
 7536SOL    HW134067   4.439   2.563   2.944 -1.4366  3.6237 -0.1736
 7536SOL    HW234068   4.433   2.471   3.065 -0.3521 -0.8346 -1.8768
 7537SOL     OW34069   4.462   1.487   9.811 -0.2343  0.1277  0.0521
 7537SOL    HW134070   4.557   1.471   9.817 -0.4949 -0.3938  3.1233
 7537SOL    HW234071   4.427   1.409   9.770  3.5810 -1.3581 -0.3510
 7538SOL     OW34072   0.844   2.317   3.566 -0.3605  0.4797  0.4873
 7538SOL    HW134073   0.866   2.233   3.606 -0.6842 -0.2721 -0.9039
 7538SOL    HW234074   0.929   2.356   3.548 -1.1050  1.0165 -1.8405
 7539SOL     OW34075   4.721   3.668  11.646  0.1365 -0.0782  0.1477
 7539SOL    HW134076   0.048   3.749  11.653  1.0345 -0.6740  0.6805
 7539SOL    HW234077   4.705   3.666  11.551 -0.3146 -0.5444  0.2339
 7540SOL     OW34078   1.700   1.273   2.944 -0.2712 -0.1762 -0.0687
 7540SOL    HW134079   1.689   1.353   2.893  0.2899  1.4641  2.3943
 7540SOL    HW234080   1.664   1.209   2.882 -1.0303 -0.2612  0.4611
 7541SOL     OW34081   4.080   3.655   8.781 -0.0554 -0.8071 -0.0063
 7541SOL    HW134082   4.032   3.590   8.832 -1.1291 -0.8410 -1.0821
 7541SOL    HW234083   4.102   3.603   8.704  1.9976 -0.7763  0.5532
 7542SOL     OW34084   0.820   3.844   1.834  0.6514 -0.7697 -0.3182
 7542SOL    HW134085   0.746   3.831   1.776  1.9802  0.5298 -2.3101
 7542SOL    HW234086   0.873   3.899   1.777  1.1841 -0.3691  0.5550
 7543SOL     OW34087   0.042   1.300   3.253  0.1057 -0.4642 -0.0085
 7543SOL    HW134088   4.693   1.363   3.265  1.2106  0.6563  0.5634
 7543SOL    HW234089   4.718   1.225   3.290  1.5747 -2.0405 -1.3626
 7544SOL     OW34090   0.344   3.379   3.337  0.0163 -0.2987 -0.6037
 7544SOL    HW134091   0.309   3.417   3.257  0.3584  1.0686 -0.0988
 7544SOL    HW234092   0.311   3.441   3.401  3.0502 -1.1757  1.8171
 7545SOL     OW34093   1.069   3.596  12.359  0.0557  0.2887 -0.2892
 7545SOL    HW134094   1.154   3.562  12.330 -0.6767 -0.9920 -0.9607
 7545SOL    HW234095   1.080   3.620  12.451  1.5573 -1.8769  0.0867
 7546SOL     OW34096   0.894   3.539   0.243 -0.1435  0.0678 -0.1914
 7546SOL    HW134097   0.894   3.460   0.297  1.3665 -0.0397 -0.3475
 7546SOL    HW234098   0.898   3.494   0.158  0.5899  1.7429 -1.0382
 7547SOL     OW34099   1.894   2.489   1.860 -0.1882  0.0314  0.2297
 7547SOL    HW134100   1.798   2.490   1.861 -0.2041 -1.2313  0.4909
 7547SOL    HW234101   1.906   2.561   1.798  1.6593 -0.8561 -0.4524
 7548SOL     OW34102   0.177   2.329  14.677  0.7539 -1.1937  0.1996
 7548SOL    HW134103   0.272   2.335  14.688  0.5883  0.2828  0.8038
 7548SOL    HW234104   0.164   2.332  14.582 -2.2357  1.7207  0.7419
 7549SOL     OW34105   3.962   1.597   4.703 -0.5088 -0.1232 -0.7709
 7549SOL    HW134106   3.944   1.665   4.638  3.4120  1.0233 -0.6467
 7549SOL    HW234107   3.946   1.522   4.646 -0.0671 -0.7066 -0.1280
 7550SOL     OW34108   0.546   0.425  13.406  0.3186  0.0772 -0.3435
 7550SOL    HW134109   0.509   0.497  13.356 -1.1535  0.8828  1.9331
 7550SOL    HW234110   0.476   0.364  13.384  2.2732 -2.1042 -0.5577
 7551SOL     OW34111   1.659   0.014   4.943  0.4251 -0.1366 -0.3075
 7551SOL    HW134112   1.694   0.089   4.993 -0.1219 -0.3349  0.3749
 7551SOL    HW234113   1.570   0.012   4.978  0.8375  2.3399  0.9754
 7552SOL     OW34114   1.336   4.579   2.039  0.3204 -0.0176 -0.1278
 7552SOL    HW134115   1.252   4.620   2.057 -0.5146 -1.3684 -0.8850
 7552SOL    HW234116   1.390   4.656   2.057  1.6723 -0.8059 -0.7634
 7553SOL     OW34117   2.706   2.325   8.983 -0.1500  0.5258 -0.7873
 7553SOL    HW134118   2.740   2.406   8.944  0.2947  0.8897  0.3479
 7553SOL    HW234119   2.778   2.305   9.043  0.4231 -1.6477 -2.2407
 7554SOL     OW34120   1.887   0.478   6.109 -0.2759  0.3358  0.2130
 7554SOL    HW134121   1.871   0.436   6.193  1.7565 -0.2240  0.3152
 7554SOL    HW234122   1.914   0.405   6.054  1.3295  1.4398 -0.4482
 7555SOL     OW34123   3.103   0.996   2.465 -0.3101 -0.0788 -0.0839
 7555SOL    HW134124   3.054   1.075   2.487  0.8548 -0.3642  3.5908
 7555SOL    HW234125   3.193   1.031   2.461  0.0250 -0.8283  0.9197
 7556SOL     OW34126   2.340   1.079   1.854 -0.0094  0.7903 -0.1559
 7556SOL    HW134127   2.319   1.061   1.945  2.7954 -2.9537 -0.2411
 7556SOL    HW234128   2.259   1.066   1.805 -0.2199 -0.5419  0.5558
 7557SOL     OW34129   4.323   2.219   0.554  0.0473 -0.0607  0.0027
 7557SOL    HW134130   4.305   2.200   0.646 -2.0283  0.1248 -0.3580
 7557SOL    HW234131   4.402   2.271   0.564  0.0254 -0.4035  1.9717
 7558SOL     OW34132   3.978   2.531  12.296 -0.1874 -0.2554 -0.3210
 7558SOL    HW134133   3.990   2.471  12.223 -2.2780  1.5725 -2.1927
 7558SOL    HW234134   4.051   2.590  12.276 -0.3580 -0.0835 -0.4390
 7559SOL     OW34135   1.537   0.369   2.629 -0.0272 -0.3316 -0.7082
 7559SOL    HW134136   1.452   0.358   2.588 -0.0859 -1.4218 -0.2959
 7559SOL    HW234137   1.564   0.281   2.657  0.2471 -0.2529 -0.7248
 7560SOL     OW34138   0.466   1.458   9.923 -0.4631  0.3952 -0.2642
 7560SOL    HW134139   0.453   1.428   9.833 -1.0028  1.8175 -0.6533
 7560SOL    HW234140   0.410   1.535   9.920 -0.2967  0.6078  2.0824
 7561SOL     OW34141   1.184   1.697  15.455 -0.2446  0.2498 -0.2757
 7561SOL    HW134142   1.254   1.641  15.420  0.8659  1.0761  0.6393
 7561SOL    HW234143   1.221   1.785  15.446  1.7634 -0.6362 -0.6938
 7562SOL     OW34144   1.376   0.510   8.076 -0.1075  0.0016 -0.5248
 7562SOL    HW134145   1.363   0.434   8.132 -1.2752  1.3830  1.0698
 7562SOL    HW234146   1.289   0.526   8.039 -0.0324  0.5707 -0.4506
 7563SOL     OW34147   1.496   0.296  16.583 -0.3437 -0.1894 -0.5555
 7563SOL    HW134148   1.557   0.289  16.656  0.6844 -1.6496 -1.5543
 7563SOL    HW234149   1.495   0.205  16.555  0.5846 -0.3534 -0.0609
 7564SOL     OW34150   4.699   3.561  12.246 -0.7879 -0.1721  0.3116
 7564SOL    HW134151   4.721   3.584  12.336 -1.7783 -1.1637  0.8164
 7564SOL    HW234152   0.040   3.492  12.226 -0.6909 -0.6659  2.2589
 7565SOL     OW34153   3.532   2.511   4.423 -0.4059  0.3932  0.3569
 7565SOL    HW134154   3.599   2.456   4.383 -1.1959 -0.7823  0.6465
 7565SOL    HW234155   3.539   2.591   4.371  2.3581 -0.1320 -0.0597
 7566SOL     OW34156   0.455   4.524   2.087  0.5349 -0.3241  0.1889
 7566SOL    HW134157   0.390   4.595   2.087  1.5466  0.6015 -1.2802
 7566SOL    HW234158   0.432   4.467   2.161 -1.0680  0.1569  0.0732
 7567SOL     OW34159   1.994   3.377   6.719  0.3935  0.0364  0.0087
 7567SOL    HW134160   1.924   3.311   6.715  0.0118  0.5167 -1.5383
 7567SOL    HW234161   1.980   3.437   6.645  1.3287 -1.2913 -1.2509
 7568SOL     OW34162   1.809   4.035   7.192 -0.5732 -0.5382  0.5711
 7568SOL    HW134163   1.791   4.048   7.285 -1.3626  3.6631 -0.1516
 7568SOL    HW234164   1.837   3.944   7.199 -1.1913 -0.6382  1.7115
 7569SOL     OW34165   3.544   3.697   1.465 -0.6827 -0.3985 -0.5767
 7569SOL    HW134166   3.598   3.695   1.545  0.1717 -2.0542 -1.1856
 7569SOL    HW234167   3.549   3.602   1.450 -3.4119 -0.6676  0.2143
 7570SOL     OW34168   2.064   0.092   0.130 -0.0407  0.9025  0.0274
 7570SOL    HW134169   1.990   0.037   0.157  1.4153 -0.5019  1.1338
 7570SOL    HW234170   2.066   0.157   0.200 -1.2668 -0.9150  1.7539
 7571SOL     OW34171   3.057   2.836  12.506 -0.2805 -0.3609 -0.0814
 7571SOL    HW134172   3.094   2.916  12.542 -2.4978  0.1185  1.1673
 7571SOL    HW234173   3.123   2.799  12.448  1.2142  0.7531  0.9035
 7572SOL     OW34174   2.340   0.798   5.530  0.1244 -0.1612  0.4028
 7572SOL    HW134175   2.407   0.761   5.473  0.7178 -0.6964  1.4346
 7572SOL    HW234176   2.390   0.877   5.550 -0.4003  0.7396 -1.9173
 7573SOL     OW34177   2.444   3.175   7.474 -0.3376  0.4904  0.0508
 7573SOL    HW134178   2.354   3.165   7.508  0.0669 -2.7539  0.2091
 7573SOL    HW234179   2.484   3.173   7.561  0.2916  0.8512 -0.2358
 7574SOL     OW34180   4.213   2.534  10.052  0.3929 -0.8668  0.1245
 7574SOL    HW134181   4.264   2.501   9.978  3.4056 -0.0629  1.8713
 7574SOL    HW234182   4.158   2.598  10.006 -0.2903 -1.5469 -0.0092
 7575SOL     OW34183   0.923   3.931  14.849  0.5891  0.0277  0.3138
 7575SOL    HW134184   0.927   3.946  14.943 -2.7031  1.5064  0.2237
 7575SOL    HW234185   0.898   4.020  14.827 -0.6137 -0.0216  1.4934
 7576SOL     OW34186   2.902   3.755   7.055 -0.5216 -0.3588 -0.1189
 7576SOL    HW134187   2.824   3.785   7.101  0.4898 -2.4294  2.9868
 7576SOL    HW234188   2.872   3.689   6.994 -0.4239  0.9048 -1.5251
 7577SOL     OW34189   1.803   3.080   8.111 -0.2708  0.1015  0.4492
 7577SOL    HW134190   1.829   3.165   8.147 -1.7770  1.1263 -0.9022
 7577SOL    HW234191   1.740   3.113   8.048  0.7647  0.4975 -0.3768
 7578SOL     OW34192   2.148   3.802   6.814 -0.4435 -0.2689  0.1414
 7578SOL    HW134193   2.110   3.889   6.805  0.2174  0.0749  0.6601
 7578SOL    HW234194   2.191   3.809   6.899  0.1243 -0.6351 -0.1142
 7579SOL     OW34195   3.051   1.032   7.619 -0.7962  0.0780  0.2087
 7579SOL    HW134196   3.145   1.050   7.629 -1.1167  2.7419 -1.4174
 7579SOL    HW234197   3.047   0.978   7.698 -1.5972 -2.4859 -1.5763
 7580SOL     OW34198   1.305   0.911   8.528  0.8165  0.1676  0.6648
 7580SOL    HW134199   1.377   0.874   8.579  0.1240 -1.3863  0.5439
 7580SOL    HW234200   1.282   0.826   8.490  0.0249  0.6071  0.1544
 7581SOL     OW34201   3.565   2.215   8.830 -0.6194 -0.3353 -0.3572
 7581SOL    HW134202   3.500   2.150   8.858 -1.6606  0.3804 -1.1317
 7581SOL    HW234203   3.636   2.156   8.805  1.4565  1.9522  0.1398
 7582SOL     OW34204   0.914   4.511   7.026  0.3886 -0.4154  0.1630
 7582SOL    HW134205   0.885   4.522   7.117  0.0534 -3.4181  0.4148
 7582SOL    HW234206   0.905   4.417   7.011  1.4322 -0.4975  0.0938
 7583SOL     OW34207   1.359   4.446   7.324 -0.2576  0.8145  0.0624
 7583SOL    HW134208   1.369   4.380   7.393 -1.3502  1.3554  0.7374
 7583SOL    HW234209   1.263   4.445   7.317 -0.4302 -2.8236  2.8692
 7584SOL     OW34210   0.560   2.076   3.145  0.2963 -0.1962 -0.9498
 7584SOL    HW134211   0.594   2.159   3.177 -1.6922  0.1374  0.2989
 7584SOL    HW234212   0.471   2.076   3.180  0.5639  1.3803 -0.2772
 7585SOL     OW34213   1.494   3.729   1.813  0.4274  0.7226  0.1775
 7585SOL    HW134214   1.477   3.656   1.753 -2.2226  1.4657  0.0139
 7585SOL    HW234215   1.530   3.798   1.757 -0.6221  1.6900  0.6964
 7586SOL     OW34216   2.151   0.075  14.827 -0.3077 -0.6266 -0.3539
 7586SOL    HW134217   2.130   4.710  14.860  0.6359 -0.9932 -0.7116
 7586SOL    HW234218   2.201   0.100  14.905  0.6800 -1.4277 -0.7187
 7587SOL     OW34219   1.684   4.221   3.129 -0.0044  0.1782  0.2303
 7587SOL    HW134220   1.652   4.155   3.190  1.2217 -0.6824 -0.0527
 7587SOL    HW234221   1.699   4.158   3.059 -2.4187  0.4030 -0.4897
 7588SOL     OW34222   0.399   2.477   2.669 -0.0167 -0.1297 -0.6700
 7588SOL    HW134223   0.396   2.397   2.617 -0.2441  0.0861 -0.9883
 7588SOL    HW234224   0.425   2.439   2.753 -1.6683 -0.5201 -0.3372
 7589SOL     OW34225   4.186   2.480   7.631 -0.2721 -0.1026  0.5958
 7589SOL    HW134226   4.129   2.405   7.648 -0.2254 -0.1188  0.6849
 7589SOL    HW234227   4.198   2.480   7.536 -1.7265  0.1598  0.4267
 7590SOL     OW34228   1.934   2.567   5.363  0.1959 -0.0297 -0.2366
 7590SOL    HW134229   1.952   2.484   5.320  0.8670 -0.1858  0.3422
 7590SOL    HW234230   1.990   2.628   5.316 -0.7995 -0.0876 -1.5069
 7591SOL     OW34231   2.074   1.223  11.848 -0.4986  0.0948  0.1284
 7591SOL    HW134232   2.104   1.263  11.766  1.1340  0.6594  1.0042
 7591SOL    HW234233   2.120   1.139  11.853  0.1961  0.4439 -0.3999
 7592SOL     OW34234   4.069   0.019  15.522  0.0421 -0.1674 -0.7755
 7592SOL    HW134235   4.038   0.053  15.438 -0.5207 -1.4291 -1.0889
 7592SOL    HW234236   4.065   4.647  15.504  0.8361 -0.0648 -1.5210
 7593SOL     OW34237   2.211   4.591  17.679 -1.1517 -0.1789  0.5419
 7593SOL    HW134238   2.221   4.529   0.060  0.5796  0.2641  0.6594
 7593SOL    HW234239   2.205   4.670   0.041 -1.8460  0.7886 -0.9449
 7594SOL     OW34240   1.467   3.860   5.131  0.1616 -0.1554 -0.1053
 7594SOL    HW134241   1.501   3.861   5.221 -1.3877  0.1072  0.4852
 7594SOL    HW234242   1.429   3.948   5.121  1.7234  0.9879  3.9431
 7595SOL     OW34243   3.919   0.739   9.863  0.0693  0.4257 -0.2303
 7595SOL    HW134244   3.918   0.829   9.894  0.0784  1.1221 -2.2479
 7595SOL    HW234245   3.971   0.690   9.927  0.5699  1.8354  0.4511
 7596SOL     OW34246   0.666   2.600   4.914 -0.0079 -0.3140  0.2781
 7596SOL    HW134247   0.759   2.601   4.889  0.7086 -0.1168  2.9096
 7596SOL    HW234248   0.633   2.535   4.853 -0.1397 -0.3270  0.3643
 7597SOL     OW34249   1.557   4.183   5.682  0.6030  0.2658  0.3619
 7597SOL    HW134250   1.624   4.141   5.629 -0.2779  2.1359 -2.2606
 7597SOL    HW234251   1.489   4.116   5.670  0.7566  0.0613  0.6455
 7598SOL     OW34252   3.432   1.276   4.340 -0.5307  0.0282  0.1070
 7598SOL    HW134253   3.437   1.250   4.248 -2.2562  1.2247 -0.3197
 7598SOL    HW234254   3.344   1.310   4.358  0.8151  3.3332  0.2884
 7599SOL     OW34255   2.234   0.353   2.618  0.9241 -0.1478 -0.2267
 7599SOL    HW134256   2.203   0.300   2.545  0.8951  0.0663 -0.3674
 7599SOL    HW234257   2.298   0.294   2.659  0.5083 -0.0689  0.5382
 7600SOL     OW34258   2.230   2.328  11.241  0.1948  0.0137 -0.2561
 7600SOL    HW134259   2.169   2.366  11.179  1.3050  1.9081 -0.2000
 7600SOL    HW234260   2.315   2.360  11.210 -0.6113  0.9520 -1.4661
 7601SOL     OW34261   0.335   3.341   5.418 -0.1530 -0.3471  0.0365
 7601SOL    HW134262   0.425   3.366   5.440 -0.1358 -0.5647  0.2290
 7601SOL    HW234263   0.281   3.402   5.468  1.2299  1.6543 -0.8950
 7602SOL     OW34264   2.947   1.499   5.386 -0.0351 -0.4587  0.0610
 7602SOL    HW134265   2.968   1.420   5.337  1.9859  0.1273 -0.0414
 7602SOL    HW234266   2.976   1.470   5.473 -2.4504 -0.2628  0.9170
 7603SOL     OW34267   2.877   3.921   4.230 -0.0113  0.1714  0.1161
 7603SOL    HW134268   2.942   3.890   4.166 -0.6817 -0.5592 -0.2235
 7603SOL    HW234269   2.802   3.868   4.201  0.0188 -0.3258  0.9357
 7604SOL     OW34270   4.206   0.586   1.660 -0.6332 -0.1830  0.1277
 7604SOL    HW134271   4.171   0.500   1.636 -0.5213  0.5428 -2.6454
 7604SOL    HW234272   4.186   0.633   1.579 -0.7923  3.1540  2.1029
 7605SOL     OW34273   3.398   3.513   5.124  0.2861  0.2210  0.2459
 7605SOL    HW134274   3.329   3.510   5.191  0.2673 -1.2786  0.1659
 7605SOL    HW234275   3.396   3.425   5.088  2.3734  0.0755  0.4749
 7606SOL     OW34276   1.722   1.981   3.594  0.3498  0.8902  0.3312
 7606SOL    HW134277   1.643   1.971   3.646  1.0556  1.5480  1.5515
 7606SOL    HW234278   1.757   2.065   3.625  0.4102  1.3089 -0.8585
 7607SOL     OW34279   3.249   0.748   2.586  0.3038 -0.5558  0.4216
 7607SOL    HW134280   3.244   0.737   2.491 -0.3299 -0.7903  0.4881
 7607SOL    HW234281   3.345   0.753   2.586  0.2873 -0.1957 -0.3036
 7608SOL     OW34282   4.293   2.712   2.461 -0.6964  0.1254 -0.1614
 7608SOL    HW134283   4.294   2.650   2.388  0.3520 -1.4735  1.1903
 7608SOL    HW234284   4.205   2.709   2.498 -0.8079  1.9932 -0.3125
 7609SOL     OW34285   4.526   0.994  12.265 -0.0595  0.0643  0.0867
 7609SOL    HW134286   4.444   0.972  12.220 -1.1065 -0.0229  2.0535
 7609SOL    HW234287   4.494   0.996  12.355 -0.8478  0.2041 -0.1964
 7610SOL     OW34288   3.030   4.609   2.803 -0.2180  0.2052  0.1695
 7610SOL    HW134289   2.964   4.599   2.872  0.1670 -0.4165  0.4413
 7610SOL    HW234290   3.105   4.628   2.859  2.0247 -0.0537 -2.7771
 7611SOL     OW34291   1.360   3.033   0.391 -0.5789  0.6470 -0.0298
 7611SOL    HW134292   1.382   3.097   0.459 -0.8902  2.3188 -1.5147
 7611SOL    HW234293   1.311   2.957   0.423 -2.3284  1.8766  0.2132
 7612SOL     OW34294   2.140   0.460   9.617 -0.2583  0.0948  0.4468
 7612SOL    HW134295   2.127   0.506   9.701 -1.8602  0.4017  0.0301
 7612SOL    HW234296   2.177   0.529   9.562 -0.8475 -1.2148 -1.5747
 7613SOL     OW34297   1.233   0.535  13.672 -0.4788  0.6944 -0.0098
 7613SOL    HW134298   1.225   0.619  13.716 -1.4445  0.5776  0.0286
 7613SOL    HW234299   1.176   0.537  13.595 -0.3961 -0.2011 -0.0995
 7614SOL     OW34300   3.099   1.389   3.905  0.0808 -0.1744 -0.4204
 7614SOL    HW134301   3.005   1.378   3.918  0.0097 -0.5880 -1.3159
 7614SOL    HW234302   3.131   1.299   3.909  0.8523  0.1512  0.8108
 7615SOL     OW34303   3.989   2.943   7.127 -0.0643 -0.2746 -0.6868
 7615SOL    HW134304   3.974   2.929   7.221  0.3531 -3.0430 -1.0278
 7615SOL    HW234305   3.901   2.973   7.104 -0.3862 -1.7904 -1.4561
 7616SOL     OW34306   1.361   0.382  11.669 -0.1305  0.0769  0.4075
 7616SOL    HW134307   1.411   0.344  11.597 -1.9908 -0.2241 -0.7196
 7616SOL    HW234308   1.410   0.351  11.745  2.3861  1.0344 -0.8127
 7617SOL     OW34309   3.299   4.307  10.106  0.0776 -0.2328 -0.2356
 7617SOL    HW134310   3.379   4.272  10.144  0.2966 -0.0977 -0.5671
 7617SOL    HW234311   3.321   4.400  10.114 -0.1462 -0.1069 -1.0100
 7618SOL     OW34312   4.567   3.557   2.618  0.5016  0.0390  0.4583
 7618SOL    HW134313   4.475   3.540   2.599  1.2539 -1.0476 -2.1846
 7618SOL    HW234314   4.559   3.609   2.698  0.4998 -0.7360  0.9568
 7619SOL     OW34315   2.784   2.188   8.223 -0.4581 -0.4960  0.0939
 7619SOL    HW134316   2.697   2.221   8.245 -0.0930  0.1946  0.5098
 7619SOL    HW234317   2.841   2.248   8.270  2.4843 -1.4266 -2.2866
 7620SOL     OW34318   0.276   1.916   5.233  0.2752  0.1163 -0.1706
 7620SOL    HW134319   0.224   1.987   5.197 -1.5333 -0.6583  0.9326
 7620SOL    HW234320   0.367   1.947   5.232  0.4512 -0.3852  0.1146
 7621SOL     OW34321   2.644   4.545   2.404 -0.2608 -0.1773 -0.2232
 7621SOL    HW134322   2.662   4.527   2.496  0.0888  0.8918 -0.0783
 7621SOL    HW234323   2.724   4.596   2.396 -1.1045  1.0177 -1.0672
 7622SOL     OW34324   4.235   2.583   1.550 -0.0447  0.2379 -0.1095
 7622SOL    HW134325   4.257   2.671   1.519  0.1826  0.4237  0.5813
 7622SOL    HW234326   4.300   2.571   1.620  1.6117 -1.7779 -1.9756
 7623SOL     OW34327   0.356   1.542   8.739 -0.8034  0.1714 -0.1638
 7623SOL    HW134328   0.285   1.493   8.699  0.1036 -1.0609 -0.2458
 7623SOL    HW234329   0.350   1.501   8.825 -0.8208 -1.4095 -0.9215
 7624SOL     OW34330   2.149   4.221  11.938 -0.1994  0.3180  0.1885
 7624SOL    HW134331   2.169   4.306  11.899  0.5277  0.4442  0.8268
 7624SOL    HW234332   2.207   4.160  11.892 -1.7926  0.4369 -1.9654
 7625SOL     OW34333   1.576   4.566   2.307  0.5945 -0.3252 -0.1901
 7625SOL    HW134334   1.533   4.624   2.244  0.6137  0.4552  0.5220
 7625SOL    HW234335   1.628   4.631   2.353  0.9644 -1.4637  1.0128
 7626SOL     OW34336   0.883   3.008   2.028 -0.1086  0.1048  0.2305
 7626SOL    HW134337   0.873   3.033   1.936 -0.4820  0.2348  0.3075
 7626SOL    HW234338   0.886   2.912   2.020 -3.2753 -0.1099  1.6243
 7627SOL     OW34339   3.645   3.350  12.749 -0.4586  0.4101 -0.0097
 7627SOL    HW134340   3.661   3.362  12.843  0.8686 -0.0839 -0.1634
 7627SOL    HW234341   3.601   3.265  12.748  1.2555 -0.5104  1.6712
 7628SOL     OW34342   0.738   3.555   4.337  0.2821 -0.6179 -0.2102
 7628SOL    HW134343   0.801   3.595   4.276  1.4953 -0.5928  1.0610
 7628SOL    HW234344   0.652   3.580   4.305 -0.2433  0.8032  2.3508
 7629SOL     OW34345   0.812   0.444   4.719  0.1829 -0.0869  0.2336
 7629SOL    HW134346   0.893   0.440   4.669 -0.3764 -1.8897 -0.5314
 7629SOL    HW234347   0.794   0.530   4.681 -1.4444  0.1670  1.5923
 7630SOL     OW34348   4.702   2.779  15.290  0.7666 -0.0372  0.4554
 7630SOL    HW134349   0.070   2.781  15.322  1.7916  0.8926 -2.5235
 7630SOL    HW234350   4.709   2.715  15.219 -0.4540 -0.6226  0.8645
 7631SOL     OW34351   4.154   3.746   7.560 -1.0980 -0.1968 -0.1875
 7631SOL    HW134352   4.201   3.663   7.559  2.0975  1.5971  1.4023
 7631SOL    HW234353   4.163   3.777   7.650 -0.4363 -1.4352  0.1663
 7632SOL     OW34354   2.569   1.606   8.088  0.0985  0.1821  0.7641
 7632SOL    HW134355   2.626   1.633   8.016 -0.0457  2.1923  1.3866
 7632SOL    HW234356   2.599   1.516   8.097 -0.5838 -0.2469 -1.3961
 7633SOL     OW34357   0.655   0.759   5.592  0.7894  0.1682 -0.3344
 7633SOL    HW134358   0.571   0.736   5.551 -0.5330  0.3873  2.2234
 7633SOL    HW234359   0.705   0.805   5.525  1.9226 -1.2548 -0.4545
 7634SOL     OW34360   4.277   0.857  12.279 -0.2263 -0.0247  0.4942
 7634SOL    HW134361   4.210   0.925  12.281 -0.9777 -0.7537  0.0210
 7634SOL    HW234362   4.254   0.807  12.358 -0.9677  0.0445  0.3238
 7635SOL     OW34363   0.477   1.459   8.166  0.0529  0.4875  0.1271
 7635SOL    HW134364   0.469   1.364   8.154  2.5076  0.2818  0.2095
 7635SOL    HW234365   0.414   1.496   8.103 -0.4529 -1.6040 -0.5945
 7636SOL     OW34366   2.680   3.403  12.738  0.2288 -0.0746  0.0709
 7636SOL    HW134367   2.706   3.450  12.817 -2.5606 -0.9059  1.4518
 7636SOL    HW234368   2.758   3.412  12.682  2.8186  0.9767  3.8129
 7637SOL     OW34369   3.339   1.552  12.853  0.3331  0.4123  0.2764
 7637SOL    HW134370   3.346   1.480  12.790  0.1241  2.3422 -1.9807
 7637SOL    HW234371   3.399   1.510  12.915  0.4885  0.2636  0.0285
 7638SOL     OW34372   3.753   3.940   9.059  0.3106 -0.0646 -0.5301
 7638SOL    HW134373   3.722   3.909   9.144  0.6577 -0.6557 -0.6219
 7638SOL    HW234374   3.817   4.006   9.086 -2.2092  0.8364  3.2836
 7639SOL     OW34375   4.253   0.289   5.875  0.2261  0.5022 -0.1042
 7639SOL    HW134376   4.311   0.353   5.916 -0.7731 -0.0853  2.1852
 7639SOL    HW234377   4.164   0.315   5.900 -0.4173 -1.8942  0.0343
 7640SOL     OW34378   0.272   2.843   1.104  0.6553  0.1844  0.3477
 7640SOL    HW134379   0.261   2.792   1.024 -2.0682  4.2178 -1.8892
 7640SOL    HW234380   0.319   2.920   1.072 -1.1557  0.9016 -0.5984
 7641SOL     OW34381   3.139   1.222   6.199 -0.1376  0.0459 -0.2102
 7641SOL    HW134382   3.129   1.295   6.138  0.2183  0.4089  0.1625
 7641SOL    HW234383   3.116   1.276   6.275  1.4932 -0.4045  0.6162
 7642SOL     OW34384   1.346   2.393   7.400  0.5396 -0.0184  0.2342
 7642SOL    HW134385   1.441   2.407   7.397  0.2622  1.4861 -0.9436
 7642SOL    HW234386   1.341   2.322   7.465  0.5113 -0.4326 -0.2153
 7643SOL     OW34387   2.604   1.632  13.970 -0.0184  0.2967 -0.0164
 7643SOL    HW134388   2.646   1.658  13.888  1.5433 -1.4794  0.2387
 7643SOL    HW234389   2.568   1.719  13.989  0.4096  0.0292  1.9179
 7644SOL     OW34390   2.005   0.882  16.352  0.2924 -0.1890  0.2736
 7644SOL    HW134391   1.962   0.874  16.437  0.6970 -1.2074  0.3859
 7644SOL    HW234392   1.931   0.900  16.294 -0.1433 -2.5284  0.1061
 7645SOL     OW34393   2.771   1.153  14.475 -0.3926 -0.3697 -0.2515
 7645SOL    HW134394   2.850   1.165  14.528  0.1056 -2.4141 -0.5292
 7645SOL    HW234395   2.738   1.243  14.474 -0.5270 -0.4149 -0.0716
 7646SOL     OW34396   0.316   0.902  11.970  0.4529  0.1678  0.4256
 7646SOL    HW134397   0.401   0.857  11.977  0.8854  0.7749 -0.9215
 7646SOL    HW234398   0.322   0.974  12.033 -1.3300  0.4885  0.2133
 7647SOL     OW34399   3.869   0.223   2.547  0.0516 -0.2363 -0.1007
 7647SOL    HW134400   3.858   0.314   2.519  1.6135  0.2792  0.9947
 7647SOL    HW234401   3.962   0.224   2.568 -0.3217  0.9843  1.3990
 7648SOL     OW34402   2.010   2.894  16.503  0.0208 -0.5490 -0.1070
 7648SOL    HW134403   2.071   2.829  16.466  2.0581  0.4975  1.4598
 7648SOL    HW234404   1.955   2.903  16.425 -1.3280 -1.8988  0.7014
 7649SOL     OW34405   2.222   3.373   6.865  0.2656 -0.5736  0.5927
 7649SOL    HW134406   2.236   3.440   6.932 -1.4272 -0.6429  0.9977
 7649SOL    HW234407   2.167   3.405   6.794  0.0012 -0.5677  0.8032
 7650SOL     OW34408   2.727   1.895   0.049 -0.2365 -0.1732 -0.0893
 7650SOL    HW134409   2.789   1.961   0.018  1.2273 -1.0330  1.0336
 7650SOL    HW234410   2.775   1.877   0.129 -0.3126  1.8776  0.4066
 7651SOL     OW34411   4.433   1.578  12.306  0.2934 -0.5632 -0.1478
 7651SOL    HW134412   4.507   1.527  12.338 -0.3870 -0.6621  1.2901
 7651SOL    HW234413   4.452   1.576  12.212  2.4944  1.9935  0.2490
 7652SOL     OW34414   0.474   0.502  10.884  0.0668 -0.0721  0.1290
 7652SOL    HW134415   0.474   0.406  10.885 -0.9908 -0.0872 -1.4130
 7652SOL    HW234416   0.483   0.533  10.975  1.9600 -3.4531  1.0853
 7653SOL     OW34417   0.420   1.654   6.925  0.1084  0.4308 -0.2052
 7653SOL    HW134418   0.471   1.638   6.845 -1.7217  3.3774 -1.9569
 7653SOL    HW234419   0.495   1.656   6.985 -1.4839 -0.9234  1.8200
 7654SOL     OW34420   2.025   2.062   1.989  0.4390  0.1477 -0.0598
 7654SOL    HW134421   1.970   2.122   1.938 -0.1885 -0.2093  0.1983
 7654SOL    HW234422   2.048   1.989   1.932 -1.4695  0.9896 -1.9286
 7655SOL     OW34423   2.364   0.566   7.108  0.4142  0.0181  0.4227
 7655SOL    HW134424   2.422   0.523   7.171 -0.8674  0.4810  1.9136
 7655SOL    HW234425   2.290   0.505   7.100  1.0874 -0.6485 -0.7438
 7656SOL     OW34426   2.877   0.951   9.279  0.0015 -0.2613  0.3240
 7656SOL    HW134427   2.791   0.913   9.295 -1.4863  2.3896 -1.3650
 7656SOL    HW234428   2.919   0.952   9.365  0.0017  1.5209  0.2972
 7657SOL     OW34429   3.982   1.745   3.917 -0.4415 -0.1589  0.6106
 7657SOL    HW134430   3.984   1.813   3.985  0.9775 -0.1231  0.5287
 7657SOL    HW234431   3.896   1.705   3.924 -0.6499  0.2437  0.3627
 7658SOL     OW34432   1.191   4.570   6.264 -0.6170  0.5890 -0.1553
 7658SOL    HW134433   1.116   4.528   6.306  0.8356 -0.9794  0.8300
 7658SOL    HW234434   1.240   4.494   6.232  2.2003  1.2331  2.5577
 7659SOL     OW34435   4.639   3.533   2.003 -0.7081 -0.5272  0.2594
 7659SOL    HW134436   0.011   3.522   1.991 -0.6550  0.8773 -0.5299
 7659SOL    HW234437   4.647   3.536   2.098  1.0552  0.9943  0.0527
 7660SOL     OW34438   4.182   0.645   4.511  0.0202 -0.3873  0.2186
 7660SOL    HW134439   4.188   0.646   4.415  1.6656  0.3250  0.3203
 7660SOL    HW234440   4.102   0.694   4.530  0.8935  1.1346 -0.0359
 7661SOL     OW34441   1.130   2.626   3.324  0.1777  0.0244 -0.1678
 7661SOL    HW134442   1.148   2.590   3.237  1.1690 -1.6750  0.7419
 7661SOL    HW234443   1.160   2.551   3.375 -2.9426 -1.3499 -0.3567
 7662SOL     OW34444   0.039   4.144  10.743 -0.0374  0.0649 -0.1066
 7662SOL    HW134445   4.688   4.204  10.728  1.1475  1.3028 -0.8800
 7662SOL    HW234446   0.065   4.121  10.654  0.7803  1.9648 -0.3458
 7663SOL     OW34447   4.122   1.155   7.975  0.0781 -0.1628 -0.0054
 7663SOL    HW134448   4.030   1.155   7.948 -0.3984 -0.7107  1.6389
 7663SOL    HW234449   4.129   1.176   8.068  2.5725  0.4056 -0.3283
 7664SOL     OW34450   1.533   3.142   6.657 -0.2756  0.3536 -0.2654
 7664SOL    HW134451   1.461   3.121   6.716 -0.9223  0.3666 -1.0428
 7664SOL    HW234452   1.535   3.080   6.584 -1.3262 -1.2605  1.0773
 7665SOL     OW34453   4.055   1.333   3.223 -0.1703 -0.2028 -0.1222
 7665SOL    HW134454   4.028   1.403   3.163  1.6069 -0.8518 -1.6990
 7665SOL    HW234455   3.993   1.353   3.293  1.5690 -0.2369  1.4064
 7666SOL     OW34456   3.390   3.965   2.547 -0.5618  0.1526  0.3126
 7666SOL    HW134457   3.432   4.046   2.517  1.0840 -0.9343 -0.2537
 7666SOL    HW234458   3.454   3.898   2.525 -3.7592 -2.5746 -0.7342
 7667SOL     OW34459   0.800   0.560   2.134 -0.1892 -0.4153  0.3833
 7667SOL    HW134460   0.818   0.652   2.114  1.2816 -0.9158 -0.5964
 7667SOL    HW234461   0.705   0.570   2.128 -0.7260 -4.5947  2.3334
 7668SOL     OW34462   3.377   1.622   2.591 -0.4512 -0.3685  0.7130
 7668SOL    HW134463   3.436   1.697   2.580  0.6090 -1.6187 -1.8529
 7668SOL    HW234464   3.406   1.555   2.530  0.1372  0.0537  0.5286
 7669SOL     OW34465   4.336   1.420  13.417 -0.6678  0.6762  0.0790
 7669SOL    HW134466   4.400   1.410  13.488  0.1538  3.1664 -0.2921
 7669SOL    HW234467   4.371   1.492  13.364 -0.6533  0.6561  0.0613
 7670SOL     OW34468   1.190   4.017   4.532 -0.1568  0.7300  0.4307
 7670SOL    HW134469   1.224   4.042   4.447 -0.9358  0.2177 -0.0323
 7670SOL    HW234470   1.098   4.042   4.524 -0.6275 -0.5346  1.7406
 7671SOL     OW34471   0.990   1.374   7.525  0.0011  0.4177  0.1337
 7671SOL    HW134472   1.056   1.363   7.594  0.1418 -0.7596 -0.1881
 7671SOL    HW234473   1.054   1.377   7.454 -0.8817  2.0446 -0.5910
 7672SOL     OW34474   1.260   1.593   4.046 -0.3187  0.0606 -0.2636
 7672SOL    HW134475   1.278   1.584   3.953 -1.4685 -0.5499 -0.4251
 7672SOL    HW234476   1.211   1.514   4.065 -0.6803 -0.2059 -2.3909
 7673SOL     OW34477   1.125   3.767   4.710 -0.0737  0.0850 -0.0143
 7673SOL    HW134478   1.101   3.808   4.626  1.2034 -1.6477 -1.2272
 7673SOL    HW234479   1.062   3.805   4.771 -0.4833 -3.6506  1.8705
 7674SOL     OW34480   0.013   3.062   7.337 -0.0087  0.1577  0.2175
 7674SOL    HW134481   0.084   3.103   7.288 -0.4027  1.3335  0.6329
 7674SOL    HW234482   4.699   2.993   7.282  1.8856  0.5495 -1.4823
 7675SOL     OW34483   1.957   0.554   7.330  0.0070 -0.6552 -0.3973
 7675SOL    HW134484   1.863   0.559   7.346 -0.0180 -1.8441 -0.1882
 7675SOL    HW234485   1.978   0.648   7.336 -0.4863 -0.5747  0.0695
 7676SOL     OW34486   0.434   0.027   5.775  0.5796 -0.7815 -0.1511
 7676SOL    HW134487   0.445   0.023   5.870  0.7122 -1.8449 -0.2154
 7676SOL    HW234488   0.527   0.039   5.756  0.7090 -1.6171 -0.0598
 7677SOL     OW34489   0.964   2.092  13.656 -0.4004 -0.8235 -0.0266
 7677SOL    HW134490   0.934   2.027  13.720 -2.1166 -1.5149 -1.5325
 7677SOL    HW234491   0.954   2.171  13.708 -3.7192  0.8863 -3.2224
 7678SOL     OW34492   4.498   1.999   0.188 -0.4281 -0.0983 -0.1704
 7678SOL    HW134493   4.465   1.922   0.234  0.7870 -0.7782 -0.4471
 7678SOL    HW234494   4.420   2.054   0.185 -1.1033 -1.0459  0.0831
 7679SOL     OW34495   3.977   0.196   6.206  0.4665 -0.1378  0.5993
 7679SOL    HW134496   4.011   0.138   6.274 -1.0877 -0.3692  1.1594
 7679SOL    HW234497   3.974   0.274   6.261  0.1824  0.3980 -0.1737
 7680SOL     OW34498   3.768   1.629  13.800  0.0927 -0.1798  0.2196
 7680SOL    HW134499   3.796   1.555  13.747  0.4600 -1.0100  1.5955
 7680SOL    HW234500   3.734   1.685  13.730 -0.6786 -1.4144 -0.3829
 7681SOL     OW34501   0.748   4.035  11.117 -0.7294 -0.0860 -0.0450
 7681SOL    HW134502   0.707   4.063  11.199  0.1566  1.4782 -0.1271
 7681SOL    HW234503   0.840   4.014  11.131 -1.7589 -3.1468  2.1100
 7682SOL     OW34504   0.093   3.682   2.567 -0.0410  0.4711  0.8967
 7682SOL    HW134505   0.125   3.706   2.654 -0.3066 -0.6587  1.3001
 7682SOL    HW234506   0.017   3.630   2.593 -1.3156  1.8239 -0.1623
 7683SOL     OW34507   1.742   0.453  11.812 -0.0147  0.3153  0.4820
 7683SOL    HW134508   1.806   0.386  11.835  1.2420  1.9193  1.6796
 7683SOL    HW234509   1.655   0.414  11.826 -1.2807  2.7015 -0.7066
 7684SOL     OW34510   0.904   3.768   6.430 -0.6970 -0.2569  0.2918
 7684SOL    HW134511   0.859   3.851   6.445  0.4268  0.4755 -0.3575
 7684SOL    HW234512   0.827   3.723   6.397 -0.0869 -0.2418 -1.1805
 7685SOL     OW34513   4.715   4.517   7.110 -0.4600  0.5817  0.5127
 7685SOL    HW134514   4.655   4.455   7.070 -0.1206  1.5438 -1.4738
 7685SOL    HW234515   0.033   4.460   7.176  0.1009 -0.4731 -0.7471
 7686SOL     OW34516   3.704   0.881   3.252  0.1088 -0.8315 -0.3107
 7686SOL    HW134517   3.768   0.819   3.216 -1.1776 -2.0586 -0.4993
 7686SOL    HW234518   3.645   0.896   3.177 -1.4976  1.3246  1.3931
 7687SOL     OW34519   0.769   2.383   4.404  0.3679 -0.1970 -0.1201
 7687SOL    HW134520   0.684   2.344   4.426  0.8227 -0.6562  0.8107
 7687SOL    HW234521   0.827   2.362   4.477  0.3170 -1.5359 -0.4684
 7688SOL     OW34522   0.020   4.155   0.677 -0.5384  0.6422  0.3671
 7688SOL    HW134523   4.656   4.114   0.682 -0.7519  0.8491 -1.4690
 7688SOL    HW234524   0.023   4.155   0.581  0.3117  0.2058  0.3968
 7689SOL     OW34525   0.046   1.589   4.213  0.2772 -0.3165 -0.6599
 7689SOL    HW134526   0.011   1.678   4.202 -1.6513 -0.5968  3.3482
 7689SOL    HW234527   4.706   1.550   4.274  1.3275  0.4828  0.9384
 7690SOL     OW34528   3.523   3.153   2.315 -0.1589 -0.2845  0.5662
 7690SOL    HW134529   3.584   3.080   2.307 -0.0736 -0.2510  0.8982
 7690SOL    HW234530   3.495   3.179   2.227 -0.9730 -1.5534  0.4569
 7691SOL     OW34531   4.502   4.449   6.526 -0.1351  0.1995  0.0670
 7691SOL    HW134532   4.563   4.455   6.452  0.8812 -0.2797  0.8672
 7691SOL    HW234533   4.443   4.377   6.502 -1.1718 -0.0342  3.3920
 7692SOL     OW34534   4.685   1.423  15.973 -0.0944  0.8214 -0.1726
 7692SOL    HW134535   4.700   1.392  16.063 -1.6009  2.1240  0.5118
 7692SOL    HW234536   0.048   1.410  15.931 -0.3661  0.0487 -0.4836
 7693SOL     OW34537   4.000   0.483  10.263 -0.2382 -0.1535 -0.9726
 7693SOL    HW134538   4.059   0.412  10.238 -0.8319 -0.5844 -1.1447
 7693SOL    HW234539   3.963   0.440  10.340 -0.3122 -0.1204 -0.9897
 7694SOL     OW34540   1.170   2.716  11.704 -0.1122  0.4460 -0.5987
 7694SOL    HW134541   1.213   2.759  11.630  1.2871 -3.3847 -1.9937
 7694SOL    HW234542   1.238   2.666  11.749 -0.3520 -1.1219 -1.9864
 7695SOL     OW34543   1.255   4.474   5.050 -0.1479 -0.3214  0.1586
 7695SOL    HW134544   1.196   4.547   5.067  0.4910  0.0866  0.6192
 7695SOL    HW234545   1.226   4.401   5.104  3.3021 -1.0029  1.1299
 7696SOL     OW34546   4.279   2.304   2.744  0.8068  0.8208 -0.3032
 7696SOL    HW134547   4.233   2.385   2.764 -2.1489 -1.0457  0.3735
 7696SOL    HW234548   4.362   2.340   2.712  0.3840  3.0328  1.1713
 7697SOL     OW34549   1.773   4.527   5.133  0.4761  0.0399 -0.1940
 7697SOL    HW134550   1.737   4.588   5.069 -0.2207  2.3415  2.4125
 7697SOL    HW234551   1.814   4.461   5.077  1.9034  2.2696 -1.7576
 7698SOL     OW34552   3.828   2.145   9.193 -0.4991  0.2151 -0.0199
 7698SOL    HW134553   3.805   2.085   9.123 -0.8781  1.4377 -0.9374
 7698SOL    HW234554   3.764   2.110   9.255 -0.6969 -0.0106 -0.3551
 7699SOL     OW34555   1.384   3.719   1.418 -0.1516 -0.2663 -0.0778
 7699SOL    HW134556   1.441   3.653   1.379 -0.0803 -0.3298  0.1347
 7699SOL    HW234557   1.337   3.674   1.488  0.4521 -0.7583  0.0103
 7700SOL     OW34558   2.751   2.624   4.108 -0.7610  0.4507 -0.0931
 7700SOL    HW134559   2.771   2.716   4.123 -0.7265  0.2005  1.3521
 7700SOL    HW234560   2.699   2.607   4.187  0.6709  0.4284  0.8385
 7701SOL     OW34561   2.587   2.094   4.320 -0.0480 -0.4350 -0.0962
 7701SOL    HW134562   2.491   2.093   4.324 -0.1682  1.9094 -2.6211
 7701SOL    HW234563   2.582   2.033   4.247 -0.2733  0.5224 -0.8893
 7702SOL     OW34564   0.522   0.709   2.938 -0.4122  0.7047  0.9043
 7702SOL    HW134565   0.552   0.750   2.857  0.0178  0.6555  1.0418
 7702SOL    HW234566   0.430   0.732   2.927 -0.1115  1.7865  0.6430
 7703SOL     OW34567   1.138   0.925   6.469  0.0639  0.0745  0.5348
 7703SOL    HW134568   1.136   1.010   6.514 -0.8571  1.1428 -1.5230
 7703SOL    HW234569   1.073   0.868   6.509  0.5623 -0.8435  0.0370
 7704SOL     OW34570   2.769   2.894   4.336  0.4393  0.4287 -0.5515
 7704SOL    HW134571   2.820   2.827   4.382  1.7956  1.6563 -0.2455
 7704SOL    HW234572   2.754   2.959   4.405 -2.8030 -0.0660 -0.8131
 7705SOL     OW34573   0.926   1.624   8.947 -0.8675 -0.2591 -0.0439
 7705SOL    HW134574   0.885   1.651   8.864  0.2574  0.7761 -0.2570
 7705SOL    HW234575   0.858   1.566   8.982 -0.6282 -0.4238  0.1476
 7706SOL     OW34576   0.040   3.566  12.522 -0.2242  0.4054 -0.2460
 7706SOL    HW134577   0.121   3.603  12.558  0.1113  0.2695 -0.8528
 7706SOL    HW234578   0.027   3.494  12.584  2.5380 -0.1337 -0.2688
 7707SOL     OW34579   0.980   2.410   7.857  0.1680  0.7122 -0.2581
 7707SOL    HW134580   0.954   2.435   7.945  1.8447 -1.0596  0.7496
 7707SOL    HW234581   0.929   2.332   7.834 -0.4955  1.4217 -1.1802
 7708SOL     OW34582   0.391   0.142   8.823  0.5722  0.4188 -0.1392
 7708SOL    HW134583   0.359   0.063   8.866 -0.2336  2.4386  3.0233
 7708SOL    HW234584   0.332   0.209   8.859  3.1489  1.9796  1.1917
 7709SOL     OW34585   0.567   1.504  15.327 -0.1450 -0.1276 -0.5324
 7709SOL    HW134586   0.600   1.478  15.241  2.9619  2.6395 -0.1464
 7709SOL    HW234587   0.647   1.534  15.370 -0.3509  0.1147 -0.3095
 7710SOL     OW34588   2.211   4.470   8.801  0.1124 -0.3929 -0.1402
 7710SOL    HW134589   2.275   4.467   8.872 -0.0441  0.9213  0.0472
 7710SOL    HW234590   2.160   4.391   8.818 -1.6778  0.3434 -1.9874
 7711SOL     OW34591   3.361   0.970   5.143  0.4710  0.0598 -0.4998
 7711SOL    HW134592   3.410   1.052   5.153  0.0518  0.4398 -1.6185
 7711SOL    HW234593   3.296   0.997   5.078 -1.3024 -0.7576  0.9259
 7712SOL     OW34594   0.446   2.894  13.071  0.4318  0.0620 -0.0117
 7712SOL    HW134595   0.420   2.966  13.128 -1.5329 -0.7126  0.0631
 7712SOL    HW234596   0.510   2.937  13.013 -1.7492  2.7451 -0.4161
 7713SOL     OW34597   2.283   4.249   3.084 -0.1891  0.3265  0.1575
 7713SOL    HW134598   2.374   4.246   3.111  0.9755 -0.0699 -3.8980
 7713SOL    HW234599   2.281   4.329   3.031  0.4545  0.4478  0.3210
 7714SOL     OW34600   4.320   0.156  14.727 -0.3622 -0.0427 -0.6993
 7714SOL    HW134601   4.383   0.160  14.655 -1.3519  0.8408 -1.5154
 7714SOL    HW234602   4.334   0.243  14.764 -1.3511  0.9591 -2.6895
 7715SOL     OW34603   2.218   1.117   7.117 -0.2539 -0.5100  0.3029
 7715SOL    HW134604   2.264   1.070   7.187  1.8007  1.2097  0.0918
 7715SOL    HW234605   2.266   1.078   7.044 -2.7069 -0.1079 -1.5326
 7716SOL     OW34606   0.004   0.088  15.550 -0.7022  0.0209 -0.4026
 7716SOL    HW134607   0.064   0.163  15.546 -2.7665  1.7323  1.0528
 7716SOL    HW234608   0.042   0.029  15.485  0.1740  0.8561 -0.6469
 7717SOL     OW34609   1.723   2.076   5.414  0.3356  0.7924  0.2065
 7717SOL    HW134610   1.628   2.076   5.407  0.2060  0.6085  1.9303
 7717SOL    HW234611   1.737   2.171   5.414 -0.2653  0.8721 -0.9169
 7718SOL     OW34612   0.647   2.029   9.097 -0.4890 -0.5644 -0.0764
 7718SOL    HW134613   0.672   2.044   9.188  1.7832  0.1170 -0.8186
 7718SOL    HW234614   0.614   1.940   9.107  0.2449 -1.0130 -1.6713
 7719SOL     OW34615   3.996   1.298   2.222 -0.0772  1.0769 -0.5458
 7719SOL    HW134616   4.049   1.233   2.177  1.3960  1.7995  0.1461
 7719SOL    HW234617   3.919   1.249   2.254  1.4283  0.0958  1.5636
 7720SOL     OW34618   0.179   3.948   2.675 -0.0786  0.3868 -0.2700
 7720SOL    HW134619   0.252   3.977   2.620 -1.3123  1.1993 -1.5107
 7720SOL    HW234620   0.170   4.007   2.750  0.5773  1.5852 -1.1292
 7721SOL     OW34621   3.032   0.057  14.392  0.1246 -0.5783  0.4292
 7721SOL    HW134622   3.085   4.704  14.365 -1.5375 -1.2683 -0.9276
 7721SOL    HW234623   2.974   0.052  14.315  1.4933  0.1356 -0.6387
 7722SOL     OW34624   2.481   2.357   6.194  0.4672  0.0092  0.2988
 7722SOL    HW134625   2.499   2.310   6.113 -1.0205 -0.2814  0.1554
 7722SOL    HW234626   2.394   2.327   6.218  1.6186 -1.9709  2.0332
 7723SOL     OW34627   1.635   3.333   2.240 -0.0271  0.0920 -0.0288
 7723SOL    HW134628   1.693   3.311   2.313  0.2127 -5.2453 -1.8523
 7723SOL    HW234629   1.690   3.325   2.162  2.9412  0.4981  1.9820
 7724SOL     OW34630   0.288   1.988   3.194  0.1072 -0.7124 -0.3433
 7724SOL    HW134631   0.250   1.901   3.205  0.4626 -0.9247 -0.8205
 7724SOL    HW234632   0.303   2.010   3.286 -0.6246  1.1330 -0.6582
 7725SOL     OW34633   2.145   1.281   8.412  0.2146  0.9807 -0.5544
 7725SOL    HW134634   2.072   1.341   8.428 -2.6428 -2.8063  0.6463
 7725SOL    HW234635   2.160   1.296   8.319 -0.0541 -1.0513 -0.9151
 7726SOL     OW34636   0.523   1.587   6.216  0.2830  0.2830 -0.0127
 7726SOL    HW134637   0.550   1.536   6.140 -1.2040 -1.5089  0.6613
 7726SOL    HW234638   0.520   1.676   6.180  0.4826  0.2940 -0.0033
 7727SOL     OW34639   1.145   0.697   7.997  0.1220  0.4669  0.6193
 7727SOL    HW134640   1.112   0.695   8.087 -1.5638  1.1286  0.0186
 7727SOL    HW234641   1.086   0.636   7.953 -1.1365  1.5526  0.8001
 7728SOL     OW34642   2.256   1.970   5.079 -0.3942  0.1361  0.5858
 7728SOL    HW134643   2.165   1.985   5.102 -0.5656 -0.6009  0.3643
 7728SOL    HW234644   2.311   1.999   5.152  1.2188  1.3322 -1.0688
 7729SOL     OW34645   4.552   1.668  14.356  0.4084  0.4403 -0.1021
 7729SOL    HW134646   4.531   1.586  14.310  0.7208 -0.8097  2.0057
 7729SOL    HW234647   4.570   1.715  14.274  0.5965 -0.4384 -0.5672
 7730SOL     OW34648   1.834   0.979  16.584 -0.8043  0.2062  0.5205
 7730SOL    HW134649   1.805   0.977  16.676  0.7405 -1.0021  0.9858
 7730SOL    HW234650   1.750   0.992  16.539  0.9081 -1.4634 -3.1069
 7731SOL     OW34651   2.207   3.223  11.689 -0.1430 -0.5726 -0.5292
 7731SOL    HW134652   2.246   3.291  11.635  1.3268 -1.4673 -0.5965
 7731SOL    HW234653   2.266   3.225  11.765  0.5470 -0.7599 -1.0634
 7732SOL     OW34654   3.603   3.660   7.592 -0.1084  0.1000 -0.1527
 7732SOL    HW134655   3.697   3.667   7.575 -0.1067 -2.0412 -1.0800
 7732SOL    HW234656   3.592   3.569   7.564  0.8431  0.0860 -0.4670
 7733SOL     OW34657   1.503   3.532  12.889  0.0864  0.0997 -0.1350
 7733SOL    HW134658   1.421   3.563  12.928  1.1006  1.1298  1.1452
 7733SOL    HW234659   1.493   3.437  12.892 -1.2889  0.2284 -0.7397
 7734SOL     OW34660   3.179   2.136   3.373 -0.6453  0.1699 -0.0639
 7734SOL    HW134661   3.261   2.122   3.421 -0.7501 -0.6773 -0.1213
 7734SOL    HW234662   3.114   2.150   3.441 -0.8386  1.8420 -0.6112
 7735SOL     OW34663   0.928   1.909  17.429  0.5167  0.7951 -0.5665
 7735SOL    HW134664   0.935   1.923  17.523  1.5563 -0.7715 -0.4040
 7735SOL    HW234665   0.993   1.840  17.415 -0.5771 -0.8473  2.5460
 7736SOL     OW34666   2.402   1.314   0.346 -0.3522  0.1029 -0.4733
 7736SOL    HW134667   2.484   1.299   0.299  0.0010 -0.0850  0.2140
 7736SOL    HW234668   2.385   1.407   0.328  0.8565  0.4789  0.2826
 7737SOL     OW34669   0.767   1.089   4.741  0.5571 -0.3248  0.1237
 7737SOL    HW134670   0.768   1.177   4.702  3.8681 -0.2437  0.4060
 7737SOL    HW234671   0.810   1.030   4.679 -0.0066  2.0604 -2.5389
 7738SOL     OW34672   2.176   2.698  10.503 -0.3433 -0.6275 -0.3123
 7738SOL    HW134673   2.083   2.693  10.482  0.6135 -2.2282 -4.2149
 7738SOL    HW234674   2.189   2.680  10.596  2.5734  0.2142 -0.5570
 7739SOL     OW34675   3.547   2.766   1.705  0.1941  0.0318  0.1110
 7739SOL    HW134676   3.576   2.697   1.764  1.2749 -1.7735 -2.5650
 7739SOL    HW234677   3.482   2.715   1.657  1.2979 -0.2215 -1.1169
 7740SOL     OW34678   0.377   0.615   6.185  0.4521 -0.5060  0.6088
 7740SOL    HW134679   0.373   0.708   6.205  0.6594 -0.2251 -0.6214
 7740SOL    HW234680   0.464   0.586   6.212  0.2948 -1.6301 -0.0963
 7741SOL     OW34681   3.540   1.325   6.410 -0.1875  0.4924  0.2238
 7741SOL    HW134682   3.468   1.263   6.415  0.8563 -0.5847  2.0711
 7741SOL    HW234683   3.521   1.372   6.329 -0.0645 -0.5094 -0.3801
 7742SOL     OW34684   2.078   0.579  13.798  0.0346 -0.1895 -0.4034
 7742SOL    HW134685   2.024   0.545  13.727 -1.8225  0.4704  0.6868
 7742SOL    HW234686   1.998   0.592  13.849  0.3926  1.2125 -0.2100
 7743SOL     OW34687   4.573   4.244   9.214  0.3684 -0.4592 -0.2685
 7743SOL    HW134688   4.496   4.249   9.271  1.8599 -1.0229  1.7873
 7743SOL    HW234689   4.617   4.165   9.244  3.0228  0.1861 -2.5043
 7744SOL     OW34690   2.114   0.170   2.401 -0.6811 -0.1209  0.1494
 7744SOL    HW134691   2.188   0.127   2.359  0.7392 -1.1131  3.7163
 7744SOL    HW234692   2.056   0.095   2.398  0.1320 -0.7133 -0.5870
 7745SOL     OW34693   4.182   1.250   5.197 -0.4497 -0.7213  0.2774
 7745SOL    HW134694   4.265   1.297   5.209 -0.7533  0.3682 -1.8483
 7745SOL    HW234695   4.186   1.248   5.101 -0.4956 -0.3718  0.2685
 7746SOL     OW34696   2.105   2.643  16.391 -0.3554 -0.3214  0.0059
 7746SOL    HW134697   2.046   2.598  16.451  1.0670  2.2715  3.3812
 7746SOL    HW234698   2.186   2.597  16.413  1.4463  2.2606 -1.2048
 7747SOL     OW34699   2.703   4.577   9.553  0.3172 -0.1444 -0.4789
 7747SOL    HW134700   2.676   4.489   9.582  0.5251 -0.3058 -0.7741
 7747SOL    HW234701   2.795   4.584   9.580  0.7447  1.4336 -2.3530
 7748SOL     OW34702   1.689   2.512   3.827 -0.3771  0.4583 -0.0739
 7748SOL    HW134703   1.664   2.513   3.734  2.0488 -0.2701 -0.7529
 7748SOL    HW234704   1.605   2.497   3.871  0.6429 -0.3254  1.6181
 7749SOL     OW34705   2.687   1.443  13.552 -0.6484 -0.3030  0.3476
 7749SOL    HW134706   2.774   1.417  13.521 -0.1341 -1.4805  2.7468
 7749SOL    HW234707   2.634   1.383  13.500 -1.7438 -0.2020  1.3276
 7750SOL     OW34708   1.881   1.458   8.514  0.2494  0.2338  0.2764
 7750SOL    HW134709   1.834   1.392   8.463 -0.0099  1.3252 -0.8949
 7750SOL    HW234710   1.814   1.474   8.580 -2.6249  0.3579 -2.6889
 7751SOL     OW34711   3.065   1.702   8.717 -0.6814 -0.3140 -0.3418
 7751SOL    HW134712   3.041   1.790   8.687 -0.6461 -0.1115  0.2305
 7751SOL    HW234713   3.157   1.705   8.741 -0.3224 -1.8441 -1.5301
 7752SOL     OW34714   1.274   3.279  17.351 -0.1871 -0.1422 -0.2730
 7752SOL    HW134715   1.350   3.335  17.365  0.2082 -0.9574  0.8922
 7752SOL    HW234716   1.216   3.307  17.422 -0.6156  0.8206 -1.0147
 7753SOL     OW34717   3.720   1.546   5.517 -0.5458  0.0161  0.1588
 7753SOL    HW134718   3.646   1.562   5.576  0.8403  2.8639  1.0745
 7753SOL    HW234719   3.722   1.450   5.523  2.8721  0.1014  0.1795
 7754SOL     OW34720   4.625   3.074  17.532 -0.1471  0.0712  0.5743
 7754SOL    HW134721   4.575   3.061  17.613  0.7396 -1.4929  0.8791
 7754SOL    HW234722   4.704   3.021  17.545  0.1692 -0.0575 -1.9986
 7755SOL     OW34723   4.546   1.917   6.840 -0.2853 -0.2029  0.1304
 7755SOL    HW134724   4.494   1.844   6.876 -1.2627 -0.2455 -1.3711
 7755SOL    HW234725   4.479   1.977   6.810  0.3835  1.5906  2.2159
 7756SOL     OW34726   1.984   4.027   8.325 -0.0193  0.2335 -0.0742
 7756SOL    HW134727   1.910   4.086   8.333 -0.4090 -0.1228 -1.0908
 7756SOL    HW234728   1.957   3.940   8.353  0.3326 -0.5795 -2.2539
 7757SOL     OW34729   2.389   2.904   1.116  0.0772 -0.7970  0.3424
 7757SOL    HW134730   2.387   2.857   1.033  0.8093 -2.2837  1.1664
 7757SOL    HW234731   2.481   2.930   1.113 -0.2433  0.4998  1.7969
 7758SOL     OW34732   3.735   4.134  15.808 -0.2231 -0.1384 -0.0501
 7758SOL    HW134733   3.808   4.154  15.750 -1.0490  0.6216 -0.8381
 7758SOL    HW234734   3.726   4.039  15.799 -0.4973 -0.2734  1.6244
 7759SOL     OW34735   3.953   1.710   5.280  0.4291  0.1889  0.1771
 7759SOL    HW134736   3.882   1.770   5.256 -0.1739 -0.5735  0.0503
 7759SOL    HW234737   4.010   1.727   5.205  0.0294 -2.0010 -0.6090
 7760SOL     OW34738   0.548   2.328   8.220  0.6194  0.1549 -0.3940
 7760SOL    HW134739   0.589   2.309   8.304  0.2103  0.1828 -0.1887
 7760SOL    HW234740   0.608   2.283   8.160  0.3120 -1.2450  0.3454
 7761SOL     OW34741   2.266   1.775   2.979 -0.3414 -0.5053 -0.2097
 7761SOL    HW134742   2.307   1.848   2.933 -2.9779  1.1782  0.0956
 7761SOL    HW234743   2.325   1.708   2.944 -0.2589  0.0781 -1.1692
 7762SOL     OW34744   3.627   0.078   6.107  0.5028  0.0374 -0.6084
 7762SOL    HW134745   3.533   0.063   6.095  0.3765  1.5058 -1.4511
 7762SOL    HW234746   3.658   4.710   6.107 -1.1040 -0.5045  0.2716
 7763SOL     OW34747   1.754   2.555   4.846 -0.0600 -0.2238 -0.2905
 7763SOL    HW134748   1.804   2.588   4.772  1.1455  0.2919  0.7399
 7763SOL    HW234749   1.781   2.619   4.912 -1.0428  1.5162 -1.5780
 7764SOL     OW34750   2.957   0.884  13.011 -0.1213  0.2951 -0.4963
 7764SOL    HW134751   2.916   0.971  13.010  0.6483  0.6529  0.0457
 7764SOL    HW234752   2.896   0.845  12.948 -0.2863 -1.1218  0.5535
 7765SOL     OW34753   2.104   0.900   2.478 -0.4526 -0.6631 -0.0716
 7765SOL    HW134754   2.013   0.888   2.450 -0.3294 -0.5102 -0.5425
 7765SOL    HW234755   2.105   0.993   2.501  1.1443 -0.0020 -2.7653
 7766SOL     OW34756   4.711   1.769   0.331  0.3380 -0.0824 -0.0766
 7766SOL    HW134757   4.632   1.788   0.382 -0.0253 -0.6671 -0.4216
 7766SOL    HW234758   0.040   1.711   0.388 -0.2050 -0.6468 -0.1572
 7767SOL     OW34759   3.666   2.110   6.948  0.4230  0.0032 -0.2022
 7767SOL    HW134760   3.737   2.047   6.940  1.1055  0.9942 -1.8069
 7767SOL    HW234761   3.590   2.053   6.955  1.2987 -1.0729  0.4592
 7768SOL     OW34762   3.648   2.777   8.517  0.0077  0.1069  0.0636
 7768SOL    HW134763   3.593   2.844   8.558  2.2542  1.8050  0.3023
 7768SOL    HW234764   3.675   2.721   8.591 -1.3198 -0.3482  0.2045
 7769SOL     OW34765   0.525   4.175   3.413  0.1133  0.1109  0.3379
 7769SOL    HW134766   0.582   4.115   3.364  0.9538 -0.1366  1.6120
 7769SOL    HW234767   0.553   4.153   3.502 -0.5863 -2.8008 -0.1612
 7770SOL     OW34768   3.863   0.521   9.697 -0.3214  0.7776 -0.0185
 7770SOL    HW134769   3.785   0.503   9.750  0.5072  2.1908  1.7023
 7770SOL    HW234770   3.896   0.587   9.759  0.0396  0.4210  0.1684
 7771SOL     OW34771   2.505   1.197   0.736  0.7786 -0.1400  0.0831
 7771SOL    HW134772   2.437   1.171   0.674  0.8413  1.5078 -0.6731
 7771SOL    HW234773   2.455   1.191   0.818 -0.8187 -0.5669 -0.9356
 7772SOL     OW34774   2.707   3.498   6.657  0.6814  0.0281 -0.1441
 7772SOL    HW134775   2.709   3.407   6.688 -0.5255  0.3623  0.9071
 7772SOL    HW234776   2.753   3.487   6.574 -0.5422 -0.3698 -0.7524
 7773SOL     OW34777   1.267   4.616   0.718 -0.5984 -0.5779  0.8922
 7773SOL    HW134778   1.320   4.580   0.788 -0.1358  0.4315  1.0496
 7773SOL    HW234779   1.196   4.666   0.758 -0.6300  0.8865 -1.0022
 7774SOL     OW34780   0.943   0.112   5.655 -0.0826  0.1481  0.0822
 7774SOL    HW134781   0.989   0.165   5.720  0.8119 -0.3498 -0.1489
 7774SOL    HW234782   1.003   0.079   5.588  0.2066  2.1589 -0.6529
 7775SOL     OW34783   0.446   2.424   2.981  0.2036 -0.2357 -0.3223
 7775SOL    HW134784   0.362   2.389   3.013  0.3589  0.2373  0.6011
 7775SOL    HW234785   0.496   2.345   2.960 -0.1377 -0.0227 -1.9269
 7776SOL     OW34786   3.353   0.656   8.880 -0.0296 -0.4307  0.3183
 7776SOL    HW134787   3.283   0.694   8.827 -0.8894 -1.4863  0.7070
 7776SOL    HW234788   3.312   0.658   8.967  0.2708 -0.2732  0.4561
 7777SOL     OW34789   3.258   4.265  14.376 -0.0648  0.4103 -0.0694
 7777SOL    HW134790   3.174   4.266  14.422  1.0978  0.1584  2.0454
 7777SOL    HW234791   3.241   4.216  14.295 -0.4484  2.1469 -1.0425
 7778SOL     OW34792   1.048   2.144   5.820 -0.8502  0.0439 -0.3871
 7778SOL    HW134793   1.075   2.122   5.909  2.1169 -0.6692 -1.4613
 7778SOL    HW234794   1.072   2.057   5.788  0.1181 -0.4736  1.6937
 7779SOL     OW34795   0.488   3.734   4.705  0.1476  0.3329 -0.3359
 7779SOL    HW134796   0.583   3.729   4.705  0.1861  1.2341  1.3599
 7779SOL    HW234797   0.484   3.779   4.621  0.0240 -1.1925 -1.1531
 7780SOL     OW34798   3.162   1.113   8.273 -0.2760  0.1485  0.0171
 7780SOL    HW134799   3.213   1.091   8.195 -0.7661  0.0621 -0.2773
 7780SOL    HW234800   3.146   1.024   8.303  1.5750  0.2719  1.3982
 7781SOL     OW34801   3.320   2.616  15.334  0.2366  0.6415  0.1233
 7781SOL    HW134802   3.306   2.683  15.267 -0.5697  1.5217  1.1622
 7781SOL    HW234803   3.298   2.534  15.291  1.2044  0.6093 -0.3113
 7782SOL     OW34804   2.297   2.978  15.780  0.2826  0.4556  0.1444
 7782SOL    HW134805   2.223   2.940  15.827 -0.7824 -0.7395 -2.5247
 7782SOL    HW234806   2.257   3.065  15.777  0.0373  0.3375 -0.0000
 7783SOL     OW34807   0.251   4.290   6.880  0.3723 -0.4621  0.3206
 7783SOL    HW134808   0.170   4.264   6.924  0.6314 -1.3728  0.2510
 7783SOL    HW234809   0.309   4.250   6.944 -0.1850 -2.0341 -0.1593
 7784SOL     OW34810   3.300   2.517   7.830  0.4301 -0.0729  0.5075
 7784SOL    HW134811   3.254   2.583   7.777  1.8986  0.8223  0.3509
 7784SOL    HW234812   3.379   2.556   7.868  0.2357  0.4931  0.3243
 7785SOL     OW34813   1.009   3.961   1.659  0.3527 -0.3680  0.7837
 7785SOL    HW134814   1.028   3.878   1.615 -2.0079 -1.5847  2.0193
 7785SOL    HW234815   1.066   4.020   1.611 -0.7584  0.2470  0.2169
 7786SOL     OW34816   3.470   2.949   7.343 -0.1898 -0.3566  0.0993
 7786SOL    HW134817   3.481   2.860   7.310 -4.5462 -0.7676 -0.3078
 7786SOL    HW234818   3.400   2.975   7.282 -1.2522  1.5394  2.1344
 7787SOL     OW34819   3.655   1.216  10.020  0.2587 -0.0925  0.3284
 7787SOL    HW134820   3.667   1.307   9.995  1.6283 -0.1076  0.9110
 7787SOL    HW234821   3.743   1.187  10.047  0.8448  0.1495 -1.3041
 7788SOL     OW34822   4.561   3.751  11.849  0.2559  0.0560  0.1431
 7788SOL    HW134823   4.577   3.687  11.919  0.7735  1.7265  1.5717
 7788SOL    HW234824   4.616   3.722  11.776  1.3437  2.0086  0.2010
 7789SOL     OW34825   4.485   1.049   7.196 -0.0975  0.1121 -0.4976
 7789SOL    HW134826   4.463   1.079   7.284 -1.1857 -2.8944  0.2568
 7789SOL    HW234827   4.571   1.086   7.175 -0.5309  1.2250 -0.2744
 7790SOL     OW34828   0.705   0.796  13.565 -0.0574 -0.2126 -0.0413
 7790SOL    HW134829   0.675   0.798  13.656 -0.5272  0.1014 -0.2017
 7790SOL    HW234830   0.636   0.854  13.531 -0.2576 -0.3916  0.0619
 7791SOL     OW34831   3.550   4.525   8.428 -0.4810 -0.0135 -0.4071
 7791SOL    HW134832   3.513   4.457   8.484 -0.8167  0.3854 -0.1461
 7791SOL    HW234833   3.578   4.590   8.492 -1.2070 -0.5378  0.4369
 7792SOL     OW34834   0.082   1.519   6.039  0.3101  0.0564  0.1594
 7792SOL    HW134835   0.161   1.571   6.028 -0.3525  1.2682  1.1617
 7792SOL    HW234836   0.055   1.511   5.948  1.0268  0.0924 -0.0588
 7793SOL     OW34837   4.191   3.860  13.083 -0.0609  0.0786  0.4291
 7793SOL    HW134838   4.187   3.945  13.126  1.0058  1.6674 -2.6254
 7793SOL    HW234839   4.227   3.808  13.154 -0.2109 -1.4567 -0.6157
 7794SOL     OW34840   3.792   1.312   0.322  0.0399 -0.1792 -0.6953
 7794SOL    HW134841   3.878   1.356   0.322 -0.3549  0.5939 -0.7982
 7794SOL    HW234842   3.729   1.378   0.295 -2.3972 -1.6662  1.3653
 7795SOL     OW34843   3.128   3.566   7.336 -0.2257 -0.3441  0.7295
 7795SOL    HW134844   3.088   3.484   7.305  0.3780  0.1585 -1.3723
 7795SOL    HW234845   3.221   3.543   7.337  0.1722  1.2693 -0.3892
 7796SOL     OW34846   1.528   2.137   6.448  0.4936 -0.1063  0.1449
 7796SOL    HW134847   1.543   2.215   6.501 -1.5237  0.6457 -0.3844
 7796SOL    HW234848   1.570   2.072   6.504 -0.8909  1.4330  2.9951
 7797SOL     OW34849   3.793   4.131   6.227  0.1057 -0.3197 -0.2268
 7797SOL    HW134850   3.747   4.210   6.253  1.7953 -0.4933  3.2642
 7797SOL    HW234851   3.727   4.068   6.254 -1.1344  0.8770 -0.4615
 7798SOL     OW34852   4.642   2.442   8.095  0.8171  0.4236 -0.1191
 7798SOL    HW134853   4.713   2.429   8.159  1.9843  0.1689 -1.4617
 7798SOL    HW234854   4.644   2.368   8.035 -0.6819  1.0512 -0.9228
 7799SOL     OW34855   2.647   1.336   8.099 -0.1985  0.9056 -0.5436
 7799SOL    HW134856   2.733   1.306   8.126 -1.2266 -0.5821  1.0904
 7799SOL    HW234857   2.619   1.263   8.043  0.0128  0.6180 -0.2790
 7800SOL     OW34858   4.564   0.370   5.854 -0.0538 -0.0615 -0.1475
 7800SOL    HW134859   4.504   0.396   5.924  2.5862  1.6009  1.4648
 7800SOL    HW234860   4.554   0.276   5.870  0.9838 -0.0980  0.2820
 7801SOL     OW34861   1.691   1.352   3.433  0.0599  0.4182  0.3162
 7801SOL    HW134862   1.668   1.351   3.340  0.8851  0.2128  0.1115
 7801SOL    HW234863   1.763   1.415   3.432  0.2029  0.2585  1.9589
 7802SOL     OW34864   1.140   2.539   1.515  0.2358 -0.6251 -0.0393
 7802SOL    HW134865   1.153   2.482   1.439  2.9181  0.1400 -0.1800
 7802SOL    HW234866   1.208   2.605   1.498 -0.2873  0.0336  0.4512
 7803SOL     OW34867   3.135   4.573   4.066 -0.1561 -0.4674 -0.1061
 7803SOL    HW134868   3.206   4.578   4.129 -2.5830 -1.6246  2.7265
 7803SOL    HW234869   3.143   4.648   4.007 -0.1138  0.8006  1.5082
 7804SOL     OW34870   2.168   3.980   7.813 -0.0365 -0.3737 -0.0338
 7804SOL    HW134871   2.233   4.050   7.813 -0.0507 -0.3837 -3.1813
 7804SOL    HW234872   2.126   3.995   7.897 -1.0087 -0.4275 -0.5195
 7805SOL     OW34873   2.928   4.265  16.394  0.0149 -0.2853  0.0871
 7805SOL    HW134874   2.945   4.322  16.319 -0.6116  0.5557  0.5871
 7805SOL    HW234875   2.913   4.333  16.459  1.2973  0.6832 -0.6226
 7806SOL     OW34876   0.603   2.770   3.741 -0.5679  0.1574 -0.1218
 7806SOL    HW134877   0.661   2.722   3.681  0.2324  1.5329 -0.4424
 7806SOL    HW234878   0.592   2.696   3.801 -2.2382  0.6163  0.1566
 7807SOL     OW34879   1.104   0.953  15.833 -0.4346  0.6331 -0.6826
 7807SOL    HW134880   1.122   1.041  15.801  0.2052  1.1449  1.0450
 7807SOL    HW234881   1.120   0.906  15.752 -0.7403  0.1952 -0.4930
 7808SOL     OW34882   2.927   0.592   9.107 -0.0537 -0.1070  0.0850
 7808SOL    HW134883   2.956   0.681   9.084 -1.1081  0.2736  0.2197
 7808SOL    HW234884   3.000   0.559   9.159  0.2331  0.2378 -0.1013
 7809SOL     OW34885   1.104   4.273  16.930  0.2348  0.0396 -0.1699
 7809SOL    HW134886   1.036   4.307  16.872  0.7495  0.9336 -0.2567
 7809SOL    HW234887   1.180   4.306  16.881 -0.5964  1.9898 -0.1276
 7810SOL     OW34888   2.133   2.015   9.086 -0.1710  0.2888 -0.1210
 7810SOL    HW134889   2.140   1.977   8.999  0.4974 -2.1881  1.0174
 7810SOL    HW234890   2.100   2.104   9.073  0.9924  0.8298  0.6329
 7811SOL     OW34891   0.003   1.754   1.900 -0.1062  0.0215  0.6764
 7811SOL    HW134892   4.688   1.692   1.964 -1.2372  2.8849  2.7965
 7811SOL    HW234893   4.646   1.800   1.875 -0.1336 -0.4815 -0.1735
 7812SOL     OW34894   4.471   0.101   6.789 -0.3174  0.6257 -0.0039
 7812SOL    HW134895   4.561   0.122   6.765  0.3271  0.6581  2.4096
 7812SOL    HW234896   4.436   0.188   6.773  0.7301  0.7039 -1.8280
 7813SOL     OW34897   3.020   3.960   6.887  0.3779  0.2436  0.2287
 7813SOL    HW134898   3.099   3.968   6.940 -0.0129  2.1932  0.5323
 7813SOL    HW234899   2.981   3.885   6.931 -1.3041  0.8343 -0.2272
 7814SOL     OW34900   1.758   2.419   3.334  0.6932 -0.2351 -0.1609
 7814SOL    HW134901   1.833   2.466   3.297  0.5569 -0.3083 -0.5385
 7814SOL    HW234902   1.701   2.436   3.259  1.4444 -1.4525 -1.0070
 7815SOL     OW34903   0.067   0.159   8.175 -0.3720 -0.5855 -0.1261
 7815SOL    HW134904   0.053   0.065   8.184 -0.1979 -0.5823  0.1977
 7815SOL    HW234905   4.699   0.187   8.188  0.4332  2.1099 -0.2655
 7816SOL     OW34906   3.241   3.021   4.027  0.0823  0.7346 -0.4420
 7816SOL    HW134907   3.150   2.999   4.043  0.4801  0.9596  2.0401
 7816SOL    HW234908   3.257   2.959   3.956 -2.2051 -0.2251 -0.1280
 7817SOL     OW34909   3.850   2.486   5.660  0.0201 -0.7529 -0.4962
 7817SOL    HW134910   3.775   2.491   5.720  2.6280  0.2552  2.6707
 7817SOL    HW234911   3.887   2.399   5.676  2.0905  0.2917  0.3361
 7818SOL     OW34912   4.577   3.252   5.945 -0.5714 -0.0871  0.3351
 7818SOL    HW134913   4.499   3.274   5.894 -0.3744 -0.0698  0.0413
 7818SOL    HW234914   4.596   3.328   6.000 -2.0281 -0.1575  0.9202
 7819SOL     OW34915   1.357   0.569   7.793 -0.0987 -0.0036 -0.7215
 7819SOL    HW134916   1.308   0.635   7.842 -2.2829 -0.8566 -1.7499
 7819SOL    HW234917   1.442   0.568   7.837  0.2198  0.8666 -1.3156
 7820SOL     OW34918   3.097   3.752  16.781 -0.7168  0.1851 -0.2155
 7820SOL    HW134919   3.003   3.757  16.769 -0.6786  2.1695  0.3078
 7820SOL    HW234920   3.101   3.756  16.877  1.0621  2.5965 -0.4066
 7821SOL     OW34921   2.895   2.850  15.545 -0.3956 -0.3058  0.3073
 7821SOL    HW134922   2.824   2.863  15.608  0.0981  2.1398  0.3301
 7821SOL    HW234923   2.961   2.902  15.589  2.4661 -2.7061 -1.1424
 7822SOL     OW34924   3.432   1.600   4.080  0.1110  0.0042 -0.1541
 7822SOL    HW134925   3.522   1.569   4.074  0.0186 -0.3754  0.3557
 7822SOL    HW234926   3.435   1.671   4.145 -1.3302 -1.4102  1.4577
 7823SOL     OW34927   2.546   1.825  13.027 -0.1867 -0.0365 -0.2678
 7823SOL    HW134928   2.569   1.747  12.978  0.9073 -0.7861  1.4261
 7823SOL    HW234929   2.468   1.849  12.977 -1.1479  0.8172  1.6041
 7824SOL     OW34930   1.436   0.664   8.352  0.4021 -0.3983 -0.5342
 7824SOL    HW134931   1.446   0.742   8.296 -2.0867  0.5237  0.3397
 7824SOL    HW234932   1.522   0.625   8.332  0.2949 -0.5040 -0.7938
 7825SOL     OW34933   3.284   1.159   9.211 -0.5448  0.2574  0.2188
 7825SOL    HW134934   3.215   1.213   9.174 -1.1536 -0.3824  0.4177
 7825SOL    HW234935   3.238   1.114   9.282 -0.8138 -0.7930 -0.6192
 7826SOL     OW34936   0.394   4.193  12.106  0.2417  0.2665  0.3205
 7826SOL    HW134937   0.435   4.279  12.106 -0.6026  0.6702 -1.6670
 7826SOL    HW234938   0.322   4.212  12.167 -1.9001 -0.6988 -1.9044
 7827SOL     OW34939   3.478   3.196  11.520 -0.5815  0.2448 -0.6129
 7827SOL    HW134940   3.396   3.239  11.498  1.1829  5.3137  2.5502
 7827SOL    HW234941   3.543   3.253  11.479 -0.0877  1.2993  1.5919
 7828SOL     OW34942   3.397   4.092   8.261 -0.3827 -0.0927 -0.1989
 7828SOL    HW134943   3.429   4.181   8.253  3.7537 -1.6561 -0.8063
 7828SOL    HW234944   3.303   4.096   8.241 -0.4032 -1.5017 -0.4252
 7829SOL     OW34945   3.307   2.431   5.959 -0.2753 -0.0843  0.2773
 7829SOL    HW134946   3.248   2.501   5.932  1.4490  0.8682 -1.0720
 7829SOL    HW234947   3.336   2.465   6.043  2.9269  0.3726 -1.0038
 7830SOL     OW34948   0.864   4.080   2.228  0.1456 -0.4250  0.0465
 7830SOL    HW134949   0.937   4.018   2.232 -0.1928 -0.7141  2.2159
 7830SOL    HW234950   0.859   4.100   2.322  1.8380  0.1823 -0.0007
 7831SOL     OW34951   0.983   2.057   6.754 -0.2464  0.6957 -0.8911
 7831SOL    HW134952   0.973   1.969   6.790 -0.9848  1.6713  1.2987
 7831SOL    HW234953   1.026   2.103   6.826  0.0247 -0.7748 -0.1170
 7832SOL     OW34954   4.370   2.708   5.460 -0.1506  0.2601  0.1754
 7832SOL    HW134955   4.366   2.680   5.552  0.4483  0.3353  0.2208
 7832SOL    HW234956   4.379   2.801   5.480  0.9047  0.0439  0.6895
 7833SOL     OW34957   1.287   3.369   1.216  0.1844 -0.4115  0.4396
 7833SOL    HW134958   1.356   3.392   1.154 -0.0785 -2.9839 -0.8001
 7833SOL    HW234959   1.209   3.416   1.187  2.3708  2.6174 -0.5239
 7834SOL     OW34960   4.680   0.862  11.479  0.2016  0.4075 -0.0930
 7834SOL    HW134961   4.587   0.880  11.491 -0.6477 -0.4476 -5.3148
 7834SOL    HW234962   4.688   0.780  11.527  0.0234  0.6161  0.2926
 7835SOL     OW34963   4.681   3.194  14.769  0.0668  0.0598  0.7408
 7835SOL    HW134964   0.025   3.186  14.836  1.9789  0.4800 -1.1192
 7835SOL    HW234965   4.712   3.273  14.726  1.4191  0.0285  1.6905
 7836SOL     OW34966   4.379   0.644   6.498 -0.7213  0.3571 -0.0378
 7836SOL    HW134967   4.329   0.587   6.439  0.3576 -1.5170  0.8526
 7836SOL    HW234968   4.465   0.601   6.497 -1.4087 -0.9701 -0.8912
 7837SOL     OW34969   2.574   4.188  16.346  0.9171 -0.1779  0.2292
 7837SOL    HW134970   2.552   4.277  16.319  2.4925 -0.1812 -1.0631
 7837SOL    HW234971   2.491   4.161  16.386  0.8649  1.0240  0.9603
 7838SOL     OW34972   2.863   3.858   6.224  0.0670 -0.2070  0.6613
 7838SOL    HW134973   2.808   3.918   6.275 -0.0741 -0.3538  0.6809
 7838SOL    HW234974   2.922   3.820   6.288 -0.5423 -0.9685  0.7722
 7839SOL     OW34975   4.049   0.145   2.274  0.6237  0.3188  0.0973
 7839SOL    HW134976   4.049   0.167   2.180  3.1755 -0.5225 -0.1070
 7839SOL    HW234977   3.962   0.105   2.283 -0.2050  1.2504 -3.7853
 7840SOL     OW34978   1.427   4.564   8.287 -0.8241 -0.7569 -0.2663
 7840SOL    HW134979   1.419   4.623   8.212 -3.0439  0.5996  1.0749
 7840SOL    HW234980   1.413   4.625   8.359 -0.9971 -1.7033  0.5002
 7841SOL     OW34981   0.218   0.739  16.656 -0.3829  0.2577 -0.1431
 7841SOL    HW134982   0.247   0.792  16.731 -0.5548 -0.3904  0.3852
 7841SOL    HW234983   0.129   0.714  16.682 -0.2849  0.2548  0.1994
 7842SOL     OW34984   0.070   3.573  16.133 -0.1212  0.1154 -0.1355
 7842SOL    HW134985   4.704   3.599  16.161 -1.2346 -3.3161 -0.4463
 7842SOL    HW234986   0.107   3.655  16.102 -1.2321  0.7315  0.1551
 7843SOL     OW34987   0.102   2.916   7.561  0.2481  0.4315 -0.1716
 7843SOL    HW134988   0.073   2.970   7.487 -0.5377 -0.8569 -0.8117
 7843SOL    HW234989   0.015   2.900   7.599  0.6214  1.7509  1.1910
 7844SOL     OW34990   0.920   3.224   2.520 -0.1741 -0.5575  0.2710
 7844SOL    HW134991   0.906   3.305   2.472  1.8961  0.6096  1.6784
 7844SOL    HW234992   0.857   3.172   2.469 -0.5674 -3.5555  3.8278
 7845SOL     OW34993   0.146   3.909  15.516 -0.3075 -0.3269  0.2542
 7845SOL    HW134994   0.169   3.816  15.519 -0.0176 -0.3142 -1.3688
 7845SOL    HW234995   0.099   3.918  15.599 -0.0705  3.4623 -0.0576
 7846SOL     OW34996   1.918   4.360   3.181  0.0232 -0.4288 -0.2703
 7846SOL    HW134997   1.840   4.305   3.184  0.1674 -0.3890  3.6230
 7846SOL    HW234998   1.974   4.306   3.125 -0.0673  0.1862 -0.9546
 7847SOL     OW34999   1.402   1.453   7.560  0.3515 -0.2545  1.3478
 7847SOL    HW135000   1.437   1.374   7.520 -0.4244 -0.6437  1.4511
 7847SOL    HW235001   1.332   1.478   7.500  0.6306 -3.5239 -0.3413
 7848SOL     OW35002   1.145   3.494   4.900  0.0172 -0.1003  0.3902
 7848SOL    HW135003   1.114   3.466   4.814  3.1198 -1.9659 -0.1257
 7848SOL    HW235004   1.215   3.557   4.880 -0.7633 -0.0654 -2.2758
 7849SOL     OW35005   2.939   4.202  10.545 -0.0110  0.3483 -0.2942
 7849SOL    HW135006   2.864   4.180  10.490 -0.7019 -1.8239  1.5018
 7849SOL    HW235007   2.983   4.277  10.505 -1.7762 -0.6330 -4.0560
 7850SOL     OW35008   2.213   3.957   0.588  0.5297  0.0788 -1.1393
 7850SOL    HW135009   2.131   3.923   0.625  0.6064  1.3057  0.1418
 7850SOL    HW235010   2.187   4.007   0.510  2.8142  3.0284  0.0129
 7851SOL     OW35011   0.717   2.987   1.342  0.4306  0.4363  0.0301
 7851SOL    HW135012   0.761   2.911   1.381  1.6048 -0.3954 -2.9194
 7851SOL    HW235013   0.724   2.959   1.251  1.3065  0.5826  0.0542
 7852SOL     OW35014   3.373   3.254   4.925 -0.7143 -0.4304  0.0438
 7852SOL    HW135015   3.372   3.178   4.867  1.1846 -0.8235  0.5075
 7852SOL    HW235016   3.362   3.330   4.868  1.8419  1.1320  1.6307
 7853SOL     OW35017   3.567   0.810   9.099 -0.5997 -0.0332  1.0689
 7853SOL    HW135018   3.477   0.778   9.088 -0.3557 -0.3186 -0.0698
 7853SOL    HW235019   3.615   0.730   9.122  1.4289  1.2517  1.2607
 7854SOL     OW35020   1.544   1.849  15.229  0.3038 -0.7002 -0.0391
 7854SOL    HW135021   1.526   1.912  15.159 -0.8350 -1.1526 -0.1509
 7854SOL    HW235022   1.630   1.868  15.265 -0.4469  2.1523  0.2309
 7855SOL     OW35023   2.973   2.524  12.074 -0.2649 -0.6779  0.4262
 7855SOL    HW135024   2.964   2.429  12.062  0.2640 -0.6791  0.0369
 7855SOL    HW235025   3.040   2.538  12.007 -0.0711 -0.0123  0.7652
 7856SOL     OW35026   1.853   3.632  12.170  0.2022  0.0746 -0.2098
 7856SOL    HW135027   1.757   3.629  12.163  0.1025 -0.3910  1.2326
 7856SOL    HW235028   1.863   3.620  12.265 -1.8001 -0.0182 -0.0043
 7857SOL     OW35029   2.007   1.272   3.370  0.5080 -0.1297  0.1105
 7857SOL    HW135030   1.946   1.254   3.298  0.7757 -1.7527  0.2929
 7857SOL    HW235031   2.007   1.191   3.421 -0.2050 -1.0952 -1.4052
 7858SOL     OW35032   1.053   2.245   6.949 -0.2818 -0.6210 -0.6626
 7858SOL    HW135033   0.962   2.252   6.980  0.1431  1.4453  0.1165
 7858SOL    HW235034   1.054   2.329   6.903  0.2365 -0.9984 -1.3448
 7859SOL     OW35035   0.468   4.299   2.544 -0.2073  0.2252 -0.2241
 7859SOL    HW135036   0.443   4.208   2.559 -1.8073  0.8765  1.0780
 7859SOL    HW235037   0.559   4.300   2.574 -0.2413 -1.0287 -0.0692
 7860SOL     OW35038   4.274   2.857   4.102 -0.2209 -0.7138 -0.1616
 7860SOL    HW135039   4.283   2.941   4.146  0.3204  0.3929 -2.3990
 7860SOL    HW235040   4.237   2.802   4.171  0.2068  0.5215  1.0625
 7861SOL     OW35041   1.340   2.605  15.111 -0.1584 -0.3838 -0.7196
 7861SOL    HW135042   1.416   2.626  15.056 -0.1936 -2.7744 -1.7061
 7861SOL    HW235043   1.362   2.654  15.190 -0.9286 -0.0962 -0.6863
 7862SOL     OW35044   2.763   4.481   7.269 -0.3720  0.0235 -0.1736
 7862SOL    HW135045   2.737   4.524   7.187 -0.5582 -2.0128 -1.1913
 7862SOL    HW235046   2.685   4.431   7.295 -0.0998  0.3416  1.2626
 7863SOL     OW35047   3.482   4.225  15.638 -0.2336  0.4359 -0.7946
 7863SOL    HW135048   3.499   4.284  15.565  0.9010  1.6339  0.4368
 7863SOL    HW235049   3.402   4.186  15.604  0.0214  0.7495 -1.7677
 7864SOL     OW35050   2.661   3.034   6.135  0.0812  1.1215 -0.0281
 7864SOL    HW135051   2.754   3.018   6.119  0.0154 -0.9590  1.6232
 7864SOL    HW235052   2.668   3.114   6.188 -3.9325  0.2804  1.7601
 7865SOL     OW35053   0.623   2.850  10.630 -0.4695 -0.3842  0.1246
 7865SOL    HW135054   0.590   2.800  10.704 -0.6109 -1.9563 -0.9825
 7865SOL    HW235055   0.637   2.938  10.666 -1.7298  0.6846 -1.9655
 7866SOL     OW35056   1.256   0.949   3.374  0.3699  0.0394  0.2513
 7866SOL    HW135057   1.260   0.984   3.463 -0.3853 -0.2972  0.4156
 7866SOL    HW235058   1.349   0.947   3.351  0.0870  0.3387 -0.9400
 7867SOL     OW35059   0.306   3.868   1.053  0.4079 -0.3872 -0.1619
 7867SOL    HW135060   0.298   3.920   0.973 -4.1406 -0.6297  0.1667
 7867SOL    HW235061   0.252   3.792   1.036  1.1785 -0.9685 -0.0274
 7868SOL     OW35062   2.721   2.489   2.714 -0.2822  0.0322  0.2061
 7868SOL    HW135063   2.657   2.429   2.752  0.5830  0.3990  2.2414
 7868SOL    HW235064   2.714   2.477   2.620  0.7856  0.4336  0.0816
 7869SOL     OW35065   2.451   1.112  13.205  0.4515 -0.6428 -0.2461
 7869SOL    HW135066   2.494   1.026  13.207  0.5686 -0.5687  0.4291
 7869SOL    HW235067   2.518   1.168  13.167 -0.2583  0.1735 -0.2928
 7870SOL     OW35068   4.498   4.679  17.392  0.1367 -0.0368 -0.8184
 7870SOL    HW135069   4.460   0.026  17.338 -0.7757 -0.1082 -0.2664
 7870SOL    HW235070   4.481   4.603  17.336 -0.7577  0.0640 -0.6896
 7871SOL     OW35071   0.100   2.027   2.749  0.3691 -0.5375 -0.8578
 7871SOL    HW135072   0.114   2.036   2.655 -0.4505  0.9268 -0.8298
 7871SOL    HW235073   0.183   1.988   2.778 -1.4528 -2.0372  2.2717
 7872SOL     OW35074   2.909   0.904  14.040  0.2130 -0.4397 -0.8471
 7872SOL    HW135075   2.983   0.869  14.091  0.0780  0.1314 -0.2650
 7872SOL    HW235076   2.835   0.875  14.094  1.3828 -1.1323  0.4202
 7873SOL     OW35077   0.059   0.595  13.635 -0.5307  0.2409  0.2970
 7873SOL    HW135078   0.021   0.599  13.548 -3.0733  0.9292  1.4283
 7873SOL    HW235079   4.706   0.609  13.692 -0.9989  0.0914 -0.2893
 7874SOL     OW35080   4.032   2.079   6.964 -0.1460 -0.1597 -0.5232
 7874SOL    HW135081   3.985   2.131   6.898  1.4392  0.4531 -1.1780
 7874SOL    HW235082   4.022   1.991   6.928 -3.5826 -0.9501  2.4150
 7875SOL     OW35083   4.199   2.200  14.705 -0.3958 -0.0200 -0.2440
 7875SOL    HW135084   4.120   2.156  14.674 -0.6956  1.3850 -1.4865
 7875SOL    HW235085   4.179   2.199  14.799 -1.0565  1.4600 -0.3687
 7876SOL     OW35086   3.025   4.434  16.171  0.3977  0.4400 -0.2012
 7876SOL    HW135087   3.005   4.368  16.105  0.3327  0.4862 -0.2285
 7876SOL    HW235088   2.937   4.472  16.174 -0.3952 -1.5826  1.7238
 7877SOL     OW35089   3.104   1.557   4.670 -0.2200  0.2530  0.1926
 7877SOL    HW135090   3.021   1.512   4.656 -2.3301  4.3473 -0.4877
 7877SOL    HW235091   3.163   1.485   4.693 -0.9667 -0.4187 -0.0089
 7878SOL     OW35092   0.469   2.244  14.537  0.0763  0.2112 -0.3417
 7878SOL    HW135093   0.479   2.217  14.446 -0.7485  0.0721 -0.3922
 7878SOL    HW235094   0.510   2.173  14.587  0.2828  1.6156  1.4722
 7879SOL     OW35095   2.700   1.815   5.219 -0.6664 -0.4232 -0.1639
 7879SOL    HW135096   2.666   1.736   5.261  0.0765 -0.8635 -0.3928
 7879SOL    HW235097   2.704   1.871   5.296  0.3959 -1.0979  0.2699
 7880SOL     OW35098   3.051   2.602   0.781  0.2420 -0.0347 -0.1099
 7880SOL    HW135099   3.097   2.595   0.697  2.0034  0.1738  0.8376
 7880SOL    HW235100   3.003   2.683   0.766 -1.7135 -1.4354 -1.4480
 7881SOL     OW35101   4.108   1.997  14.977 -0.4262 -0.1668  0.2661
 7881SOL    HW135102   4.181   1.936  14.979 -0.6046 -0.3640  0.8127
 7881SOL    HW235103   4.157   2.078  14.988 -2.1539  0.9546 -0.2401
 7882SOL     OW35104   2.836   4.026  14.284  0.0899  0.2577  0.2012
 7882SOL    HW135105   2.751   3.989  14.305  1.0858 -1.9019  0.3640
 7882SOL    HW235106   2.880   3.954  14.239 -0.6118 -0.0287 -0.0141
 7883SOL     OW35107   0.502   0.187  14.829 -0.0941 -0.0296 -0.0341
 7883SOL    HW135108   0.520   0.268  14.876 -0.1240 -1.2544  2.0667
 7883SOL    HW235109   0.576   0.183  14.769 -0.8788  0.6344 -1.0704
 7884SOL     OW35110   4.635   2.067   9.902 -0.3166 -0.0894  0.5296
 7884SOL    HW135111   4.696   2.135   9.874 -0.7118 -0.4558 -1.2202
 7884SOL    HW235112   4.675   1.990   9.860  0.7077  1.6443 -1.6668
 7885SOL     OW35113   0.349   0.254   4.345 -0.0290  0.6089  0.1518
 7885SOL    HW135114   0.358   0.332   4.401  1.3640 -0.5514  1.5319
 7885SOL    HW235115   0.403   0.282   4.271  2.3419  0.2158  1.7257
 7886SOL     OW35116   2.685   4.014   6.737  0.0807  0.3345  0.5338
 7886SOL    HW135117   2.712   4.101   6.765  0.7226 -0.1816  1.5122
 7886SOL    HW235118   2.602   3.991   6.779 -1.4356  1.0131 -2.1041
 7887SOL     OW35119   0.413   2.287   4.687  0.3200 -0.3593  0.7261
 7887SOL    HW135120   0.364   2.346   4.744  0.6817 -0.5626  1.2492
 7887SOL    HW235121   0.369   2.311   4.606 -1.9988  1.7163  2.6070
 7888SOL     OW35122   4.182   2.160  14.374  0.0530  0.0131  0.4400
 7888SOL    HW135123   4.173   2.065  14.368  0.2663  0.0390 -0.2335
 7888SOL    HW235124   4.266   2.176  14.331  1.1199 -0.3968  2.3487
 7889SOL     OW35125   1.075   3.763   3.195  0.1409 -0.3946  0.0622
 7889SOL    HW135126   1.007   3.830   3.179 -0.1133  0.0915  3.2266
 7889SOL    HW235127   1.098   3.742   3.105  1.8574  3.4321 -0.3957
 7890SOL     OW35128   3.564   1.104  12.800  0.1931 -0.0683  0.4063
 7890SOL    HW135129   3.588   1.140  12.886  1.7553  0.5569 -0.2972
 7890SOL    HW235130   3.647   1.110  12.754  1.3372  0.4688  2.5190
 7891SOL     OW35131   1.400   0.777   4.682 -0.2728 -0.8015 -0.3212
 7891SOL    HW135132   1.442   0.751   4.600 -1.7900  2.1195 -2.0236
 7891SOL    HW235133   1.437   0.865   4.689 -0.0242 -0.9550  0.3837
 7892SOL     OW35134   0.922   2.883   4.094 -0.5146 -0.4883  0.1223
 7892SOL    HW135135   0.848   2.940   4.076  0.2320  0.7443  0.9199
 7892SOL    HW235136   0.965   2.896   4.009  0.5458 -0.8690  0.6063
 7893SOL     OW35137   3.365   1.818  10.113 -0.3275 -0.3095 -0.0024
 7893SOL    HW135138   3.444   1.858  10.077  0.8434 -2.1503  0.4821
 7893SOL    HW235139   3.321   1.901  10.133  1.8221  0.5967  1.0023
 7894SOL     OW35140   1.766   1.382   8.014 -0.1754 -0.1708  0.5955
 7894SOL    HW135141   1.694   1.414   7.960 -1.6169 -0.8714  2.1108
 7894SOL    HW235142   1.730   1.397   8.102  0.6018  0.3772  0.8207
 7895SOL     OW35143   0.052   1.065  11.639  0.0740 -0.0418  0.0898
 7895SOL    HW135144   0.000   1.000  11.592  3.1713 -1.5338 -1.2376
 7895SOL    HW235145   0.136   1.020  11.637  0.5686  0.7763  2.1520
 7896SOL     OW35146   2.810   2.362  11.676  0.2182  0.8707  0.7439
 7896SOL    HW135147   2.793   2.271  11.652  2.0894  1.0045 -1.1405
 7896SOL    HW235148   2.906   2.361  11.674  0.2016  0.4411  0.2454
 7897SOL     OW35149   0.145   3.346  15.566 -0.2454 -0.5224  0.1184
 7897SOL    HW135150   0.175   3.344  15.657  2.4069 -0.2123 -0.7380
 7897SOL    HW235151   0.079   3.277  15.569 -0.9503  0.2521  1.8696
 7898SOL     OW35152   3.225   3.715   6.526 -0.0171  0.4185 -0.3608
 7898SOL    HW135153   3.296   3.675   6.475  1.4849  2.1206  0.4001
 7898SOL    HW235154   3.274   3.749   6.601  0.1663  0.6803 -0.5956
 7899SOL     OW35155   2.661   4.019   8.647  0.0676  0.3793  0.2881
 7899SOL    HW135156   2.643   4.090   8.709  0.4346  2.3622 -1.8660
 7899SOL    HW235157   2.573   4.009   8.610  1.0100  0.0909 -1.8829
 7900SOL     OW35158   0.939   2.886   6.988  0.6342 -0.5086  0.2325
 7900SOL    HW135159   0.914   2.965   6.941 -2.6341 -0.3516  2.2399
 7900SOL    HW235160   0.939   2.937   7.068 -1.6274 -0.0106 -0.0765
 7901SOL     OW35161   4.447   1.850   8.622 -0.8553 -0.6769  0.0039
 7901SOL    HW135162   4.500   1.800   8.559  0.5194  0.7069  0.0644
 7901SOL    HW235163   4.505   1.827   8.694 -1.5898 -1.4780  0.3370
 7902SOL     OW35164   1.239   2.285   3.000  0.0227 -0.0503 -0.2919
 7902SOL    HW135165   1.280   2.286   2.914  0.2262 -1.8351 -0.2083
 7902SOL    HW235166   1.162   2.228   2.996  0.9176 -1.3300  0.8528
 7903SOL     OW35167   2.981   1.967   6.176  0.2873  0.1624 -0.0322
 7903SOL    HW135168   2.932   1.905   6.122  1.8783  0.0522 -1.3458
 7903SOL    HW235169   2.914   1.991   6.240  0.9816  0.5350  0.5618
 7904SOL     OW35170   4.231   1.839  10.900  0.0999 -0.0107 -0.3029
 7904SOL    HW135171   4.147   1.815  10.862 -0.0736  1.1375 -0.6558
 7904SOL    HW235172   4.212   1.815  10.991 -0.5110  1.1885 -0.1175
 7905SOL     OW35173   1.748   3.305   8.515  0.5052  0.6728 -0.4595
 7905SOL    HW135174   1.728   3.226   8.565  0.4279  0.2622 -1.1418
 7905SOL    HW235175   1.830   3.335   8.554  0.7678  0.3498 -0.7643
 7906SOL     OW35176   4.065   1.450   7.057 -0.1191  0.3635 -0.6174
 7906SOL    HW135177   4.147   1.427   7.101  0.1123  0.5751 -0.9391
 7906SOL    HW235178   4.092   1.529   7.011  0.4438 -0.3521 -1.5079
 7907SOL     OW35179   0.240   0.918   8.349  0.1343 -0.0290  0.2621
 7907SOL    HW135180   0.200   0.925   8.436 -0.1088  2.8863 -0.0668
 7907SOL    HW235181   0.194   0.837   8.328 -0.6568  0.4088  0.2740
 7908SOL     OW35182   0.460   0.449  16.081 -0.0504  0.0874  0.6315
 7908SOL    HW135183   0.553   0.463  16.067 -0.4738  1.3837 -0.9243
 7908SOL    HW235184   0.446   0.528  16.134 -2.4267 -0.3155  0.6313
 7909SOL     OW35185   3.643   3.214   6.832  0.1693 -0.0637  0.4258
 7909SOL    HW135186   3.723   3.167   6.812  0.7715  2.5151 -3.1974
 7909SOL    HW235187   3.617   3.199   6.923  0.8686  0.2365  0.6726
 7910SOL     OW35188   2.911   1.962   4.981  0.0098  0.1100  0.4949
 7910SOL    HW135189   2.857   2.039   4.997 -0.7756 -0.0089 -1.5669
 7910SOL    HW235190   2.997   2.004   4.981  0.5901 -1.0738  0.9992
 7911SOL     OW35191   3.866   3.575   0.822  0.9524 -0.1776  0.8278
 7911SOL    HW135192   3.941   3.573   0.881 -0.7426 -3.1597  2.9541
 7911SOL    HW235193   3.867   3.663   0.786  1.1372 -0.0340  1.1792
 7912SOL     OW35194   1.831   0.844   1.186 -0.1041  0.0561 -0.3682
 7912SOL    HW135195   1.781   0.886   1.256  1.3201 -0.1480  0.7566
 7912SOL    HW235196   1.788   0.888   1.113 -0.6391  1.0150  0.5252
 7913SOL     OW35197   1.957   0.399   8.454 -0.1759  0.8599  0.1648
 7913SOL    HW135198   1.904   0.330   8.495 -1.4630  0.6934 -1.7680
 7913SOL    HW235199   1.947   0.477   8.507 -0.4269  1.7718 -1.2188
 7914SOL     OW35200   0.148   0.805  15.641  0.0025  0.7393 -0.7687
 7914SOL    HW135201   0.137   0.899  15.659  1.5409  0.7530  0.1054
 7914SOL    HW235202   0.244   0.806  15.633  0.1940 -3.0262  0.9571
 7915SOL     OW35203   3.052   0.303   3.973  0.3229 -0.1728 -0.1260
 7915SOL    HW135204   3.132   0.295   3.921 -1.0948  1.8410 -2.6220
 7915SOL    HW235205   2.988   0.314   3.901 -1.1398 -1.8614  0.9197
 7916SOL     OW35206   4.493   1.858   1.786  0.4322 -0.9157  0.1064
 7916SOL    HW135207   4.414   1.824   1.743  0.4461 -1.5332  0.5632
 7916SOL    HW235208   4.523   1.921   1.721  3.4981 -1.3920  1.0886
 7917SOL     OW35209   0.891   2.871   0.445 -0.1963  0.0675  0.5122
 7917SOL    HW135210   0.920   2.956   0.479 -4.1645  1.1138  1.3565
 7917SOL    HW235211   0.834   2.838   0.515 -2.8237 -1.4187 -2.3369
 7918SOL     OW35212   0.638   2.041   6.269  0.1754 -0.3266 -0.1849
 7918SOL    HW135213   0.544   2.039   6.256  0.0593  1.1888  0.3679
 7918SOL    HW235214   0.634   2.129   6.307  3.6528 -0.7856  1.3120
 7919SOL     OW35215   3.251   1.938   0.502  0.8687 -0.2762  0.8052
 7919SOL    HW135216   3.204   1.989   0.568  1.2181  0.4842  0.4690
 7919SOL    HW235217   3.184   1.923   0.436  2.2821  2.8562 -1.3599
 7920SOL     OW35218   3.717   2.752   9.029 -0.0321 -0.2573 -0.2892
 7920SOL    HW135219   3.713   2.810   9.105  2.2508 -1.2906  0.6027
 7920SOL    HW235220   3.810   2.759   9.008 -0.8380  0.7597 -3.6149
 7921SOL     OW35221   0.032   0.666   4.295  0.0542 -0.6326  0.3945
 7921SOL    HW135222   0.022   0.580   4.254 -2.5881  0.9385 -2.1788
 7921SOL    HW235223   0.072   0.635   4.377  0.8573  0.9330  0.5948
 7922SOL     OW35224   2.602   3.533   2.928 -0.4353 -0.6398  0.8677
 7922SOL    HW135225   2.559   3.616   2.951 -0.1031  0.5273 -2.7444
 7922SOL    HW235226   2.686   3.565   2.897 -1.3102  0.4382 -0.4048
 7923SOL     OW35227   0.285   4.718  12.875 -0.0952 -0.1399 -0.1814
 7923SOL    HW135228   0.236   4.643  12.841 -1.0362  0.6057 -0.4733
 7923SOL    HW235229   0.211   0.055  12.884 -0.8511 -1.0141 -0.6200
 7924SOL     OW35230   3.100   3.315   7.945  0.2131  0.2858  0.7869
 7924SOL    HW135231   3.148   3.392   7.974 -0.8026  2.1893 -2.5184
 7924SOL    HW235232   3.123   3.321   7.852 -1.4460 -0.2204  0.3453
 7925SOL     OW35233   1.426   0.608   8.902 -0.2799 -0.3528  0.2801
 7925SOL    HW135234   1.349   0.610   8.846  0.6789  0.8325 -0.9916
 7925SOL    HW235235   1.446   0.701   8.892  0.5830 -0.7210 -1.4666
 7926SOL     OW35236   4.285   0.021   5.972 -0.2927  0.0336 -0.3963
 7926SOL    HW135237   4.209   0.016   6.030  0.0497 -1.5212 -0.0610
 7926SOL    HW235238   4.280   0.115   5.959 -1.0133  0.0652  0.1425
 7927SOL     OW35239   1.322   4.621   7.741  0.3932 -0.1574 -0.1728
 7927SOL    HW135240   1.256   4.656   7.682  1.8843  0.6537 -1.3722
 7927SOL    HW235241   1.395   4.683   7.734 -0.8215  1.0460 -2.1983
 7928SOL     OW35242   2.255   0.151   9.149  0.5008  0.0431 -0.0011
 7928SOL    HW135243   2.233   0.240   9.177 -0.2234  0.1415 -0.8939
 7928SOL    HW235244   2.212   0.101   9.218  0.2588 -0.6738 -0.6798
 7929SOL     OW35245   0.205   2.538   1.122 -0.5423  0.2062 -0.4288
 7929SOL    HW135246   0.169   2.595   1.054 -0.0550 -0.3056 -1.1073
 7929SOL    HW235247   0.234   2.605   1.184  0.5683  0.0457 -0.7753
 7930SOL     OW35248   1.095   2.657  12.940 -0.1505  0.5088  0.4630
 7930SOL    HW135249   1.028   2.628  13.001  1.1936  2.3921  2.8442
 7930SOL    HW235250   1.117   2.736  12.989  0.4803  0.1916  0.6840
 7931SOL     OW35251   1.500   0.652   3.681  0.1903 -0.3780 -0.0175
 7931SOL    HW135252   1.488   0.633   3.587 -1.0589  0.1658  0.0330
 7931SOL    HW235253   1.595   0.640   3.683  0.0305 -1.5914  0.7111
 7932SOL     OW35254   2.746   3.179  10.925  0.1690 -0.3611 -0.5345
 7932SOL    HW135255   2.664   3.146  10.962 -0.9976  0.6471 -2.2691
 7932SOL    HW235256   2.759   3.251  10.987  0.9987 -0.5645 -0.4738
 7933SOL     OW35257   3.554   0.710  16.494  0.1033 -0.4826  0.1512
 7933SOL    HW135258   3.492   0.684  16.562  1.9210 -0.2716  1.9062
 7933SOL    HW235259   3.553   0.799  16.528  0.5601 -1.3277  2.3849
 7934SOL     OW35260   2.557   4.639   3.759  0.1165 -0.3483 -0.2385
 7934SOL    HW135261   2.584   4.569   3.699 -2.0415 -1.9390  0.6482
 7934SOL    HW235262   2.479   4.603   3.801  1.4975 -0.8471  1.9118
 7935SOL     OW35263   0.743   2.874  11.757 -0.1812  0.1065 -0.0102
 7935SOL    HW135264   0.823   2.913  11.793 -0.0864 -0.1951  0.1066
 7935SOL    HW235265   0.669   2.922  11.793 -0.7386 -2.1689  1.9049
 7936SOL     OW35266   2.082   2.249   9.283 -0.0825  0.2629  0.3376
 7936SOL    HW135267   2.010   2.191   9.311 -0.1815  1.3684  2.3643
 7936SOL    HW235268   2.056   2.254   9.191  3.0359 -1.4601 -0.6197
 7937SOL     OW35269   0.252   2.960   7.927  0.1277 -0.1114  0.6229
 7937SOL    HW135270   0.310   2.884   7.937 -1.6953 -1.6309 -0.5944
 7937SOL    HW235271   0.232   2.971   8.020  2.6189  2.4467  0.8497
 7938SOL     OW35272   2.262   1.696   2.523 -0.0950 -0.2166 -0.1298
 7938SOL    HW135273   2.270   1.790   2.508  0.9072 -0.2841 -0.0028
 7938SOL    HW235274   2.187   1.700   2.583 -1.8194  0.2603 -2.3173
 7939SOL     OW35275   2.227   2.149  12.966 -0.2135  0.4529 -0.5018
 7939SOL    HW135276   2.165   2.201  12.916  2.3771  1.4233 -2.6765
 7939SOL    HW235277   2.244   2.213  13.035  3.0431  1.6778 -2.4455
 7940SOL     OW35278   3.467   1.664   0.452  0.0307 -0.4144 -0.4259
 7940SOL    HW135279   3.545   1.719   0.449 -0.9306  1.0234  0.7980
 7940SOL    HW235280   3.401   1.733   0.453 -1.6431 -2.0732  2.9288
 7941SOL     OW35281   0.954   0.018   9.243  0.1243  0.5795  0.6200
 7941SOL    HW135282   0.961   0.105   9.281 -0.5532  0.3482  1.2783
 7941SOL    HW235283   1.035   4.703   9.277  0.0213 -1.0525 -0.9278
 7942SOL     OW35284   4.178   1.880   6.418  0.1827 -0.3237 -0.2628
 7942SOL    HW135285   4.218   1.958   6.458  0.3385  0.1478 -1.3285
 7942SOL    HW235286   4.210   1.815   6.479  0.9335  0.0596 -0.2476
 7943SOL     OW35287   0.555   1.320  13.413  0.3758  0.0611  0.0598
 7943SOL    HW135288   0.556   1.386  13.483 -1.4832 -0.3490  0.4788
 7943SOL    HW235289   0.463   1.328  13.386  1.0068 -0.1744 -2.1493
 7944SOL     OW35290   0.154   2.552   5.891  0.1052  0.2892  0.1961
 7944SOL    HW135291   0.112   2.469   5.916  1.0557 -0.0688  0.5836
 7944SOL    HW235292   0.199   2.522   5.812  0.8934  1.0778  0.3531
 7945SOL     OW35293   0.808   3.130   9.685 -0.0077 -0.3896 -0.1348
 7945SOL    HW135294   0.749   3.136   9.610  1.4365 -1.7975 -1.4049
 7945SOL    HW235295   0.886   3.100   9.637  1.1879  0.0868  1.5070
 7946SOL     OW35296   0.076   1.033   7.237 -0.4133  0.8845 -0.5078
 7946SOL    HW135297   0.045   1.107   7.290 -2.0216 -0.0445 -0.1766
 7946SOL    HW235298   0.152   1.014   7.291 -1.3738  4.1297  1.9865
 7947SOL     OW35299   1.935   0.419   4.194 -0.0879  0.1372 -0.3055
 7947SOL    HW135300   1.973   0.361   4.260  1.3785  0.5176 -0.8258
 7947SOL    HW235301   1.959   0.378   4.112  2.1602  1.0683 -0.1055
 7948SOL     OW35302   0.173   2.111   4.111 -0.4879 -0.7932  0.1880
 7948SOL    HW135303   0.234   2.175   4.148  0.3571 -0.0999 -2.4169
 7948SOL    HW235304   0.185   2.110   4.016 -0.5754 -0.8578  0.1776
 7949SOL     OW35305   2.740   2.815   6.287  0.1078  0.3808 -0.6936
 7949SOL    HW135306   2.671   2.754   6.261  1.0148 -0.9818  0.1246
 7949SOL    HW235307   2.683   2.892   6.279 -0.0080  0.4645  1.0880
 7950SOL     OW35308   1.962   3.623   4.283 -0.1065 -0.3397  0.2916
 7950SOL    HW135309   1.980   3.542   4.330  1.7832 -0.2115 -0.1828
 7950SOL    HW235310   1.889   3.661   4.332 -1.8593 -1.2407 -1.6800
 7951SOL     OW35311   2.870   0.811   2.006 -0.4712 -0.5734 -0.2149
 7951SOL    HW135312   2.961   0.786   1.994 -0.0774  0.6056  0.3449
 7951SOL    HW235313   2.823   0.732   1.979  0.2254 -0.6489 -1.1791
 7952SOL     OW35314   3.964   4.714   8.897  0.6486 -0.2139 -0.4681
 7952SOL    HW135315   3.944   4.651   8.966 -1.5664 -1.7352 -2.5009
 7952SOL    HW235316   3.874   0.005   8.869  0.4850 -0.8541 -0.2477
 7953SOL     OW35317   3.945   3.520   1.452  0.0494 -0.4233 -0.1136
 7953SOL    HW135318   4.040   3.524   1.440 -0.2021  2.2489 -1.2438
 7953SOL    HW235319   3.944   3.517   1.547  1.0765 -1.9485 -0.1470
 7954SOL     OW35320   4.466   2.823  11.939  0.0747 -0.0679  0.2373
 7954SOL    HW135321   4.388   2.767  11.946 -2.2906  3.2299  0.4189
 7954SOL    HW235322   4.541   2.769  11.964  0.5271 -0.4633 -1.9265
 7955SOL     OW35323   2.843   2.025   4.394  0.4528 -0.2110 -0.2207
 7955SOL    HW135324   2.884   2.008   4.310 -1.2578 -1.4000 -0.8196
 7955SOL    HW235325   2.751   2.023   4.369  0.8077 -1.8094 -1.3989
 7956SOL     OW35326   1.109   2.737   9.168 -0.6530  0.4956 -0.0910
 7956SOL    HW135327   1.091   2.769   9.079 -0.6254 -0.8978 -0.5997
 7956SOL    HW235328   1.016   2.717   9.176 -0.7664  1.5880  1.2701
 7957SOL     OW35329   3.139   0.616  11.154  0.5820 -0.2686 -0.4318
 7957SOL    HW135330   3.101   0.528  11.157  1.2660 -0.6019 -1.7134
 7957SOL    HW235331   3.067   0.675  11.175  0.5605 -1.4814  2.9194
 7958SOL     OW35332   1.178   0.047   6.461  0.4886  0.0393  0.2504
 7958SOL    HW135333   1.184   4.719   6.379 -0.5726  0.8048 -0.3016
 7958SOL    HW235334   1.182   4.694   6.520 -1.9623  0.9277  1.5139
 7959SOL     OW35335   0.156   0.366   6.391 -0.1529 -0.1763  0.1220
 7959SOL    HW135336   0.148   0.402   6.303  0.2914 -0.8206 -0.1769
 7959SOL    HW235337   0.250   0.352   6.397 -0.0466  0.7608  0.6686
 7960SOL     OW35338   4.005   0.067  15.774 -0.3425  0.3910  0.2460
 7960SOL    HW135339   4.085   0.017  15.796 -0.0978  1.9615  2.9239
 7960SOL    HW235340   4.026   0.067  15.681  0.4668 -4.1554  0.4227
 7961SOL     OW35341   2.222   2.063  11.296  0.9473  0.0332  0.6774
 7961SOL    HW135342   2.190   2.034  11.211  0.6859 -0.7840  1.0594
 7961SOL    HW235343   2.237   2.156  11.276  0.3070  0.0010  0.0635
 7962SOL     OW35344   1.567   2.483  10.830 -0.6988  0.6147  0.3684
 7962SOL    HW135345   1.569   2.463  10.736  0.1927 -0.2871  0.5875
 7962SOL    HW235346   1.569   2.403  10.882  1.5664  1.0789  0.9733
 7963SOL     OW35347   4.035   2.447   5.434 -0.0503  0.2718 -0.6846
 7963SOL    HW135348   3.982   2.370   5.415 -0.2935  0.6156 -1.3709
 7963SOL    HW235349   4.114   2.398   5.459 -0.2095 -0.3487 -1.4234
 7964SOL     OW35350   1.306   0.467  15.133  0.4183  0.4518 -0.1549
 7964SOL    HW135351   1.369   0.399  15.156 -1.3203 -0.0996  2.8991
 7964SOL    HW235352   1.355   0.507  15.061 -0.8337 -0.3421 -1.4343
 7965SOL     OW35353   4.400   3.154   2.983 -0.5785  0.1456  0.1465
 7965SOL    HW135354   4.365   3.153   3.072  0.8447 -1.6752  0.6762
 7965SOL    HW235355   4.484   3.200   2.985  0.0205 -0.8615 -1.2887
 7966SOL     OW35356   2.223   3.704   5.374 -0.3493 -0.5807 -0.0499
 7966SOL    HW135357   2.265   3.718   5.289 -0.7929  0.7861 -0.0406
 7966SOL    HW235358   2.281   3.761   5.424 -1.6071  1.3610 -0.7929
 7967SOL     OW35359   3.155   1.623   5.219  0.1751  0.0510 -0.3337
 7967SOL    HW135360   3.148   1.539   5.173 -0.7819  0.6691 -1.3094
 7967SOL    HW235361   3.087   1.619   5.287  0.8689 -0.8826  0.3109
 7968SOL     OW35362   1.295   3.748   9.421 -0.4578  0.3823 -0.0594
 7968SOL    HW135363   1.371   3.806   9.422  0.8597 -1.3462  0.3872
 7968SOL    HW235364   1.221   3.803   9.397 -1.5718 -1.0011  0.1780
 7969SOL     OW35365   2.542   3.741   8.145  0.1771 -0.1492 -0.2433
 7969SOL    HW135366   2.510   3.657   8.113  0.3089  0.0533 -0.9046
 7969SOL    HW235367   2.516   3.799   8.074 -0.6006  1.1320  1.0888
 7970SOL     OW35368   4.572   3.042  14.569 -0.3199 -0.4131  0.0408
 7970SOL    HW135369   4.558   3.120  14.516 -1.6824  0.0334  1.0536
 7970SOL    HW235370   4.605   3.078  14.652 -1.3549 -0.2616  0.3818
 7971SOL     OW35371   4.695   2.010   3.228  0.3663  1.0727  0.8976
 7971SOL    HW135372   4.704   1.918   3.253 -3.0865  0.7176  0.8211
 7971SOL    HW235373   0.003   1.999   3.138 -1.5666  0.6299  0.2967
 7972SOL     OW35374   1.474   3.238  15.301 -0.3138 -0.3516  0.1084
 7972SOL    HW135375   1.444   3.287  15.224 -3.1290 -2.6236 -0.2456
 7972SOL    HW235376   1.451   3.148  15.278 -1.7424  0.1835 -0.5589
 7973SOL     OW35377   4.424   2.735   9.200 -0.2697  0.3631  0.3070
 7973SOL    HW135378   4.506   2.695   9.173 -1.8955 -2.1961 -0.8122
 7973SOL    HW235379   4.366   2.674   9.154 -2.4897  0.8311  2.4335
 7974SOL     OW35380   0.008   3.791   9.923 -0.0232 -0.5985  0.5320
 7974SOL    HW135381   0.012   3.761  10.014  0.7104 -0.0284  0.6842
 7974SOL    HW235382   4.689   3.877   9.926 -0.8066 -0.9235 -1.3490
 7975SOL     OW35383   3.074   1.973   2.660 -0.2186  0.2989 -0.0588
 7975SOL    HW135384   3.097   1.916   2.733 -0.5574  0.2815  0.0339
 7975SOL    HW235385   2.980   1.987   2.673 -0.9288 -2.6846 -1.9792
 7976SOL     OW35386   2.827   1.260   2.210 -0.2863 -1.0915  0.1188
 7976SOL    HW135387   2.909   1.307   2.225  0.0763 -1.6183 -0.2143
 7976SOL    HW235388   2.773   1.326   2.166 -0.3652  0.3966  2.4704
 7977SOL     OW35389   0.019   2.336  11.304  0.0185  0.9719 -0.0908
 7977SOL    HW135390   0.101   2.384  11.295  0.6652 -0.2269 -0.5930
 7977SOL    HW235391   4.712   2.372  11.388 -3.8276 -1.4652 -0.3699
 7978SOL     OW35392   0.678   2.492   0.808 -0.0183 -0.6938 -0.9536
 7978SOL    HW135393   0.674   2.451   0.894 -0.0874 -2.0069 -1.5807
 7978SOL    HW235394   0.761   2.457   0.775  0.3335 -0.1658 -0.6407
 7979SOL     OW35395   2.958   0.306   3.551  0.3622  0.1132 -0.3225
 7979SOL    HW135396   3.026   0.258   3.598 -0.2111  1.9619  2.4641
 7979SOL    HW235397   2.902   0.309   3.629  1.7603 -1.5621  0.7478
 7980SOL     OW35398   1.499   2.773   7.135 -0.0450  0.1788  0.0754
 7980SOL    HW135399   1.490   2.864   7.107  0.7399  0.8048  1.8515
 7980SOL    HW235400   1.594   2.761   7.129 -0.0353  0.7421 -0.7454
 7981SOL     OW35401   0.842   1.201  17.488  0.6512 -0.3066 -0.4000
 7981SOL    HW135402   0.932   1.170  17.486  0.4445 -0.9246 -0.3114
 7981SOL    HW235403   0.790   1.122  17.506 -0.5158  0.2969 -1.0961
 7982SOL     OW35404   0.705   3.628   6.337 -0.5082  0.2587  0.1600
 7982SOL    HW135405   0.636   3.564   6.355  0.9600 -1.2765  0.3126
 7982SOL    HW235406   0.658   3.677   6.270  0.8512 -1.5914 -2.1424
 7983SOL     OW35407   3.173   2.088  14.723  0.3312  1.2224  0.1668
 7983SOL    HW135408   3.171   2.018  14.658 -0.0090  0.1668  1.3119
 7983SOL    HW235409   3.080   2.079  14.745  0.6144  0.9733  1.2415
 7984SOL     OW35410   0.177   1.305   8.091 -0.2888 -0.5299  0.3511
 7984SOL    HW135411   0.113   1.237   8.114 -0.1683 -0.1636  1.7475
 7984SOL    HW235412   0.253   1.252   8.114  0.0420 -0.5286 -0.7250
 7985SOL     OW35413   1.177   4.023  17.078  1.0105  0.2873  0.2247
 7985SOL    HW135414   1.120   4.051  17.150 -0.2729 -0.0903 -0.6395
 7985SOL    HW235415   1.157   4.091  17.014 -0.9908 -1.6284 -1.1579
 7986SOL     OW35416   4.416   4.561  10.122 -0.3805 -0.4058 -0.3315
 7986SOL    HW135417   4.381   4.591  10.206 -0.5456  0.6425 -0.7782
 7986SOL    HW235418   4.345   4.499  10.102 -0.7964  0.3931 -1.3319
 7987SOL     OW35419   1.973   2.110   6.446  0.0369  0.1753  0.2899
 7987SOL    HW135420   2.026   2.036   6.417  1.2766  1.7273 -1.4573
 7987SOL    HW235421   1.903   2.109   6.381  0.2685  0.3959  0.0363
 7988SOL     OW35422   1.138   4.546   9.275  0.0788 -0.0838 -0.3459
 7988SOL    HW135423   1.122   4.453   9.263 -1.1475  0.0467  0.3010
 7988SOL    HW235424   1.192   4.574   9.201  0.5657 -0.8896 -0.3028
 7989SOL     OW35425   4.585   4.264   7.282  0.4312 -0.0234  0.2343
 7989SOL    HW135426   4.528   4.219   7.220 -0.7276 -1.2328  2.1849
 7989SOL    HW235427   4.603   4.208   7.357  0.3774 -0.0872  0.1987
 7990SOL     OW35428   3.067   2.545   4.538 -0.3774 -0.4303  0.7165
 7990SOL    HW135429   3.115   2.558   4.620 -0.7529 -2.7092  1.3152
 7990SOL    HW235430   3.080   2.450   4.536  1.9027 -0.1298  1.1297
 7991SOL     OW35431   3.874   3.791   0.647  0.0614  0.2463  0.5959
 7991SOL    HW135432   3.963   3.805   0.614 -0.0088 -1.0641 -0.1416
 7991SOL    HW235433   3.818   3.828   0.579 -0.8694  0.1475  1.3114
 7992SOL     OW35434   4.158   2.794  16.938 -0.3931 -0.5665 -0.0562
 7992SOL    HW135435   4.185   2.758  17.022 -0.5482  0.2959  0.3633
 7992SOL    HW235436   4.239   2.778  16.889  0.6678 -1.8035  2.1055
 7993SOL     OW35437   4.265   3.592   2.058  0.2772 -0.3781 -0.2365
 7993SOL    HW135438   4.209   3.526   2.099  2.1303 -0.6733  1.8155
 7993SOL    HW235439   4.317   3.610   2.136  0.4285 -0.5442 -0.3017
 7994SOL     OW35440   2.863   1.834   6.596 -0.6294  0.5825  0.2426
 7994SOL    HW135441   2.783   1.845   6.544  0.8344 -1.6707 -2.4757
 7994SOL    HW235442   2.933   1.801   6.540  0.4913  0.5257  1.6706
 7995SOL     OW35443   3.527   0.880   7.521 -0.0636 -0.4864 -0.7164
 7995SOL    HW135444   3.445   0.906   7.479 -0.4155 -2.4097 -1.2407
 7995SOL    HW235445   3.539   0.953   7.581 -4.1502  0.5282 -1.1419
 7996SOL     OW35446   3.701   1.805  11.764 -1.1872 -0.3489  0.2242
 7996SOL    HW135447   3.625   1.810  11.821 -0.3793 -0.0765  1.2861
 7996SOL    HW235448   3.692   1.716  11.729 -0.4026 -0.6566  0.7823
 7997SOL     OW35449   3.510   0.628   7.696 -0.1042  0.3251 -0.2514
 7997SOL    HW135450   3.571   0.699   7.715  1.3745 -1.2447  0.9842
 7997SOL    HW235451   3.424   0.665   7.715 -0.5185 -1.0024  0.4517
 7998SOL     OW35452   2.979   0.281   8.269 -0.0313  0.1068  0.2197
 7998SOL    HW135453   3.068   0.272   8.304 -0.4954  1.7431  1.7840
 7998SOL    HW235454   2.929   0.329   8.335  1.2350 -0.8666  1.8877
 7999SOL     OW35455   0.067   3.391   8.104 -0.1269 -0.9075 -0.4475
 7999SOL    HW135456   0.062   3.483   8.131 -0.9229 -1.9559  3.0897
 7999SOL    HW235457   0.032   3.385   8.016 -0.8210 -1.2146 -0.1540
 8000SOL     OW35458   1.466   4.649   0.525 -0.2778 -0.4343 -0.4713
 8000SOL    HW135459   1.415   4.615   0.599  0.9700 -1.2992 -0.0127
 8000SOL    HW235460   1.406   4.676   0.456  0.0109 -0.4773 -0.7389
 8001SOL     OW35461   1.215   2.947  14.556  0.3812 -0.3406  0.3225
 8001SOL    HW135462   1.148   2.905  14.502 -1.3098 -0.3161  2.3987
 8001SOL    HW235463   1.192   2.900  14.636  2.0759 -0.8108  0.5163
 8002SOL     OW35464   1.200   4.312   1.887 -0.0311 -0.1896  0.0815
 8002SOL    HW135465   1.121   4.258   1.883 -0.4674  0.5847 -2.2041
 8002SOL    HW235466   1.250   4.282   1.963 -0.4654 -4.0876 -1.1824
 8003SOL     OW35467   2.176   0.588   9.094 -0.0679  0.3987 -0.3399
 8003SOL    HW135468   2.210   0.653   9.155  1.0627  0.0433 -0.6077
 8003SOL    HW235469   2.164   0.513   9.151  0.5062  0.2975 -0.3546
 8004SOL     OW35470   2.082   3.433   4.039 -0.3677 -0.3748  0.2555
 8004SOL    HW135471   2.072   3.337   4.041  0.0156 -0.3895  1.1544
 8004SOL    HW235472   2.000   3.468   4.074  0.7271  2.0059  0.4102
 8005SOL     OW35473   4.569   3.515  14.854 -0.8329  0.5080 -0.4314
 8005SOL    HW135474   4.622   3.480  14.782  0.1410 -0.0750  0.5719
 8005SOL    HW235475   4.495   3.457  14.838 -1.0694  0.2245  1.7900
 8006SOL     OW35476   2.336   3.486  10.029  0.3886 -0.4563  0.7416
 8006SOL    HW135477   2.322   3.409  10.084  1.0669 -1.3376 -0.3297
 8006SOL    HW235478   2.323   3.450   9.941  1.1399  2.7938 -0.6866
 8007SOL     OW35479   2.718   4.267   4.042 -0.3332 -0.0921  0.3584
 8007SOL    HW135480   2.626   4.245   4.027 -0.8944  0.6038  2.8037
 8007SOL    HW235481   2.765   4.184   4.033  1.1245  0.6607  1.0410
 8008SOL     OW35482   1.180   2.959   2.701 -0.5109  0.3554  0.0254
 8008SOL    HW135483   1.132   2.887   2.741 -1.2092  1.7739  1.7261
 8008SOL    HW235484   1.267   2.923   2.684 -0.4064  0.4612  0.3395
 8009SOL     OW35485   0.035   2.791   7.825 -0.2319  0.0149 -0.6604
 8009SOL    HW135486   0.086   2.863   7.861  3.3794 -3.1749  0.5948
 8009SOL    HW235487   0.027   2.729   7.897  3.8524  1.1789  0.8217
 8010SOL     OW35488   2.794   1.853   3.361  0.5038  0.4826 -0.5917
 8010SOL    HW135489   2.802   1.785   3.428  1.7834 -0.9804 -2.2355
 8010SOL    HW235490   2.797   1.812   3.274  1.5510 -1.2068  0.2297
 8011SOL     OW35491   2.742   3.421  10.677 -0.0380  0.4603 -0.1776
 8011SOL    HW135492   2.700   3.404  10.762 -1.0023 -0.3574 -0.8316
 8011SOL    HW235493   2.794   3.343  10.660  0.2982  0.5342  0.4837
 8012SOL     OW35494   3.713   0.110   8.815 -0.5940 -0.3101 -0.5276
 8012SOL    HW135495   3.772   0.173   8.772 -1.7377  2.1632  1.4959
 8012SOL    HW235496   3.637   0.168   8.817 -1.4342 -1.4633  0.5951
 8013SOL     OW35497   1.833   1.180  12.886  0.1132  0.2593 -0.1908
 8013SOL    HW135498   1.871   1.099  12.918 -3.1048 -0.3591  2.0577
 8013SOL    HW235499   1.838   1.161  12.792  0.9001 -0.4449 -0.0105
 8014SOL     OW35500   1.073   2.081  11.734 -0.0618  0.1382  0.0985
 8014SOL    HW135501   1.022   2.051  11.659 -0.5766  2.0147 -0.3028
 8014SOL    HW235502   1.012   2.154  11.746  0.8258  0.7609  0.7814
 8015SOL     OW35503   4.710   4.340  16.761 -0.0298  0.3467  0.4634
 8015SOL    HW135504   4.631   4.356  16.812 -0.5990  2.0477 -0.9501
 8015SOL    HW235505   0.054   4.393  16.804  1.3206 -1.4916  0.6401
 8016SOL     OW35506   0.256   3.138  12.805 -0.4010 -0.2039 -0.1513
 8016SOL    HW135507   0.269   3.101  12.717 -0.3293 -0.8776  0.1389
 8016SOL    HW235508   0.169   3.104  12.828 -0.1398 -0.2296  0.7905
 8017SOL     OW35509   3.940   3.907  15.801  0.0973  0.0532 -0.2479
 8017SOL    HW135510   3.928   3.998  15.828  3.5191 -0.1109  1.8849
 8017SOL    HW235511   4.033   3.893  15.816 -0.0180 -0.3668  0.0864
 8018SOL     OW35512   3.306   2.843  10.047  0.1158  0.1573  0.0919
 8018SOL    HW135513   3.291   2.922  10.098  2.7213  1.7491 -1.5850
 8018SOL    HW235514   3.255   2.782  10.100 -1.9089  0.8975 -1.0150
 8019SOL     OW35515   3.718   4.390  11.384  0.0932 -0.4110 -0.3787
 8019SOL    HW135516   3.758   4.407  11.298  2.6567  1.2407  1.1637
 8019SOL    HW235517   3.781   4.325  11.415 -1.0252 -0.8212  1.0114
 8020SOL     OW35518   2.937   4.007  10.883  0.4095  0.0967 -0.1821
 8020SOL    HW135519   3.019   4.031  10.841 -0.4924  0.5812 -1.6711
 8020SOL    HW235520   2.957   3.939  10.947 -0.0752 -1.5583 -1.7956
 8021SOL     OW35521   3.837   0.540   3.074  0.3013 -0.5057  0.0666
 8021SOL    HW135522   3.905   0.519   3.010  1.2227  2.5322  0.0507
 8021SOL    HW235523   3.767   0.574   3.018  0.8044 -0.3560 -0.4690
 8022SOL     OW35524   1.130   0.642   8.282 -0.1193 -0.3247  0.5717
 8022SOL    HW135525   1.225   0.631   8.293  0.2771  1.1770 -1.2233
 8022SOL    HW235526   1.114   0.558   8.240  0.6444 -0.4235  0.4807
 8023SOL     OW35527   2.078   2.124   4.320 -0.4086  0.1464  0.4525
 8023SOL    HW135528   2.163   2.168   4.323 -0.3739 -0.0568  2.1122
 8023SOL    HW235529   2.050   2.105   4.409  1.2345 -0.5259  0.8130
 8024SOL     OW35530   1.978   2.834  11.200 -0.3060  0.1397 -0.1263
 8024SOL    HW135531   1.987   2.924  11.233 -3.6037  0.0247  1.1042
 8024SOL    HW235532   2.022   2.785  11.269 -1.7112  0.3570  0.9212
 8025SOL     OW35533   2.580   4.307  14.043  0.7867 -0.4333  0.1360
 8025SOL    HW135534   2.587   4.303  13.948  0.1365 -1.6270  0.1462
 8025SOL    HW235535   2.488   4.326  14.058  0.6429  0.3291 -1.7275
 8026SOL     OW35536   3.779   3.530   1.231  0.0242 -0.7441  0.0847
 8026SOL    HW135537   3.698   3.491   1.264  0.9376  0.0638  3.3443
 8026SOL    HW235538   3.837   3.516   1.306  0.8281  2.4209  0.0382
 8027SOL     OW35539   1.152   3.935   8.761 -0.5943  0.3693 -0.2366
 8027SOL    HW135540   1.168   3.954   8.669 -1.2047 -1.9278 -0.8233
 8027SOL    HW235541   1.198   3.851   8.768  0.6182  1.0472 -0.1144
 8028SOL     OW35542   0.953   2.210   9.448 -0.0319 -0.1146 -0.2459
 8028SOL    HW135543   0.961   2.197   9.543  1.7030 -0.2378 -0.4187
 8028SOL    HW235544   0.886   2.280   9.448  0.6993  0.6049  2.7678
 8029SOL     OW35545   3.730   4.543   8.219  0.0763  0.3486 -0.4392
 8029SOL    HW135546   3.677   4.541   8.298 -0.2727  0.2084 -0.6789
 8029SOL    HW235547   3.781   4.621   8.242 -0.2514  0.7199 -0.9794
 8030SOL     OW35548   2.505   2.849  15.893 -0.3459 -0.4612  0.1962
 8030SOL    HW135549   2.470   2.760  15.901 -0.4377 -0.3677  0.9101
 8030SOL    HW235550   2.426   2.886  15.854 -0.9811 -1.7597  0.2507
 8031SOL     OW35551   2.500   3.369   0.389  0.2461 -0.3225 -0.4944
 8031SOL    HW135552   2.456   3.453   0.381  0.9074  0.2428  1.8067
 8031SOL    HW235553   2.475   3.320   0.310 -0.3681 -1.8419  0.6492
 8032SOL     OW35554   3.011   4.043  14.655  0.5252 -0.2086  0.5100
 8032SOL    HW135555   3.100   4.016  14.631  1.6095  0.6915  3.4745
 8032SOL    HW235556   3.013   4.138  14.649  2.7997 -0.2836  0.1002
 8033SOL     OW35557   1.183   0.468  15.378 -0.9808  0.0147  0.3226
 8033SOL    HW135558   1.266   0.425  15.397 -1.1124 -0.5658 -0.4000
 8033SOL    HW235559   1.208   0.507  15.294 -2.2640  1.3466  0.5473
 8034SOL     OW35560   0.803   1.053   2.671  0.1161 -0.0611 -0.2055
 8034SOL    HW135561   0.727   1.096   2.632  1.1973  0.6937 -1.4382
 8034SOL    HW235562   0.809   0.990   2.599 -1.1375  2.3802 -2.4635
 8035SOL     OW35563   2.449   3.304   8.224 -0.2395  0.1281  0.5031
 8035SOL    HW135564   2.523   3.319   8.282 -1.1375  2.5939  0.9932
 8035SOL    HW235565   2.431   3.211   8.237 -1.2549  0.4441  1.3779
 8036SOL     OW35566   1.865   0.324   8.143  0.0761  0.2761 -0.6572
 8036SOL    HW135567   1.784   0.297   8.186 -0.6920 -0.2053 -2.4194
 8036SOL    HW235568   1.912   0.358   8.219  0.4403  0.4739 -0.9724
 8037SOL     OW35569   1.403   2.475  13.421  0.1852  0.6075 -0.3391
 8037SOL    HW135570   1.373   2.470  13.330  1.4309  0.9127 -0.7640
 8037SOL    HW235571   1.488   2.433  13.430  1.0898  2.5691  0.2400
 8038SOL     OW35572   3.136   4.126  13.261 -0.7010  0.2718  0.2087
 8038SOL    HW135573   3.202   4.146  13.195 -0.9882  0.2458 -0.0845
 8038SOL    HW235574   3.177   4.119  13.347 -0.2139  0.5539 -0.0016
 8039SOL     OW35575   3.751   4.208   9.484  0.4002 -0.2983 -0.5117
 8039SOL    HW135576   3.790   4.280   9.533 -1.0807  0.1527 -0.0052
 8039SOL    HW235577   3.814   4.136   9.473  0.6786 -0.4731  2.2514
 8040SOL     OW35578   1.886   2.849  16.159 -0.4965 -0.1015 -0.1363
 8040SOL    HW135579   1.830   2.900  16.100  1.7435  1.8346 -0.5767
 8040SOL    HW235580   1.834   2.797  16.221 -0.8087 -1.4609 -1.5415
 8041SOL     OW35581   0.086   0.817  11.788  0.4502  0.4179 -0.3707
 8041SOL    HW135582   0.162   0.856  11.830  0.1189  0.4866  0.1583
 8041SOL    HW235583   0.058   0.769  11.866 -0.5586  1.2771 -0.2001
 8042SOL     OW35584   4.494   1.112   0.755  0.0165 -0.4259  0.0290
 8042SOL    HW135585   4.507   1.106   0.661 -1.4126 -2.0913 -0.0645
 8042SOL    HW235586   4.451   1.027   0.760  0.1439 -0.3834  2.1158
 8043SOL     OW35587   3.803   2.004   3.535 -0.2510 -0.7076 -0.1304
 8043SOL    HW135588   3.770   1.922   3.572 -2.2182  1.1778  2.3327
 8043SOL    HW235589   3.878   1.969   3.486  0.3234  0.7918 -0.3133
 8044SOL     OW35590   4.114   1.025   7.120  0.0432  0.4372  0.1148
 8044SOL    HW135591   4.033   1.075   7.111  0.5361  1.2398  0.0908
 8044SOL    HW235592   4.186   1.089   7.114  1.3117 -1.1761 -1.9821
 8045SOL     OW35593   2.307   3.333  12.737 -0.2447  0.5127  0.2809
 8045SOL    HW135594   2.375   3.266  12.736  0.0690  0.8731 -2.8639
 8045SOL    HW235595   2.358   3.405  12.772  0.5601 -0.4430  1.0589
 8046SOL     OW35596   0.436   0.426   6.431  0.0774  0.0568 -0.1375
 8046SOL    HW135597   0.491   0.502   6.451 -0.5633  0.6002 -0.4610
 8046SOL    HW235598   0.477   0.409   6.346 -1.4390  2.1796 -1.2744
 8047SOL     OW35599   1.180   3.209   5.766  0.1145 -0.0737 -0.5169
 8047SOL    HW135600   1.118   3.257   5.821  1.2843 -0.3783  1.0963
 8047SOL    HW235601   1.240   3.189   5.839  0.5947 -0.6496 -1.0728
 8048SOL     OW35602   2.964   4.170   3.073 -0.3296  0.0236 -0.0244
 8048SOL    HW135603   2.968   4.216   2.989 -0.2010 -1.5151 -0.8697
 8048SOL    HW235604   2.945   4.080   3.046 -2.4049  0.4660 -0.0356
 8049SOL     OW35605   4.448   1.438   1.819 -0.5667  0.5572 -0.2864
 8049SOL    HW135606   4.433   1.365   1.759  0.5387 -0.6377  0.9015
 8049SOL    HW235607   4.410   1.393   1.894 -0.2705 -1.5120 -1.3962
 8050SOL     OW35608   1.500   2.066   6.163  0.7875  0.4522  0.7088
 8050SOL    HW135609   1.553   2.145   6.152  1.3217 -0.1909 -1.3393
 8050SOL    HW235610   1.427   2.108   6.208 -1.7942 -1.4807 -1.6208
 8051SOL     OW35611   0.575   1.409   2.745 -0.9560 -0.0364 -0.2278
 8051SOL    HW135612   0.611   1.356   2.673  0.6094  0.7731 -0.0616
 8051SOL    HW235613   0.509   1.346   2.772 -1.2452  0.4613  0.2439
 8052SOL     OW35614   0.777   1.715   6.619  0.2917 -0.0519 -0.5445
 8052SOL    HW135615   0.774   1.747   6.529  1.1044 -1.7468 -1.1953
 8052SOL    HW235616   0.703   1.656   6.631 -0.2215  0.7267  0.1090
 8053SOL     OW35617   4.300   4.170  10.901 -0.1666  0.1620 -0.4538
 8053SOL    HW135618   4.383   4.195  10.943 -0.8899 -0.7062  1.5258
 8053SOL    HW235619   4.306   4.076  10.919  2.5799  0.4982  0.4294
 8054SOL     OW35620   1.680   3.591   4.065  0.1564  0.7500 -0.0451
 8054SOL    HW135621   1.586   3.600   4.077  0.0750  1.6347 -1.3418
 8054SOL    HW235622   1.710   3.509   4.106  1.3146  1.4650  0.5415
 8055SOL     OW35623   2.378   2.563   4.234 -0.0820  0.0060 -0.1214
 8055SOL    HW135624   2.462   2.576   4.279 -1.3873  0.8554  2.0718
 8055SOL    HW235625   2.414   2.568   4.146 -2.4145 -0.4013 -1.0882
 8056SOL     OW35626   3.951   3.613   3.988  0.1138  0.0245 -0.0675
 8056SOL    HW135627   3.904   3.616   3.904 -0.6814  2.2244  0.4571
 8056SOL    HW235628   4.040   3.588   3.967  0.3372  0.0315  0.8716
 8057SOL     OW35629   2.610   4.589   6.406  0.3459 -0.0358 -0.4734
 8057SOL    HW135630   2.699   4.590   6.370  0.1638  1.1266 -0.9186
 8057SOL    HW235631   2.573   4.640   6.334 -1.4432  0.2178  0.6533
 8058SOL     OW35632   2.974   3.090  17.135 -0.2553 -0.2384 -0.3622
 8058SOL    HW135633   2.884   3.071  17.108 -1.7411  3.6489  2.0465
 8058SOL    HW235634   2.962   3.185  17.134 -2.6795 -0.5224  2.1794
 8059SOL     OW35635   2.744   3.431   6.103  0.1718  0.1828 -0.5436
 8059SOL    HW135636   2.831   3.469   6.102  0.7453 -1.1122 -0.0756
 8059SOL    HW235637   2.712   3.438   6.013 -0.2691 -0.8370 -0.4709
 8060SOL     OW35638   2.792   2.254   8.676 -0.1173  0.0763 -0.2718
 8060SOL    HW135639   2.854   2.213   8.737 -0.0064  1.1981  0.3609
 8060SOL    HW235640   2.714   2.250   8.730  0.8481  0.1425  1.1320
 8061SOL     OW35641   2.304   4.553   1.911  0.4006 -0.1343 -0.5473
 8061SOL    HW135642   2.317   4.613   1.838 -0.1695 -0.9698 -1.3444
 8061SOL    HW235643   2.220   4.579   1.949  1.0319 -0.0460  0.7844
 8062SOL     OW35644   1.608   1.070  13.833  0.3400  0.4847 -0.0487
 8062SOL    HW135645   1.530   1.125  13.823 -0.9888 -1.4147 -0.0437
 8062SOL    HW235646   1.583   0.983  13.804 -0.0177  0.6693 -0.2865
 8063SOL     OW35647   4.111   2.539   7.879  0.8738 -0.6026 -0.0702
 8063SOL    HW135648   4.184   2.506   7.931  1.8527  1.1673 -0.3342
 8063SOL    HW235649   4.138   2.535   7.787  1.6090 -0.7084  0.1555
 8064SOL     OW35650   2.712   1.644   7.879  0.0336  0.4253 -0.2287
 8064SOL    HW135651   2.759   1.564   7.902 -0.3422  0.3161  0.1349
 8064SOL    HW235652   2.779   1.709   7.905  0.7289 -1.1142  1.7906
 8065SOL     OW35653   0.609   0.786   8.465 -0.2898  0.0209  0.2557
 8065SOL    HW135654   0.679   0.851   8.458  0.8558 -1.2734 -0.4073
 8065SOL    HW235655   0.556   0.817   8.392 -2.5772 -0.1049  1.8631
 8066SOL     OW35656   0.169   0.891   2.519  0.3380  0.0816 -0.0543
 8066SOL    HW135657   0.200   0.901   2.429 -0.8461 -1.4673 -0.6339
 8066SOL    HW235658   0.250   0.923   2.559  0.9600 -1.7159  0.1410
 8067SOL     OW35659   2.109   1.640   1.999  0.0699 -0.3325 -0.3055
 8067SOL    HW135660   2.180   1.577   1.993 -0.4057 -0.8155 -0.9009
 8067SOL    HW235661   2.140   1.693   1.925 -0.8547  0.8500  0.1538
 8068SOL     OW35662   1.479   1.549   7.231  0.0235  0.1181  0.0607
 8068SOL    HW135663   1.517   1.567   7.317 -0.1345 -0.2180  0.1992
 8068SOL    HW235664   1.560   1.557   7.180  1.0744  0.1379  1.7230
 8069SOL     OW35665   4.513   1.871  15.614  0.0611  0.0053  0.5026
 8069SOL    HW135666   4.569   1.831  15.548 -1.2391 -2.7515  1.0827
 8069SOL    HW235667   4.495   1.958  15.577  2.4248 -0.0736 -0.8428
 8070SOL     OW35668   4.247   4.097  13.833 -0.1934  0.4389  0.1532
 8070SOL    HW135669   4.235   4.120  13.925  2.2611  2.4550 -0.0348
 8070SOL    HW235670   4.266   4.004  13.842 -1.2662  0.1514 -0.5290
 8071SOL     OW35671   4.002   1.933   8.553  0.5390  0.3234  0.1059
 8071SOL    HW135672   3.962   1.863   8.502  1.0138  1.1809 -1.4762
 8071SOL    HW235673   4.052   1.882   8.616 -2.3923 -2.7481 -0.1077
 8072SOL     OW35674   3.000   1.341  12.921  0.0385 -0.5866  0.2932
 8072SOL    HW135675   2.971   1.341  13.012  1.3304 -1.7574  0.6997
 8072SOL    HW235676   2.950   1.266  12.889  3.7731 -2.2714 -1.5576
 8073SOL     OW35677   1.797   3.201   6.380 -0.3578 -0.9012  0.3584
 8073SOL    HW135678   1.803   3.209   6.475 -1.4525  0.0758  0.3323
 8073SOL    HW235679   1.890   3.204   6.358 -0.3039 -0.4686  0.6489
 8074SOL     OW35680   3.510   4.025  12.789  0.5162 -0.0263 -0.3565
 8074SOL    HW135681   3.470   3.939  12.796 -1.2110  0.7796 -0.3466
 8074SOL    HW235682   3.571   4.026  12.862 -0.1501 -0.8555  0.2030
 8075SOL     OW35683   2.405   3.043  11.186 -0.1249  0.1683  0.2634
 8075SOL    HW135684   2.474   2.980  11.206 -0.9366 -0.8478 -0.1654
 8075SOL    HW235685   2.440   3.093  11.112 -0.3251  0.7014  0.5251
 8076SOL     OW35686   1.476   4.678   6.106  0.6297 -0.2888 -0.5146
 8076SOL    HW135687   1.560   4.649   6.069 -0.4426 -1.9038 -1.6269
 8076SOL    HW235688   1.416   4.679   6.031  1.5425 -2.0881 -1.2740
 8077SOL     OW35689   4.256   2.610   0.393 -0.0567 -0.3231 -0.2240
 8077SOL    HW135690   4.185   2.674   0.390 -0.0520 -0.3417 -0.8386
 8077SOL    HW235691   4.289   2.634   0.479 -0.5551  0.9613 -0.3914
 8078SOL     OW35692   1.353   0.519   7.197 -0.0378  0.1906 -0.3241
 8078SOL    HW135693   1.344   0.568   7.115  1.2200  1.3739  0.2691
 8078SOL    HW235694   1.424   0.568   7.237 -0.4527  0.5127  0.0205
 8079SOL     OW35695   3.693   0.997   3.514  0.1795  0.3859 -0.1155
 8079SOL    HW135696   3.717   1.083   3.480  0.7145  1.1977  2.3105
 8079SOL    HW235697   3.702   0.939   3.437 -0.7936  0.9208 -0.6256
 8080SOL     OW35698   4.450   0.729  12.128 -0.3637 -0.2568  0.0916
 8080SOL    HW135699   4.536   0.740  12.169 -0.7034 -0.6492  0.8983
 8080SOL    HW235700   4.391   0.786  12.176 -1.3749 -0.5814 -0.7643
 8081SOL     OW35701   2.383   2.803   6.032 -0.2463  0.2627 -0.2001
 8081SOL    HW135702   2.375   2.862   6.107 -0.1576 -0.8114  0.6494
 8081SOL    HW235703   2.428   2.862   5.971  0.1615 -1.8227 -1.8934
 8082SOL     OW35704   3.522   2.882   9.869 -0.2795  0.1072 -0.3385
 8082SOL    HW135705   3.493   2.972   9.855  0.3697  0.3334 -0.2038
 8082SOL    HW235706   3.447   2.854   9.921  0.4067  0.1764  0.6670
 8083SOL     OW35707   4.476   3.673   6.812 -0.3770 -0.0437  0.1739
 8083SOL    HW135708   4.445   3.707   6.895 -0.7392 -0.7490  0.3283
 8083SOL    HW235709   4.569   3.684   6.830 -1.0172  1.6365  2.4841
 8084SOL     OW35710   1.712   0.591  11.420  0.7877 -0.1444  0.4829
 8084SOL    HW135711   1.780   0.553  11.476 -0.5782 -0.8301  1.6658
 8084SOL    HW235712   1.710   0.680  11.456  0.2855  0.4793 -1.1113
 8085SOL     OW35713   3.935   4.115  11.102 -0.4757  0.6473  0.2199
 8085SOL    HW135714   4.024   4.124  11.135 -0.4650  0.4238  0.2559
 8085SOL    HW235715   3.917   4.030  11.144  0.5245 -0.6729 -2.0261
 8086SOL     OW35716   4.207   1.030   8.416 -0.2050  0.6858  0.4644
 8086SOL    HW135717   4.179   0.976   8.489  0.4564  0.0542  0.2504
 8086SOL    HW235718   4.183   0.974   8.343 -1.6360  0.0832  1.3945
 8087SOL     OW35719   0.031   0.934   7.731  0.2496  0.2578 -0.0301
 8087SOL    HW135720   0.065   0.851   7.764  4.9566  2.4030  0.5540
 8087SOL    HW235721   0.102   0.975   7.681  0.1253 -0.2271 -0.6003
 8088SOL     OW35722   1.518   2.416   4.824 -0.3511  0.0235 -0.3113
 8088SOL    HW135723   1.603   2.461   4.823  0.4451 -1.4983 -0.4293
 8088SOL    HW235724   1.483   2.432   4.911 -2.0005 -0.2987 -0.9164
 8089SOL     OW35725   0.044   0.664   3.008  0.3590  0.2987 -0.7312
 8089SOL    HW135726   0.002   0.654   3.094  0.0627 -0.3888 -0.9592
 8089SOL    HW235727   4.694   0.689   2.951 -1.3030 -2.4511  0.1812
 8090SOL     OW35728   1.743   4.698   4.078  0.0426 -0.2545 -0.2744
 8090SOL    HW135729   1.819   4.654   4.114 -1.2612 -0.3206  2.3488
 8090SOL    HW235730   1.709   0.025   4.152  0.0301 -0.3672 -0.2045
 8091SOL     OW35731   4.181   2.344  16.799 -0.3443  0.4178  0.0030
 8091SOL    HW135732   4.162   2.371  16.710 -0.0817 -2.9221 -1.0548
 8091SOL    HW235733   4.129   2.409  16.848 -0.2278  0.2694  0.3268
 8092SOL     OW35734   2.097   1.689  17.519  0.3615  0.0233 -0.3071
 8092SOL    HW135735   2.024   1.752  17.514  1.5862  1.5332  1.0475
 8092SOL    HW235736   2.091   1.662  17.610 -1.2828 -1.2116 -0.7644
 8093SOL     OW35737   1.467   4.579   3.058  0.2396 -0.2909  0.1089
 8093SOL    HW135738   1.478   4.672   3.040  1.7974 -0.1817  1.6740
 8093SOL    HW235739   1.410   4.577   3.135  0.3492 -0.3048  0.1888
 8094SOL     OW35740   0.566   1.745  11.638  0.5453 -0.2250 -0.2986
 8094SOL    HW135741   0.640   1.776  11.690  0.5124 -1.0235  0.2310
 8094SOL    HW235742   0.509   1.735  11.715  0.7067 -1.2483 -0.3056
 8095SOL     OW35743   2.835   4.657   6.293 -0.1142  0.3199 -0.3575
 8095SOL    HW135744   2.827   0.030   6.294 -0.9554  0.2135  2.6233
 8095SOL    HW235745   2.871   4.645   6.205  0.9768  0.7766  0.0250
 8096SOL     OW35746   2.456   3.843  11.025 -0.1134 -0.1522 -0.3103
 8096SOL    HW135747   2.461   3.804  10.937  1.9817 -2.3249  0.7740
 8096SOL    HW235748   2.546   3.877  11.021  0.2754 -1.3503 -2.1643
 8097SOL     OW35749   2.060   0.796   3.707  0.3287  0.5139  0.2352
 8097SOL    HW135750   2.155   0.786   3.708  0.3718  0.7520 -1.8387
 8097SOL    HW235751   2.034   0.798   3.615 -2.0372  1.3373  0.9254
 8098SOL     OW35752   4.644   0.139   0.610  0.3133 -0.3862 -0.2835
 8098SOL    HW135753   4.652   0.226   0.648 -0.7853 -1.2309  1.9132
 8098SOL    HW235754   4.598   0.095   0.681  0.9144 -1.1529 -0.3698
 8099SOL     OW35755   4.230   1.557   4.787 -0.3411 -0.0240 -0.0026
 8099SOL    HW135756   4.139   1.564   4.756 -0.5576 -1.1204  0.3930
 8099SOL    HW235757   4.259   1.648   4.783  0.2276 -0.1375  1.4121
 8100SOL     OW35758   2.480   1.799   0.084 -0.1206  0.3305 -0.0260
 8100SOL    HW135759   2.572   1.826   0.090  0.0391 -0.0020 -0.9461
 8100SOL    HW235760   2.444   1.858   0.018  1.6894 -0.5778 -1.8306
 8101SOL     OW35761   2.169   1.038   2.223  0.3276  0.0842 -0.7790
 8101SOL    HW135762   2.157   0.975   2.152 -2.2449 -0.0733 -0.1815
 8101SOL    HW235763   2.213   0.993   2.296 -1.2621 -0.4542 -0.1653
 8102SOL     OW35764   0.806   1.237   7.386 -0.3571  0.2096 -0.0272
 8102SOL    HW135765   0.873   1.261   7.451  1.0911 -0.3091 -1.3137
 8102SOL    HW235766   0.849   1.169   7.335  0.3084 -1.1737  2.3416
 8103SOL     OW35767   1.280   2.828   8.575  0.4804 -0.3633 -0.2616
 8103SOL    HW135768   1.200   2.790   8.538  1.1982  0.1782 -2.3728
 8103SOL    HW235769   1.346   2.781   8.525  1.0742  1.6043 -1.3061
 8104SOL     OW35770   0.340   3.236   6.960  0.4565  0.6544 -0.6026
 8104SOL    HW135771   0.347   3.258   6.867  1.2877  1.5226 -0.3285
 8104SOL    HW235772   0.326   3.141   6.957 -0.1705  0.7465 -0.4689
 8105SOL     OW35773   3.399   1.156   5.871 -0.2482 -0.0676  0.0512
 8105SOL    HW135774   3.424   1.246   5.891  0.0877 -0.0902 -0.2700
 8105SOL    HW235775   3.466   1.106   5.917 -2.0134 -1.9415  0.5847
 8106SOL     OW35776   2.281   2.193   8.018  0.3493  0.2392 -0.0251
 8106SOL    HW135777   2.210   2.244   7.978  0.6489  0.4550 -0.2829
 8106SOL    HW235778   2.233   2.139   8.080  0.1322  0.3913 -0.0586
 8107SOL     OW35779   1.674   3.470   0.624  0.2782 -0.3045 -0.6937
 8107SOL    HW135780   1.599   3.509   0.669  1.4537  0.3279  0.7453
 8107SOL    HW235781   1.746   3.485   0.686 -0.0991 -3.0631  0.4352
 8108SOL     OW35782   3.951   1.199   9.796 -0.2119  0.4385  0.2707
 8108SOL    HW135783   3.974   1.159   9.880  0.5961 -0.5706 -0.4316
 8108SOL    HW235784   3.930   1.123   9.741 -2.8184  2.0430 -0.9798
 8109SOL     OW35785   3.231   4.569  14.968 -0.0171 -0.2305 -0.2917
 8109SOL    HW135786   3.216   4.595  15.059 -1.9642 -0.6725 -0.4845
 8109SOL    HW235787   3.185   4.639  14.923 -0.6019 -1.9785 -2.4224
 8110SOL     OW35788   0.724   0.576   7.997  0.1124 -0.0874  0.8399
 8110SOL    HW135789   0.757   0.601   8.083  2.2316  0.0679 -0.0278
 8110SOL    HW235790   0.657   0.519   8.034  0.3759 -0.5349  0.6283
 8111SOL     OW35791   2.989   4.667  13.642  0.0050 -0.2341 -0.1914
 8111SOL    HW135792   2.943   4.604  13.697 -1.4557  1.1997  0.2084
 8111SOL    HW235793   3.078   4.648  13.673  0.2940 -0.2839 -1.0527
 8112SOL     OW35794   3.063   1.893   1.350 -0.0127  0.2646  0.1116
 8112SOL    HW135795   2.993   1.921   1.290  0.6687 -0.8380 -1.2082
 8112SOL    HW235796   3.039   1.949   1.423  0.4940  0.0480  0.4411
 8113SOL     OW35797   2.357   4.268   6.322 -0.5873  0.3830 -0.2662
 8113SOL    HW135798   2.279   4.316   6.349  0.1028  0.3808  1.7239
 8113SOL    HW235799   2.404   4.252   6.405 -0.8459  2.4814  0.2766
 8114SOL     OW35800   2.998   1.750   4.033 -0.2333  0.2515  0.2795
 8114SOL    HW135801   3.044   1.666   4.046 -0.1718  0.5931  2.2553
 8114SOL    HW235802   3.045   1.786   3.958  0.9232 -0.3520  0.7119
 8115SOL     OW35803   4.380   1.776   4.823 -0.0149  0.0812 -0.0466
 8115SOL    HW135804   4.386   1.868   4.847 -1.8015  0.3479 -0.6700
 8115SOL    HW235805   4.437   1.785   4.746  0.4844  0.0668  0.3255
 8116SOL     OW35806   0.219   0.619  17.503 -0.1512  0.1489  0.1754
 8116SOL    HW135807   0.286   0.562  17.540  0.4720  1.4957  1.1303
 8116SOL    HW235808   0.143   0.600  17.559 -0.6372  2.2091  0.2059
 8117SOL     OW35809   2.229   3.146   6.996 -0.2568  0.2480  0.4359
 8117SOL    HW135810   2.321   3.120   6.996 -0.2770  0.1630  1.1691
 8117SOL    HW235811   2.222   3.219   6.935  0.2712  0.3591  0.5060
 8118SOL     OW35812   3.554   0.767   9.801  0.0251 -0.2274  0.0752
 8118SOL    HW135813   3.504   0.770   9.883 -0.0984  1.3851 -0.0558
 8118SOL    HW235814   3.588   0.856   9.809  1.8915 -0.9666  0.4408
 8119SOL     OW35815   3.049   2.335   9.326 -0.6285  0.7385  0.1653
 8119SOL    HW135816   2.986   2.392   9.282 -1.5351 -0.3773  0.0159
 8119SOL    HW235817   3.124   2.393   9.341 -0.9011  1.2222 -0.3522
 8120SOL     OW35818   3.577   4.452   6.486  0.4257  0.0235  0.1367
 8120SOL    HW135819   3.650   4.514   6.479  0.7781 -0.5075 -0.8488
 8120SOL    HW235820   3.498   4.503   6.466  2.6008  2.9562 -0.9096
 8121SOL     OW35821   0.145   0.340   5.287  0.1768  0.3007  0.8091
 8121SOL    HW135822   0.108   0.296   5.210 -1.2824 -0.7214  2.1177
 8121SOL    HW235823   0.086   0.323   5.360  1.3441 -0.5905  1.5555
 8122SOL     OW35824   2.388   4.563   9.818  0.0474 -0.2723  0.2976
 8122SOL    HW135825   2.352   4.631   9.761 -1.4125 -0.9488  0.4273
 8122SOL    HW235826   2.329   4.580   9.891  1.7980  0.9063  1.4330
 8123SOL     OW35827   1.938   1.506  11.675  0.1716  0.9855 -0.1502
 8123SOL    HW135828   1.899   1.475  11.757 -0.3885  0.3331 -0.6737
 8123SOL    HW235829   2.015   1.451  11.659  1.5370  2.1624  2.2366
 8124SOL     OW35830   0.508   3.097   4.532 -0.1614 -0.2035 -0.4436
 8124SOL    HW135831   0.458   3.016   4.545  1.4637 -1.5000 -2.2430
 8124SOL    HW235832   0.466   3.123   4.450 -0.2118  1.1003 -0.0002
 8125SOL     OW35833   4.238   0.582   8.585 -0.4659  0.2394  0.1144
 8125SOL    HW135834   4.236   0.678   8.578  1.7327  0.2689 -0.2297
 8125SOL    HW235835   4.146   0.555   8.590 -0.6337  0.4487 -1.7386
 8126SOL     OW35836   1.703   3.851   7.620 -0.2083  0.1851 -0.1823
 8126SOL    HW135837   1.647   3.894   7.684  1.6374  0.4069  1.2705
 8126SOL    HW235838   1.787   3.859   7.664 -0.7019 -1.2805  1.0098
 8127SOL     OW35839   1.588   0.647   7.303  0.4706  0.0143 -0.5705
 8127SOL    HW135840   1.637   0.727   7.323 -1.0996  1.3211 -1.9595
 8127SOL    HW235841   1.560   0.615   7.388  1.0530  0.4182 -0.2283
 8128SOL     OW35842   1.927   2.586  10.649  0.7036 -0.2686 -0.2090
 8128SOL    HW135843   1.860   2.526  10.616  1.7580 -0.9712 -1.0646
 8128SOL    HW235844   1.898   2.606  10.738  2.7794  1.0399  0.1729
 8129SOL     OW35845   3.699   3.384  14.222  0.0484 -0.8376  0.3972
 8129SOL    HW135846   3.749   3.435  14.285 -1.9644 -0.5695  1.7620
 8129SOL    HW235847   3.667   3.309  14.271  0.0371 -2.4032 -1.9906
 8130SOL     OW35848   4.377   3.416   4.064 -0.4115 -0.1359 -0.1669
 8130SOL    HW135849   4.436   3.363   4.117 -0.6003  2.1881  2.3871
 8130SOL    HW235850   4.358   3.481   4.132 -0.7699 -0.9883  0.5411
 8131SOL     OW35851   4.628   2.323   9.042 -0.6797  0.6151  0.2737
 8131SOL    HW135852   4.714   2.345   9.007 -0.8530  0.2348 -0.3862
 8131SOL    HW235853   4.568   2.364   8.980 -0.2634 -0.1324 -0.6140
 8132SOL     OW35854   4.624   2.172   6.338  0.4655 -0.1698 -0.5325
 8132SOL    HW135855   4.574   2.113   6.282  2.1904 -0.3803 -1.8554
 8132SOL    HW235856   4.619   2.128   6.423 -0.5026  2.1565  0.6237
 8133SOL     OW35857   3.643   0.783   2.732  0.7619 -0.3100 -0.8567
 8133SOL    HW135858   3.579   0.800   2.663 -1.4234 -0.1650  1.2084
 8133SOL    HW235859   3.716   0.735   2.694  0.9693 -1.1326  0.5913
 8134SOL     OW35860   3.098   3.186  14.809 -0.7105  0.2520  0.1092
 8134SOL    HW135861   3.021   3.190  14.866  2.0359 -0.5211  3.8128
 8134SOL    HW235862   3.053   3.146  14.734  0.9373  1.0062 -1.2713
 8135SOL     OW35863   2.036   2.484   3.258  0.5814  0.5226 -0.1381
 8135SOL    HW135864   2.054   2.534   3.338 -0.7094  0.4538  0.1904
 8135SOL    HW235865   2.114   2.429   3.257  0.6674  0.6515 -0.5006
 8136SOL     OW35866   0.358   4.025   4.283 -0.0251  0.2568  0.5018
 8136SOL    HW135867   0.276   3.977   4.294 -0.3268  1.0129  1.5676
 8136SOL    HW235868   0.329   4.114   4.303 -0.1910 -0.0815  1.7752
 8137SOL     OW35869   4.221   4.497  11.734 -0.4485  0.2182  0.3049
 8137SOL    HW135870   4.307   4.485  11.693  0.8939 -0.6979  3.3488
 8137SOL    HW235871   4.204   4.587  11.709  0.0033  0.1837 -0.1205
 8138SOL     OW35872   2.950   3.504  17.387  0.0165 -1.0552  0.1313
 8138SOL    HW135873   2.909   3.482  17.470 -2.0612  0.6669 -0.4330
 8138SOL    HW235874   3.029   3.538  17.428  0.0447  1.5631 -2.0957
 8139SOL     OW35875   3.805   3.485   3.449 -0.5473  0.0198  0.1255
 8139SOL    HW135876   3.787   3.404   3.400 -0.8466 -0.7635  1.5232
 8139SOL    HW235877   3.803   3.450   3.538 -2.6049  0.7920  0.3838
 8140SOL     OW35878   4.409   4.013  11.285  0.3560 -0.6166  0.0523
 8140SOL    HW135879   4.486   4.070  11.285 -0.8614  1.0214  0.2727
 8140SOL    HW235880   4.439   3.936  11.332  2.5411 -0.0857 -0.4919
 8141SOL     OW35881   2.145   1.053   9.950  0.1085  0.0183  0.3174
 8141SOL    HW135882   2.117   1.089   9.865 -0.6945  0.6585  0.8582
 8141SOL    HW235883   2.238   1.076   9.950 -0.0836  0.8080 -0.4513
 8142SOL     OW35884   1.766   0.185  17.442 -0.4889  0.2192  0.0775
 8142SOL    HW135885   1.708   0.206  17.514  0.4826 -1.1044  1.2610
 8142SOL    HW235886   1.779   0.271  17.402 -1.3039 -0.7238 -2.2620
 8143SOL     OW35887   1.138   3.548  12.720  0.2885  0.3186  0.2778
 8143SOL    HW135888   1.049   3.579  12.705 -0.4107 -1.0444  1.6123
 8143SOL    HW235889   1.135   3.453  12.712 -0.5355  0.2482  1.3797
 8144SOL     OW35890   1.772   4.237   3.742  0.4002 -0.0019 -0.1184
 8144SOL    HW135891   1.717   4.308   3.709 -0.1125  0.2397  1.2163
 8144SOL    HW235892   1.728   4.217   3.825  0.2521 -0.1465 -0.2337
 8145SOL     OW35893   0.130   3.472   7.305 -0.3257  0.3564 -0.2678
 8145SOL    HW135894   0.214   3.476   7.259 -0.1144 -0.2771  0.0632
 8145SOL    HW235895   0.081   3.416   7.244  1.5676 -2.0505  0.4275
 8146SOL     OW35896   4.575   0.692  13.774 -0.0222  0.5707 -0.2316
 8146SOL    HW135897   4.513   0.710  13.844  0.2134 -0.4079  0.2264
 8146SOL    HW235898   4.518   0.722  13.703 -2.2840 -0.1125  1.2904
 8147SOL     OW35899   1.551   1.448   8.920 -0.0571  0.4842 -0.9961
 8147SOL    HW135900   1.457   1.467   8.916  0.2340  2.1269  0.1856
 8147SOL    HW235901   1.574   1.473   9.009  0.1690  0.9962 -1.1958
 8148SOL     OW35902   2.968   2.126   1.486  0.3206 -0.6442 -0.5630
 8148SOL    HW135903   2.999   2.212   1.460 -0.0467 -0.2885  0.1703
 8148SOL    HW235904   2.916   2.154   1.562  1.3459  3.4598 -1.4178
 8149SOL     OW35905   0.407   2.328  15.649  0.2579 -0.4745  0.2891
 8149SOL    HW135906   0.350   2.403  15.631  1.2501 -0.3334 -2.2325
 8149SOL    HW235907   0.423   2.297  15.560  0.8343  1.0975 -0.1560
 8150SOL     OW35908   1.401   2.576   5.592 -1.1677 -0.4023  0.1555
 8150SOL    HW135909   1.396   2.630   5.513 -1.2537 -1.0631 -0.2933
 8150SOL    HW235910   1.394   2.488   5.554 -2.2243  0.1298 -0.8725
 8151SOL     OW35911   0.918   2.648  15.321  0.1801  0.0357  0.1916
 8151SOL    HW135912   0.915   2.743  15.313  0.9984 -0.1742 -2.4517
 8151SOL    HW235913   0.835   2.629  15.364 -0.6571  2.3255 -0.4092
 8152SOL     OW35914   2.763   0.535   2.959 -0.0847  0.9222  0.4011
 8152SOL    HW135915   2.851   0.495   2.960 -1.8086 -2.8706  2.4119
 8152SOL    HW235916   2.784   0.626   2.938  1.2956  1.2233  3.0439
 8153SOL     OW35917   2.705   2.347   7.345  0.5452  0.5369  0.1262
 8153SOL    HW135918   2.617   2.312   7.327  0.7442  0.1444 -0.0733
 8153SOL    HW235919   2.758   2.313   7.274 -1.1250 -1.0452 -0.3870
 8154SOL     OW35920   0.078   4.632   3.760  0.6125  0.5476  0.1281
 8154SOL    HW135921   4.718   4.585   3.765 -0.0634  1.7323  0.1434
 8154SOL    HW235922   0.096   4.650   3.853  3.3472 -0.2897 -0.2427
 8155SOL     OW35923   2.345   0.607   2.293  0.1748  0.5257  0.0142
 8155SOL    HW135924   2.390   0.690   2.279  0.1103  0.3507 -1.2398
 8155SOL    HW235925   2.420   0.564   2.334  0.5974  0.1030 -1.1917
 8156SOL     OW35926   2.448   2.126   5.964 -0.0365  0.3694 -0.2395
 8156SOL    HW135927   2.375   2.187   5.980 -0.5976 -0.2147 -0.5686
 8156SOL    HW235928   2.412   2.068   5.898 -1.3939 -1.4856  2.1069
 8157SOL     OW35929   3.118   0.477   9.294  0.7348 -0.2355  0.2933
 8157SOL    HW135930   3.186   0.465   9.361  2.3028  0.8376 -1.1339
 8157SOL    HW235931   3.103   0.392   9.253  1.3121 -1.4517  2.6149
 8158SOL     OW35932   2.172   2.382  11.511  0.2121  0.3136  0.0199
 8158SOL    HW135933   2.173   2.377  11.415 -2.4812  0.6645 -0.0347
 8158SOL    HW235934   2.171   2.475  11.533  0.7089  0.3305 -0.0368
 8159SOL     OW35935   3.178   4.104   0.949 -0.5280 -0.2591  0.6450
 8159SOL    HW135936   3.214   4.066   1.029  1.4122  0.5219  0.1322
 8159SOL    HW235937   3.128   4.172   0.994 -1.4525 -1.3164  1.2179
 8160SOL     OW35938   0.666   3.291  12.701  0.1371  0.5094 -0.0208
 8160SOL    HW135939   0.701   3.209  12.666  0.0041 -0.3863  1.9717
 8160SOL    HW235940   0.660   3.337  12.616  0.9457  0.1688 -0.2658
 8161SOL     OW35941   2.877   4.071   4.669  0.0778 -0.0934  0.0270
 8161SOL    HW135942   2.794   4.042   4.631  0.5755 -0.3674 -0.8549
 8161SOL    HW235943   2.937   4.073   4.594  2.5703  0.9634  2.0526
 8162SOL     OW35944   2.800   0.726   6.997  0.6712  0.4456 -0.2017
 8162SOL    HW135945   2.803   0.819   6.974 -1.7122  0.1523 -1.5815
 8162SOL    HW235946   2.748   0.693   6.924 -1.0794  1.2851  0.6634
 8163SOL     OW35947   0.532   3.919   9.054  0.5420  0.3260 -0.3637
 8163SOL    HW135948   0.558   3.856   8.987  0.3806 -1.3720  1.1977
 8163SOL    HW235949   0.612   3.926   9.106  0.0551  0.2915  0.3895
 8164SOL     OW35950   1.196   1.724   9.678 -0.1484  0.1123 -0.0848
 8164SOL    HW135951   1.182   1.652   9.740  1.9620 -0.0573  0.1922
 8164SOL    HW235952   1.199   1.676   9.595 -0.8574  0.5795 -0.3833
 8165SOL     OW35953   0.065   4.262  17.277 -0.0481 -0.3317 -0.2179
 8165SOL    HW135954   0.116   4.194  17.321  1.6543  1.1837  0.1500
 8165SOL    HW235955   0.024   4.298  17.355 -1.3689 -2.2741 -0.0200
 8166SOL     OW35956   0.876   0.845   4.116  0.2298  0.0617 -0.1091
 8166SOL    HW135957   0.809   0.847   4.184  2.8914  1.5065  2.4570
 8166SOL    HW235958   0.913   0.757   4.109  0.7148  0.1411  1.5598
 8167SOL     OW35959   0.466   3.355   1.096 -0.2294  0.3762 -0.0093
 8167SOL    HW135960   0.473   3.274   1.147 -0.6061  0.3307 -0.0253
 8167SOL    HW235961   0.457   3.418   1.167 -0.7399 -2.1159  2.1363
 8168SOL     OW35962   0.844   3.666  17.329 -0.0020 -0.8415  0.6063
 8168SOL    HW135963   0.808   3.748  17.295  0.0947 -1.3588 -0.7433
 8168SOL    HW235964   0.845   3.613  17.249  0.4820 -0.0041  0.0653
 8169SOL     OW35965   4.707   1.322   5.524  0.3105  0.0422  0.6535
 8169SOL    HW135966   0.041   1.396   5.503 -0.4643 -0.2835 -2.5724
 8169SOL    HW235967   4.693   1.273   5.443  3.7446  0.7388 -0.3393
 8170SOL     OW35968   1.047   2.636   3.712  0.0143 -0.1339 -0.6567
 8170SOL    HW135969   0.986   2.680   3.652  0.7874  3.0113  0.8316
 8170SOL    HW235970   1.068   2.554   3.668  2.9338  0.8786 -1.1529
 8171SOL     OW35971   3.875   0.497   2.499  0.1166  0.2283 -0.0288
 8171SOL    HW135972   3.947   0.527   2.443  0.1595 -0.3220 -0.2693
 8171SOL    HW235973   3.911   0.541   2.576 -0.0300  0.6007 -0.1699
 8172SOL     OW35974   3.069   3.360   5.895 -0.4923 -0.3618 -0.3231
 8172SOL    HW135975   3.090   3.305   5.970 -0.1308 -2.0825 -1.7011
 8172SOL    HW235976   3.153   3.359   5.849  0.1097 -2.2170  0.8328
 8173SOL     OW35977   1.701   3.077   3.852 -0.0696  0.8164  0.4219
 8173SOL    HW135978   1.644   3.145   3.888 -3.4505 -1.4157 -0.6500
 8173SOL    HW235979   1.636   3.007   3.841  1.3605 -0.3893 -0.3124
 8174SOL     OW35980   2.137   2.780   3.734  0.2322 -0.4283  0.3222
 8174SOL    HW135981   2.086   2.736   3.666  0.0266 -2.4480  1.7848
 8174SOL    HW235982   2.215   2.726   3.720  0.6845  0.2255  0.3096
 8175SOL     OW35983   0.035   2.967   6.724  0.0596 -0.2818  0.4194
 8175SOL    HW135984   0.086   2.892   6.757 -0.8280 -1.8108 -1.6905
 8175SOL    HW235985   0.094   2.995   6.655 -1.7615  2.2169 -0.1185
 8176SOL     OW35986   0.602   1.269   3.699  0.5486  0.0411  0.1572
 8176SOL    HW135987   0.654   1.320   3.762 -2.2972  1.1929  1.5885
 8176SOL    HW235988   0.666   1.214   3.655  0.1191 -2.1502  2.2675
 8177SOL     OW35989   4.319   0.611  14.983  0.2457  0.0569  0.4392
 8177SOL    HW135990   4.361   0.585  14.900 -1.7987  1.2750 -0.9731
 8177SOL    HW235991   4.394   0.624  15.040 -0.2852 -0.0778  1.1597
 8178SOL     OW35992   4.457   2.581  10.466 -0.1044  0.3017 -0.6443
 8178SOL    HW135993   4.410   2.535  10.396 -3.4844  2.4066  0.2263
 8178SOL    HW235994   4.464   2.665  10.421  0.2484  0.1374 -0.8899
 8179SOL     OW35995   0.494   1.669   3.167  0.0855  0.0771  0.8779
 8179SOL    HW135996   0.511   1.729   3.240 -3.2479 -0.1759  1.8523
 8179SOL    HW235997   0.561   1.697   3.104  0.7000 -4.0463 -0.2571
 8180SOL     OW35998   0.979   1.831   7.163 -0.5832  0.0883 -0.3694
 8180SOL    HW135999   1.012   1.766   7.101  1.9536  0.0171  1.0710
 8180SOL    HW236000   0.907   1.878   7.120 -0.3418  0.1918 -0.6569
 8181SOL     OW36001   1.705   3.709  12.919 -0.0163  0.3461 -0.0218
 8181SOL    HW136002   1.653   3.628  12.918  0.2125  0.1447  2.6525
 8181SOL    HW236003   1.751   3.706  13.003  0.0656  3.1456  0.0446
 8182SOL     OW36004   3.663   2.554   7.139  0.0165  0.2909 -0.0567
 8182SOL    HW136005   3.708   2.489   7.085 -0.7172 -0.5452  0.3417
 8182SOL    HW236006   3.675   2.634   7.089 -0.9595  1.8330  2.1552
 8183SOL     OW36007   3.787   0.768   8.520 -0.1635  0.1645 -0.3132
 8183SOL    HW136008   3.853   0.745   8.455 -1.0667 -1.6677 -0.5916
 8183SOL    HW236009   3.769   0.860   8.502  0.2298  0.4690  0.8154
 8184SOL     OW36010   3.770   2.015   7.676 -0.1136  0.4567  0.0857
 8184SOL    HW136011   3.733   2.074   7.741  0.9335  0.9952  0.1804
 8184SOL    HW236012   3.741   1.932   7.715  1.4113 -0.7235 -1.2698
 8185SOL     OW36013   0.859   2.660   6.873  0.1146  0.6404 -0.1665
 8185SOL    HW136014   0.808   2.623   6.946  1.5361 -2.0714 -0.5285
 8185SOL    HW236015   0.880   2.746   6.908  0.4155  0.7544 -0.6311
 8186SOL     OW36016   0.429   2.426   0.198  0.0306  0.0710  0.2073
 8186SOL    HW136017   0.394   2.346   0.238 -1.4209  0.2286 -0.7353
 8186SOL    HW236018   0.360   2.443   0.134  1.6711 -0.6859 -1.7520
 8187SOL     OW36019   1.811   1.440   9.634 -0.2013  0.3607 -0.3066
 8187SOL    HW136020   1.849   1.438   9.723 -0.9637 -0.5574  0.0048
 8187SOL    HW236021   1.723   1.402   9.639 -0.1209  0.4404  1.8458
 8188SOL     OW36022   2.248   2.900  11.906 -0.5009  0.1760 -0.5937
 8188SOL    HW136023   2.342   2.881  11.908 -0.9037 -1.6244  1.4689
 8188SOL    HW236024   2.242   2.906  11.811 -0.1734  2.5719 -0.4761
 8189SOL     OW36025   1.119   2.203  17.134 -0.1601  0.5358 -0.3767
 8189SOL    HW136026   1.129   2.162  17.049 -1.8574  0.3151 -0.4614
 8189SOL    HW236027   1.032   2.179  17.165  0.0436  0.6961  0.3365
 8190SOL     OW36028   1.364   4.211  10.861 -0.5387 -0.6551 -0.3688
 8190SOL    HW136029   1.453   4.223  10.895 -0.6386 -3.9330  0.9865
 8190SOL    HW236030   1.370   4.122  10.828 -2.1884 -1.6075  1.9087
 8191SOL     OW36031   0.382   1.861   4.292  0.0165 -0.4086 -0.1140
 8191SOL    HW136032   0.341   1.814   4.219 -0.7543  1.6789 -1.0069
 8191SOL    HW236033   0.427   1.932   4.246 -0.0716  0.4857  1.1689
 8192SOL     OW36034   1.189   3.875  13.144 -0.5231 -0.1987  0.2249
 8192SOL    HW136035   1.264   3.816  13.147 -2.0141 -2.0287  0.7766
 8192SOL    HW236036   1.223   3.953  13.189 -0.2004 -0.3973  0.3197
 8193SOL     OW36037   0.963   2.164   8.555  0.3678 -0.3539  0.1452
 8193SOL    HW136038   0.933   2.098   8.618  3.3778 -1.0798  0.8137
 8193SOL    HW236039   1.046   2.126   8.529  0.7761 -0.7261  2.0173
 8194SOL     OW36040   3.898   1.987  15.952 -0.4536 -0.1553  0.3220
 8194SOL    HW136041   3.898   1.944  15.866  0.5124  1.4647 -0.5052
 8194SOL    HW236042   3.823   2.046  15.960 -0.8309 -0.4413 -1.0299
 8195SOL     OW36043   3.805   3.656   6.595  0.0340  0.2224 -0.0877
 8195SOL    HW136044   3.856   3.588   6.640  1.8665  0.7738 -1.3224
 8195SOL    HW236045   3.717   3.647   6.630  0.3234 -1.9452  0.0383
 8196SOL     OW36046   0.800   0.693   8.788 -0.1221  0.3690 -0.2172
 8196SOL    HW136047   0.766   0.739   8.711  0.3417 -0.4125 -0.8848
 8196SOL    HW236048   0.772   0.603   8.772  0.1202  0.4650 -1.1560
 8197SOL     OW36049   4.651   3.986  17.552  0.5506 -0.1121  0.3701
 8197SOL    HW136050   4.705   3.910  17.531  0.8054  0.9744 -2.9358
 8197SOL    HW236051   4.706   4.063  17.536  1.0100 -0.6018 -0.4118
 8198SOL     OW36052   3.442   1.705  13.156  0.6739  0.1280  0.0773
 8198SOL    HW136053   3.490   1.674  13.233  2.8662 -1.3564 -1.8978
 8198SOL    HW236054   3.409   1.792  13.180  1.4683  0.3136  0.4964
 8199SOL     OW36055   2.280   4.679   4.891 -0.7153  0.2186  0.7454
 8199SOL    HW136056   2.190   4.713   4.888 -0.4816  0.8427  0.7753
 8199SOL    HW236057   2.315   4.714   4.809 -1.0293  1.0779  0.9799
 8200SOL     OW36058   1.965   3.427   8.630 -0.0051  0.5828  0.2782
 8200SOL    HW136059   2.028   3.422   8.702 -0.8426 -1.4712  0.8577
 8200SOL    HW236060   2.007   3.490   8.572 -1.7692  0.7098 -0.8700
 8201SOL     OW36061   0.296   1.521   3.260  0.0495 -0.0855 -0.1705
 8201SOL    HW136062   0.255   1.527   3.174 -1.7390 -1.6424  0.5946
 8201SOL    HW236063   0.375   1.569   3.231  0.5791 -0.9902 -0.2193
 8202SOL     OW36064   4.701   3.967   3.312  0.8949  0.4838  0.2510
 8202SOL    HW136065   0.064   3.946   3.349  0.9917 -1.3727 -1.0023
 8202SOL    HW236066   4.697   4.059   3.339  0.0977  0.6414 -0.3943
 8203SOL     OW36067   1.907   0.059   3.698  0.2357 -0.1148 -0.5516
 8203SOL    HW136068   1.903   0.154   3.705 -0.9741 -0.2419  0.4711
 8203SOL    HW236069   1.983   0.046   3.755 -1.4001 -0.9882  1.4418
 8204SOL     OW36070   2.931   4.049   0.820  0.1249  0.0911 -0.1531
 8204SOL    HW136071   2.888   4.128   0.852 -1.6127 -1.0391  0.3558
 8204SOL    HW236072   3.016   4.056   0.862 -0.1422  2.8813 -0.1270
 8205SOL     OW36073   2.109   0.447   6.281 -0.1550  0.3332 -0.0684
 8205SOL    HW136074   2.046   0.468   6.211  0.8309  0.6421 -0.8646
 8205SOL    HW236075   2.051   0.419   6.352 -1.4043  0.9819 -0.8296
 8206SOL     OW36076   2.326   1.244   0.944  0.5480 -0.6118  0.7936
 8206SOL    HW136077   2.242   1.202   0.961  0.6073 -0.9008  0.3566
 8206SOL    HW236078   2.287   1.330   0.961 -0.7694 -0.7710 -1.5432
 8207SOL     OW36079   1.944   4.297   1.768  0.4585 -0.2124  0.0996
 8207SOL    HW136080   1.950   4.382   1.810  1.9683  0.2880 -1.1536
 8207SOL    HW236081   1.857   4.298   1.729 -0.1252 -0.1631  1.3952
 8208SOL     OW36082   3.967   1.406   4.520  0.3537 -0.4596  0.1985
 8208SOL    HW136083   3.928   1.321   4.500  0.3288 -0.4113  0.0382
 8208SOL    HW236084   4.059   1.380   4.533  0.0992  0.1026  3.1060
 8209SOL     OW36085   2.216   3.908  15.956  0.7992  0.2720 -0.1777
 8209SOL    HW136086   2.209   3.813  15.964  0.6408  0.0349 -3.0890
 8209SOL    HW236087   2.184   3.910  15.866  1.4010  0.8336 -0.3836
 8210SOL     OW36088   0.927   0.774   9.434  0.1675  0.4448  0.1249
 8210SOL    HW136089   0.877   0.707   9.386 -1.3795  1.4538  0.3262
 8210SOL    HW236090   0.875   0.784   9.514 -3.1313 -0.2122 -1.9530
 8211SOL     OW36091   2.380   4.085  16.056  0.2069 -0.0319  0.1565
 8211SOL    HW136092   2.322   4.012  16.034 -3.4098  2.3643  1.7306
 8211SOL    HW236093   2.364   4.135  15.975 -4.2852  0.6377  1.4266
 8212SOL     OW36094   4.609   0.729  10.721  0.0960  0.0492 -0.2408
 8212SOL    HW136095   4.693   0.731  10.768  0.0994  0.4078 -0.2669
 8212SOL    HW236096   4.572   0.649  10.758 -0.6058  1.2746  1.6978
 8213SOL     OW36097   2.792   2.949   7.166 -0.2848  0.3075  0.6980
 8213SOL    HW136098   2.701   2.947   7.137  0.1669 -0.7813 -0.6388
 8213SOL    HW236099   2.793   2.859   7.196  0.8054 -0.2207 -0.9007
 8214SOL     OW36100   0.746   4.568  11.573  0.5170  0.0647 -0.2680
 8214SOL    HW136101   0.814   4.509  11.542 -0.8954 -1.5670 -0.2737
 8214SOL    HW236102   0.703   4.611  11.499 -0.7491  1.1423  1.0862
 8215SOL     OW36103   1.761   1.735   7.796  0.5626  0.1858  0.1967
 8215SOL    HW136104   1.710   1.698   7.867  0.0610  0.2527 -0.1318
 8215SOL    HW236105   1.688   1.731   7.734 -0.5311 -0.2161  1.5175
 8216SOL     OW36106   2.273   1.484   1.048  0.2143 -0.2210  0.0262
 8216SOL    HW136107   2.359   1.513   1.080  0.1043  1.2192 -0.9869
 8216SOL    HW236108   2.234   1.464   1.133  0.5385  2.6471  0.8577
 8217SOL     OW36109   1.461   1.823  10.961  0.9300  0.3011 -0.5412
 8217SOL    HW136110   1.408   1.862  11.030  1.0468 -1.0280  0.2904
 8217SOL    HW236111   1.420   1.855  10.880  0.0963  2.1304  0.6111
 8218SOL     OW36112   1.510   1.134   8.041  0.1147 -0.1546  0.7668
 8218SOL    HW136113   1.548   1.071   8.103  0.7805  0.4238  0.9440
 8218SOL    HW236114   1.557   1.215   8.062 -0.4009  0.4340 -0.3622
 8219SOL     OW36115   0.230   3.686   6.982 -0.4498  0.2938  0.2069
 8219SOL    HW136116   0.320   3.708   6.959 -0.1891  0.8229  1.7644
 8219SOL    HW236117   0.217   3.597   6.950 -0.6010  0.6453 -0.7298
 8220SOL     OW36118   0.360   0.994   4.842 -0.7901  0.1794 -0.2580
 8220SOL    HW136119   0.395   1.037   4.920 -0.9632 -0.6312  0.2718
 8220SOL    HW236120   0.309   1.066   4.808 -1.8214  0.5306  1.9983
 8221SOL     OW36121   4.182   2.529   4.424  0.1271  0.4711 -0.0654
 8221SOL    HW136122   4.177   2.481   4.341 -1.7654  1.4243 -0.5114
 8221SOL    HW236123   4.256   2.488   4.468 -1.0767 -0.2097  1.3425
 8222SOL     OW36124   1.979   1.260   3.744  0.1832  0.1984  0.3649
 8222SOL    HW136125   1.970   1.294   3.833  2.2456 -1.6902  1.2729
 8222SOL    HW236126   1.896   1.280   3.700  0.7161 -1.1136 -1.2019
 8223SOL     OW36127   3.477   4.252   3.700 -0.9139  0.4136  0.3414
 8223SOL    HW136128   3.516   4.281   3.783  0.4528 -0.9630  0.1902
 8223SOL    HW236129   3.391   4.250   3.741 -0.0822 -1.7438  2.0311
 8224SOL     OW36130   2.589   0.332   1.443 -0.1135 -0.4443 -0.3260
 8224SOL    HW136131   2.563   0.280   1.519  1.9481  1.4744  1.7092
 8224SOL    HW236132   2.667   0.283   1.420 -0.9678 -1.7712 -0.3860
 8225SOL     OW36133   1.848   1.370   6.219  0.0810  0.1715  0.5608
 8225SOL    HW136134   1.921   1.384   6.159 -0.4786  2.2784  0.3500
 8225SOL    HW236135   1.817   1.282   6.199 -0.3022  0.8335 -1.7427
 8226SOL     OW36136   1.923   2.516   2.973 -0.8431  0.5649  0.4182
 8226SOL    HW136137   1.951   2.526   3.064  1.0834 -1.5316  0.0331
 8226SOL    HW236138   1.968   2.592   2.936  1.8536 -1.7191 -0.9995
 8227SOL     OW36139   1.564   0.457   6.876  0.1530 -0.1448 -0.0175
 8227SOL    HW136140   1.569   0.361   6.874  1.5752 -0.0237 -2.4109
 8227SOL    HW236141   1.600   0.482   6.960 -1.4940  0.7495  0.4161
 8228SOL     OW36142   2.653   1.505   7.450 -0.3497 -0.2789  0.0058
 8228SOL    HW136143   2.647   1.469   7.538 -0.8915  0.4837  0.2847
 8228SOL    HW236144   2.650   1.424   7.400  0.9104  0.3340 -1.0832
 8229SOL     OW36145   2.208   4.481   1.040  0.2481  0.1047  0.0290
 8229SOL    HW136146   2.235   4.439   1.121  0.7666 -1.3186 -0.8695
 8229SOL    HW236147   2.269   4.554   1.050 -0.7786  0.7894  1.3271
 8230SOL     OW36148   1.553   2.771   6.489  0.4590  0.0352  0.4334
 8230SOL    HW136149   1.560   2.864   6.469 -0.3749 -0.1687 -0.7993
 8230SOL    HW236150   1.472   2.766   6.539 -0.7473  1.8117 -1.3575
 8231SOL     OW36151   1.443   2.883   8.328 -1.0830 -0.0797  0.0828
 8231SOL    HW136152   1.403   2.942   8.264  1.6762  0.9430 -0.6945
 8231SOL    HW236153   1.471   2.949   8.392  1.9100 -0.2458 -1.1055
 8232SOL     OW36154   3.327   1.419  10.274 -0.4435 -0.4591 -0.5645
 8232SOL    HW136155   3.347   1.363  10.199  1.9404 -0.1524 -0.1528
 8232SOL    HW236156   3.245   1.453  10.239  0.3694  2.9932  0.9129
 8233SOL     OW36157   1.204   1.017   8.777  0.6537 -0.2162 -0.0741
 8233SOL    HW136158   1.118   0.975   8.776 -0.1684  1.6253 -3.2998
 8233SOL    HW236159   1.238   0.974   8.699  3.0197  0.3159  0.6454
 8234SOL     OW36160   0.540   1.406   4.940  0.7467  0.1826 -0.1725
 8234SOL    HW136161   0.605   1.419   5.010  2.1503  0.0086 -1.4505
 8234SOL    HW236162   0.596   1.410   4.863  0.8462  0.0259 -0.1080
 8235SOL     OW36163   0.277   2.853   0.289 -0.0647  0.3260  0.6370
 8235SOL    HW136164   0.221   2.849   0.211 -0.7035 -0.7875  1.1564
 8235SOL    HW236165   0.329   2.775   0.274  0.7164  0.5832  1.9811
 8236SOL     OW36166   2.006   2.912   3.919 -0.0277 -0.2662  0.2838
 8236SOL    HW136167   2.062   2.864   3.857  0.6677  0.6937  0.1744
 8236SOL    HW236168   1.918   2.882   3.896  0.8974 -1.9522 -1.0529
 8237SOL     OW36169   2.417   3.710   4.221 -0.4716 -0.5525 -0.0710
 8237SOL    HW136170   2.507   3.697   4.251  0.2297 -2.9250 -3.2080
 8237SOL    HW236171   2.407   3.636   4.162  0.8165  0.0119 -1.0006
 8238SOL     OW36172   1.527   3.809   5.402 -0.2072 -0.7229 -0.1791
 8238SOL    HW136173   1.454   3.746   5.406 -0.0431 -0.7474  2.0819
 8238SOL    HW236174   1.549   3.822   5.494  1.3108 -0.5584 -0.5756
 8239SOL     OW36175   4.286   4.244   9.245  0.3821 -0.6060 -0.5895
 8239SOL    HW136176   4.287   4.260   9.151  1.0173 -2.6245 -0.9363
 8239SOL    HW236177   4.193   4.243   9.266  1.0204  1.5308  2.3256
 8240SOL     OW36178   3.198   1.512   4.149 -0.2245 -0.0951 -0.0434
 8240SOL    HW136179   3.169   1.458   4.075 -0.7444  0.4303 -0.2259
 8240SOL    HW236180   3.281   1.546   4.117 -0.5569  0.8955  0.1307
 8241SOL     OW36181   0.824   4.414  17.280 -0.1843  0.0794  0.0388
 8241SOL    HW136182   0.916   4.391  17.271 -0.5200 -1.3353  0.1953
 8241SOL    HW236183   0.805   4.485  17.218  0.4905  1.4371  1.4019
 8242SOL     OW36184   3.317   3.321   7.399  0.4996  0.1406  1.1601
 8242SOL    HW136185   3.304   3.242   7.451 -2.1152 -0.7110 -0.7802
 8242SOL    HW236186   3.316   3.282   7.311 -0.4937  0.6318  0.9587
 8243SOL     OW36187   2.469   1.386   9.311  0.1911  0.3423  0.3250
 8243SOL    HW136188   2.458   1.399   9.217 -0.2785  0.6999  0.4267
 8243SOL    HW236189   2.461   1.474   9.347 -1.5459  0.4966 -0.4277
 8244SOL     OW36190   2.648   2.112   6.656 -0.3688  0.4556  0.1870
 8244SOL    HW136191   2.635   2.167   6.579  0.5145 -1.2768 -1.1975
 8244SOL    HW236192   2.560   2.077   6.667  0.0775 -0.2882  1.4917
 8245SOL     OW36193   2.392   1.798   5.739  0.0379  0.3092 -0.3720
 8245SOL    HW136194   2.446   1.788   5.817  0.6554  0.7800 -0.7400
 8245SOL    HW236195   2.331   1.727   5.760  0.2684  0.0639 -0.5291
 8246SOL     OW36196   2.099   4.318   8.206 -0.2444  0.0684 -0.3924
 8246SOL    HW136197   2.141   4.397   8.171 -0.5209  0.3564 -0.0632
 8246SOL    HW236198   2.111   4.334   8.299  2.9973 -0.6578 -0.6835
 8247SOL     OW36199   0.696   4.333  13.059 -0.3046  0.6948 -0.0506
 8247SOL    HW136200   0.750   4.293  12.991  1.5883 -0.5721  2.1846
 8247SOL    HW236201   0.669   4.248  13.093 -3.2419  1.7163  0.1494
 8248SOL     OW36202   4.308   3.490   0.981 -0.2865  0.2965  0.0417
 8248SOL    HW136203   4.343   3.409   1.016  0.0887  0.5580  0.2604
 8248SOL    HW236204   4.280   3.463   0.893  1.7604  1.6498 -1.0262
 8249SOL     OW36205   1.558   3.132  12.599  0.1166  0.1134  0.5455
 8249SOL    HW136206   1.494   3.091  12.657  0.1626  0.6812  1.0010
 8249SOL    HW236207   1.630   3.153  12.659  1.5041  1.1105 -1.4542
 8250SOL     OW36208   3.957   0.977  12.487  0.3121  0.1989  0.0554
 8250SOL    HW136209   3.910   1.023  12.557  3.2589  3.1962  0.0211
 8250SOL    HW236210   4.046   0.985  12.521 -0.4102 -1.4090  2.3512
 8251SOL     OW36211   0.521   3.516   1.300  0.5823 -0.1184 -0.1646
 8251SOL    HW136212   0.497   3.575   1.371 -1.7357  1.7830 -2.5208
 8251SOL    HW236213   0.605   3.551   1.271 -0.0229  1.3330 -0.1842
 8252SOL     OW36214   0.703   3.121   7.406 -0.5497 -0.0669 -0.7087
 8252SOL    HW136215   0.797   3.106   7.399 -0.7161 -1.5844  0.1905
 8252SOL    HW236216   0.684   3.039   7.451 -2.0054  0.4100 -0.4437
 8253SOL     OW36217   1.381   0.365   5.926 -0.2506  0.0663  0.6466
 8253SOL    HW136218   1.466   0.396   5.896 -0.3332 -0.1538  0.1904
 8253SOL    HW236219   1.407   0.339   6.015  1.6669  1.4426  0.4637
 8254SOL     OW36220   0.252   2.921  15.219 -0.4995  0.1430 -0.2752
 8254SOL    HW136221   0.233   3.009  15.252 -0.1853  0.1897 -0.2172
 8254SOL    HW236222   0.296   2.945  15.137 -1.0045 -1.4273 -0.9949
 8255SOL     OW36223   3.904   2.215   3.333  0.2337 -0.0800  0.1983
 8255SOL    HW136224   3.836   2.282   3.328  0.9104  0.6074  0.1865
 8255SOL    HW236225   3.962   2.245   3.263 -0.5928 -1.2811 -1.0067
 8256SOL     OW36226   2.956   3.611  12.172 -0.7066  0.2210  0.4613
 8256SOL    HW136227   3.037   3.657  12.150 -0.0578 -0.2219  1.9186
 8256SOL    HW236228   2.928   3.666  12.245 -0.6260 -0.3590  0.9337
 8257SOL     OW36229   2.785   2.979   7.771  0.3027  0.2231  0.4490
 8257SOL    HW136230   2.877   2.964   7.746  0.0727 -0.9672  0.3292
 8257SOL    HW236231   2.739   2.956   7.690 -1.1934  0.9143  1.1080
 8258SOL     OW36232   2.298   1.514   8.538  0.3257  0.0453 -0.0393
 8258SOL    HW136233   2.251   1.495   8.457 -1.2268 -0.8633  1.0772
 8258SOL    HW236234   2.385   1.498   8.500  0.5753 -0.1179  0.6106
 8259SOL     OW36235   1.409   4.262  12.272 -1.0216 -0.6749  0.8430
 8259SOL    HW136236   1.440   4.332  12.215  0.0890 -2.8307 -1.1930
 8259SOL    HW236237   1.380   4.305  12.353 -0.0748  1.0591  0.2736
 8260SOL     OW36238   1.199   1.144   6.838  0.1503  0.4257  0.2372
 8260SOL    HW136239   1.107   1.121   6.832 -0.0690  1.9225 -2.0219
 8260SOL    HW236240   1.229   1.177   6.754 -0.8356  0.2161 -0.1937
 8261SOL     OW36241   1.481   4.413   3.885 -0.2535 -0.0423 -0.3391
 8261SOL    HW136242   1.490   4.414   3.980  0.9673 -0.0529 -0.4658
 8261SOL    HW236243   1.549   4.470   3.850  0.7987 -0.6964  0.6828
 8262SOL     OW36244   3.454   4.685   3.409  0.1761  0.5019  0.3053
 8262SOL    HW136245   3.479   4.626   3.480  0.0081  1.2367  0.9768
 8262SOL    HW236246   3.383   0.007   3.456 -1.5486 -0.4986 -1.3388
 8263SOL     OW36247   3.162   2.128  13.563  0.4494  0.0230 -0.3090
 8263SOL    HW136248   3.141   2.139  13.656 -0.3267  0.6787 -0.5655
 8263SOL    HW236249   3.129   2.041  13.539 -1.6427  0.5777  0.5782
 8264SOL     OW36250   2.435   3.104   6.001  0.8442 -1.0003 -0.6901
 8264SOL    HW136251   2.479   3.181   5.964  2.3699 -0.7561  1.6292
 8264SOL    HW236252   2.508   3.066   6.050  0.0818 -0.9485  0.4725
 8265SOL     OW36253   2.190   3.720  13.427 -0.0088 -0.4963 -0.0746
 8265SOL    HW136254   2.273   3.755  13.459 -1.9296  2.4304  1.6905
 8265SOL    HW236255   2.200   3.628  13.452 -1.0912 -0.0787  1.9558
 8266SOL     OW36256   0.034   3.844   7.094  0.1592  0.3042  0.0145
 8266SOL    HW136257   0.107   3.787   7.069  0.0149 -0.0837  0.4692
 8266SOL    HW236258   0.005   3.802   7.175 -1.7358 -0.7336 -1.1926
 8267SOL     OW36259   2.316   4.321   7.843  0.1867 -0.0527 -0.5330
 8267SOL    HW136260   2.365   4.388   7.891  0.5972  0.4839 -1.7056
 8267SOL    HW236261   2.388   4.295   7.786  0.2233 -0.2154 -0.4137
 8268SOL     OW36262   0.794   1.316   5.341  0.6590  0.1155  0.3350
 8268SOL    HW136263   0.747   1.389   5.382 -0.7844  0.6507 -2.2809
 8268SOL    HW236264   0.789   1.250   5.411  2.2229  0.6378  0.9185
 8269SOL     OW36265   2.705   2.600  14.329 -0.1597  0.4121 -0.3827
 8269SOL    HW136266   2.681   2.623  14.419  0.8920 -2.5561  0.6797
 8269SOL    HW236267   2.785   2.651  14.324  0.6677 -0.7308  1.0160
 8270SOL     OW36268   4.203   1.098  12.666  0.4527 -0.2843  0.0336
 8270SOL    HW136269   4.121   1.147  12.677 -1.5575 -3.5961 -0.3767
 8270SOL    HW236270   4.179   1.016  12.708  0.8830 -0.2410  0.3629
 8271SOL     OW36271   0.200   1.282  10.298  0.2382 -0.5029 -0.2888
 8271SOL    HW136272   0.233   1.257  10.384 -2.4348  0.5194  1.0664
 8271SOL    HW236273   0.183   1.196  10.261 -3.8300  0.0143  0.3636
 8272SOL     OW36274   3.649   2.813   3.615 -0.4974  0.0381  0.4497
 8272SOL    HW136275   3.660   2.844   3.705 -1.7136 -0.4973  0.7832
 8272SOL    HW236276   3.572   2.756   3.614 -1.3132  1.1948 -3.3661
 8273SOL     OW36277   3.883   1.484   1.955 -0.0503  0.1997 -0.4294
 8273SOL    HW136278   3.930   1.417   1.906 -0.8241  1.4742 -2.9042
 8273SOL    HW236279   3.794   1.450   1.951  0.2171 -0.6451  0.9569
 8274SOL     OW36280   0.923   2.507   9.824  0.0914 -0.0041  0.2392
 8274SOL    HW136281   0.847   2.557   9.854  0.7558  0.1812  1.6015
 8274SOL    HW236282   0.985   2.580   9.817 -0.9286  0.6640 -2.0744
 8275SOL     OW36283   4.127   0.119   8.380 -0.7782 -0.5348 -0.0519
 8275SOL    HW136284   4.080   0.096   8.461 -1.2026 -0.7249 -0.3508
 8275SOL    HW236285   4.216   0.121   8.416 -0.9661  0.6774  0.3500
 8276SOL     OW36286   4.201   2.052   4.237 -0.3605 -0.6194  0.0752
 8276SOL    HW136287   4.135   2.001   4.188  0.3149  1.1680 -2.7287
 8276SOL    HW236288   4.167   2.049   4.326  0.5736  0.8359  0.4852
 8277SOL     OW36289   4.632   3.947   2.140 -0.4237  0.0302  0.0060
 8277SOL    HW136290   4.676   3.891   2.204  1.1013 -1.7568 -2.5847
 8277SOL    HW236291   4.582   4.005   2.198 -1.0401 -3.1166  2.6049
 8278SOL     OW36292   2.761   3.866   5.565 -0.0214 -0.3436  0.0085
 8278SOL    HW136293   2.847   3.852   5.607 -1.3409  0.3865  2.9422
 8278SOL    HW236294   2.695   3.854   5.633  0.0001  0.3477  0.1475
 8279SOL     OW36295   0.237   0.602   0.127 -0.5629 -0.2478 -0.0076
 8279SOL    HW136296   0.320   0.562   0.102 -0.0053  0.7620  0.2040
 8279SOL    HW236297   0.281   0.677   0.166 -1.4201  0.3937 -0.2570
 8280SOL     OW36298   3.234   0.544  11.508  0.1136  0.2587 -0.1316
 8280SOL    HW136299   3.145   0.536  11.543  1.3280 -1.2010  2.6195
 8280SOL    HW236300   3.288   0.579  11.578 -0.4880 -0.2181  0.5719
 8281SOL     OW36301   4.384   3.204   8.159 -0.1740 -0.0544 -0.1593
 8281SOL    HW136302   4.467   3.199   8.206 -0.4998 -1.5722  0.2804
 8281SOL    HW236303   4.329   3.166   8.228 -1.6204  0.2871 -1.1340
 8282SOL     OW36304   2.662   0.112   5.359  0.5728  0.3054 -0.0760
 8282SOL    HW136305   2.658   0.074   5.447 -0.0622  1.1966  0.2883
 8282SOL    HW236306   2.707   0.048   5.305 -0.5473  0.3562 -1.0770
 8283SOL     OW36307   0.372   2.113  12.096 -0.3188 -0.1311 -0.0188
 8283SOL    HW136308   0.438   2.114  12.165  0.1897  1.7791 -0.5208
 8283SOL    HW236309   0.425   2.116  12.017  0.6809 -1.9327  0.6006
 8284SOL     OW36310   3.724   3.417   4.954 -0.3217  0.5976 -0.1945
 8284SOL    HW136311   3.719   3.487   4.889  0.1358  1.9467  1.2113
 8284SOL    HW236312   3.819   3.411   4.954 -0.2765  1.3096  1.0652
 8285SOL     OW36313   4.345   3.701   3.768 -0.2785  0.0149  0.1365
 8285SOL    HW136314   4.296   3.753   3.704  0.4729  0.5254 -0.0227
 8285SOL    HW236315   4.439   3.712   3.749 -0.5998  1.2176 -0.7877
 8286SOL     OW36316   2.598   1.714   5.926  0.0846  0.1179  0.2825
 8286SOL    HW136317   2.649   1.671   5.994  0.5446  3.6546  2.2122
 8286SOL    HW236318   2.566   1.631   5.891 -0.1983  0.2686  0.1786
 8287SOL     OW36319   2.062   3.232   7.826  0.4091  0.1259 -0.1858
 8287SOL    HW136320   2.107   3.155   7.791  0.7224 -0.4787  1.5736
 8287SOL    HW236321   2.090   3.237   7.917 -0.2015  1.5696 -0.0879
 8288SOL     OW36322   4.495   3.114   8.679  0.1257 -0.5369 -0.1359
 8288SOL    HW136323   4.553   3.187   8.659 -0.7969  0.7569  1.9734
 8288SOL    HW236324   4.497   3.121   8.774  0.8761  0.3698 -0.2177
 8289SOL     OW36325   4.298   2.798   2.827  0.1636  0.2895 -0.1270
 8289SOL    HW136326   4.357   2.766   2.758  0.3585  0.8298 -0.2149
 8289SOL    HW236327   4.359   2.810   2.900  0.0610 -2.4097  0.4009
 8290SOL     OW36328   1.435   0.297  10.454 -0.7225  0.0287 -0.1106
 8290SOL    HW136329   1.353   0.299  10.504 -1.8854 -1.2781 -1.9303
 8290SOL    HW236330   1.469   0.383  10.480  0.6590 -0.4219 -0.4349
 8291SOL     OW36331   3.056   4.664   3.590  0.0161  1.3917  0.1115
 8291SOL    HW136332   3.093   4.614   3.517 -0.8752  1.4330 -0.3691
 8291SOL    HW236333   2.973   4.624   3.614  0.0184  0.6879 -1.0313
 8292SOL     OW36334   2.638   2.534   7.543 -0.1144  0.7240 -0.0861
 8292SOL    HW136335   2.647   2.472   7.470 -1.0330  0.1842  0.2514
 8292SOL    HW236336   2.613   2.617   7.503  1.9125  1.7807  0.8455
 8293SOL     OW36337   0.448   0.050  16.863  0.2417 -0.0954 -0.4243
 8293SOL    HW136338   0.414   0.002  16.788  1.7014 -0.1375 -1.0588
 8293SOL    HW236339   0.509   4.705  16.894  1.1524  0.8713 -0.0761
 8294SOL     OW36340   2.508   0.567  17.290 -0.1511 -0.0297 -0.2830
 8294SOL    HW136341   2.559   0.637  17.251 -0.8532  1.4964  1.4904
 8294SOL    HW236342   2.569   0.527  17.352 -1.0525 -0.4956  0.3191
 8295SOL     OW36343   2.120   1.527   3.331 -0.9410  0.2610 -0.4871
 8295SOL    HW136344   2.052   1.556   3.270  0.6146 -0.1414 -2.4421
 8295SOL    HW236345   2.092   1.436   3.342 -2.2232  0.2619 -3.7216
 8296SOL     OW36346   1.576   3.099   1.315  0.2946  0.5253  0.1738
 8296SOL    HW136347   1.637   3.026   1.324 -0.1969  0.2773  1.4419
 8296SOL    HW236348   1.621   3.158   1.255 -1.2943  3.7085  2.0998
 8297SOL     OW36349   3.989   4.538  12.266  0.5471  0.8035 -0.1839
 8297SOL    HW136350   3.990   4.491  12.350  0.9165 -1.8008 -1.6503
 8297SOL    HW236351   3.917   4.490  12.226  0.4791  0.8693 -0.1395
 8298SOL     OW36352   4.238   3.259   7.908  0.6604 -0.1260 -0.5720
 8298SOL    HW136353   4.286   3.244   7.989  0.1516 -0.1445 -0.2712
 8298SOL    HW236354   4.299   3.220   7.846 -0.1810 -0.9774 -0.8710
 8299SOL     OW36355   4.377   4.023   3.966 -0.4617 -0.2945  0.3885
 8299SOL    HW136356   4.394   3.935   4.001 -0.9382 -0.3224  0.5521
 8299SOL    HW236357   4.384   4.010   3.871  1.0521  1.8066  0.2009
 8300SOL     OW36358   2.136   3.811   4.195 -0.5028  0.4220  0.7974
 8300SOL    HW136359   2.087   3.730   4.213 -1.4169  0.9096  0.4568
 8300SOL    HW236360   2.223   3.774   4.176 -0.0820  2.2590 -0.7921
 8301SOL     OW36361   0.958   0.195   9.453 -0.0300 -0.7765  0.3732
 8301SOL    HW136362   1.051   0.207   9.472  0.1440  0.9735 -1.6734
 8301SOL    HW236363   0.916   0.186   9.539  0.2650 -3.1760  0.2569
 8302SOL     OW36364   0.875   3.887   8.691  0.0563 -0.6191  0.0721
 8302SOL    HW136365   0.969   3.902   8.705  0.2906 -1.2303 -0.7827
 8302SOL    HW236366   0.849   3.962   8.743  1.5164  0.8835 -1.3475
 8303SOL     OW36367   0.858   1.868  14.292 -0.4089 -0.1551  0.4432
 8303SOL    HW136368   0.913   1.836  14.220 -0.5342  0.6217  0.0012
 8303SOL    HW236369   0.878   1.807  14.363  1.4644 -0.4873 -0.3811
 8304SOL     OW36370   0.213   2.533   5.400  0.0664  0.3724  0.3422
 8304SOL    HW136371   0.138   2.505   5.348  0.9648  1.4792 -1.5240
 8304SOL    HW236372   0.257   2.603   5.352  0.3230 -0.0750 -0.0639
 8305SOL     OW36373   2.414   3.229  11.859 -0.5299  0.1914  0.2066
 8305SOL    HW136374   2.474   3.212  11.786 -1.0051  0.3122 -0.2142
 8305SOL    HW236375   2.434   3.155  11.916  0.6577  1.3429  1.2694
 8306SOL     OW36376   1.092   0.487  10.393 -0.2087 -0.0305 -0.2791
 8306SOL    HW136377   1.039   0.496  10.314  0.4503 -0.2783 -0.7553
 8306SOL    HW236378   1.032   0.469  10.465  1.3093  0.5001  1.1118
 8307SOL     OW36379   2.090   0.820  17.375  0.0903  0.3697 -0.2450
 8307SOL    HW136380   2.160   0.867  17.328  0.7752 -0.6563 -0.2296
 8307SOL    HW236381   2.080   0.752  17.309  2.8852 -0.8484  0.5877
 8308SOL     OW36382   4.619   0.612   3.250 -0.2357  0.5704 -0.0856
 8308SOL    HW136383   4.562   0.673   3.298 -3.2257 -1.5616 -0.9350
 8308SOL    HW236384   4.660   0.555   3.316 -1.8016 -0.3288  0.1202
 8309SOL     OW36385   0.347   4.121   8.261 -0.0406 -0.0147 -0.4826
 8309SOL    HW136386   0.328   4.091   8.350  0.2256 -0.1390 -0.4691
 8309SOL    HW236387   0.410   4.056   8.231 -1.3581 -2.2658  1.5896
 8310SOL     OW36388   4.652   0.303   7.514  0.4632 -0.6350 -0.1486
 8310SOL    HW136389   4.582   0.238   7.519 -0.2616  0.2439  1.1812
 8310SOL    HW236390   4.680   0.278   7.426  2.7760  0.9888  0.1315
 8311SOL     OW36391   1.314   3.905   1.227 -0.0847 -0.1574  0.2703
 8311SOL    HW136392   1.343   3.970   1.292  2.0006 -1.2245  0.4249
 8311SOL    HW236393   1.326   3.825   1.279  1.3469  0.0143  0.2284
 8312SOL     OW36394   0.900   3.820   5.953 -0.9590  0.1249 -0.1728
 8312SOL    HW136395   0.904   3.749   6.017 -0.4162  1.4141  1.2277
 8312SOL    HW236396   0.856   3.892   6.000  0.7590  0.4646  0.9457
 8313SOL     OW36397   2.473   0.472   2.981  0.1029 -0.2298  0.4269
 8313SOL    HW136398   2.555   0.512   2.953 -0.9160  2.8060  1.7737
 8313SOL    HW236399   2.405   0.509   2.925  0.4891 -1.5890 -0.9689
 8314SOL     OW36400   4.195   3.560   1.404  0.3002 -0.4054  0.1987
 8314SOL    HW136401   4.236   3.600   1.481  2.6439 -2.3004 -0.0828
 8314SOL    HW236402   4.249   3.604   1.338 -0.0173 -0.4269 -0.0786
 8315SOL     OW36403   4.719   0.186   7.261  0.0858  0.1015  0.0395
 8315SOL    HW136404   4.641   0.152   7.217  0.8523 -2.2657  0.4920
 8315SOL    HW236405   0.060   0.167   7.191  0.4291  0.5499  0.2321
 8316SOL     OW36406   3.396   1.101   5.599  0.6128 -0.2994  0.3621
 8316SOL    HW136407   3.383   1.133   5.689 -1.4317  2.7675 -1.0044
 8316SOL    HW236408   3.404   1.007   5.616 -1.1258 -0.0377  2.6524
 8317SOL     OW36409   0.932   0.430   9.029  0.3309  0.3739 -0.2571
 8317SOL    HW136410   0.844   0.399   9.049  0.2970  0.0542 -0.9048
 8317SOL    HW236411   0.942   0.514   9.074 -1.2305  1.1536 -1.3986
 8318SOL     OW36412   0.027   1.341   8.990 -0.0756  0.5674 -0.6141
 8318SOL    HW136413   0.092   1.350   8.920 -2.3008  1.8849 -2.5030
 8318SOL    HW236414   0.008   1.248   8.994  4.2344 -0.3201 -0.3153
 8319SOL     OW36415   3.794   0.013  15.937  0.2926 -0.1198 -0.3907
 8319SOL    HW136416   3.866   0.030  15.876  0.9308  0.0183  0.4059
 8319SOL    HW236417   3.836   4.674  15.997  0.7650 -0.2357 -0.8377
 8320SOL     OW36418   0.013   1.890   2.978 -0.2861 -0.0285 -0.8293
 8320SOL    HW136419   0.028   1.945   2.901 -2.0651 -1.1123 -1.9807
 8320SOL    HW236420   0.033   1.802   2.944 -0.8942 -0.8835  1.0335
 8321SOL     OW36421   3.729   3.384  11.702 -0.3505  0.0156 -0.1091
 8321SOL    HW136422   3.813   3.358  11.739 -0.0281  0.4110 -0.5560
 8321SOL    HW236423   3.745   3.476  11.681 -0.8119  0.5597  1.9829
 8322SOL     OW36424   1.805   4.685   9.658  0.3122 -0.2297 -0.7113
 8322SOL    HW136425   1.759   0.006   9.586 -1.7662  1.2432  1.5033
 8322SOL    HW236426   1.880   0.021   9.668 -0.8629  1.3553 -1.1527
 8323SOL     OW36427   4.225   3.076   6.613 -0.2436 -0.4165  0.7611
 8323SOL    HW136428   4.303   3.105   6.660  0.5468 -0.8376 -0.3045
 8323SOL    HW236429   4.191   3.162   6.585  1.0516  0.0681  0.6691
 8324SOL     OW36430   3.764   2.669  16.848 -0.0180 -0.7700  0.2383
 8324SOL    HW136431   3.763   2.760  16.817  1.4905 -1.3695 -1.5158
 8324SOL    HW236432   3.720   2.621  16.779 -0.7432  0.8113 -0.3960
 8325SOL     OW36433   4.166   2.518   6.857  0.1907 -0.5635  0.0474
 8325SOL    HW136434   4.187   2.550   6.770 -0.3217  0.8862  0.4399
 8325SOL    HW236435   4.089   2.572   6.878 -0.5807 -1.6070 -0.0971
 8326SOL     OW36436   2.127   3.481   9.244 -1.0645  0.1674 -0.1318
 8326SOL    HW136437   2.047   3.521   9.210 -0.7164  1.8254  0.9460
 8326SOL    HW236438   2.182   3.560   9.246  1.4628 -1.5465 -2.9016
 8327SOL     OW36439   0.705   3.474   3.399  0.1229 -0.8328 -0.3440
 8327SOL    HW136440   0.656   3.554   3.416  0.3886 -1.0070  1.2177
 8327SOL    HW236441   0.792   3.508   3.377 -0.0830  0.3570  0.6657
 8328SOL     OW36442   1.865   4.312   0.456 -0.0580 -0.5312  0.0622
 8328SOL    HW136443   1.851   4.315   0.361  1.0500 -0.7036 -0.1112
 8328SOL    HW236444   1.812   4.387   0.482 -1.3297 -1.3033 -0.3088
 8329SOL     OW36445   2.141   1.056   7.832 -0.4931 -0.1042  0.0126
 8329SOL    HW136446   2.216   1.115   7.839 -1.2989  0.6615  2.1323
 8329SOL    HW236447   2.073   1.118   7.859 -0.6108 -1.0889  1.9344
 8330SOL     OW36448   1.639   1.182   9.514 -0.2110  0.1182 -0.0844
 8330SOL    HW136449   1.580   1.107   9.524 -0.2998  0.4888  2.2844
 8330SOL    HW236450   1.597   1.247   9.458  0.4630 -0.3580 -1.1313
 8331SOL     OW36451   3.316   3.877   4.172 -0.0495 -0.5693  0.1220
 8331SOL    HW136452   3.363   3.809   4.220  2.7720  1.1509 -0.1974
 8331SOL    HW236453   3.254   3.828   4.117 -2.8303  0.6975  2.1200
 8332SOL     OW36454   1.746   2.086   3.261 -0.0365 -0.2706  0.4567
 8332SOL    HW136455   1.838   2.085   3.235 -0.0105 -0.3227  0.5506
 8332SOL    HW236456   1.742   2.158   3.324 -1.5540 -0.0131  0.0816
 8333SOL     OW36457   3.598   0.394   5.699 -0.1333  0.9442 -0.2537
 8333SOL    HW136458   3.626   0.485   5.684  1.1414  0.5366 -0.3311
 8333SOL    HW236459   3.559   0.380   5.612  0.6224 -3.0358  0.0636
 8334SOL     OW36460   3.502   2.397  14.686 -0.4588  0.0146  0.3180
 8334SOL    HW136461   3.585   2.395  14.734  0.2914 -1.1102 -1.0437
 8334SOL    HW236462   3.472   2.307  14.698  3.1045 -1.0998  0.9450
 8335SOL     OW36463   4.650   1.868   8.872  0.0883  0.1076 -0.0788
 8335SOL    HW136464   4.706   1.804   8.916 -1.4409 -0.1781  1.4556
 8335SOL    HW236465   4.648   1.942   8.932  2.3538  1.5001 -1.7088
 8336SOL     OW36466   0.348   3.271   6.270  0.4599  0.3360  0.8272
 8336SOL    HW136467   0.399   3.225   6.203  0.3366  2.0113 -0.4205
 8336SOL    HW236468   0.259   3.238   6.267  0.4564  0.4749 -0.3394
 8337SOL     OW36469   2.710   3.758  17.049 -0.1957 -0.0882 -0.6885
 8337SOL    HW136470   2.698   3.747  17.143  1.6615 -0.4546 -0.5028
 8337SOL    HW236471   2.704   3.853  17.037 -3.2305 -0.0733  0.8706
 8338SOL     OW36472   3.230   1.081   2.130  0.1688  0.4414  0.4742
 8338SOL    HW136473   3.219   0.997   2.174  0.3731  0.2232  0.1144
 8338SOL    HW236474   3.138   1.103   2.115  0.2792 -0.3662 -1.4300
 8339SOL     OW36475   0.525   1.764   9.081 -0.1758  0.4003 -0.3615
 8339SOL    HW136476   0.563   1.703   9.145  0.2904 -0.3720 -1.3766
 8339SOL    HW236477   0.539   1.724   8.995  2.9450 -0.1950  0.4207
 8340SOL     OW36478   2.246   1.783   4.718 -0.1223  0.2121  0.6207
 8340SOL    HW136479   2.214   1.872   4.736 -0.6939  0.8134 -3.1716
 8340SOL    HW236480   2.320   1.771   4.777  1.3951 -2.3687 -1.8172
 8341SOL     OW36481   2.799   0.305   6.887 -0.0044 -0.5622 -0.0161
 8341SOL    HW136482   2.719   0.327   6.935 -1.6400  1.8279 -3.8245
 8341SOL    HW236483   2.867   0.338   6.946  0.0552  0.6551 -0.7535
 8342SOL     OW36484   1.161   2.327   1.849 -0.0450 -0.0039 -0.0583
 8342SOL    HW136485   1.238   2.343   1.794 -0.0177  1.9695  0.5679
 8342SOL    HW236486   1.144   2.241   1.810  2.4627  0.5158 -2.3443
 8343SOL     OW36487   3.789   4.191   3.305 -0.5191  0.1131  0.0081
 8343SOL    HW136488   3.877   4.153   3.309 -1.1156 -1.1691  0.9121
 8343SOL    HW236489   3.753   4.172   3.392  1.2659 -1.8415  0.3322
 8344SOL     OW36490   0.628   1.924   7.416 -0.5441 -0.7316 -0.8022
 8344SOL    HW136491   0.670   1.891   7.337 -0.6154  2.0323 -1.9959
 8344SOL    HW236492   0.539   1.928   7.383  0.0500 -0.7710 -2.4130
 8345SOL     OW36493   0.719   4.173   5.106 -0.2230 -0.1268 -0.1785
 8345SOL    HW136494   0.677   4.239   5.161  0.4566  1.4472 -1.5541
 8345SOL    HW236495   0.641   4.162   5.052 -0.5255  2.2075 -0.1850
 8346SOL     OW36496   1.194   0.967   2.480  0.0939  0.3330 -0.3250
 8346SOL    HW136497   1.172   1.055   2.510 -1.2994 -0.4770  1.0272
 8346SOL    HW236498   1.108   0.927   2.490  0.1335  0.4630  0.4851
 8347SOL     OW36499   1.482   4.710   6.851  0.1463  0.3978  0.4531
 8347SOL    HW136500   1.401   0.033   6.829 -0.0581  0.7194  1.9050
 8347SOL    HW236501   1.540   0.045   6.901 -0.0555 -0.8478  2.1242
 8348SOL     OW36502   1.351   3.273   2.940  0.7926  0.0160 -0.4981
 8348SOL    HW136503   1.397   3.198   2.978 -1.7996 -0.5239  1.5744
 8348SOL    HW236504   1.424   3.327   2.909  1.4055 -0.2634  0.4611
 8349SOL     OW36505   1.806   3.164   6.648  0.1503 -0.7328 -0.2205
 8349SOL    HW136506   1.798   3.069   6.657 -0.4053 -0.5217  1.5890
 8349SOL    HW236507   1.721   3.185   6.687 -0.2093 -1.6665 -0.4837
 8350SOL     OW36508   0.279   4.639   6.202 -0.2157  0.6796  0.4171
 8350SOL    HW136509   0.232   4.556   6.193 -0.5853  0.8772  0.5637
 8350SOL    HW236510   0.272   4.671   6.112  1.3193 -0.8311 -0.2536
 8351SOL     OW36511   0.845   0.373   7.833 -0.2659  0.0468 -0.3144
 8351SOL    HW136512   0.925   0.425   7.823 -1.0412  1.3226  0.1545
 8351SOL    HW236513   0.795   0.435   7.887  1.3542 -0.4867  1.8336
 8352SOL     OW36514   0.887   2.868  14.795 -0.3331 -0.2141  0.0934
 8352SOL    HW136515   0.813   2.886  14.737 -0.1740 -0.6741 -0.2561
 8352SOL    HW236516   0.929   2.953  14.800 -0.4054 -0.0142 -2.8611
 8353SOL     OW36517   4.209   1.970   5.842  0.2854 -0.4579 -0.7344
 8353SOL    HW136518   4.162   2.050   5.819 -0.3966 -0.4975  0.4814
 8353SOL    HW236519   4.146   1.917   5.893 -0.0141 -0.8854 -1.5393
 8354SOL     OW36520   3.612   2.886  11.307  0.0028  0.5745 -0.1920
 8354SOL    HW136521   3.605   2.791  11.305  0.6953  0.5284 -0.5763
 8354SOL    HW236522   3.653   2.901  11.392  2.3388 -5.7286 -0.1925
 8355SOL     OW36523   4.683   3.381   7.118 -0.0994  0.0998  0.4220
 8355SOL    HW136524   4.670   3.295   7.080 -0.9631  0.0911  0.7315
 8355SOL    HW236525   0.027   3.426   7.066 -0.3215  0.0941  0.1369
 8356SOL     OW36526   3.413   0.958   3.573  0.6570 -0.1702  0.9111
 8356SOL    HW136527   3.508   0.964   3.568  0.5971  0.7911  0.9224
 8356SOL    HW236528   3.394   0.892   3.506  1.1613 -1.7657  2.3560
 8357SOL     OW36529   2.759   1.582   9.274  0.3047 -0.2636  0.2062
 8357SOL    HW136530   2.731   1.511   9.331  0.3865 -0.7867 -0.4057
 8357SOL    HW236531   2.819   1.624   9.336  0.0595 -0.5460  0.6356
 8358SOL     OW36532   2.139   0.786   3.035 -0.0049  0.0292 -0.0936
 8358SOL    HW136533   2.157   0.791   2.941 -3.3973  1.1002 -0.6820
 8358SOL    HW236534   2.078   0.712   3.033  0.4427 -0.3923  2.6640
 8359SOL     OW36535   3.220   1.381   0.608 -0.8378 -0.6235 -0.4703
 8359SOL    HW136536   3.284   1.393   0.678 -2.7271  2.7954  0.6822
 8359SOL    HW236537   3.143   1.424   0.645 -1.3655 -2.0914  0.1646
 8360SOL     OW36538   4.038   3.069   2.267  0.2713 -0.2936 -0.3346
 8360SOL    HW136539   4.028   3.040   2.358  0.4817 -0.2647 -0.3013
 8360SOL    HW236540   4.057   2.993   2.211  1.5353  1.1967 -1.9374
 8361SOL     OW36541   3.325   3.106   7.630  0.2815 -0.2998  0.0519
 8361SOL    HW136542   3.384   3.075   7.699  0.3801 -0.5459 -0.1401
 8361SOL    HW236543   3.324   3.018   7.592 -0.9448 -0.6929  0.9703
 8362SOL     OW36544   0.606   2.343   4.126  0.3507 -0.3381  0.4183
 8362SOL    HW136545   0.690   2.297   4.127  0.9615  0.7684  0.4644
 8362SOL    HW236546   0.608   2.353   4.221  2.3416 -0.8839  0.4258
 8363SOL     OW36547   3.036   4.148   5.563 -0.0080 -0.5641  0.5717
 8363SOL    HW136548   3.123   4.112   5.579 -0.5459 -1.1061  2.2453
 8363SOL    HW236549   3.037   4.179   5.472  1.2950 -0.5878  0.5866
 8364SOL     OW36550   0.882   3.446  16.857 -0.5359  0.1263  0.0229
 8364SOL    HW136551   0.881   3.431  16.762 -0.9636  1.7578 -0.2329
 8364SOL    HW236552   0.929   3.529  16.843  0.1844 -0.0397  1.5465
 8365SOL     OW36553   3.614   2.199   9.891  0.4142  1.0717  0.1784
 8365SOL    HW136554   3.702   2.192   9.855 -0.4503 -0.5510 -1.6492
 8365SOL    HW236555   3.573   2.205   9.804  0.1527 -1.9814  0.0687
 8366SOL     OW36556   1.181   1.352   7.718 -0.0289 -0.1218 -0.5504
 8366SOL    HW136557   1.207   1.275   7.767 -0.4093 -2.3472 -3.8451
 8366SOL    HW236558   1.261   1.404   7.710 -0.6981  1.0086  0.0239
 8367SOL     OW36559   3.365   1.356   8.290  0.1434 -0.3344  0.4045
 8367SOL    HW136560   3.327   1.401   8.215  0.5063 -3.1394 -1.4498
 8367SOL    HW236561   3.306   1.372   8.365  0.6543 -0.0384  0.7433
 8368SOL     OW36562   0.350   2.077   7.493 -0.0622 -0.1535  0.6883
 8368SOL    HW136563   0.322   2.165   7.519 -2.7112 -0.0256 -2.7097
 8368SOL    HW236564   0.359   2.040   7.581  1.1276 -0.2275  0.5330
 8369SOL     OW36565   0.633   1.682   0.115 -0.0841  0.6450 -0.6418
 8369SOL    HW136566   0.650   1.695   0.209 -0.7380 -2.0314 -0.1459
 8369SOL    HW236567   0.629   1.770   0.080  0.8724 -0.4792 -3.5590
 8370SOL     OW36568   2.478   3.596   0.045 -0.0972  0.0953 -0.0814
 8370SOL    HW136569   2.542   3.529   0.070 -1.1975 -1.4803 -1.4642
 8370SOL    HW236570   2.461   3.642   0.127 -1.7042 -1.1669  0.3092
 8371SOL     OW36571   0.557   2.263   5.762 -0.4567 -0.3742 -0.0810
 8371SOL    HW136572   0.638   2.217   5.741 -0.1113  0.4657 -0.5917
 8371SOL    HW236573   0.599   2.346   5.740  1.0334 -1.5597 -1.7550
 8372SOL     OW36574   2.722   3.520   7.734  0.2636 -0.2057 -0.3785
 8372SOL    HW136575   2.649   3.509   7.795  1.2826 -0.8680  0.6937
 8372SOL    HW236576   2.761   3.599   7.771 -1.3109  1.5710 -2.4951
 8373SOL     OW36577   3.462   2.454   3.877 -0.5523 -0.7539 -0.4476
 8373SOL    HW136578   3.552   2.422   3.869  0.3595  1.4004  0.9439
 8373SOL    HW236579   3.438   2.455   3.970 -0.5186 -3.7108 -0.4025
 8374SOL     OW36580   0.672   3.988   7.303  0.0307  1.0616  0.1532
 8374SOL    HW136581   0.751   3.969   7.252  0.5706  0.9481  1.0177
 8374SOL    HW236582   0.598   3.949   7.257  0.2537 -2.4040  2.7205
 8375SOL     OW36583   2.067   2.476   5.898  0.0242  0.3691  0.3724
 8375SOL    HW136584   1.974   2.481   5.875  0.8582  0.9139 -2.9429
 8375SOL    HW236585   2.092   2.567   5.917 -0.4384  0.6621 -0.4002
 8376SOL     OW36586   4.056   0.372   8.370 -0.1218  0.1140  0.1141
 8376SOL    HW136587   3.961   0.365   8.379 -0.1841  0.7702 -0.0413
 8376SOL    HW236588   4.081   0.280   8.364 -0.1906  0.0760  0.4107
 8377SOL     OW36589   4.619   3.068   4.691  0.4215  0.2083  0.1896
 8377SOL    HW136590   4.703   3.063   4.646  1.1517  1.6492  1.3683
 8377SOL    HW236591   4.605   3.163   4.683  1.8046  0.2974 -1.1401
 8378SOL     OW36592   3.746   0.727   3.673 -0.1383  0.4348 -0.3397
 8378SOL    HW136593   3.750   0.638   3.638 -1.1867 -0.7052  2.4142
 8378SOL    HW236594   3.738   0.781   3.594 -1.0980  0.2401 -0.3709
 8379SOL     OW36595   0.162   1.743   7.818 -0.4249  0.0349 -0.5224
 8379SOL    HW136596   0.100   1.722   7.888 -0.8260  2.8978 -0.0358
 8379SOL    HW236597   0.155   1.681   7.745  1.4135 -1.4832  0.6167
 8380SOL     OW36598   3.643   1.561  17.247  0.0362  0.2707 -0.3106
 8380SOL    HW136599   3.626   1.638  17.192 -3.7553  0.3804  1.0366
 8380SOL    HW236600   3.565   1.553  17.301  1.3209  0.4859  1.5526
 8381SOL     OW36601   1.014   0.051  10.553  0.0948 -0.2757 -0.1523
 8381SOL    HW136602   0.947   0.119  10.558 -0.9038 -1.1463 -1.8909
 8381SOL    HW236603   1.060   0.089  10.478 -0.9181  2.2420  0.4810
 8382SOL     OW36604   0.735   4.042   0.698  0.4113  0.3596  0.1039
 8382SOL    HW136605   0.730   4.016   0.606  0.1090 -0.0490  0.2331
 8382SOL    HW236606   0.779   4.126   0.690  1.9155 -0.5858 -1.6209
 8383SOL     OW36607   4.447   2.900   0.092 -0.7368 -0.0491  0.0204
 8383SOL    HW136608   4.475   2.810   0.075  4.4424  1.4772  0.5524
 8383SOL    HW236609   4.353   2.893   0.077 -0.5141  0.1319 -1.4881
 8384SOL     OW36610   1.631   2.530   1.808  0.2700  0.8291  0.0828
 8384SOL    HW136611   1.618   2.600   1.872  1.6735  1.2325 -0.0508
 8384SOL    HW236612   1.645   2.593   1.737 -1.4673  0.8263 -0.2635
 8385SOL     OW36613   1.524   2.721   7.389 -0.2284 -0.4556 -0.0792
 8385SOL    HW136614   1.530   2.808   7.428 -2.1402 -0.7284  0.8340
 8385SOL    HW236615   1.505   2.726   7.295 -0.6148  2.9911  0.1811
 8386SOL     OW36616   2.871   4.666  14.674 -0.2048 -0.3661  0.2931
 8386SOL    HW136617   2.962   4.686  14.655  0.2394 -2.1774  0.5302
 8386SOL    HW236618   2.870   4.574  14.698 -1.2284 -0.2843  0.5760
 8387SOL     OW36619   0.211   0.035   5.471 -0.1086  0.0709  0.6398
 8387SOL    HW136620   0.300   0.049   5.438 -0.4382  0.2282 -0.2021
 8387SOL    HW236621   0.166   4.697   5.411 -2.6268  2.2407  0.3818
 8388SOL     OW36622   2.976   4.500   2.538  0.6184  0.1038  0.1713
 8388SOL    HW136623   2.916   4.556   2.489 -0.7948  0.0514  1.8307
 8388SOL    HW236624   2.979   4.559   2.614 -1.3080  0.5023 -0.0768
 8389SOL     OW36625   0.374   1.105   2.358 -0.0204  0.2801 -0.2942
 8389SOL    HW136626   0.336   1.033   2.308 -0.1360  0.9495 -1.1702
 8389SOL    HW236627   0.403   1.153   2.280 -2.2714  0.8392 -0.7996
 8390SOL     OW36628   0.535   2.756  14.421 -0.2070  0.4536  0.4945
 8390SOL    HW136629   0.462   2.705  14.454 -0.6016 -0.6915 -2.0989
 8390SOL    HW236630   0.498   2.812  14.353 -0.1557  0.0846  0.1587
 8391SOL     OW36631   0.879   1.517   5.059  0.1536 -0.1396 -0.1785
 8391SOL    HW136632   0.918   1.551   5.139  1.4812  0.2888 -1.0117
 8391SOL    HW236633   0.947   1.458   5.028  1.1138  1.0832 -0.3871
 8392SOL     OW36634   3.315   1.771  12.310  0.1911  0.3469  0.1479
 8392SOL    HW136635   3.274   1.791  12.394  0.4770  0.6956  0.2020
 8392SOL    HW236636   3.358   1.690  12.338 -0.6047 -0.4187 -0.8231
 8393SOL     OW36637   0.237   0.379   1.906  0.1620 -0.2702 -0.0827
 8393SOL    HW136638   0.219   0.314   1.838  0.1749 -0.8574  0.4738
 8393SOL    HW236639   0.330   0.389   1.886 -0.0219  0.8883 -0.3881
 8394SOL     OW36640   1.967   1.908   7.868  0.4129 -0.2063 -0.2157
 8394SOL    HW136641   1.902   1.964   7.910 -0.2498 -0.1520 -1.3177
 8394SOL    HW236642   1.904   1.847   7.830  1.0383  0.3503 -2.1986
 8395SOL     OW36643   4.383   1.689  17.063  0.2997 -0.1325  0.7684
 8395SOL    HW136644   4.393   1.770  17.012  1.3218 -1.3071 -0.9095
 8395SOL    HW236645   4.412   1.722  17.148  1.4885  1.3094 -0.1960
 8396SOL     OW36646   1.630   0.117   1.708 -0.3343 -0.3038 -0.3865
 8396SOL    HW136647   1.543   0.105   1.669 -0.0463  0.1637 -1.1827
 8396SOL    HW236648   1.684   0.110   1.629  0.5561  2.5736 -0.0403
 8397SOL     OW36649   3.733   2.730   7.453  0.2878 -0.0797 -0.3448
 8397SOL    HW136650   3.666   2.666   7.429 -0.5459  0.9022 -0.6780
 8397SOL    HW236651   3.811   2.676   7.442 -0.2271 -0.4153 -2.4208
 8398SOL     OW36652   0.608   3.149   8.127  0.3953 -0.2914  0.0290
 8398SOL    HW136653   0.624   3.055   8.131 -1.0410 -0.3847  3.3917
 8398SOL    HW236654   0.549   3.147   8.202 -2.3464 -1.5445 -2.1709
 8399SOL     OW36655   2.502   1.951   6.937  0.1055 -0.4235 -0.1464
 8399SOL    HW136656   2.594   1.962   6.963  1.3188 -1.7448 -3.8854
 8399SOL    HW236657   2.462   1.957   7.024 -1.4654 -1.1736 -0.8277
 8400SOL     OW36658   2.379   2.704  11.354  0.0280  0.3101 -0.1830
 8400SOL    HW136659   2.443   2.650  11.401  0.7989  0.6637 -0.8151
 8400SOL    HW236660   2.386   2.667  11.266  3.1349 -1.1282  0.6686
 8401SOL     OW36661   0.273   3.897   3.916  0.6757 -0.1854 -0.4556
 8401SOL    HW136662   0.349   3.865   3.965  0.3321 -1.4769 -0.7672
 8401SOL    HW236663   0.220   3.818   3.919  0.7019 -0.1204  2.3412
 8402SOL     OW36664   0.533   3.024  12.468 -0.0261 -0.2815 -0.4652
 8402SOL    HW136665   0.536   2.943  12.417  0.1701 -2.1364  2.5000
 8402SOL    HW236666   0.622   3.017  12.504 -0.4898 -0.4260  0.6679
 8403SOL     OW36667   0.346   2.874   7.665 -0.0295  0.5433  0.6661
 8403SOL    HW136668   0.340   2.886   7.760 -0.3350 -0.2886  0.7488
 8403SOL    HW236669   0.263   2.909   7.634 -0.1022  0.0029  0.2486
 8404SOL     OW36670   0.861   0.482   3.698  0.0795  0.1350 -0.1248
 8404SOL    HW136671   0.896   0.556   3.648 -1.0112  0.0538 -1.0149
 8404SOL    HW236672   0.821   0.439   3.622  0.0467  0.4154 -0.2651
 8405SOL     OW36673   3.915   0.701   8.908  0.6285  0.0024 -0.2221
 8405SOL    HW136674   4.009   0.710   8.890  0.7711 -0.0566  0.5198
 8405SOL    HW236675   3.890   0.792   8.926  0.3770 -0.4494  1.6074
 8406SOL     OW36676   1.433   2.428  11.743  0.0648 -0.0336 -0.4110
 8406SOL    HW136677   1.372   2.466  11.805 -1.8766 -0.2858 -2.1594
 8406SOL    HW236678   1.401   2.338  11.745 -0.6268  0.2316  0.3835
 8407SOL     OW36679   4.710   1.668  16.977  0.0559  0.0948 -0.1627
 8407SOL    HW136680   0.054   1.615  17.020  1.1161  1.7723  0.2859
 8407SOL    HW236681   0.008   1.755  17.012 -0.9003  0.3568 -0.2445
 8408SOL     OW36682   0.365   1.677   8.019  0.0800 -0.1833 -0.3495
 8408SOL    HW136683   0.301   1.699   7.952 -0.1027 -1.7773 -0.7009
 8408SOL    HW236684   0.403   1.764   8.026  2.5121 -1.2149 -0.6513
 8409SOL     OW36685   1.558   1.155  11.624 -0.4488  0.2964 -0.2576
 8409SOL    HW136686   1.619   1.123  11.557 -0.4485  1.2011 -0.6912
 8409SOL    HW236687   1.623   1.182  11.688 -1.0555 -1.5468  1.1245
 8410SOL     OW36688   0.243   3.920  12.016 -0.2922  0.0989  0.2160
 8410SOL    HW136689   0.324   3.899  11.970 -1.2146 -0.9302 -0.9219
 8410SOL    HW236690   0.206   3.832  12.029  0.3944 -0.2489 -0.1752
 8411SOL     OW36691   1.331   0.727  16.568 -0.0661  0.1102  0.5793
 8411SOL    HW136692   1.303   0.637  16.548 -0.1672  0.3527 -0.3719
 8411SOL    HW236693   1.271   0.770  16.508  1.7572  0.5515 -0.9119
 8412SOL     OW36694   4.699   2.424   7.156  0.6036  0.3214 -0.1042
 8412SOL    HW136695   4.667   2.377   7.079 -0.0660 -0.0087  0.3727
 8412SOL    HW236696   0.050   2.365   7.176  1.2727  0.0077 -3.5328
 8413SOL     OW36697   3.793   1.724   0.807  0.3643 -0.1975  0.4623
 8413SOL    HW136698   3.722   1.785   0.825  0.7807  0.9164 -1.6208
 8413SOL    HW236699   3.738   1.645   0.806 -0.0696  0.1141 -0.0000
 8414SOL     OW36700   3.737   2.552   9.245  0.1521 -0.0403  0.2211
 8414SOL    HW136701   3.760   2.625   9.187 -2.1224  0.0728 -0.5389
 8414SOL    HW236702   3.695   2.594   9.320 -2.2281  1.3303 -1.9027
 8415SOL     OW36703   2.407   0.721   1.955  0.0269  0.3205 -0.4250
 8415SOL    HW136704   2.373   0.751   2.040 -1.1395  1.8391 -1.4310
 8415SOL    HW236705   2.490   0.767   1.946 -0.3155  0.7534 -1.3235
 8416SOL     OW36706   4.627   4.721   0.376  0.1206 -0.2317  0.1689
 8416SOL    HW136707   4.586   0.067   0.322 -0.0939  0.5110  1.2526
 8416SOL    HW236708   4.662   0.052   0.447  2.1153  0.8583 -1.6497
 8417SOL     OW36709   1.461   2.127   5.796 -0.2567 -0.2066  0.6286
 8417SOL    HW136710   1.552   2.120   5.765  0.0246  0.5756  1.2747
 8417SOL    HW236711   1.472   2.211   5.841  1.0923 -0.6353  1.0918
 8418SOL     OW36712   0.705   1.352  16.352 -0.0963  0.4817  0.4084
 8418SOL    HW136713   0.650   1.311  16.419 -0.4447  0.0335 -0.1496
 8418SOL    HW236714   0.671   1.291  16.287  1.5133 -0.6381  0.6181
 8419SOL     OW36715   3.744   1.275   4.885  0.4848 -0.3857  0.1959
 8419SOL    HW136716   3.748   1.201   4.824  0.3199 -0.2113 -0.0241
 8419SOL    HW236717   3.670   1.327   4.854  1.5484  1.1081  0.1449
 8420SOL     OW36718   0.338   1.246   2.739  0.4586 -0.4023 -0.3535
 8420SOL    HW136719   0.263   1.304   2.748  1.5371  0.9580 -0.1029
 8420SOL    HW236720   0.336   1.190   2.816  1.0026 -0.9283 -0.7117
 8421SOL     OW36721   1.874   0.459   9.039  0.2319  0.3058 -0.4370
 8421SOL    HW136722   1.808   0.483   8.973  0.9003  0.2485 -1.1285
 8421SOL    HW236723   1.835   0.518   9.104  0.7264 -1.8929  1.8342
 8422SOL     OW36724   3.828   2.078   8.723 -0.7738 -0.2798 -0.1571
 8422SOL    HW136725   3.893   2.053   8.788 -0.0817 -1.9770 -1.5056
 8422SOL    HW236726   3.873   2.040   8.648  0.6991  2.2374 -0.5578
 8423SOL     OW36727   0.252   3.084   2.802 -0.3606  0.3270 -0.0985
 8423SOL    HW136728   0.253   3.055   2.893 -0.5446 -0.3178 -0.3045
 8423SOL    HW236729   0.281   3.175   2.813  1.0367 -0.1578  0.3156
 8424SOL     OW36730   3.625   3.583  13.980  0.3175  0.3433  0.1871
 8424SOL    HW136731   3.684   3.577  14.056  0.7412  0.0747 -0.1591
 8424SOL    HW236732   3.550   3.531  14.008 -0.4579  0.1787 -2.2727
 8425SOL     OW36733   2.522   0.244   7.911 -0.0900 -0.3582 -0.4713
 8425SOL    HW136734   2.613   0.270   7.905 -0.4365  1.2872  1.6668
 8425SOL    HW236735   2.497   0.331   7.941  0.7670 -1.1941  2.6010
 8426SOL     OW36736   2.330   0.306   6.008 -0.0604 -0.8928  0.1908
 8426SOL    HW136737   2.357   0.301   6.100  0.9258 -1.4081 -0.1227
 8426SOL    HW236738   2.415   0.304   5.962 -0.1534 -0.7761  0.0138
 8427SOL     OW36739   0.735   3.767   3.186 -0.1109  0.2542 -0.0705
 8427SOL    HW136740   0.646   3.733   3.179 -0.3985  1.2236 -0.9725
 8427SOL    HW236741   0.778   3.729   3.109 -1.6301  2.0151 -1.7608
 8428SOL     OW36742   1.442   0.324   4.403 -0.3286  0.3496  0.0812
 8428SOL    HW136743   1.399   0.345   4.320 -0.7118  1.1340  0.4748
 8428SOL    HW236744   1.498   0.400   4.417  0.3348  0.1899 -1.7034
 8429SOL     OW36745   3.150   0.459  10.200  0.1704 -0.2350  0.1073
 8429SOL    HW136746   3.091   0.501  10.138  1.4787  0.6970 -0.5084
 8429SOL    HW236747   3.122   0.496  10.284  1.8387  0.0563  0.5437
 8430SOL     OW36748   1.591   1.080   6.135 -0.2641  0.0990  0.2423
 8430SOL    HW136749   1.679   1.047   6.150 -0.4595 -1.2947 -1.7376
 8430SOL    HW236750   1.583   1.154   6.196  0.7972  2.0437 -1.9965
 8431SOL     OW36751   3.418   0.923  14.166 -0.2939  0.4197 -0.4854
 8431SOL    HW136752   3.398   0.889  14.253  0.3666  0.7093 -0.2162
 8431SOL    HW236753   3.445   0.842  14.122  1.8153  0.5135  0.6117
 8432SOL     OW36754   4.491   1.511  14.606  0.1394  0.0122  0.3832
 8432SOL    HW136755   4.523   1.577  14.545 -3.3083  0.9442 -0.4082
 8432SOL    HW236756   4.569   1.455  14.602 -0.3805 -0.6856 -0.1154
 8433SOL     OW36757   1.155   4.439   3.058  1.0316  0.3734  0.3134
 8433SOL    HW136758   1.191   4.505   3.117  0.1393 -1.0767  2.4867
 8433SOL    HW236759   1.189   4.457   2.971 -1.3898  1.9948 -0.2789
 8434SOL     OW36760   0.787   1.826  11.756 -0.1832  1.0995  0.3222
 8434SOL    HW136761   0.829   1.886  11.694  2.1128  1.0187  1.8235
 8434SOL    HW236762   0.852   1.827  11.825 -0.1789 -2.2242  0.3672
 8435SOL     OW36763   3.560   2.318   7.854 -0.8921  0.1227 -0.0359
 8435SOL    HW136764   3.472   2.335   7.888 -0.0431  3.7464  0.3371
 8435SOL    HW236765   3.605   2.367   7.923  1.6011  0.2220 -1.7134
 8436SOL     OW36766   3.218   1.907   6.881 -0.5524 -0.0825  0.2055
 8436SOL    HW136767   3.290   1.925   6.942 -0.4400  2.5963 -0.7480
 8436SOL    HW236768   3.220   1.989   6.833 -3.1575 -0.4365 -0.5242
 8437SOL     OW36769   3.180   3.317   1.407  0.9326 -0.2894  0.3966
 8437SOL    HW136770   3.186   3.400   1.360 -1.5097  0.1894  0.9114
 8437SOL    HW236771   3.216   3.346   1.491 -1.4506  1.2804  0.8671
 8438SOL     OW36772   2.107   1.312   9.400 -0.5970  0.3938  0.2177
 8438SOL    HW136773   2.045   1.315   9.326 -0.7093  1.7658  0.3675
 8438SOL    HW236774   2.038   1.318   9.467  1.2885 -1.4683  2.2903
 8439SOL     OW36775   4.530   2.851   4.592  0.0989 -0.2452 -0.6224
 8439SOL    HW136776   4.556   2.938   4.623  0.3875 -0.2002 -0.9907
 8439SOL    HW236777   4.438   2.871   4.574 -0.0608 -0.4673 -0.0681
 8440SOL     OW36778   4.592   2.967   9.881  0.0664 -0.3103 -0.6669
 8440SOL    HW136779   4.685   2.944   9.887 -0.0335 -1.2061 -2.6181
 8440SOL    HW236780   4.578   2.996   9.972 -1.9179  1.8661 -1.6476
 8441SOL     OW36781   3.842   4.112  17.682  0.5864 -0.4272  0.0910
 8441SOL    HW136782   3.804   4.025  17.672  2.2375 -1.3528  1.8949
 8441SOL    HW236783   3.899   4.115  17.606  1.0659  1.7195  0.5345
 8442SOL     OW36784   1.579   2.071   5.079 -0.4528  0.3157  0.2834
 8442SOL    HW136785   1.652   2.122   5.042  0.1973 -0.5070  0.4241
 8442SOL    HW236786   1.622   1.991   5.110 -1.6659 -0.5537 -0.2770
 8443SOL     OW36787   2.455   4.680   8.966 -0.3214  0.2298 -0.0456
 8443SOL    HW136788   2.409   4.706   9.046  0.7273 -0.8618  0.9129
 8443SOL    HW236789   2.445   0.038   8.916 -0.4954  0.5909  0.5722
 8444SOL     OW36790   4.608   1.361   7.952  0.5164  0.5872  0.5507
 8444SOL    HW136791   4.528   1.399   7.916  0.9260 -0.1845 -1.1434
 8444SOL    HW236792   4.582   1.269   7.950  0.1886  0.7766 -2.8547
 8445SOL     OW36793   4.667   3.962   6.833 -0.1328  0.1321  0.0767
 8445SOL    HW136794   4.666   3.900   6.906  0.6797  0.9485  0.7715
 8445SOL    HW236795   4.580   3.998   6.849  0.1807  0.9158  0.0335
 8446SOL     OW36796   1.598   2.774   8.015 -0.3824 -0.3368 -0.3760
 8446SOL    HW136797   1.649   2.842   7.971 -0.2702 -1.2083 -1.5938
 8446SOL    HW236798   1.661   2.702   8.013  0.7150  0.6417 -0.9269
 8447SOL     OW36799   3.033   4.654   6.846 -0.2063  0.4630  0.2150
 8447SOL    HW136800   3.083   4.649   6.927 -0.8257 -1.4857  0.4682
 8447SOL    HW236801   2.950   4.683   6.884 -1.4020 -0.7701 -1.4339
 8448SOL     OW36802   4.034   3.921   4.503  0.3740  0.0552 -0.1691
 8448SOL    HW136803   4.030   3.863   4.426 -0.3222  0.0118 -0.1025
 8448SOL    HW236804   4.059   3.861   4.573 -0.7938  0.1395  0.3136
 8449SOL     OW36805   4.008   3.712   9.819  0.2357 -0.4663  0.7911
 8449SOL    HW136806   4.057   3.684   9.897 -1.3808  0.9454  2.3131
 8449SOL    HW236807   4.032   3.804   9.807 -0.7517 -0.0809  1.8102
 8450SOL     OW36808   2.965   0.132   5.123  0.0466 -0.1292 -0.5393
 8450SOL    HW136809   2.968   0.218   5.164 -0.1504  0.0265 -0.8501
 8450SOL    HW236810   2.881   0.133   5.077 -0.7040 -1.1618  0.7925
 8451SOL     OW36811   4.220   4.341  11.959  0.6234  0.0598  0.3325
 8451SOL    HW136812   4.304   4.294  11.965  1.3256  1.4658  1.5128
 8451SOL    HW236813   4.227   4.397  11.882  0.5543 -1.5990 -0.8805
 8452SOL     OW36814   1.642   1.920  17.192 -1.0143  0.1158 -0.4080
 8452SOL    HW136815   1.674   1.999  17.147  2.2209 -1.3685 -0.7179
 8452SOL    HW236816   1.633   1.857  17.120 -1.9519 -1.1596  0.8347
 8453SOL     OW36817   1.204   2.116   7.158  0.2643 -0.3985 -0.3528
 8453SOL    HW136818   1.147   2.147   7.088  1.4751 -0.8939 -1.5594
 8453SOL    HW236819   1.250   2.046   7.112  0.8887  0.1054 -0.4841
 8454SOL     OW36820   4.340   3.356   0.085  0.9035 -0.0520  0.5094
 8454SOL    HW136821   4.311   3.272   0.049 -2.5463  1.4029 -0.0276
 8454SOL    HW236822   4.400   3.335   0.157 -0.2952  1.3226  1.8970
 8455SOL     OW36823   3.968   4.110   9.115 -0.0085  0.3083 -0.1271
 8455SOL    HW136824   4.010   4.172   9.173 -0.4112  0.4239  0.0391
 8455SOL    HW236825   4.032   4.115   9.044 -1.9857  0.5313 -1.8711
 8456SOL     OW36826   3.022   2.504   5.055 -0.4390 -0.2381  0.4026
 8456SOL    HW136827   2.970   2.457   4.990 -0.9900  0.9770 -0.0352
 8456SOL    HW236828   2.969   2.583   5.067 -0.1963 -0.3735  2.4142
 8457SOL     OW36829   3.110   4.510   3.367  0.0382 -0.4133 -0.5588
 8457SOL    HW136830   3.190   4.493   3.316 -0.4359 -0.6692 -1.2081
 8457SOL    HW236831   3.052   4.435   3.371  1.6613 -1.5667  1.6733
 8458SOL     OW36832   2.653   4.377   3.635  0.1976  0.0480 -0.4926
 8458SOL    HW136833   2.674   4.287   3.660  0.7134 -0.1162 -1.4901
 8458SOL    HW236834   2.626   4.369   3.543 -1.9970  1.3823  0.0515
 8459SOL     OW36835   3.791   4.443   7.647 -0.8151  0.6795 -0.2209
 8459SOL    HW136836   3.730   4.514   7.666 -2.1648 -0.5824  0.0952
 8459SOL    HW236837   3.829   4.442   7.735 -1.6540 -1.3065  0.1122
 8460SOL     OW36838   0.516   3.170   3.293  0.0443 -0.2282  0.2615
 8460SOL    HW136839   0.463   3.246   3.319  0.0240 -0.7823  1.8452
 8460SOL    HW236840   0.448   3.102   3.289 -3.1269  2.7502  3.2017
 8461SOL     OW36841   2.193   4.369   5.758 -0.0155 -0.3202 -0.0130
 8461SOL    HW136842   2.221   4.461   5.758 -0.5794 -0.1469 -0.7144
 8461SOL    HW236843   2.211   4.349   5.850  2.4319  2.0307  0.0156
 8462SOL     OW36844   1.649   0.528  15.962 -0.1156 -0.6484 -0.4936
 8462SOL    HW136845   1.555   0.517  15.949  0.1672  0.1543 -3.2616
 8462SOL    HW236846   1.652   0.524  16.058  1.2480  0.0762 -0.4981
 8463SOL     OW36847   2.717   1.934  12.332 -0.3804  0.0457 -0.3888
 8463SOL    HW136848   2.650   1.920  12.399 -0.2060 -1.8202 -0.5810
 8463SOL    HW236849   2.690   1.897  12.248 -2.7081  1.8886 -0.4199
 8464SOL     OW36850   1.525   0.464   6.490 -0.0661 -0.1397 -0.2938
 8464SOL    HW136851   1.503   0.402   6.560  3.3920 -0.0441  0.8880
 8464SOL    HW236852   1.456   0.439   6.429 -1.0726  3.3374 -0.5603
 8465SOL     OW36853   3.654   4.352   7.183 -0.0727  0.2725  0.9081
 8465SOL    HW136854   3.585   4.403   7.226 -0.9164  0.6517 -0.8828
 8465SOL    HW236855   3.693   4.309   7.259 -1.0770 -0.1531  1.1909
 8466SOL     OW36856   3.305   0.748   6.302 -0.0660 -0.0999 -0.3586
 8466SOL    HW136857   3.284   0.827   6.252  1.6081 -0.3342 -1.4597
 8466SOL    HW236858   3.370   0.784   6.363  1.3987 -2.6432 -0.4271
 8467SOL     OW36859   0.514   1.216   8.014 -0.5682 -0.7406 -0.6081
 8467SOL    HW136860   0.513   1.208   7.919 -1.7525  0.6145 -0.7098
 8467SOL    HW236861   0.597   1.171   8.029 -0.1885 -0.0013 -0.4732
 8468SOL     OW36862   0.408   3.057   5.248  0.3664  0.1397 -0.0693
 8468SOL    HW136863   0.485   3.112   5.234  1.5703 -2.1206 -2.2364
 8468SOL    HW236864   0.374   3.055   5.159 -1.0359  0.2732  0.4622
 8469SOL     OW36865   0.803   1.669  13.710 -0.0234 -0.2087  0.4703
 8469SOL    HW136866   0.816   1.738  13.775 -2.2843  1.1014 -0.4476
 8469SOL    HW236867   0.885   1.675  13.661  0.4414 -1.0413  1.1471
 8470SOL     OW36868   1.902   3.306   2.683  0.1034  0.3947  0.0190
 8470SOL    HW136869   1.952   3.388   2.693 -2.4094  1.9962 -0.5997
 8470SOL    HW236870   1.944   3.239   2.738 -2.6638 -0.6886  0.7867
 8471SOL     OW36871   3.422   0.194  16.120  0.5642 -0.5123 -0.6135
 8471SOL    HW136872   3.466   0.121  16.164  1.3267 -1.2626 -2.6169
 8471SOL    HW236873   3.368   0.231  16.191  3.1269  1.7038  0.1752
 8472SOL     OW36874   3.528   3.361   4.584 -0.1118 -0.0277  0.4396
 8472SOL    HW136875   3.461   3.423   4.612  1.3511  1.7749 -0.0581
 8472SOL    HW236876   3.561   3.336   4.670  0.7313  0.9576  0.3988
 8473SOL     OW36877   0.633   0.765   0.958 -0.7715  0.1165  0.4836
 8473SOL    HW136878   0.557   0.812   0.992 -1.3531 -0.2728 -0.2723
 8473SOL    HW236879   0.691   0.834   0.927  2.4546 -3.5591 -1.6957
 8474SOL     OW36880   2.331   1.021   3.905 -0.1835 -0.3789  0.0959
 8474SOL    HW136881   2.349   0.947   3.963 -1.6011 -0.7077  0.1141
 8474SOL    HW236882   2.269   1.061   3.967 -0.7669 -2.3733  0.7892
 8475SOL     OW36883   3.837   1.753   0.514 -0.2674  0.0719 -0.0522
 8475SOL    HW136884   3.811   1.737   0.605 -2.0676 -1.2804 -0.8084
 8475SOL    HW236885   3.838   1.847   0.497  0.7779  0.1109  0.1713
 8476SOL     OW36886   3.757   1.000  11.022  0.3720 -0.5693 -0.2082
 8476SOL    HW136887   3.756   0.935  11.092  1.7849 -0.6580 -0.2766
 8476SOL    HW236888   3.850   0.992  11.001 -0.1731 -0.0420 -2.7748
 8477SOL     OW36889   1.910   1.149   9.512 -0.4386 -0.6233 -0.1082
 8477SOL    HW136890   1.815   1.163   9.511 -0.2628  0.6020 -0.7566
 8477SOL    HW236891   1.911   1.099   9.430  0.1380  0.3008 -0.6725
 8478SOL     OW36892   2.321   2.467  17.031 -0.0059  0.0322 -0.0182
 8478SOL    HW136893   2.295   2.504  17.115  0.7619  2.3788 -0.8050
 8478SOL    HW236894   2.269   2.521  16.971 -2.0944 -1.8504  0.1081
 8479SOL     OW36895   3.334   4.437  16.233  0.1497  0.1512 -0.0625
 8479SOL    HW136896   3.337   4.392  16.318 -0.2946  0.4560  0.1150
 8479SOL    HW236897   3.248   4.410  16.201  0.0450  0.6055 -0.1609
 8480SOL     OW36898   2.418   1.144   0.052  0.0194  0.5067 -0.0961
 8480SOL    HW136899   2.399   1.084  17.671  0.8851 -0.3709  0.3828
 8480SOL    HW236900   2.332   1.183   0.067 -0.7543 -0.6556 -1.5123
 8481SOL     OW36901   2.164   4.388  10.005 -0.1129 -0.3754 -0.1308
 8481SOL    HW136902   2.124   4.384  10.092  0.2939  2.7684  0.1998
 8481SOL    HW236903   2.256   4.383  10.030 -0.1898 -0.9306  0.0303
 8482SOL     OW36904   0.500   2.745   7.165 -0.1436  0.2233  0.1743
 8482SOL    HW136905   0.483   2.832   7.201  0.7254  0.7787 -0.7606
 8482SOL    HW236906   0.416   2.705   7.186 -0.0209 -0.4256 -0.5672
 8483SOL     OW36907   1.519   2.102   8.947  0.0264 -0.1888  0.5437
 8483SOL    HW136908   1.477   2.117   8.862  2.1930 -2.0272 -0.8564
 8483SOL    HW236909   1.465   2.158   9.003  0.5437 -1.5187  2.3548
 8484SOL     OW36910   1.368   4.100   9.000 -0.2158 -0.2926 -0.3880
 8484SOL    HW136911   1.274   4.112   8.993 -0.3388 -0.9955  0.0304
 8484SOL    HW236912   1.374   4.055   9.085 -0.0845 -1.6269 -1.1015
 8485SOL     OW36913   0.706   2.661   4.573 -0.0261  0.4153  0.6127
 8485SOL    HW136914   0.796   2.633   4.556 -0.2666 -0.0061  0.0256
 8485SOL    HW236915   0.658   2.582   4.599  1.8265 -1.0011 -0.3287
 8486SOL     OW36916   1.553   3.571  14.993 -0.6939 -0.8118 -0.4186
 8486SOL    HW136917   1.600   3.573  14.910  1.8542 -1.8108  1.0143
 8486SOL    HW236918   1.612   3.623  15.047  0.7254  0.2169 -2.9210
 8487SOL     OW36919   4.672   1.275  17.043 -0.6466 -0.8308 -0.0837
 8487SOL    HW136920   0.042   1.260  17.024 -1.0145 -1.2613 -1.4992
 8487SOL    HW236921   4.664   1.213  17.116 -1.6368 -0.6862 -0.0788
 8488SOL     OW36922   1.652   1.112   7.749 -0.0114 -0.1132  0.3670
 8488SOL    HW136923   1.570   1.086   7.707  0.5180  0.1737 -0.8358
 8488SOL    HW236924   1.623   1.156   7.829 -3.1075 -2.3220  0.4935
 8489SOL     OW36925   0.548   4.113   5.798  0.3286  0.0206 -0.0978
 8489SOL    HW136926   0.628   4.153   5.833  0.8471 -2.2763  1.3215
 8489SOL    HW236927   0.489   4.184   5.820  0.0457  0.7115 -3.0204
 8490SOL     OW36928   4.172   3.496   3.894  0.1204  0.3772 -0.2409
 8490SOL    HW136929   4.222   3.531   3.820 -0.8257 -0.9140 -1.4876
 8490SOL    HW236930   4.239   3.468   3.956 -0.0513 -3.2659 -1.7188
 8491SOL     OW36931   1.606   2.021   2.407 -0.0655  0.2812 -0.3232
 8491SOL    HW136932   1.533   2.067   2.366 -1.6760 -1.5932  0.4665
 8491SOL    HW236933   1.665   2.018   2.331 -1.0829 -0.7394 -1.0766
 8492SOL     OW36934   3.107   2.041   0.724  0.1334  0.0554  0.6422
 8492SOL    HW136935   3.035   2.037   0.787 -1.6219 -0.0394 -1.3859
 8492SOL    HW236936   3.100   2.136   0.722  2.1317  0.1733 -1.2934
 8493SOL     OW36937   1.528   0.859   8.164 -0.0020 -0.5732  0.5221
 8493SOL    HW136938   1.530   0.807   8.084  1.7471 -1.5705  1.1910
 8493SOL    HW236939   1.437   0.886   8.165  0.4077  0.7769  0.6456
 8494SOL     OW36940   1.337   1.816   2.655  0.1493  0.7886 -0.5108
 8494SOL    HW136941   1.329   1.772   2.570  1.8276 -0.7039  0.1087
 8494SOL    HW236942   1.432   1.810   2.665  0.1645  1.1205 -0.4628
 8495SOL     OW36943   4.473   1.696   3.234 -0.1895  0.3520 -0.3206
 8495SOL    HW136944   4.565   1.685   3.256 -0.8778 -0.4789  2.1742
 8495SOL    HW236945   4.425   1.708   3.316 -0.5528 -0.3248 -0.4365
 8496SOL     OW36946   3.558   4.164  16.111  0.7765  0.2131  0.4919
 8496SOL    HW136947   3.554   4.231  16.179  0.1552  0.4922  0.1778
 8496SOL    HW236948   3.500   4.089  16.126  1.5608 -0.3000  0.9699
 8497SOL     OW36949   3.186   4.586   5.396 -0.1750 -0.0871  0.8802
 8497SOL    HW136950   3.212   4.678   5.388  0.9821 -0.5268 -0.2976
 8497SOL    HW236951   3.159   4.585   5.488  0.2980 -2.8663  0.9918
 8498SOL     OW36952   4.543   4.025   1.675 -0.1580  0.9289 -0.2652
 8498SOL    HW136953   4.594   4.053   1.751 -0.5215 -0.9945  0.6708
 8498SOL    HW236954   4.462   4.000   1.719 -0.2060  0.6542 -0.5127
 8499SOL     OW36955   4.091   1.769  11.648  0.5959  0.0912 -0.1765
 8499SOL    HW136956   4.139   1.738  11.571 -0.4022 -1.2022 -0.2800
 8499SOL    HW236957   4.027   1.698  11.646  0.3618  0.3184 -0.6896
 8500SOL     OW36958   3.554   3.681   4.042  0.4452  0.4532  0.1182
 8500SOL    HW136959   3.599   3.600   4.016  0.5505  0.0856  1.4863
 8500SOL    HW236960   3.497   3.649   4.111  0.2925  0.3208 -0.0673
 8501SOL     OW36961   2.643   3.413  11.189  0.0683  0.1431 -0.2270
 8501SOL    HW136962   2.664   3.324  11.218  0.9487  0.6679  0.7138
 8501SOL    HW236963   2.648   3.469  11.266 -1.0609  1.2342 -0.9383
 8502SOL     OW36964   1.600   2.435   7.445 -0.1392  0.2002  0.0517
 8502SOL    HW136965   1.602   2.530   7.440 -0.4241  0.1764 -0.5010
 8502SOL    HW236966   1.688   2.402   7.466  0.0854 -0.5709 -2.0688
 8503SOL     OW36967   3.862   2.036   0.844  0.2479  0.0253  0.2991
 8503SOL    HW136968   3.855   2.102   0.775 -0.9548 -0.3219  0.0883
 8503SOL    HW236969   3.772   2.009   0.862 -0.5185  0.9248 -2.2670
 8504SOL     OW36970   4.079   0.557  17.249  0.7957 -0.1503 -0.2210
 8504SOL    HW136971   4.070   0.638  17.300  0.7583  1.1133 -2.2222
 8504SOL    HW236972   4.076   0.488  17.316  0.4942 -0.3288 -0.4214
 8505SOL     OW36973   4.410   0.114   7.531  0.0927 -0.7113 -0.1687
 8505SOL    HW136974   4.408   0.052   7.458  0.4689 -1.9760  0.8976
 8505SOL    HW236975   4.424   0.046   7.596  1.1442 -1.2175 -0.9207
 8506SOL     OW36976   0.641   0.796   2.286  0.3223 -0.0554 -0.0190
 8506SOL    HW136977   0.561   0.797   2.340  0.9044  0.6243  0.8401
 8506SOL    HW236978   0.628   0.721   2.228 -2.2388 -0.1493  0.6731
 8507SOL     OW36979   3.957   0.507  17.022  0.3478  0.0827 -0.3417
 8507SOL    HW136980   3.985   0.517  17.113  0.4156  2.6878 -0.6708
 8507SOL    HW236981   3.945   0.597  16.993  1.4394  0.9406  1.8481
 8508SOL     OW36982   0.282   4.536   2.641 -0.3014  0.4540 -0.2077
 8508SOL    HW136983   0.322   4.462   2.596  0.0025  0.9821 -0.8040
 8508SOL    HW236984   0.192   4.504   2.640  0.4612 -1.7806  1.9760
 8509SOL     OW36985   1.853   0.649  14.351  0.1374  0.5833 -0.2985
 8509SOL    HW136986   1.790   0.597  14.401 -0.3527 -0.8970 -2.4523
 8509SOL    HW236987   1.832   0.601  14.271  2.8335  1.1264 -1.3392
 8510SOL     OW36988   2.136   2.869  13.917 -0.7614  0.2747  0.1127
 8510SOL    HW136989   2.211   2.843  13.864 -1.4615 -0.6183 -0.4412
 8510SOL    HW236990   2.102   2.784  13.946  2.4678 -0.2275  2.4208
 8511SOL     OW36991   3.178   3.293  17.293  0.1193  0.5877  0.0642
 8511SOL    HW136992   3.185   3.296  17.388 -1.2431  0.3331  0.1808
 8511SOL    HW236993   3.267   3.293  17.258  0.8007  0.3153  1.7921
 8512SOL     OW36994   3.557   2.842  12.238  0.3490 -0.4756 -0.1220
 8512SOL    HW136995   3.562   2.853  12.143  0.6922  0.3434 -0.0095
 8512SOL    HW236996   3.649   2.825  12.261  0.4225  0.4618  0.2514
 8513SOL     OW36997   3.377   1.695   3.481  0.4364 -0.0410 -0.0343
 8513SOL    HW136998   3.326   1.722   3.557 -2.5725 -2.7697 -1.0693
 8513SOL    HW236999   3.318   1.728   3.414 -1.7171 -0.7588  1.5186
 8514SOL     OW37000   0.893   1.951   8.152  0.1287 -0.2865  0.4666
 8514SOL    HW137001   0.872   1.931   8.243  0.3592  0.4933  0.6931
 8514SOL    HW237002   0.946   1.873   8.135  1.3895  0.5094  0.7348
 8515SOL     OW37003   0.981   4.718   2.881 -0.1616 -0.2266 -0.8192
 8515SOL    HW137004   0.913   4.692   2.943 -1.2064  1.4625 -1.2662
 8515SOL    HW237005   1.049   0.044   2.928 -0.8741  0.6793 -0.7414
 8516SOL     OW37006   0.029   3.427  17.142  0.6459  0.2480 -0.3258
 8516SOL    HW137007   4.697   3.477  17.081  2.3244  2.8070  0.2624
 8516SOL    HW237008   0.114   3.428  17.097  0.5161  1.6714 -0.5600
 8517SOL     OW37009   0.507   0.563   3.886  0.7899 -0.4419  0.1507
 8517SOL    HW137010   0.600   0.579   3.903  1.1908 -0.8784 -1.6126
 8517SOL    HW237011   0.478   0.655   3.885  0.6031 -0.4715  2.2517
 8518SOL     OW37012   2.152   0.709  10.609 -0.5297 -0.0224 -0.0357
 8518SOL    HW137013   2.188   0.689  10.522 -0.2030  0.5754 -0.0344
 8518SOL    HW237014   2.151   0.623  10.652 -1.3901  0.6997  1.3549
 8519SOL     OW37015   4.329   1.856  15.058 -0.2460 -0.2682 -0.1081
 8519SOL    HW137016   4.388   1.781  15.049  0.0560  0.0487 -0.7846
 8519SOL    HW237017   4.281   1.841  15.139  2.4581  4.7550  2.4552
 8520SOL     OW37018   3.889   1.878  10.186  0.4094  0.3655 -0.0281
 8520SOL    HW137019   3.979   1.871  10.218 -0.1476 -2.4795  0.9085
 8520SOL    HW237020   3.886   1.960  10.136  0.3714  0.5171  0.2228
 8521SOL     OW37021   1.266   2.328   6.671 -0.7898 -0.0079  0.3357
 8521SOL    HW137022   1.231   2.388   6.736 -1.4760  0.3125 -0.3406
 8521SOL    HW237023   1.311   2.391   6.614 -2.2066  1.7279  1.1552
 8522SOL     OW37024   1.694   3.239   1.123  0.7313  0.7858 -0.1130
 8522SOL    HW137025   1.752   3.315   1.126  1.8486 -0.0623 -0.0966
 8522SOL    HW237026   1.735   3.194   1.050 -0.2181 -0.4910  0.1302
 8523SOL     OW37027   1.367   1.541   4.907 -0.0226 -0.5289 -0.1252
 8523SOL    HW137028   1.389   1.581   4.823  1.5198 -1.7779 -0.3080
 8523SOL    HW237029   1.297   1.601   4.932  0.6691  0.2416 -0.0647
 8524SOL     OW37030   2.638   3.054   1.927  0.0866  0.4468 -0.1331
 8524SOL    HW137031   2.705   3.017   1.868  1.4485  0.1464  1.5976
 8524SOL    HW237032   2.675   3.094   2.006  2.4169 -0.0811 -0.9541
 8525SOL     OW37033   3.237   4.186   3.827 -0.5476  0.2682  0.1840
 8525SOL    HW137034   3.171   4.254   3.835 -1.3042 -0.2678 -1.5471
 8525SOL    HW237035   3.265   4.160   3.915 -0.0874  1.2147  0.3228
 8526SOL     OW37036   2.661   3.815   3.363 -0.1475  0.7205  0.5502
 8526SOL    HW137037   2.706   3.897   3.385 -1.5235  1.3793  0.8791
 8526SOL    HW237038   2.604   3.841   3.291 -1.4004 -2.3364  0.4280
 8527SOL     OW37039   1.451   1.735   4.202  0.1550 -0.1068 -1.2393
 8527SOL    HW137040   1.375   1.707   4.151 -0.6944  1.2643 -0.7087
 8527SOL    HW237041   1.441   1.829   4.210 -1.4623 -0.4565  0.6806
 8528SOL     OW37042   2.534   4.366  12.477  0.3402  0.5055 -0.1931
 8528SOL    HW137043   2.600   4.433  12.461  2.1456 -0.7234  2.0110
 8528SOL    HW237044   2.456   4.421  12.479  0.4817  0.6582  1.6344
 8529SOL     OW37045   1.629   4.530  15.718  0.0821  0.2447  0.4243
 8529SOL    HW137046   1.650   4.561  15.630  1.5680  1.4566  1.1958
 8529SOL    HW237047   1.694   4.575  15.773 -0.7367 -1.0864  2.4597
 8530SOL     OW37048   3.382   4.159   5.482 -0.2541  0.7745  0.0267
 8530SOL    HW137049   3.453   4.217   5.452  0.6482 -0.1584  0.3387
 8530SOL    HW237050   3.384   4.156   5.577  2.9954 -1.6365 -0.0794
 8531SOL     OW37051   3.852   3.834   7.853  0.3761 -0.2297 -0.2814
 8531SOL    HW137052   3.865   3.909   7.912  2.3016  0.5244 -1.6638
 8531SOL    HW237053   3.907   3.850   7.777 -0.4031 -0.2870 -0.8512
 8532SOL     OW37054   0.901   3.477  16.564  0.2952  0.0109  0.1248
 8532SOL    HW137055   0.829   3.420  16.537 -1.3819  1.5070  1.3560
 8532SOL    HW237056   0.884   3.549  16.503  1.5370  1.5798  1.6091
 8533SOL     OW37057   1.063   3.506   1.195 -0.2703  0.3068 -0.5289
 8533SOL    HW137058   0.986   3.450   1.185 -0.3077  0.3695 -0.5953
 8533SOL    HW237059   1.030   3.580   1.143  0.2873  0.5582 -0.5178
 8534SOL     OW37060   3.065   3.475  16.900 -0.5239  0.2513 -0.1803
 8534SOL    HW137061   3.021   3.537  16.958  0.5378  1.8685 -1.1103
 8534SOL    HW237062   3.101   3.536  16.836 -0.2460  1.9428  1.6082
 8535SOL     OW37063   1.198   4.054   6.958  0.2830 -0.2898  0.2245
 8535SOL    HW137064   1.264   4.063   7.027  0.6604 -0.4872 -0.1109
 8535SOL    HW237065   1.174   4.145   6.941  1.7484 -0.6089 -3.3730
 8536SOL     OW37066   3.009   3.808  14.201  0.0746 -0.3348 -0.0513
 8536SOL    HW137067   3.093   3.833  14.163 -0.0147  2.4984  1.6374
 8536SOL    HW237068   3.041   3.767  14.281  0.2388  0.1057  0.1115
 8537SOL     OW37069   0.754   1.107   8.081 -0.6756  0.4917 -0.6351
 8537SOL    HW137070   0.799   1.031   8.119  1.9424  1.4827 -1.8135
 8537SOL    HW237071   0.829   1.161   8.059  0.2347 -1.2404 -1.7338
 8538SOL     OW37072   4.702   0.436   1.070 -0.0254  0.5591  0.4861
 8538SOL    HW137073   0.036   0.511   1.083  0.3793  0.3337  0.0182
 8538SOL    HW237074   4.622   0.489   1.065 -0.9604 -0.9365 -0.3560
 8539SOL     OW37075   2.335   3.926   7.335 -0.1136 -0.1136  0.1854
 8539SOL    HW137076   2.386   3.988   7.387  1.8928 -0.6435 -1.1665
 8539SOL    HW237077   2.268   3.986   7.302 -0.8836 -1.9145 -1.5063
 8540SOL     OW37078   4.611   0.837  15.455 -0.2508  0.1793 -0.4546
 8540SOL    HW137079   4.575   0.834  15.367  1.3641  1.1836 -1.1637
 8540SOL    HW237080   4.662   0.918  15.446  2.0064 -1.2465 -0.3748
 8541SOL     OW37081   3.569   3.050   5.616  0.5583  0.3211  0.3520
 8541SOL    HW137082   3.534   3.038   5.528 -2.2899  1.3118  1.3599
 8541SOL    HW237083   3.610   2.965   5.635  1.1842  0.6830  0.6024
 8542SOL     OW37084   4.173   1.221   8.227  0.4849 -0.2271  0.1146
 8542SOL    HW137085   4.079   1.228   8.243  0.4219  0.3832 -0.4985
 8542SOL    HW237086   4.197   1.151   8.288 -0.9683 -0.8335  0.0037
 8543SOL     OW37087   1.554   4.221   4.414 -0.2153  0.2431 -0.6471
 8543SOL    HW137088   1.481   4.178   4.458 -0.6823  2.7141  0.9896
 8543SOL    HW237089   1.590   4.274   4.485 -0.0799 -1.8900  0.8431
 8544SOL     OW37090   2.840   0.948  17.584  1.1593  0.1443 -0.5185
 8544SOL    HW137091   2.780   1.023  17.585  0.0108 -0.7658 -1.0031
 8544SOL    HW237092   2.863   0.934  17.676 -2.7249 -1.3176  0.2441
 8545SOL     OW37093   0.187   0.437   7.827  0.1582  0.2839 -0.5668
 8545SOL    HW137094   0.118   0.373   7.844  0.9274 -0.3144  0.2936
 8545SOL    HW237095   0.264   0.390   7.860  0.4229  0.8212 -0.4121
 8546SOL     OW37096   1.583   3.107   5.932 -0.0343  0.1442  0.0186
 8546SOL    HW137097   1.635   3.028   5.921  1.3660  1.2679 -1.4623
 8546SOL    HW237098   1.563   3.128   5.840 -0.6024  0.4880  0.2168
 8547SOL     OW37099   2.864   3.396   3.990  0.0700  0.3775  0.3881
 8547SOL    HW137100   2.946   3.366   3.950  0.4173  1.5850  0.1981
 8547SOL    HW237101   2.814   3.412   3.910 -1.0498  0.7927  1.1655
 8548SOL     OW37102   3.623   2.782   7.732 -0.2017  0.2445 -0.0529
 8548SOL    HW137103   3.653   2.776   7.641  0.6973 -0.6052  0.3009
 8548SOL    HW237104   3.593   2.873   7.732  1.2502  0.7236  0.8705
 8549SOL     OW37105   2.744   3.742  15.018 -0.1045  0.0090  0.0655
 8549SOL    HW137106   2.764   3.773  15.106 -0.2145 -1.1784  0.5040
 8549SOL    HW237107   2.805   3.789  14.961 -0.9218  1.6149  0.4943
 8550SOL     OW37108   3.479   0.183   0.732 -0.4226  0.3192 -0.2752
 8550SOL    HW137109   3.423   0.160   0.657  0.2599  0.6083 -0.8731
 8550SOL    HW237110   3.561   0.175   0.682 -0.1825 -1.0624  0.3352
 8551SOL     OW37111   2.652   0.645   0.473 -0.2786  0.4049  0.3108
 8551SOL    HW137112   2.565   0.679   0.494 -0.6246 -0.0699 -0.3384
 8551SOL    HW237113   2.706   0.723   0.462  0.0212  0.1885  0.2572
 8552SOL     OW37114   0.544   2.124   7.051 -0.1361  0.1564 -0.5376
 8552SOL    HW137115   0.483   2.097   7.119 -0.0238 -0.1652 -0.5639
 8552SOL    HW237116   0.566   2.213   7.078 -1.4539  0.6601 -1.1538
 8553SOL     OW37117   3.703   1.763  16.881  0.1400  0.7233  0.0446
 8553SOL    HW137118   3.794   1.734  16.884  0.1154  0.5465 -1.0019
 8553SOL    HW237119   3.688   1.798  16.793 -0.5866  2.8495  1.0186
 8554SOL     OW37120   1.927   0.241   2.834 -0.3705 -0.2557 -0.1246
 8554SOL    HW137121   1.886   0.280   2.757  0.8896  0.0737 -0.6422
 8554SOL    HW237122   1.875   0.266   2.910  0.3197  1.5922 -0.2396
 8555SOL     OW37123   4.624   4.691   5.038 -0.1539  0.2993 -0.0484
 8555SOL    HW137124   4.623   4.702   4.943 -1.3744  0.1723 -0.0468
 8555SOL    HW237125   4.555   4.628   5.061  0.9722 -0.1918  2.0056
 8556SOL     OW37126   2.941   3.207  16.821  0.1162  0.2723 -0.8041
 8556SOL    HW137127   2.984   3.190  16.737 -0.8607 -0.2801 -1.1849
 8556SOL    HW237128   2.989   3.285  16.852  1.1027  0.2806 -2.3378
 8557SOL     OW37129   4.275   2.074   1.110  0.1960 -0.1380 -0.1208
 8557SOL    HW137130   4.292   2.097   1.019  1.5071 -1.4060 -0.1952
 8557SOL    HW237131   4.179   2.072   1.109  0.1960  0.4531 -1.7799
 8558SOL     OW37132   0.286   2.643   9.707  0.0289 -0.3408  0.0453
 8558SOL    HW137133   0.263   2.550   9.704 -1.9926  0.1010  1.7941
 8558SOL    HW237134   0.274   2.661   9.800 -3.5691  1.6263 -0.8050
 8559SOL     OW37135   0.591   2.594   3.152 -0.2941 -0.0943  0.5408
 8559SOL    HW137136   0.577   2.535   3.079  0.9050 -0.1837  0.3822
 8559SOL    HW237137   0.518   2.653   3.137 -0.8176 -0.3289  2.1228
 8560SOL     OW37138   0.117   3.875   4.300  0.2715  0.2417 -0.6161
 8560SOL    HW137139   0.110   3.809   4.369  1.0004  1.1539  0.3353
 8560SOL    HW237140   0.038   3.856   4.250  0.3594 -0.3897 -0.5058
 8561SOL     OW37141   3.960   0.655   6.822 -0.9351 -0.2245 -0.1631
 8561SOL    HW137142   3.901   0.729   6.833  0.2586  0.6577  0.3924
 8561SOL    HW237143   4.023   0.671   6.893  0.0223  1.2260 -1.3513
 8562SOL     OW37144   4.710   3.791   1.579 -0.0103 -0.2678 -0.0289
 8562SOL    HW137145   4.624   3.797   1.537  0.7263  0.8043 -1.4022
 8562SOL    HW237146   0.024   3.712   1.538  1.9176  0.1477  0.8761
 8563SOL     OW37147   4.329   4.063   2.088 -0.2862 -0.0065 -0.1960
 8563SOL    HW137148   4.384   3.992   2.054  0.2496 -0.7502  2.2682
 8563SOL    HW237149   4.256   4.049   2.028  0.1473  0.4385 -0.8326
 8564SOL     OW37150   3.962   4.484   1.929  0.6313 -0.2309  0.4764
 8564SOL    HW137151   3.875   4.520   1.949  0.4877 -0.1846 -0.2301
 8564SOL    HW237152   3.978   4.522   1.842 -0.1247  3.1088  1.7716
 8565SOL     OW37153   0.802   3.964   3.577 -0.3395  0.4099  0.2026
 8565SOL    HW137154   0.854   4.040   3.602  1.9658 -1.4006  0.8778
 8565SOL    HW237155   0.770   3.988   3.490  1.5059 -0.1755 -0.6460
 8566SOL     OW37156   4.687   3.329  16.014 -0.5685 -0.2530  0.4247
 8566SOL    HW137157   4.613   3.342  15.955  0.1976  0.9369 -0.2634
 8566SOL    HW237158   4.718   3.412  16.049  0.1264 -0.4257  0.2213
 8567SOL     OW37159   2.899   4.108   2.557 -0.2131  0.2933  0.1126
 8567SOL    HW137160   2.982   4.152   2.540 -0.8982  2.1399  1.5408
 8567SOL    HW237161   2.858   4.104   2.471  0.2651  1.7634 -0.1834
 8568SOL     OW37162   2.841   1.600   2.034 -0.8233  0.3163  0.0354
 8568SOL    HW137163   2.906   1.574   1.968 -1.1306 -0.2542 -0.0452
 8568SOL    HW237164   2.817   1.687   2.001  1.8674  0.5199 -1.3491
 8569SOL     OW37165   4.702   1.224   4.850 -0.8233 -0.1368 -0.1662
 8569SOL    HW137166   4.636   1.248   4.915 -1.5143  1.3878 -1.4258
 8569SOL    HW237167   4.721   1.133   4.874 -0.1008 -0.3514 -1.5761
 8570SOL     OW37168   2.443   3.146  12.959 -0.5899  0.1132  0.1853
 8570SOL    HW137169   2.444   3.160  12.864  1.7577 -0.1176  0.1811
 8570SOL    HW237170   2.509   3.077  12.956 -2.3462 -1.5102 -1.3833
 8571SOL     OW37171   2.926   3.790   3.767  0.0885  0.2520 -0.0202
 8571SOL    HW137172   2.856   3.734   3.734  0.9109  0.5027 -2.2382
 8571SOL    HW237173   3.005   3.764   3.719  0.7022  0.0874  1.0731
 8572SOL     OW37174   0.499   2.414   6.791 -0.6993 -0.1003  0.4170
 8572SOL    HW137175   0.572   2.352   6.787 -2.5656 -2.4353  2.4525
 8572SOL    HW237176   0.434   2.366   6.739 -1.8429  2.4365 -0.4992
 8573SOL     OW37177   2.003   3.586   1.257 -0.1418  0.1734 -0.4915
 8573SOL    HW137178   2.046   3.669   1.276  1.0067 -0.6363  0.4413
 8573SOL    HW237179   2.075   3.523   1.261 -0.8552 -0.5724  0.7391
 8574SOL     OW37180   2.298   1.183   8.622 -0.4664 -0.2482  0.1671
 8574SOL    HW137181   2.250   1.234   8.557  2.0303 -0.0155 -1.4889
 8574SOL    HW237182   2.384   1.172   8.582 -0.3774  0.1366  0.2444
 8575SOL     OW37183   0.983   4.605   3.577  0.1751  0.2985 -0.8214
 8575SOL    HW137184   0.999   4.689   3.619  0.7509 -0.4178  0.3870
 8575SOL    HW237185   0.922   4.630   3.507  0.8255  2.4284 -0.6206
 8576SOL     OW37186   3.758   4.702   7.199 -0.2330 -0.2190  0.4603
 8576SOL    HW137187   3.769   0.013   7.110 -2.0163  1.3852  0.8198
 8576SOL    HW237188   3.665   4.677   7.203 -0.9358  2.3653  0.3130
 8577SOL     OW37189   2.430   2.684  14.240  0.1242  0.3329  0.2562
 8577SOL    HW137190   2.473   2.614  14.289 -0.2595 -0.8452 -1.0763
 8577SOL    HW237191   2.337   2.664  14.250  0.4343 -1.2662 -0.0139
 8578SOL     OW37192   0.614   1.761   4.895 -0.5531 -0.2783 -0.2633
 8578SOL    HW137193   0.527   1.738   4.928 -1.0136  2.9969  0.7540
 8578SOL    HW237194   0.616   1.855   4.909  2.1339 -0.4932  0.7675
 8579SOL     OW37195   4.030   2.241   0.035  0.3329 -0.7771 -0.1659
 8579SOL    HW137196   3.966   2.289  17.675 -0.9795 -1.2661  1.0154
 8579SOL    HW237197   3.990   2.251   0.121  0.9098 -0.1390  0.0336
 8580SOL     OW37198   1.738   1.485   4.488  0.3867 -0.1937  0.1272
 8580SOL    HW137199   1.778   1.511   4.404  0.9197  0.4112  0.5683
 8580SOL    HW237200   1.716   1.395   4.463  0.3651 -0.4567  1.1240
 8581SOL     OW37201   4.105   2.069  11.675  0.0689  0.1230  0.4814
 8581SOL    HW137202   4.107   1.978  11.704  0.6118  0.2442  0.8322
 8581SOL    HW237203   4.179   2.077  11.615 -1.1895 -1.4635 -1.2723
 8582SOL     OW37204   4.703   1.780  14.540 -0.1524  0.0161 -0.5715
 8582SOL    HW137205   0.054   1.803  14.482  0.4591 -2.9923 -1.0175
 8582SOL    HW237206   4.639   1.749  14.476 -0.5036 -0.7328  0.1394
 8583SOL     OW37207   3.109   0.358   3.287  0.7449 -1.0524 -0.0366
 8583SOL    HW137208   3.083   0.349   3.378  0.2729 -1.2699 -0.1965
 8583SOL    HW237209   3.122   0.453   3.281  0.0829 -1.0061 -0.6863
 8584SOL     OW37210   2.466   0.512   4.798  0.6728 -0.2901 -0.2908
 8584SOL    HW137211   2.510   0.547   4.876 -0.0563 -0.0601  0.0209
 8584SOL    HW237212   2.423   0.430   4.822  0.4738 -0.0384  0.2116
 8585SOL     OW37213   1.614   3.602   1.324 -0.6247 -0.4795  0.1557
 8585SOL    HW137214   1.670   3.571   1.254  1.4950  0.6096  1.3798
 8585SOL    HW237215   1.685   3.612   1.387  0.4703 -1.9131 -0.8676
 8586SOL     OW37216   1.309   4.211  11.457  0.2925 -0.1257 -0.1090
 8586SOL    HW137217   1.393   4.185  11.494  0.5190 -0.0940 -0.6034
 8586SOL    HW237218   1.257   4.147  11.506  0.0818  0.3618  0.3105
 8587SOL     OW37219   3.311   3.422   3.799 -0.3702  0.2470 -0.6484
 8587SOL    HW137220   3.288   3.508   3.765  2.1254  1.5456  0.9404
 8587SOL    HW237221   3.407   3.416   3.797 -0.3901  0.2279 -1.4956
 8588SOL     OW37222   1.210   0.877   7.542  0.8742  0.2952  0.4737
 8588SOL    HW137223   1.229   0.793   7.500  1.1035  1.5849 -2.0187
 8588SOL    HW237224   1.124   0.904   7.511  1.3700  1.3282 -0.0122
 8589SOL     OW37225   1.383   0.478   4.150 -0.4158 -0.2540  0.2846
 8589SOL    HW137226   1.475   0.457   4.164 -0.1141  0.3465 -0.8202
 8589SOL    HW237227   1.382   0.499   4.057 -0.3827  1.5067  0.6856
 8590SOL     OW37228   3.045   1.282   4.866  0.5151  0.4492 -0.5200
 8590SOL    HW137229   3.091   1.320   4.941  1.2276 -0.4155 -0.5084
 8590SOL    HW237230   2.953   1.287   4.888  0.4701 -1.2001 -0.2876
 8591SOL     OW37231   1.671   0.402   5.860  0.3369  0.7482 -0.7512
 8591SOL    HW137232   1.711   0.429   5.943 -0.7327  1.7241 -0.5471
 8591SOL    HW237233   1.737   0.346   5.820 -0.3539 -1.1733  0.7819
 8592SOL     OW37234   1.867   3.940  15.327 -0.5224 -0.6024  0.0015
 8592SOL    HW137235   1.786   3.923  15.280  0.2903  0.8903 -1.9334
 8592SOL    HW237236   1.836   3.939  15.418  3.4730 -0.6781  1.3781
 8593SOL     OW37237   4.186   1.934   2.422  0.2023  0.0010  0.2361
 8593SOL    HW137238   4.259   1.989   2.395  0.9188 -0.5436  1.0561
 8593SOL    HW237239   4.219   1.845   2.407 -1.7144 -1.1629  2.9752
 8594SOL     OW37240   1.271   2.127   6.353  0.3947 -0.2200 -0.3163
 8594SOL    HW137241   1.356   2.134   6.395  0.2082 -0.0629  0.0381
 8594SOL    HW237242   1.207   2.131   6.424 -0.5450 -1.2653 -1.0957
 8595SOL     OW37243   0.521   0.054  12.223  0.1534 -0.9873  0.4061
 8595SOL    HW137244   0.589   0.005  12.270  2.4010  1.9390  0.1948
 8595SOL    HW237245   0.568   0.135  12.203 -0.6780  0.2647  3.5174
 8596SOL     OW37246   3.958   4.256  12.043  0.4081  0.3131  0.4810
 8596SOL    HW137247   3.971   4.208  12.125  0.2368  0.1910  0.4353
 8596SOL    HW237248   4.047   4.282  12.021  0.2773 -2.0113 -2.6839
 8597SOL     OW37249   2.802   0.060  14.195 -0.7161 -0.2658  0.4595
 8597SOL    HW137250   2.766   0.031  14.111  0.2450 -1.7746  0.5667
 8597SOL    HW237251   2.780   4.714  14.258  0.5087 -0.2573  0.8955
 8598SOL     OW37252   3.815   4.068   4.424 -0.2236  0.0700 -0.0349
 8598SOL    HW137253   3.845   4.046   4.336 -0.7654  0.1569 -0.2437
 8598SOL    HW237254   3.891   4.034   4.471 -1.1809  0.3150  1.6973
 8599SOL     OW37255   2.485   0.023  11.738 -0.1578 -0.0669  0.1093
 8599SOL    HW137256   2.553   4.680  11.758 -1.2477 -1.0010  0.7563
 8599SOL    HW237257   2.461   0.037  11.829 -0.0958 -0.3252  0.1681
 8600SOL     OW37258   0.949   2.566   6.466  0.2269  0.5943  0.1896
 8600SOL    HW137259   0.954   2.569   6.371 -0.8924  2.6159  0.1820
 8600SOL    HW237260   0.868   2.519   6.487  0.6872 -0.2428  0.0549
 8601SOL     OW37261   4.430   4.288   8.192  0.0023 -1.1274  0.1863
 8601SOL    HW137262   4.454   4.202   8.225  0.9183 -1.1288 -0.4854
 8601SOL    HW237263   4.370   4.323   8.258  0.8999  1.4895 -0.3935
 8602SOL     OW37264   0.444   1.438   5.259 -0.2327  0.0555 -0.6321
 8602SOL    HW137265   0.512   1.461   5.323  0.5785 -1.8485 -0.8096
 8602SOL    HW237266   0.414   1.523   5.226  1.0058  0.1629 -1.4841
 8603SOL     OW37267   3.939   0.754   3.925 -0.0006 -0.0202  0.2287
 8603SOL    HW137268   3.888   0.797   3.855  0.9465  1.8357  0.6873
 8603SOL    HW237269   4.009   0.706   3.881 -0.0674  0.7277 -0.7094
 8604SOL     OW37270   3.607   2.611   9.895 -0.0595 -0.5803 -0.0629
 8604SOL    HW137271   3.677   2.605   9.961 -0.9339 -1.1277  0.8055
 8604SOL    HW237272   3.551   2.685   9.918  0.7086 -0.0678  0.1674
 8605SOL     OW37273   1.276   0.541   6.703  0.3995  0.3682  0.4118
 8605SOL    HW137274   1.229   0.586   6.773  1.6594  0.9972  0.8622
 8605SOL    HW237275   1.218   0.562   6.629  0.8688  1.0431  0.2366
 8606SOL     OW37276   1.862   0.668  13.933 -0.3668 -0.2133  0.0208
 8606SOL    HW137277   1.840   0.742  13.990 -0.2818  1.3157 -1.9213
 8606SOL    HW237278   1.775   0.645  13.901  0.2227 -2.3399 -0.0674
 8607SOL     OW37279   0.818   3.951  11.846 -0.0077 -0.1508  0.0710
 8607SOL    HW137280   0.879   3.985  11.911 -2.9000  1.1896  2.0475
 8607SOL    HW237281   0.759   4.026  11.852  1.4321  0.9266  0.7747
 8608SOL     OW37282   2.318   3.966  12.211  0.9773  0.2755 -0.0394
 8608SOL    HW137283   2.290   3.928  12.128 -1.0233  0.5513  0.5199
 8608SOL    HW237284   2.235   4.006  12.236  0.9371 -0.6864  1.3886
 8609SOL     OW37285   2.897   4.024  16.226  0.2352  0.6469  0.7640
 8609SOL    HW137286   2.802   4.014  16.224  0.2330  1.0286 -1.0602
 8609SOL    HW237287   2.923   4.089  16.291  1.5183  0.0386  0.8598
 8610SOL     OW37288   3.528   4.267   6.954  0.7969  0.3090  0.2727
 8610SOL    HW137289   3.572   4.295   6.874  2.0970  0.8648  1.1868
 8610SOL    HW237290   3.573   4.320   7.019 -0.0880  1.6793 -0.2462
 8611SOL     OW37291   4.582   2.953  14.996 -0.4738  1.1594  0.1913
 8611SOL    HW137292   4.602   2.859  14.997 -2.1484  0.7939  0.6266
 8611SOL    HW237293   4.643   2.982  14.929 -2.8872  3.6569 -0.9161
 8612SOL     OW37294   1.478   3.392   5.309  0.3411 -0.1013 -0.4739
 8612SOL    HW137295   1.423   3.318   5.285  0.9647 -0.8314  0.3633
 8612SOL    HW237296   1.434   3.458   5.256 -0.4524  0.4603  0.8870
 8613SOL     OW37297   0.801   3.600   4.917  0.2033 -0.5004 -0.8176
 8613SOL    HW137298   0.882   3.613   4.964  0.5804 -1.6735 -1.1488
 8613SOL    HW237299   0.801   3.681   4.866  2.8533 -1.7500 -2.7927
 8614SOL     OW37300   3.432   2.264   9.691  0.5036 -0.3300  0.1850
 8614SOL    HW137301   3.396   2.290   9.776 -0.3539  1.1105 -0.6028
 8614SOL    HW237302   3.459   2.346   9.650  0.6446 -0.9834 -1.0122
 8615SOL     OW37303   1.289   1.802   6.810  0.3529 -0.2078  0.7703
 8615SOL    HW137304   1.343   1.845   6.876 -0.7049  0.5129  1.1606
 8615SOL    HW237305   1.361   1.796   6.748 -1.9863  3.1704 -2.2703
 8616SOL     OW37306   1.933   4.456   1.361 -0.3089  0.3404 -0.0280
 8616SOL    HW137307   1.996   4.410   1.417  2.2759  0.9927 -2.4002
 8616SOL    HW237308   1.911   4.378   1.311  1.8412  0.2384 -0.8174
 8617SOL     OW37309   4.155   3.730   4.723  0.3322  0.3488 -0.2967
 8617SOL    HW137310   4.154   3.639   4.693  0.9630 -0.6842  2.7684
 8617SOL    HW237311   4.121   3.711   4.811 -0.2110  0.9110 -0.3856
 8618SOL     OW37312   1.913   2.562   7.335  0.0945  0.2263  0.5185
 8618SOL    HW137313   1.921   2.473   7.301  1.3814  0.3721  0.4417
 8618SOL    HW237314   1.942   2.611   7.259  1.3643  1.1683  1.6067
 8619SOL     OW37315   1.416   3.527   9.135  0.3616 -0.0362  0.3976
 8619SOL    HW137316   1.446   3.475   9.060  0.4535 -0.7582  0.9304
 8619SOL    HW237317   1.487   3.584   9.161  0.3902  0.2276 -0.2582
 8620SOL     OW37318   3.061   0.239   6.333 -0.7435  0.1362  0.2334
 8620SOL    HW137319   3.075   0.159   6.383 -0.5027  0.5502  0.8312
 8620SOL    HW237320   3.080   0.201   6.247  1.0444 -1.9223  1.5678
 8621SOL     OW37321   4.300   2.515   9.062 -0.0574 -0.2423  0.1284
 8621SOL    HW137322   4.221   2.566   9.049 -0.5183 -1.4819 -2.0159
 8621SOL    HW237323   4.284   2.479   9.149  1.1291  0.9258  0.8374
 8622SOL     OW37324   2.927   2.735   3.640  0.2847 -0.2073 -0.5278
 8622SOL    HW137325   2.857   2.778   3.591  0.3516  1.5221  0.9084
 8622SOL    HW237326   2.872   2.711   3.716  2.3880  1.3943  1.4849
 8623SOL     OW37327   4.115   0.545   4.853  0.1162  0.2880 -0.7462
 8623SOL    HW137328   4.207   0.562   4.872 -0.6368  2.4079  0.9212
 8623SOL    HW237329   4.079   0.547   4.941  1.2039  1.2756 -0.3219
 8624SOL     OW37330   0.760   0.969   4.995  0.0758  0.2771  0.0890
 8624SOL    HW137331   0.764   1.056   5.035  2.2025  0.6626 -0.9671
 8624SOL    HW237332   0.761   0.998   4.904  2.3249  1.9340  0.6469
 8625SOL     OW37333   1.005   3.721   7.242  0.1057  0.2557 -0.1221
 8625SOL    HW137334   0.942   3.732   7.171  0.2282 -0.0392 -0.2785
 8625SOL    HW237335   1.021   3.809   7.276  1.1564  0.2623 -0.6579
 8626SOL     OW37336   0.926   0.026   8.006  0.0429  0.9438 -0.2054
 8626SOL    HW137337   1.020   0.025   8.019 -0.0744 -1.3108  0.4987
 8626SOL    HW237338   0.909   4.655   7.996  3.5236  0.4519 -1.3378
 8627SOL     OW37339   3.210   2.835   2.551  0.7407  0.0090  0.0158
 8627SOL    HW137340   3.255   2.884   2.619  0.0227  1.5886 -0.6419
 8627SOL    HW237341   3.248   2.752   2.577  4.6177  2.4894  2.0914
 8628SOL     OW37342   1.654   4.714   5.710 -0.1031  0.1181 -0.0664
 8628SOL    HW137343   1.615   0.046   5.642  1.8677  1.6870  0.0636
 8628SOL    HW237344   1.618   4.626   5.702  3.8118 -1.3380 -1.5713
 8629SOL     OW37345   0.194   2.674   4.188  0.4768  0.5501  0.0317
 8629SOL    HW137346   0.183   2.718   4.273  1.6021  1.1629 -0.1325
 8629SOL    HW237347   0.289   2.662   4.180  0.7275  1.2678  2.0351
 8630SOL     OW37348   4.109   2.994   2.843  0.4629  0.6940  0.1349
 8630SOL    HW137349   4.037   2.937   2.815  2.0687 -1.0702 -0.3783
 8630SOL    HW237350   4.183   2.935   2.830  0.3251  1.1279 -2.4623
 8631SOL     OW37351   4.721   0.061  13.527 -0.2810 -0.0405  0.2385
 8631SOL    HW137352   4.676   0.013  13.456 -0.2796 -0.3568  0.4513
 8631SOL    HW237353   4.692   0.150  13.505 -0.8924  0.1093  1.6374
 8632SOL     OW37354   2.657   0.922  13.132  0.0827  0.9276  0.2153
 8632SOL    HW137355   2.678   0.852  13.070 -0.2599  0.9808  0.0359
 8632SOL    HW237356   2.694   0.990  13.075  0.0829  1.2372  0.5878
 8633SOL     OW37357   0.360   4.557   7.947 -0.3574 -0.1662  0.4514
 8633SOL    HW137358   0.271   4.522   7.954 -1.0800  1.5542 -0.1223
 8633SOL    HW237359   0.360   4.605   7.865 -0.7396  2.5523  2.0516
 8634SOL     OW37360   4.675   3.537   8.874  0.4172 -0.0755  0.9153
 8634SOL    HW137361   0.013   3.599   8.916 -1.0469  0.6410  1.9812
 8634SOL    HW237362   0.002   3.455   8.873  1.1006  0.3260  1.4981
 8635SOL     OW37363   3.242   1.803   5.047 -0.3398  0.4280  0.0375
 8635SOL    HW137364   3.309   1.756   4.998 -0.6318  0.4083 -0.3458
 8635SOL    HW237365   3.216   1.734   5.108  1.4525 -0.3726 -0.1251
 8636SOL     OW37366   4.382   2.199  11.480 -0.4021  0.2763  0.8248
 8636SOL    HW137367   4.314   2.223  11.417  0.7809  0.0566 -0.5406
 8636SOL    HW237368   4.358   2.109  11.500  2.6768 -0.6829  0.1193
 8637SOL     OW37369   4.401   3.252   1.085 -0.0063 -0.0602  0.9400
 8637SOL    HW137370   4.442   3.283   1.166  0.3695 -0.6412  0.9692
 8637SOL    HW237371   4.333   3.192   1.116 -0.0338 -0.9394 -0.8161
 8638SOL     OW37372   0.332   2.589  15.618 -0.2580 -0.5208  0.3150
 8638SOL    HW137373   0.280   2.659  15.657 -1.0366 -0.3365 -1.0395
 8638SOL    HW237374   0.388   2.650  15.570 -0.4744 -1.4183 -1.1052
 8639SOL     OW37375   3.639   1.830   7.847  0.0525 -0.0993 -0.5621
 8639SOL    HW137376   3.580   1.900   7.821 -0.6897 -0.7021 -0.4769
 8639SOL    HW237377   3.612   1.820   7.938  1.7231 -2.6928 -0.3411
 8640SOL     OW37378   1.653   1.275   8.694 -0.1364  0.5739  0.0010
 8640SOL    HW137379   1.747   1.276   8.713  0.0836  1.4547 -1.1432
 8640SOL    HW237380   1.626   1.345   8.754 -2.7750 -0.0521 -0.4526
 8641SOL     OW37381   1.515   2.173   7.835 -0.1342 -0.0313  0.5426
 8641SOL    HW137382   1.597   2.178   7.786  1.4344 -1.4607  3.0638
 8641SOL    HW237383   1.530   2.230   7.910 -1.4098 -1.0232  1.5543
 8642SOL     OW37384   4.650   3.369   7.853  0.5874  0.0131  0.2262
 8642SOL    HW137385   4.693   3.296   7.809 -0.5861 -1.2090  1.1003
 8642SOL    HW237386   4.559   3.340   7.845 -0.0722  2.2185 -0.4255
 8643SOL     OW37387   0.818   0.916   4.538  0.5745  0.6577 -0.5659
 8643SOL    HW137388   0.776   0.916   4.451 -0.9608  1.3186  0.1625
 8643SOL    HW237389   0.909   0.888   4.529  0.4452  0.7411 -2.2273
 8644SOL     OW37390   4.227   2.786   4.486 -0.3064 -0.1345 -0.0893
 8644SOL    HW137391   4.158   2.814   4.546 -1.2903 -0.1454 -1.1916
 8644SOL    HW237392   4.211   2.692   4.478  2.2759 -0.5780 -0.1317
 8645SOL     OW37393   4.477   2.050   7.680  0.2669 -0.3520 -0.1031
 8645SOL    HW137394   4.460   2.121   7.618 -0.0313 -1.7704 -1.6550
 8645SOL    HW237395   4.528   1.983   7.634  0.6449 -1.1451  1.4739
 8646SOL     OW37396   3.573   1.983   5.800 -0.1660  0.3594 -0.0977
 8646SOL    HW137397   3.494   1.930   5.808  0.7685 -1.4787 -3.2826
 8646SOL    HW237398   3.542   2.055   5.745  0.9404  0.3671 -0.7100
 8647SOL     OW37399   2.882   0.596   3.597 -0.3230  0.2708  0.0138
 8647SOL    HW137400   2.878   0.504   3.570  0.7090  0.9187 -2.3690
 8647SOL    HW237401   2.936   0.580   3.674 -3.1439  1.6490  2.2708
 8648SOL     OW37402   0.687   2.510   5.710 -0.3340  0.5454  0.3249
 8648SOL    HW137403   0.689   2.586   5.769  0.8755  0.4935  0.3439
 8648SOL    HW237404   0.771   2.514   5.664 -0.2041  0.7399  0.5795
 8649SOL     OW37405   1.207   4.268   8.538 -0.0556 -0.6803 -0.5487
 8649SOL    HW137406   1.155   4.300   8.611 -0.3975 -0.0193 -1.0751
 8649SOL    HW237407   1.159   4.186   8.527 -0.3494 -0.7337  1.1502
 8650SOL     OW37408   1.284   2.274   4.248 -0.2250  0.7064  0.4062
 8650SOL    HW137409   1.198   2.317   4.248  0.8476  2.8291 -1.3847
 8650SOL    HW237410   1.299   2.237   4.335  2.3851 -0.4720 -0.5653
 8651SOL     OW37411   2.561   0.732  13.903  0.5809 -0.2671 -0.5593
 8651SOL    HW137412   2.587   0.651  13.948 -0.4689  0.0882  0.6738
 8651SOL    HW237413   2.482   0.706  13.856  1.0174 -1.5252 -0.5889
 8652SOL     OW37414   1.552   1.851  13.918  0.3387 -0.0430 -0.2004
 8652SOL    HW137415   1.560   1.934  13.965 -1.5313 -0.4980  0.9633
 8652SOL    HW237416   1.498   1.876  13.843 -1.6148  1.8866  1.8660
 8653SOL     OW37417   1.408   3.667   0.589  0.0601 -0.8713  0.1844
 8653SOL    HW137418   1.428   3.617   0.669 -1.2778  0.1559  1.1383
 8653SOL    HW237419   1.334   3.623   0.547  0.9878 -2.6492  0.3636
 8654SOL     OW37420   3.856   3.869  11.286  0.1748 -0.2184 -0.2141
 8654SOL    HW137421   3.905   3.834  11.361  1.5694  0.1530 -0.9565
 8654SOL    HW237422   3.793   3.922  11.334 -1.6840 -1.6318 -1.0770
 8655SOL     OW37423   4.099   4.529   3.777 -0.0453  0.3662 -0.4263
 8655SOL    HW137424   4.046   4.580   3.839 -2.4193 -0.9070 -1.4077
 8655SOL    HW237425   4.182   4.558   3.815 -0.6262 -0.4073  1.4324
 8656SOL     OW37426   2.866   1.960   2.392  0.2025  0.0402  0.1820
 8656SOL    HW137427   2.854   1.867   2.375 -1.6473  0.0749  1.2598
 8656SOL    HW237428   2.955   1.973   2.360 -0.1645  0.1686 -0.7980
 8657SOL     OW37429   0.134   1.979   9.168 -0.8214 -0.3560  0.1395
 8657SOL    HW137430   0.178   2.050   9.122  0.3771  0.2311  2.1906
 8657SOL    HW237431   0.046   1.993   9.133 -0.9601  0.6412  0.8920
 8658SOL     OW37432   2.474   0.199   8.840  0.1600 -0.0682  0.5159
 8658SOL    HW137433   2.412   0.224   8.910  1.4043  1.9254  0.9086
 8658SOL    HW237434   2.480   0.292   8.818 -1.3851 -0.5120 -1.7132
 8659SOL     OW37435   4.541   4.225   4.822  0.1116 -0.1351  0.2208
 8659SOL    HW137436   4.496   4.196   4.743  1.7974 -0.7410 -0.5179
 8659SOL    HW237437   4.588   4.301   4.787  1.6031 -1.2481 -0.1770
 8660SOL     OW37438   3.166   1.654  13.134 -0.2053  0.0604 -0.1199
 8660SOL    HW137439   3.256   1.667  13.164  0.3672 -0.4003 -1.6529
 8660SOL    HW237440   3.152   1.720  13.066 -1.5105 -0.9211 -0.8018
 8661SOL     OW37441   0.498   3.810  11.884 -0.6943  1.0072 -0.3173
 8661SOL    HW137442   0.509   3.762  11.966 -2.2252 -0.1659 -0.8046
 8661SOL    HW237443   0.578   3.783  11.839 -0.2218  0.8171  0.6422
 8662SOL     OW37444   1.125   3.903   5.107  0.1928  0.1876 -0.1784
 8662SOL    HW137445   1.182   3.905   5.183  0.2800  1.7357 -0.2828
 8662SOL    HW237446   1.103   3.810   5.100 -0.4352  0.5828 -3.6866
 8663SOL     OW37447   1.914   0.540   9.457 -0.6849 -0.2881 -0.0414
 8663SOL    HW137448   1.845   0.522   9.520 -1.8581  2.0060 -0.6605
 8663SOL    HW237449   1.967   0.465   9.484  1.9104  2.8801  3.7712
 8664SOL     OW37450   4.067   4.164   1.694 -0.2348 -0.2849  0.2009
 8664SOL    HW137451   4.102   4.080   1.724  0.1592 -0.3751 -0.5113
 8664SOL    HW237452   4.031   4.194   1.777 -0.8039 -1.0150  0.2236
 8665SOL     OW37453   1.904   2.210   8.186 -0.5527 -0.1335 -0.4440
 8665SOL    HW137454   1.830   2.192   8.244 -0.0850 -0.3710  0.0645
 8665SOL    HW237455   1.984   2.187   8.232 -0.4042 -0.2171 -0.7386
 8666SOL     OW37456   0.476   1.453  16.036  0.3337  0.0523  0.1362
 8666SOL    HW137457   0.487   1.362  16.064  0.5338  0.2740  0.7648
 8666SOL    HW237458   0.473   1.500  16.119  0.1984 -1.0616  0.7635
 8667SOL     OW37459   0.950   0.212   5.354  0.2322 -0.1406  0.1433
 8667SOL    HW137460   0.928   0.201   5.262 -0.1299 -0.2865  0.2489
 8667SOL    HW237461   1.034   0.165   5.350 -0.0214 -0.5513 -0.3507
 8668SOL     OW37462   3.341   0.398  14.375 -0.2942  0.7222 -0.0323
 8668SOL    HW137463   3.345   0.429  14.465  1.4719  0.5879 -0.0576
 8668SOL    HW237464   3.402   0.459  14.333 -2.3765  2.7717 -0.1017
 8669SOL     OW37465   2.526   1.908   3.160 -0.6522  0.8077 -0.1728
 8669SOL    HW137466   2.514   1.890   3.254 -1.6278 -0.3027 -0.5105
 8669SOL    HW237467   2.459   1.857   3.115  2.2417 -2.0762 -1.2204
 8670SOL     OW37468   1.338   0.024   5.892 -0.3902  0.2960 -0.1479
 8670SOL    HW137469   1.247   0.045   5.912 -0.5180  0.4744 -0.9074
 8670SOL    HW237470   1.352   0.096   5.830 -0.8572  0.9777  0.5359
 8671SOL     OW37471   1.415   2.592   4.645 -1.1070  0.0029 -1.0679
 8671SOL    HW137472   1.472   2.541   4.704 -0.9029  2.0374  0.4786
 8671SOL    HW237473   1.418   2.683   4.674 -0.6124 -0.7283  1.2296
 8672SOL     OW37474   2.602   0.631   3.915  0.0211 -0.1638  0.2709
 8672SOL    HW137475   2.581   0.622   3.822  1.0056  1.3464 -0.0949
 8672SOL    HW237476   2.651   0.713   3.905 -0.2240 -0.1798 -1.1442
 8673SOL     OW37477   4.697   3.035  12.832 -0.6502  0.2056  0.1242
 8673SOL    HW137478   4.632   2.965  12.824 -2.9619  2.3230  0.4288
 8673SOL    HW237479   4.638   3.109  12.848  2.9239  3.0628  0.0520
 8674SOL     OW37480   2.916   2.454  11.371 -0.2259 -0.1709 -0.6150
 8674SOL    HW137481   2.852   2.391  11.337  0.5943 -1.7697  0.7899
 8674SOL    HW237482   2.988   2.408  11.415 -0.6747  0.0314  0.3248
 8675SOL     OW37483   2.705   4.557   4.068  0.4491 -0.7352 -0.6274
 8675SOL    HW137484   2.721   4.469   4.035 -0.6930 -1.8687  1.7935
 8675SOL    HW237485   2.792   4.564   4.108  0.5384  0.0406 -0.9640
 8676SOL     OW37486   1.796   3.130   5.359 -0.0580 -0.5003  0.1687
 8676SOL    HW137487   1.767   3.196   5.422 -0.3712  0.3995 -0.9071
 8676SOL    HW237488   1.755   3.170   5.282  1.4389  2.6762  1.0130
 8677SOL     OW37489   0.209   1.298   3.033  0.1436 -0.4597  0.1741
 8677SOL    HW137490   0.141   1.312   3.100  0.5749 -1.1371  0.7440
 8677SOL    HW237491   0.219   1.387   2.999  0.9010 -0.4368  0.4622
 8678SOL     OW37492   2.798   1.608   3.678  0.4154 -0.1491  0.4158
 8678SOL    HW137493   2.713   1.621   3.636  0.9402 -0.5038 -0.7442
 8678SOL    HW237494   2.797   1.513   3.690  0.0648 -0.2168 -0.1621
 8679SOL     OW37495   0.017   4.614  17.498  0.1685 -0.1217  0.0515
 8679SOL    HW137496   0.026   4.676  17.571  0.4970 -2.3062  1.8489
 8679SOL    HW237497   4.656   4.643  17.460 -0.0752  0.9125  1.3670
 8680SOL     OW37498   0.329   3.150  13.112  0.2263 -0.4050 -0.0116
 8680SOL    HW137499   0.249   3.202  13.125 -0.1053 -0.3827 -2.1970
 8680SOL    HW237500   0.372   3.209  13.050 -1.1380 -0.2235 -0.7768
 8681SOL     OW37501   3.592   4.540   1.152 -0.3537  0.0328  0.3107
 8681SOL    HW137502   3.503   4.566   1.127 -0.5052 -0.2215  0.5901
 8681SOL    HW237503   3.634   4.627   1.150 -0.2528  0.0021  0.9824
 8682SOL     OW37504   0.337   2.216   8.530 -0.0152 -0.0571 -0.2706
 8682SOL    HW137505   0.270   2.148   8.518  2.6576 -3.0291  1.6281
 8682SOL    HW237506   0.298   2.285   8.582 -0.7295 -1.2964  0.8445
 8683SOL     OW37507   3.108   0.975   4.910 -0.4629 -0.4985 -0.3035
 8683SOL    HW137508   3.176   0.956   4.846  1.5685 -0.1603  1.7372
 8683SOL    HW237509   3.089   1.068   4.893 -1.7304 -1.2471 -2.9627
 8684SOL     OW37510   1.675   3.976   6.719  0.1305  0.3241  0.6537
 8684SOL    HW137511   1.728   3.960   6.797  0.0418  0.0714  0.6614
 8684SOL    HW237512   1.583   3.966   6.745  0.0310 -2.4296 -0.7449
 8685SOL     OW37513   0.528   1.005  12.838  0.2074  0.1449  0.2919
 8685SOL    HW137514   0.511   1.087  12.885  0.4006 -0.3488  1.2308
 8685SOL    HW237515   0.520   0.937  12.905  1.3723 -1.2152 -0.9423
 8686SOL     OW37516   1.321   0.810  15.222 -0.5981 -0.0504 -0.0696
 8686SOL    HW137517   1.400   0.819  15.275 -0.9282 -3.2499  0.9749
 8686SOL    HW237518   1.330   0.724  15.180 -0.1239 -0.3093  0.5605
 8687SOL     OW37519   4.463   3.479   3.601 -0.3759  0.1051  0.2889
 8687SOL    HW137520   4.461   3.444   3.690 -1.1399 -1.1153 -0.2016
 8687SOL    HW237521   4.369   3.487   3.581 -0.0885  1.7891 -0.4496
 8688SOL     OW37522   3.072   2.224   1.034 -0.9867  0.3426 -0.1150
 8688SOL    HW137523   3.022   2.298   1.068 -1.5952 -0.1190  0.0092
 8688SOL    HW237524   3.050   2.241   0.942  0.0633 -1.9033 -0.8022
 8689SOL     OW37525   2.164   2.673   5.531 -0.8754 -0.2459 -0.1655
 8689SOL    HW137526   2.231   2.633   5.586  0.3583  2.0554 -0.0166
 8689SOL    HW237527   2.113   2.597   5.503  3.1289 -2.3030 -1.7583
 8690SOL     OW37528   3.618   3.879   6.350 -0.2588  0.7409  0.2402
 8690SOL    HW137529   3.579   3.923   6.425  1.1643  1.4420  0.5570
 8690SOL    HW237530   3.537   3.867   6.299  0.0110  1.0564 -0.2601
 8691SOL     OW37531   2.818   0.268   6.586 -0.2187  0.3506 -0.1905
 8691SOL    HW137532   2.811   0.284   6.680  0.2356  0.0134 -0.0978
 8691SOL    HW237533   2.820   0.360   6.558  0.4463  0.2542 -0.4647
 8692SOL     OW37534   0.383   2.492  14.614  0.0962 -0.1886  0.0129
 8692SOL    HW137535   0.313   2.515  14.552  0.7150 -2.2617 -1.4431
 8692SOL    HW237536   0.424   2.411  14.585  0.3553  0.5138 -1.5958
 8693SOL     OW37537   0.721   4.334   2.688 -0.9351 -0.6755 -0.2429
 8693SOL    HW137538   0.706   4.413   2.637 -0.2138  0.3952  1.1969
 8693SOL    HW237539   0.708   4.378   2.772  2.8908 -0.6690  0.3160
 8694SOL     OW37540   2.792   0.550   5.815  0.8283 -0.4134  0.8936
 8694SOL    HW137541   2.798   0.645   5.821  0.1402 -0.3551  0.5860
 8694SOL    HW237542   2.810   0.536   5.909  0.4383  1.1916  1.1952
 8695SOL     OW37543   3.130   0.200  15.356  0.1200 -0.2017  0.0996
 8695SOL    HW137544   3.127   0.228  15.447 -1.0057 -1.0233  0.3175
 8695SOL    HW237545   3.036   0.188  15.338  0.4148 -0.3293 -1.3436
 8696SOL     OW37546   1.074   1.989   8.802 -0.2574 -0.1565 -0.6249
 8696SOL    HW137547   1.034   1.911   8.764  1.7686 -0.2464 -2.5489
 8696SOL    HW237548   1.068   1.975   8.897 -0.5706  0.2355 -0.5857
 8697SOL     OW37549   2.917   1.284  13.521  0.3050  0.5900  0.2485
 8697SOL    HW137550   2.857   1.223  13.565  1.4747 -0.0873  0.8956
 8697SOL    HW237551   2.962   1.318  13.598 -1.2213 -0.8485  1.7852
 8698SOL     OW37552   0.962   1.031   3.966  0.5553 -0.4353  0.2878
 8698SOL    HW137553   1.056   1.045   3.973  0.1498  2.2738  0.2264
 8698SOL    HW237554   0.932   0.953   4.014 -2.4046 -0.1248 -0.9939
 8699SOL     OW37555   3.183   1.532   3.096  0.2085  0.0298 -0.0236
 8699SOL    HW137556   3.201   1.601   3.160  0.8473  0.2139 -0.4003
 8699SOL    HW237557   3.186   1.586   3.016 -0.8015 -2.9791 -2.1010
 8700SOL     OW37558   3.538   4.295   8.900  0.1155 -0.0475 -0.2830
 8700SOL    HW137559   3.496   4.260   8.979 -1.3152 -0.0956 -1.0693
 8700SOL    HW237560   3.597   4.222   8.879  0.6671 -0.3894  2.4034
 8701SOL     OW37561   1.718   3.637   6.709 -0.0698 -0.3108  0.0762
 8701SOL    HW137562   1.772   3.567   6.673  1.2798  0.4045  0.7146
 8701SOL    HW237563   1.652   3.666   6.646 -0.7711 -0.2145  0.8562
 8702SOL     OW37564   1.019   0.246   6.555  0.4848 -0.6080  0.3754
 8702SOL    HW137565   1.076   0.175   6.525 -0.3686 -1.0191 -0.2617
 8702SOL    HW237566   1.002   0.220   6.646 -1.1722  0.5784  0.3898
 8703SOL     OW37567   0.191   2.985   9.308 -0.3350  0.1715 -0.2077
 8703SOL    HW137568   0.282   2.969   9.286 -0.3542 -2.4337  1.4815
 8703SOL    HW237569   0.193   3.001   9.403 -2.1191 -1.9935  0.2172
 8704SOL     OW37570   1.987   4.152  14.163 -0.8585 -0.1285  0.5167
 8704SOL    HW137571   2.029   4.218  14.219  2.2046 -0.7827 -1.0213
 8704SOL    HW237572   1.957   4.207  14.091  0.4414  0.2793  0.2860
 8705SOL     OW37573   0.092   0.253  13.159  0.3237 -0.4166 -0.2317
 8705SOL    HW137574   0.119   0.188  13.224  0.9911  0.3733  0.2785
 8705SOL    HW237575   0.115   0.329  13.211  1.0778 -2.2244  2.0407
 8706SOL     OW37576   3.515   4.511   4.794  0.4541 -0.2660  0.0467
 8706SOL    HW137577   3.463   4.590   4.784 -1.0548 -1.3226 -0.4248
 8706SOL    HW237578   3.448   4.443   4.789  2.0069 -1.6942 -1.7646
 8707SOL     OW37579   2.371   3.956   9.384 -0.3522  0.0888  0.2235
 8707SOL    HW137580   2.435   3.952   9.455  0.0112  0.5568 -0.0767
 8707SOL    HW237581   2.425   3.987   9.311 -1.2755  0.4680 -0.2932
 8708SOL     OW37582   0.269   0.784   2.888 -0.0212  0.2020 -0.9184
 8708SOL    HW137583   0.253   0.878   2.890  0.1574  0.2293 -0.7165
 8708SOL    HW237584   0.187   0.749   2.924  0.2864  1.2462  0.8028
 8709SOL     OW37585   0.487   4.569   8.217 -0.1616 -0.0265 -0.4886
 8709SOL    HW137586   0.450   4.550   8.131 -1.4256 -0.4284  0.1489
 8709SOL    HW237587   0.536   4.487   8.228  2.8848  1.9398  0.7961
 8710SOL     OW37588   0.369   0.029   1.831 -0.2548 -0.4538 -0.6073
 8710SOL    HW137589   0.438   0.092   1.854  0.1396 -1.1394  0.0610
 8710SOL    HW237590   0.312   0.094   1.789 -0.4245 -0.7148 -0.7747
 8711SOL     OW37591   4.093   4.539   6.093  0.4089  0.2789  0.1819
 8711SOL    HW137592   4.043   4.596   6.034  1.9414  0.8457 -0.5766
 8711SOL    HW237593   4.077   4.456   6.049 -1.3775  0.8559 -0.2679
 8712SOL     OW37594   0.516   0.672   6.991  0.2431 -0.3276  0.3140
 8712SOL    HW137595   0.500   0.735   6.921  0.1116  0.7503  1.3029
 8712SOL    HW237596   0.484   0.587   6.960 -0.8652  0.8952 -1.8988
 8713SOL     OW37597   4.668   4.337   4.377 -0.3582  0.0178  0.2839
 8713SOL    HW137598   0.003   4.363   4.305  0.0414  1.1527  1.0139
 8713SOL    HW237599   0.002   4.285   4.434 -0.1093  0.8551  0.7841
 8714SOL     OW37600   4.502   3.786  11.409 -0.2771  0.2853  0.5193
 8714SOL    HW137601   4.468   3.724  11.474  2.1913 -0.3377  1.2253
 8714SOL    HW237602   4.588   3.745  11.393 -0.7790  0.3593 -2.2984
 8715SOL     OW37603   2.149   3.347   5.002 -0.7440 -0.0934  0.4573
 8715SOL    HW137604   2.183   3.396   5.076  0.7145 -1.8312  0.9231
 8715SOL    HW237605   2.083   3.414   4.982  1.7097  1.8413 -1.2326
 8716SOL     OW37606   2.252   3.510   8.286  0.3044 -0.2113  0.0929
 8716SOL    HW137607   2.274   3.508   8.379 -1.3560  0.1575  0.4999
 8716SOL    HW237608   2.285   3.432   8.242  1.6928  0.0284  0.7408
 8717SOL     OW37609   2.275   3.237   4.644 -0.6291 -0.0157  0.4333
 8717SOL    HW137610   2.325   3.289   4.582 -0.5152  0.5322  0.9858
 8717SOL    HW237611   2.182   3.257   4.631 -0.4677 -0.2867 -1.1551
 8718SOL     OW37612   0.753   2.704   9.906 -0.1855 -0.5881  0.0551
 8718SOL    HW137613   0.785   2.788   9.939 -0.2346 -0.4202 -0.3147
 8718SOL    HW237614   0.741   2.728   9.814 -0.0022  1.7410  0.6442
 8719SOL     OW37615   3.278   0.122   3.556 -0.1185  0.1082  0.5781
 8719SOL    HW137616   3.197   0.071   3.558  0.0877 -0.2028  1.0644
 8719SOL    HW237617   3.267   0.175   3.635  0.1793 -1.6862  1.8182
 8720SOL     OW37618   1.864   3.685   4.718  0.3837 -0.3500 -0.0553
 8720SOL    HW137619   1.862   3.597   4.681  0.9505 -0.6191  0.5466
 8720SOL    HW237620   1.776   3.698   4.752  0.7075  0.7021  0.3780
 8721SOL     OW37621   0.680   4.149   6.711 -0.1456 -0.1340 -0.1717
 8721SOL    HW137622   0.770   4.142   6.743 -1.0118 -3.6958  1.4366
 8721SOL    HW237623   0.645   4.236   6.733  2.3480  0.5802  1.0085
 8722SOL     OW37624   0.968   2.106   7.480 -0.1195  0.0293 -0.5091
 8722SOL    HW137625   1.050   2.068   7.448  1.6253  2.8333  0.6791
 8722SOL    HW237626   0.976   2.076   7.571  0.3971  0.9900 -0.2477
 8723SOL     OW37627   1.314   2.803   9.323 -0.1666  0.5550  0.1752
 8723SOL    HW137628   1.352   2.875   9.273  0.0837  0.6480  0.4988
 8723SOL    HW237629   1.249   2.780   9.257 -0.8045  2.1104  0.2536
 8724SOL     OW37630   0.689   1.963   3.983 -0.5037 -0.1982  0.2784
 8724SOL    HW137631   0.639   1.881   3.994 -0.1777 -0.4698 -0.2307
 8724SOL    HW237632   0.744   1.952   4.060  1.9376  1.9326 -1.1745
 8725SOL     OW37633   3.361   0.350   9.586 -0.4189 -0.9571 -0.1652
 8725SOL    HW137634   3.274   0.356   9.625 -0.6301 -3.6604 -0.2203
 8725SOL    HW237635   3.351   0.263   9.547  0.1770 -0.4604 -1.4438
 8726SOL     OW37636   1.208   4.493   3.921  0.2277 -0.2995 -0.1060
 8726SOL    HW137637   1.236   4.580   3.895  1.5067 -0.2612  1.4123
 8726SOL    HW237638   1.293   4.449   3.914 -0.4679 -1.3908 -1.8808
 8727SOL     OW37639   0.629   3.729   3.467 -0.2202  0.5878 -0.4313
 8727SOL    HW137640   0.665   3.810   3.505  0.8812 -0.3671  0.5482
 8727SOL    HW237641   0.585   3.764   3.389  1.7659 -1.4116 -2.4158
 8728SOL     OW37642   0.836   3.199   7.957  0.3607  0.0948 -0.3580
 8728SOL    HW137643   0.899   3.237   8.018 -0.7374 -1.4055  1.6831
 8728SOL    HW237644   0.759   3.179   8.010  0.1328  0.2027 -0.6432
 8729SOL     OW37645   2.099   4.412  10.838 -0.8125  0.2067  0.3225
 8729SOL    HW137646   2.160   4.399  10.911  0.2588 -0.4687 -0.7017
 8729SOL    HW237647   2.070   4.325  10.811  0.8381 -0.0894 -0.5134
 8730SOL     OW37648   2.128   2.714  16.132 -0.3954  0.1361 -0.4845
 8730SOL    HW137649   2.045   2.759  16.144 -0.2270  0.3006  0.0901
 8730SOL    HW237650   2.117   2.666  16.215  1.3577 -0.7248 -0.7381
 8731SOL     OW37651   2.254   0.835   6.066 -0.1424 -0.0681  0.1879
 8731SOL    HW137652   2.235   0.742   6.061 -1.1083  0.1700 -0.5576
 8731SOL    HW237653   2.166   0.867   6.087 -0.6672 -0.1331 -1.8981
 8732SOL     OW37654   0.898   4.165   3.767  0.0556 -0.7111 -0.3676
 8732SOL    HW137655   0.812   4.143   3.803  0.1692  0.1798  0.4254
 8732SOL    HW237656   0.901   4.259   3.784  1.7198 -0.7970 -0.1838
 8733SOL     OW37657   2.854   0.745   1.394 -0.0959 -0.2302 -0.1331
 8733SOL    HW137658   2.773   0.700   1.418  1.2557 -0.8493  3.1243
 8733SOL    HW237659   2.836   0.831   1.433 -2.2583  1.4287 -4.7384
 8734SOL     OW37660   2.282   4.106   2.206 -0.4743  0.1660 -0.4842
 8734SOL    HW137661   2.305   4.128   2.296 -1.8827  0.0524 -0.1057
 8734SOL    HW237662   2.349   4.153   2.155 -1.6200  0.7383 -1.4719
 8735SOL     OW37663   1.293   0.822   9.716 -0.4130  0.0371 -0.2709
 8735SOL    HW137664   1.325   0.791   9.801  0.2851 -2.9375 -1.6016
 8735SOL    HW237665   1.203   0.850   9.734 -0.4753 -1.5649  2.0119
 8736SOL     OW37666   3.696   4.642   8.618 -0.4583  0.4123 -0.0960
 8736SOL    HW137667   3.692   4.698   8.696 -0.6485  1.0404 -0.5538
 8736SOL    HW237668   3.752   4.570   8.645  0.3245  0.3379 -1.9699
 8737SOL     OW37669   3.859   4.341   0.694 -0.2370 -0.5526 -0.2903
 8737SOL    HW137670   3.795   4.300   0.636 -0.6839 -0.3923  0.0931
 8737SOL    HW237671   3.877   4.279   0.764  0.7597 -1.6386 -1.5200
 8738SOL     OW37672   0.746   4.700   5.746  0.0230 -0.7555  0.1466
 8738SOL    HW137673   0.809   0.039   5.708  0.2833 -0.7508  0.5756
 8738SOL    HW237674   0.767   4.615   5.709  1.4927 -1.1504  1.8380
 8739SOL     OW37675   2.380   1.577   0.232  0.5983  0.8474 -0.3842
 8739SOL    HW137676   2.447   1.543   0.173  0.6575  1.0258 -0.4197
 8739SOL    HW237677   2.389   1.671   0.218 -0.7266  0.9514 -0.5741
 8740SOL     OW37678   3.551   4.344   5.147  0.0057  0.4580  0.3925
 8740SOL    HW137679   3.590   4.417   5.099 -1.4676  0.9604 -0.0413
 8740SOL    HW237680   3.467   4.382   5.172  0.2073 -0.0469  1.8407
 8741SOL     OW37681   3.473   2.307   7.060  0.0862 -0.3127 -0.1154
 8741SOL    HW137682   3.538   2.262   7.005 -0.7502  0.7655 -1.9992
 8741SOL    HW237683   3.506   2.307   7.149 -1.4557 -0.2272  0.4489
 8742SOL     OW37684   3.024   1.212   1.597  0.3194 -0.3762  0.4164
 8742SOL    HW137685   3.048   1.204   1.690  1.7843 -1.8110 -0.0939
 8742SOL    HW237686   3.108   1.203   1.552 -0.0243 -4.0410  0.5205
 8743SOL     OW37687   2.428   2.557   7.189 -0.4595 -0.2567 -0.0993
 8743SOL    HW137688   2.360   2.616   7.156 -0.3935  0.2834  0.7351
 8743SOL    HW237689   2.368   2.518   7.253  1.4259 -3.2275 -0.1730
 8744SOL     OW37690   3.635   3.783  16.087  0.6183  0.5726 -0.0780
 8744SOL    HW137691   3.556   3.828  16.058  0.7692  1.7492  1.3527
 8744SOL    HW237692   3.687   3.859  16.112  2.0771 -0.6156  0.4809
 8745SOL     OW37693   2.602   0.049   7.236 -0.0550  0.3158  0.5749
 8745SOL    HW137694   2.612   0.031   7.329  1.8727  1.5853  0.6260
 8745SOL    HW237695   2.690   0.074   7.207 -0.4921  1.2837  0.0888
 8746SOL     OW37696   1.010   2.907   3.046  0.2847  0.7894  0.2554
 8746SOL    HW137697   1.027   2.981   2.988 -0.8283  1.1711  0.4190
 8746SOL    HW237698   0.926   2.879   3.009  1.6046  0.0333 -2.1881
 8747SOL     OW37699   1.448   1.267   6.923 -0.2325  0.1383 -0.3765
 8747SOL    HW137700   1.497   1.222   6.854 -0.3582 -1.4358  0.5835
 8747SOL    HW237701   1.372   1.210   6.931 -1.0649  1.2741 -0.2974
 8748SOL     OW37702   2.024   2.226  16.333 -0.2892 -0.1475 -0.5034
 8748SOL    HW137703   2.089   2.293  16.310  0.1718 -0.7064 -0.8210
 8748SOL    HW237704   1.939   2.269  16.330 -0.3074 -0.1764 -0.3591
 8749SOL     OW37705   1.702   1.505   7.459  0.3389  0.5394 -0.0841
 8749SOL    HW137706   1.754   1.493   7.379 -1.1814  0.8037 -1.1274
 8749SOL    HW237707   1.733   1.424   7.499  1.0628  0.5583 -0.5956
 8750SOL     OW37708   1.814   0.063   2.091 -0.5068 -0.0759  0.4537
 8750SOL    HW137709   1.767   0.022   2.019 -1.1394 -0.0203  0.8319
 8750SOL    HW237710   1.873   4.714   2.113 -0.5080 -0.0491  0.5443
 8751SOL     OW37711   0.721   4.153  12.612 -0.1196  0.1210 -0.3564
 8751SOL    HW137712   0.700   4.212  12.539 -0.6895  1.6495  1.0652
 8751SOL    HW237713   0.813   4.179  12.614 -0.5295  1.6974 -1.9672
 8752SOL     OW37714   2.688   2.117   5.828  0.1727  0.4204 -0.8695
 8752SOL    HW137715   2.642   2.171   5.892 -0.1718 -1.0476  0.1190
 8752SOL    HW237716   2.768   2.122   5.880 -1.2971  1.4142  1.2551
 8753SOL     OW37717   4.530   1.794   4.543  0.3773  0.0079  0.3532
 8753SOL    HW137718   4.461   1.738   4.506  1.7953 -1.9220  0.6509
 8753SOL    HW237719   4.595   1.790   4.473 -0.0569 -0.2479 -0.0365
 8754SOL     OW37720   0.138   4.649   6.596 -0.1775  0.3956 -0.1366
 8754SOL    HW137721   0.096   4.656   6.682  2.3306 -0.4376  1.1939
 8754SOL    HW237722   0.153   4.555   6.592  1.4017  0.7312 -1.7931
 8755SOL     OW37723   1.487   1.675   0.631 -0.4458  0.0155 -0.0717
 8755SOL    HW137724   1.460   1.657   0.721 -1.9004  0.1898 -0.4628
 8755SOL    HW237725   1.457   1.765   0.619  0.3455  0.2405 -0.3253
 8756SOL     OW37726   1.405   1.549   8.137  0.4644 -0.2092  0.4411
 8756SOL    HW137727   1.474   1.488   8.165  1.1250 -1.1040 -3.0631
 8756SOL    HW237728   1.328   1.498   8.162 -0.1341 -0.5364 -2.0126
 8757SOL     OW37729   3.523   2.979   6.572 -0.3410  0.2483 -0.3946
 8757SOL    HW137730   3.574   3.051   6.610  0.1475 -1.0966  1.4736
 8757SOL    HW237731   3.440   2.996   6.615  0.9954 -0.5925  2.5422
 8758SOL     OW37732   2.035   4.090   2.986  0.3015  0.0284 -0.6071
 8758SOL    HW137733   2.089   4.149   3.040  0.6924  1.3896 -2.5029
 8758SOL    HW237734   2.091   4.077   2.910  0.0083 -1.2881 -0.5977
 8759SOL     OW37735   4.558   3.570  16.966  0.5841  0.7348 -0.4484
 8759SOL    HW137736   4.512   3.640  17.012 -0.0472  0.1245 -0.1523
 8759SOL    HW237737   4.507   3.544  16.890  1.0679 -1.3082 -0.0687
 8760SOL     OW37738   4.159   3.057  15.425 -0.7831 -0.0416  0.4380
 8760SOL    HW137739   4.116   2.984  15.379 -0.2533  0.7062 -1.2364
 8760SOL    HW237740   4.079   3.101  15.455 -2.0682 -2.8078  1.0750
 8761SOL     OW37741   1.778   3.184   0.264 -0.7471  0.3154 -0.2770
 8761SOL    HW137742   1.772   3.259   0.323  1.3902 -0.5225  1.0115
 8761SOL    HW237743   1.779   3.235   0.184  0.2190 -0.5122 -0.7946
 8762SOL     OW37744   0.842   1.634   8.699 -0.3331  0.2371 -0.5412
 8762SOL    HW137745   0.781   1.571   8.661 -0.6348 -0.3226  0.8490
 8762SOL    HW237746   0.907   1.645   8.630  0.1528  0.0788 -0.1109
 8763SOL     OW37747   2.091   3.776   2.997 -0.2528  0.5084  0.1480
 8763SOL    HW137748   2.087   3.871   2.989 -1.4750  0.4161 -0.4154
 8763SOL    HW237749   2.142   3.757   2.919  0.5994 -0.6193  0.9869
 8764SOL     OW37750   1.945   1.205  11.049 -0.5920  0.1856 -0.0872
 8764SOL    HW137751   1.988   1.213  10.964  1.8184 -1.0093  1.0271
 8764SOL    HW237752   1.859   1.173  11.022 -0.1764  0.5672 -1.8656
 8765SOL     OW37753   0.691   0.248  16.810  0.3164  0.7696 -0.0576
 8765SOL    HW137754   0.741   0.178  16.768  2.1691  1.6645  0.6248
 8765SOL    HW237755   0.612   0.201  16.836  0.2482  0.5596 -0.6479
 8766SOL     OW37756   4.714   0.644   2.598  0.0105 -0.1674  0.4686
 8766SOL    HW137757   0.003   0.563   2.548 -0.6576  0.4570 -0.6973
 8766SOL    HW237758   0.047   0.695   2.540 -0.1896  0.0534  0.4705
 8767SOL     OW37759   4.288   2.529   3.827  0.0809 -0.0155  0.1284
 8767SOL    HW137760   4.281   2.504   3.735  0.0733  0.3099  0.0384
 8767SOL    HW237761   4.209   2.583   3.825  0.4556  0.4929 -0.6379
 8768SOL     OW37762   3.652   1.783   3.679  0.3664  0.5319 -0.7045
 8768SOL    HW137763   3.559   1.773   3.700  0.8944  1.3896  2.0546
 8768SOL    HW237764   3.679   1.735   3.757  1.1581  0.4861 -1.0082
 8769SOL     OW37765   0.083   2.373  17.518 -0.1014  0.0964 -0.3928
 8769SOL    HW137766   0.025   2.439  17.481 -4.3705 -4.1396 -1.2078
 8769SOL    HW237767   0.042   2.291  17.491  0.0468  0.0139 -0.3670
 8770SOL     OW37768   1.708   2.514   1.472 -0.3834 -0.1464 -0.3560
 8770SOL    HW137769   1.724   2.507   1.378  0.6017  0.8074 -0.2559
 8770SOL    HW237770   1.665   2.433   1.500 -1.4236  0.3490 -0.5210
 8771SOL     OW37771   1.221   3.431  16.835  0.0441 -0.7792 -0.2597
 8771SOL    HW137772   1.151   3.375  16.870 -0.8301  1.1700  1.0528
 8771SOL    HW237773   1.296   3.372  16.839 -1.3324 -2.4490  1.1051
 8772SOL     OW37774   2.880   2.472   9.165 -0.0849  0.0970 -0.3936
 8772SOL    HW137775   2.880   2.566   9.147 -0.0393 -0.0956 -1.3920
 8772SOL    HW237776   2.790   2.462   9.197  0.1934  1.7992  0.9535
 8773SOL     OW37777   1.006   1.655  13.530  0.1726  0.1341  0.0824
 8773SOL    HW137778   0.964   1.571  13.508  1.0066 -0.5240  0.9813
 8773SOL    HW237779   1.084   1.630  13.580  0.3281  0.6931  0.1170
 8774SOL     OW37780   2.045   2.051   4.601  0.1982  0.7037  0.1684
 8774SOL    HW137781   2.105   2.058   4.676  1.2124  2.1083 -0.7789
 8774SOL    HW237782   2.008   2.140   4.602 -1.7012 -0.0911  2.4626
 8775SOL     OW37783   1.579   3.821  15.537 -0.2484 -0.2228 -0.0761
 8775SOL    HW137784   1.597   3.794  15.446 -1.0761 -1.3167  0.0752
 8775SOL    HW237785   1.603   3.913  15.531  1.3635 -0.5792  0.8673
 8776SOL     OW37786   3.118   3.781   1.124 -0.5158 -0.4414 -0.2810
 8776SOL    HW137787   3.057   3.855   1.120  0.9203  0.7132 -0.5956
 8776SOL    HW237788   3.082   3.726   1.055  4.3904 -1.5259 -1.9236
 8777SOL     OW37789   0.357   0.106  15.101 -0.5464  0.1722 -0.0999
 8777SOL    HW137790   0.448   0.075  15.105 -1.8516 -3.7486 -1.0293
 8777SOL    HW237791   0.331   0.122  15.192  1.5512  0.7091  0.4086
 8778SOL     OW37792   0.720   0.503   5.975 -0.1120 -0.0973  1.0940
 8778SOL    HW137793   0.634   0.521   6.013 -1.0754  0.0615 -1.1997
 8778SOL    HW237794   0.731   0.410   5.996 -2.4220 -1.2682 -2.9167
 8779SOL     OW37795   1.886   1.903  12.314 -0.6817  0.1084  0.0585
 8779SOL    HW137796   1.860   1.885  12.224  0.5941  0.7077 -0.4265
 8779SOL    HW237797   1.961   1.960  12.300 -2.0449  1.3950 -1.9378
 8780SOL     OW37798   1.220   3.364   6.341 -0.0087  0.7117 -0.3425
 8780SOL    HW137799   1.287   3.397   6.281  0.3725  1.3187  0.4150
 8780SOL    HW237800   1.268   3.363   6.424 -0.9783 -2.6511  0.1918
 8781SOL     OW37801   0.183   1.899   7.110 -0.2253  0.4856  0.0173
 8781SOL    HW137802   0.202   1.840   7.037  1.5099  1.2628 -0.1564
 8781SOL    HW237803   0.098   1.938   7.089 -1.3344 -1.9005  0.0752
 8782SOL     OW37804   1.789   2.055   4.880 -0.5235  0.1657  0.0767
 8782SOL    HW137805   1.725   2.097   4.822 -0.5472  0.2722  0.1802
 8782SOL    HW237806   1.775   1.960   4.878 -0.7058  0.2032 -0.5780
 8783SOL     OW37807   1.866   4.534   3.600  0.0017 -0.1847 -0.8085
 8783SOL    HW137808   1.895   4.621   3.626  1.1612  0.1632 -3.2131
 8783SOL    HW237809   1.924   4.534   3.523 -0.7901 -0.4400 -1.4053
 8784SOL     OW37810   0.354   1.931   2.889  0.0498  0.1107 -0.6471
 8784SOL    HW137811   0.371   1.841   2.861  0.6670  0.4146 -1.2601
 8784SOL    HW237812   0.359   1.923   2.984 -2.8428 -0.5695 -0.5378
 8785SOL     OW37813   2.742   3.549  12.963  0.0240  0.1556 -0.0120
 8785SOL    HW137814   2.816   3.575  13.018 -0.3725 -3.2230  2.1737
 8785SOL    HW237815   2.716   3.630  12.919 -0.7240  1.2338  2.3867
 8786SOL     OW37816   4.603   0.622   6.681 -0.1424  0.1730 -0.5174
 8786SOL    HW137817   4.616   0.663   6.766 -1.2790 -1.6466  0.5414
 8786SOL    HW237818   4.516   0.584   6.695 -0.3025  0.3090 -1.1247
 8787SOL     OW37819   2.882   3.836  14.537  0.0411  0.3504 -0.1618
 8787SOL    HW137820   2.805   3.832  14.479  1.0968  0.5665 -1.5770
 8787SOL    HW237821   2.903   3.929  14.529  3.2871 -0.4381 -0.5900
 8788SOL     OW37822   1.281   3.778  12.860 -0.1091  0.1391 -0.2949
 8788SOL    HW137823   1.284   3.690  12.821 -1.5063  0.0932 -0.2922
 8788SOL    HW237824   1.226   3.766  12.937 -0.5717  0.2028 -0.6180
 8789SOL     OW37825   2.573   4.252   5.439  0.2838 -0.7534  0.3564
 8789SOL    HW137826   2.605   4.301   5.364 -1.4479  2.4873  1.7306
 8789SOL    HW237827   2.483   4.282   5.453  0.5626  0.0366  0.4561
 8790SOL     OW37828   3.905   4.668   0.973 -0.2007  0.3350  0.0348
 8790SOL    HW137829   3.824   4.619   0.958  0.4419 -1.3221  1.8823
 8790SOL    HW237830   3.907   0.003   0.897 -1.1051 -0.2408 -0.4156
 8791SOL     OW37831   3.456   0.910  11.043  0.3039 -0.0410 -0.3435
 8791SOL    HW137832   3.419   0.905  11.131 -0.7212  1.2636 -0.6935
 8791SOL    HW237833   3.429   0.822  11.018  1.7049 -1.2357  2.3854
 8792SOL     OW37834   4.417   4.714   4.390  0.1616  0.3915  0.9359
 8792SOL    HW137835   4.402   0.056   4.459  2.1270 -1.5136  3.1875
 8792SOL    HW237836   4.479   0.039   4.336 -1.7241  0.3406 -1.2665
 8793SOL     OW37837   3.582   0.156   2.276 -0.5095  0.4575 -0.6539
 8793SOL    HW137838   3.596   0.079   2.330 -1.8230  0.6401 -0.0563
 8793SOL    HW237839   3.571   0.225   2.341  0.1705  1.1377 -1.2463
 8794SOL     OW37840   1.745   0.966   0.035 -0.6133 -0.1685  0.1452
 8794SOL    HW137841   1.806   0.963   0.108  0.8906  1.4775 -1.0646
 8794SOL    HW237842   1.772   0.900  17.663 -1.8683 -0.6120  0.0647
 8795SOL     OW37843   4.140   1.263  13.625 -0.0903 -0.2855  0.1474
 8795SOL    HW137844   4.162   1.333  13.687 -0.7320 -0.8538  1.0193
 8795SOL    HW237845   4.050   1.243  13.650  0.5107 -4.1566 -0.7703
 8796SOL     OW37846   0.959   2.507  17.095 -0.1566 -0.3558 -0.1958
 8796SOL    HW137847   0.929   2.420  17.069 -0.1159  0.2542 -2.2194
 8796SOL    HW237848   0.884   2.548  17.138  0.9599 -0.2318  1.6231
 8797SOL     OW37849   4.357   0.564  10.213 -0.5899  0.0243  0.2468
 8797SOL    HW137850   4.327   0.548  10.302  0.1526 -1.0705  0.3037
 8797SOL    HW237851   4.315   0.493  10.164 -0.0963  0.7787 -1.2656
 8798SOL     OW37852   0.857   0.734  10.902  0.1398 -0.5571  0.0566
 8798SOL    HW137853   0.884   0.808  10.957 -1.2951 -0.1688  0.2411
 8798SOL    HW237854   0.854   0.780  10.817 -3.4862  2.0372  1.5920
 8799SOL     OW37855   2.245   3.599   7.045  0.1138  0.8596  0.2344
 8799SOL    HW137856   2.261   3.693   7.037 -0.8803  1.1915  1.9970
 8799SOL    HW237857   2.333   3.564   7.029 -0.4743  0.2326 -1.5342
 8800SOL     OW37858   4.545   4.114   8.671  0.4495 -0.5422  0.1290
 8800SOL    HW137859   4.543   4.062   8.751  0.8717 -1.1193 -0.2278
 8800SOL    HW237860   4.524   4.043   8.610 -0.5757 -0.2302  0.1241
 8801SOL     OW37861   0.508   4.202   4.937 -0.4504  0.8478  0.9273
 8801SOL    HW137862   0.451   4.137   4.979 -0.0262 -1.1389 -1.5311
 8801SOL    HW237863   0.451   4.279   4.932 -2.3702 -0.5234  1.6461
 8802SOL     OW37864   1.789   2.879   6.257  0.3631 -0.0572  0.2622
 8802SOL    HW137865   1.873   2.834   6.246  0.5711  0.4857 -0.3607
 8802SOL    HW237866   1.810   2.961   6.212  1.5526 -1.6154 -1.9870
 8803SOL     OW37867   3.133   3.357   8.847 -0.1684 -0.8735  0.5676
 8803SOL    HW137868   3.040   3.376   8.862 -0.3013 -0.0672 -1.2788
 8803SOL    HW237869   3.127   3.350   8.751 -1.8234 -1.0064  0.6722
 8804SOL     OW37870   1.951   1.516   2.928 -0.2063 -0.3055  0.4509
 8804SOL    HW137871   1.865   1.548   2.901 -1.1950 -0.3442  3.5973
 8804SOL    HW237872   1.987   1.599   2.960  0.0713 -0.1406 -0.2830
 8805SOL     OW37873   1.404   0.304  10.166  0.2975 -0.3854  0.0583
 8805SOL    HW137874   1.433   0.312  10.257 -0.5901  0.8243  0.2221
 8805SOL    HW237875   1.374   0.393  10.152  0.5466 -0.1967  0.7161
 8806SOL     OW37876   3.757   4.040   2.638 -0.0420 -0.0638  0.2450
 8806SOL    HW137877   3.715   4.032   2.723 -1.0833  3.0990  0.0246
 8806SOL    HW237878   3.840   4.081   2.663 -0.5393  2.4539 -2.1154
 8807SOL     OW37879   4.458   2.436   2.156 -0.1506 -0.4829  0.3285
 8807SOL    HW137880   4.487   2.356   2.112 -0.3567  1.1606 -2.7696
 8807SOL    HW237881   4.545   2.465   2.181 -0.7116 -0.5148  2.3422
 8808SOL     OW37882   4.256   4.064   4.825 -0.2957  0.3885  0.3035
 8808SOL    HW137883   4.241   4.058   4.919 -1.0083 -3.4728 -0.0645
 8808SOL    HW237884   4.166   4.066   4.792 -0.0321 -0.9511 -0.5201
 8809SOL     OW37885   3.405   0.413   9.043 -0.3905 -0.5555 -0.2198
 8809SOL    HW137886   3.445   0.491   9.005  2.0414 -1.2682  0.9075
 8809SOL    HW237887   3.410   0.437   9.136 -2.5032 -1.1071  0.0425
 8810SOL     OW37888   3.888   4.480   5.311 -0.5513 -0.0622  0.1582
 8810SOL    HW137889   3.943   4.521   5.244 -1.3452 -0.3667 -0.6874
 8810SOL    HW237890   3.805   4.527   5.296  0.3034  1.7127  0.9595
 8811SOL     OW37891   3.459   4.417   5.679  0.4862  0.3848 -0.2338
 8811SOL    HW137892   3.546   4.450   5.700  0.9826 -1.7457  1.1125
 8811SOL    HW237893   3.465   4.397   5.586 -0.3713  1.4585 -0.5216
 8812SOL     OW37894   2.514   2.868   4.205  0.1027  0.0947  0.0693
 8812SOL    HW137895   2.447   2.864   4.273 -0.9185  0.2775 -0.9223
 8812SOL    HW237896   2.585   2.896   4.263  0.2585 -0.0070 -0.0722
 8813SOL     OW37897   1.325   0.221  16.147 -0.3447 -0.3132  0.7410
 8813SOL    HW137898   1.258   0.176  16.199 -0.0882  0.4620  1.7345
 8813SOL    HW237899   1.383   0.247  16.219  0.6651  0.1136 -0.2309
 8814SOL     OW37900   2.547   4.415   5.221 -0.1713  0.2601  0.0785
 8814SOL    HW137901   2.486   4.427   5.149  0.6607  0.3232 -0.6091
 8814SOL    HW237902   2.617   4.365   5.179 -0.6492 -1.0508  0.8281
 8815SOL     OW37903   1.942   0.989  10.146 -0.1336 -0.3074 -0.2532
 8815SOL    HW137904   1.901   1.075  10.145 -0.6107 -0.5145  1.5756
 8815SOL    HW237905   2.017   0.988  10.086 -0.0984 -0.3031 -0.2085
 8816SOL     OW37906   2.418   2.645   7.687  0.0518  0.0077 -0.3218
 8816SOL    HW137907   2.455   2.573   7.636 -0.3997  0.3400 -1.1182
 8816SOL    HW237908   2.495   2.682   7.731  0.3674  1.9095 -2.4806
 8817SOL     OW37909   4.566   1.522  11.767 -0.2626 -0.1758  0.3342
 8817SOL    HW137910   4.595   1.442  11.724 -0.7731  0.0682 -0.4651
 8817SOL    HW237911   4.473   1.506  11.753  0.3354 -1.6903 -1.9158
 8818SOL     OW37912   0.444   1.209   3.119  0.1100  0.1742 -0.7861
 8818SOL    HW137913   0.380   1.252   3.063 -0.7032  0.6151  0.4829
 8818SOL    HW237914   0.508   1.280   3.129  0.3655 -0.1648  0.0075
 8819SOL     OW37915   0.503   4.607  13.337  0.4425 -0.0741 -0.1168
 8819SOL    HW137916   0.594   4.576  13.332  0.4206 -0.5177  2.5595
 8819SOL    HW237917   0.478   4.591  13.246 -0.5794  1.5838 -0.1161
 8820SOL     OW37918   4.711   1.600   8.042  0.3097  0.1426  0.5585
 8820SOL    HW137919   4.654   1.533   8.003  2.2986 -0.5753 -1.1123
 8820SOL    HW237920   0.060   1.538   8.056 -0.4571 -1.1862 -1.3168
 8821SOL     OW37921   0.385   3.984   2.513 -0.0345  0.4883  0.2045
 8821SOL    HW137922   0.349   4.042   2.446 -1.2558 -0.6992 -0.1723
 8821SOL    HW237923   0.457   3.946   2.463 -1.0415 -0.4342 -0.5690
 8822SOL     OW37924   3.245   3.325   6.601 -0.4997  0.3983 -0.1891
 8822SOL    HW137925   3.202   3.343   6.684  0.8830  1.4440  0.2985
 8822SOL    HW237926   3.328   3.282   6.619 -1.5425 -1.3463  0.4392
 8823SOL     OW37927   0.579   1.006   9.106 -0.1583  0.8503  0.3329
 8823SOL    HW137928   0.604   1.017   9.197  1.8222  2.1714 -0.3757
 8823SOL    HW237929   0.661   1.031   9.063 -1.8644  2.0768 -2.2673
 8824SOL     OW37930   1.725   2.409   5.140 -0.2733  0.1943 -0.4936
 8824SOL    HW137931   1.650   2.433   5.195  0.8837 -1.0621  1.6050
 8824SOL    HW237932   1.737   2.496   5.101  1.0314 -0.7311 -2.1467
 8825SOL     OW37933   4.022   0.323  13.428  0.9719  0.1521 -0.6283
 8825SOL    HW137934   3.944   0.373  13.405  2.7171  1.8242 -2.9081
 8825SOL    HW237935   4.081   0.338  13.354  0.5355  0.7972 -0.8475
 8826SOL     OW37936   3.686   1.703   4.433  0.4437  0.2553  0.5623
 8826SOL    HW137937   3.629   1.689   4.357  0.1275  1.8930  0.5095
 8826SOL    HW237938   3.697   1.613   4.465  0.1515 -0.4137 -1.2405
 8827SOL     OW37939   4.574   0.518   6.348  0.0765 -0.1700  0.2868
 8827SOL    HW137940   4.545   0.432   6.317 -0.3651  0.5955 -1.3822
 8827SOL    HW237941   4.627   0.545   6.273  0.0171  0.5898  0.5245
 8828SOL     OW37942   3.977   0.656   1.446 -0.4265 -0.1247  0.2618
 8828SOL    HW137943   3.956   0.691   1.533 -0.5999  0.1102  0.1247
 8828SOL    HW237944   3.977   0.740   1.401 -0.7034 -1.4360 -2.1724
 8829SOL     OW37945   0.619   4.182   7.928  0.2281  0.1557  0.2595
 8829SOL    HW137946   0.648   4.101   7.971  1.2809  0.8727  0.9235
 8829SOL    HW237947   0.703   4.225   7.911  0.2447  0.0177 -0.0094
 8830SOL     OW37948   2.279   4.132  10.784 -0.4119  0.2279  0.4913
 8830SOL    HW137949   2.193   4.148  10.747 -0.2940 -1.0935 -0.3819
 8830SOL    HW237950   2.289   4.037  10.769 -0.2540  0.1936  0.8087
 8831SOL     OW37951   3.378   2.148   7.306  0.4505 -0.0566 -0.4058
 8831SOL    HW137952   3.447   2.123   7.368 -1.2099 -0.9237  1.0921
 8831SOL    HW237953   3.337   2.216   7.359  2.6119  2.1559 -1.5696
 8832SOL     OW37954   0.022   1.673  12.200 -0.1344 -0.0214  0.1430
 8832SOL    HW137955   4.660   1.648  12.164  0.8275 -1.0412 -1.3919
 8832SOL    HW237956   0.004   1.767  12.206  0.4125  0.1900 -1.4177
 8833SOL     OW37957   0.274   3.268   4.808 -0.7679  0.3018  0.2130
 8833SOL    HW137958   0.268   3.240   4.717  2.3902 -0.5936  0.3038
 8833SOL    HW237959   0.287   3.361   4.786 -2.0710  0.3363 -0.4420
 8834SOL     OW37960   4.091   3.537   8.471 -0.4283 -0.5716 -0.3597
 8834SOL    HW137961   4.062   3.607   8.414  0.3715  1.3980  1.6530
 8834SOL    HW237962   4.185   3.536   8.450 -0.3512  1.3458 -0.0996
 8835SOL     OW37963   3.856   2.937   4.684 -0.0319 -0.3741  0.4500
 8835SOL    HW137964   3.926   2.881   4.716 -0.2234 -0.3004  1.0027
 8835SOL    HW237965   3.782   2.905   4.735 -1.0549  0.5968 -0.4270
 8836SOL     OW37966   0.693   0.527   2.708  0.1319  0.0634 -0.1973
 8836SOL    HW137967   0.728   0.554   2.623  1.4355 -1.0796 -0.0210
 8836SOL    HW237968   0.627   0.595   2.723  1.7319  1.7110 -0.7387
 8837SOL     OW37969   4.119   2.521  11.541  0.2613 -0.2220 -0.1398
 8837SOL    HW137970   4.067   2.596  11.513  1.4384 -0.4713 -2.9215
 8837SOL    HW237971   4.056   2.451  11.525 -0.6252  0.1380  1.6930
 8838SOL     OW37972   1.538   4.077   3.306  0.0703 -0.1010 -0.3315
 8838SOL    HW137973   1.450   4.068   3.342 -0.0723  0.5550 -0.5233
 8838SOL    HW237974   1.589   4.081   3.387 -2.8508  0.6288  1.4682
 8839SOL     OW37975   1.763   4.553   8.183  0.4505 -0.5547 -0.1106
 8839SOL    HW137976   1.694   4.514   8.130  0.5961 -1.3910  0.3133
 8839SOL    HW237977   1.803   4.625   8.134  4.3123 -1.6062  1.4484
 8840SOL     OW37978   1.582   3.704   8.210  0.3341 -0.4806 -0.5262
 8840SOL    HW137979   1.527   3.777   8.238  1.0442 -0.5010  0.9197
 8840SOL    HW237980   1.650   3.693   8.276 -0.7587 -1.9436  0.3620
 8841SOL     OW37981   2.618   3.142  13.252  0.0291 -0.5082  0.1445
 8841SOL    HW137982   2.652   3.187  13.174 -1.8579 -0.6377 -0.7580
 8841SOL    HW237983   2.680   3.159  13.322 -0.3634  2.0725 -0.1352
 8842SOL     OW37984   3.518   0.918   8.786  0.2698  0.1058  0.1938
 8842SOL    HW137985   3.476   0.911   8.700  0.2142 -0.6187  0.2806
 8842SOL    HW237986   3.489   0.839   8.831  0.5879 -0.2740 -0.2730
 8843SOL     OW37987   0.312   2.494   4.845 -0.3263  0.3038  0.1944
 8843SOL    HW137988   0.247   2.524   4.908 -0.2388 -0.8370  0.8373
 8843SOL    HW237989   0.327   2.580   4.806  0.5614  0.2160  0.3500
 8844SOL     OW37990   1.662   0.395  15.353  0.0903  0.2553 -0.3309
 8844SOL    HW137991   1.587   0.363  15.304 -0.6565  0.0542  0.9496
 8844SOL    HW237992   1.654   0.325  15.419  2.7131  0.7867  0.5606
 8845SOL     OW37993   1.730   0.439   0.481  0.1276 -0.5139 -0.1718
 8845SOL    HW137994   1.780   0.506   0.436  0.8107 -1.4986 -0.8599
 8845SOL    HW237995   1.649   0.490   0.490  1.0121  0.7570  0.5245
 8846SOL     OW37996   4.097   1.194   4.835  0.2472 -0.0647  0.3080
 8846SOL    HW137997   4.092   1.178   4.741  1.5644 -1.2484  0.4401
 8846SOL    HW237998   4.193   1.193   4.842  0.2816 -3.1183 -0.7767
 8847SOL     OW37999   2.203   1.733  11.231  0.4573 -0.0045 -0.5729
 8847SOL    HW138000   2.271   1.726  11.297  1.0213 -2.5564 -1.4499
 8847SOL    HW238001   2.241   1.806  11.181  2.1909 -0.6194 -0.1400
 8848SOL     OW38002   1.401   0.670  14.461  0.2782 -0.1287 -0.1460
 8848SOL    HW138003   1.397   0.744  14.401 -0.5913 -3.1008 -3.7654
 8848SOL    HW238004   1.360   0.711  14.538  0.5727 -0.2853  0.0967
 8849SOL     OW38005   1.640   2.738  15.252 -0.4692 -0.2700  0.3499
 8849SOL    HW138006   1.660   2.829  15.229  0.0723 -0.7376 -1.0622
 8849SOL    HW238007   1.552   2.754  15.287 -1.1730 -2.0383 -0.6068
 8850SOL     OW38008   0.436   3.211   0.335  0.0489  0.0378 -0.2633
 8850SOL    HW138009   0.376   3.283   0.351  0.4079  0.7010 -1.9083
 8850SOL    HW238010   0.401   3.157   0.264 -0.6474 -0.7733  0.7039
 8851SOL     OW38011   4.374   2.435  10.253 -0.1321 -0.4838  0.1239
 8851SOL    HW138012   4.337   2.347  10.242 -0.2637 -0.6169  1.7234
 8851SOL    HW238013   4.318   2.479  10.189  2.2936  0.6884 -1.2290
 8852SOL     OW38014   0.107   4.573   8.216  0.1553 -0.6372 -0.3919
 8852SOL    HW138015   0.128   4.548   8.126  0.6870 -2.2846  0.1829
 8852SOL    HW238016   0.192   4.582   8.259  0.6028 -1.7391 -1.0357
 8853SOL     OW38017   4.453   0.803   3.382 -0.0939  0.3480 -0.1094
 8853SOL    HW138018   4.395   0.797   3.307 -1.5170  0.5254  0.9710
 8853SOL    HW238019   4.413   0.740   3.443 -2.2838  0.2987 -1.5848
 8854SOL     OW38020   2.000   4.571   1.781 -0.1856  0.0328  0.1655
 8854SOL    HW138021   1.952   4.626   1.720 -0.3659 -1.0250 -0.6516
 8854SOL    HW238022   1.993   4.620   1.862 -0.7134 -0.3403  0.3461
 8855SOL     OW38023   4.655   1.778  17.284 -0.3970  0.4429  0.0305
 8855SOL    HW138024   0.014   1.809  17.244  0.6929 -1.9167  0.4306
 8855SOL    HW238025   4.589   1.839  17.251  1.7933  2.3323 -0.8471
 8856SOL     OW38026   2.608   1.085   7.969 -0.5006  0.1148  0.4100
 8856SOL    HW138027   2.611   1.064   7.876  0.9567  0.8494  0.2760
 8856SOL    HW238028   2.559   1.013   8.006  1.0933 -1.2291 -0.1065
 8857SOL     OW38029   4.712   1.754   3.371  0.7449 -0.0758 -0.7299
 8857SOL    HW138030   0.046   1.685   3.407 -0.7187 -1.2317 -0.6405
 8857SOL    HW238031   4.650   1.757   3.444  0.4936 -0.4130 -0.9276
 8858SOL     OW38032   2.041   3.778   2.352  0.7021 -0.4569  0.0182
 8858SOL    HW138033   2.059   3.684   2.364  0.0691 -0.6094 -0.2176
 8858SOL    HW238034   2.021   3.792   2.260  1.7273  0.6134 -0.0346
 8859SOL     OW38035   4.083   0.145   8.124 -0.3200  0.2381  0.0776
 8859SOL    HW138036   4.133   0.143   8.205 -1.5991 -0.7481  0.8578
 8859SOL    HW238037   4.132   0.213   8.078 -0.5393 -0.0597 -0.6105
 8860SOL     OW38038   1.640   3.798  13.776  0.5810  0.6416 -0.0717
 8860SOL    HW138039   1.701   3.833  13.840 -1.0284 -1.0221  2.4158
 8860SOL    HW238040   1.699   3.771  13.706 -2.5329 -1.4656 -1.8887
 8861SOL     OW38041   2.701   0.545   9.305 -1.0540  0.1786 -0.5626
 8861SOL    HW138042   2.618   0.505   9.279 -1.7611  3.0185 -2.6777
 8861SOL    HW238043   2.751   0.534   9.224 -0.7710  1.5460 -0.5792
 8862SOL     OW38044   3.661   0.402   6.659 -0.4453 -0.2192  0.0869
 8862SOL    HW138045   3.752   0.430   6.646 -0.4191  0.0090  0.7379
 8862SOL    HW238046   3.670   0.324   6.604  1.0651  1.4223 -1.9868
 8863SOL     OW38047   3.891   4.229   6.674 -0.5671  0.1133  0.1834
 8863SOL    HW138048   3.977   4.260   6.700 -0.8452 -0.0021  1.2457
 8863SOL    HW238049   3.908   4.135   6.673 -1.5297 -0.0464 -0.9673
 8864SOL     OW38050   4.602   3.170   3.855  0.3182  0.6634 -0.7113
 8864SOL    HW138051   4.564   3.163   3.767  0.0977 -2.3952 -0.3694
 8864SOL    HW238052   4.678   3.114   3.841  0.4641  0.7462 -0.2255
 8865SOL     OW38053   1.834   2.665   1.640  0.2978 -0.3318 -0.0231
 8865SOL    HW138054   1.916   2.688   1.596  0.9028  0.4810  1.5388
 8865SOL    HW238055   1.789   2.616   1.571  2.5696 -1.0318 -0.9966
 8866SOL     OW38056   2.508   2.128  12.235 -0.1504  0.1136  0.4749
 8866SOL    HW138057   2.543   2.061  12.176  0.5781  0.2207  0.7970
 8866SOL    HW238058   2.587   2.180  12.248 -0.2503  0.4131 -0.0771
 8867SOL     OW38059   0.817   2.138   8.901  0.2239 -0.5660  0.3305
 8867SOL    HW138060   0.838   2.079   8.828 -1.9928 -1.2851  0.2778
 8867SOL    HW238061   0.790   2.078   8.970  0.8129 -0.0213  1.0332
 8868SOL     OW38062   4.542   2.354  14.423  0.1365 -0.5747  0.4339
 8868SOL    HW138063   4.575   2.442  14.436 -1.0340 -0.1216  0.3933
 8868SOL    HW238064   4.493   2.351  14.506  0.2335 -1.1745  0.4734
 8869SOL     OW38065   3.719   0.052   1.161  0.2434  0.0265 -0.4060
 8869SOL    HW138066   3.702   0.096   1.078 -0.7937 -1.1886 -0.8320
 8869SOL    HW238067   3.806   0.018   1.143  0.1756  1.0995 -2.7333
 8870SOL     OW38068   0.830   3.862   0.849  0.0382 -0.0956 -0.0540
 8870SOL    HW138069   0.795   3.932   0.795  0.8827  1.2768  1.1872
 8870SOL    HW238070   0.798   3.896   0.933 -0.5059 -1.8819  0.4683
 8871SOL     OW38071   3.946   1.980  11.884  0.4001 -0.4530 -0.9315
 8871SOL    HW138072   3.930   2.055  11.941 -0.8196 -2.2351  1.0533
 8871SOL    HW238073   4.035   1.956  11.911 -0.1818  1.2821  2.4355
 8872SOL     OW38074   2.659   0.623  14.157 -0.7987 -0.5599  0.3580
 8872SOL    HW138075   2.599   0.589  14.223  0.1166  0.0194  1.4931
 8872SOL    HW238076   2.644   0.717  14.162  2.0646 -0.0628 -0.4716
 8873SOL     OW38077   3.678   3.561  16.888 -0.2734 -0.3086  0.6900
 8873SOL    HW138078   3.729   3.640  16.908 -1.6956  1.0358 -1.0901
 8873SOL    HW238079   3.635   3.542  16.971 -0.5470 -2.5230  0.0406
 8874SOL     OW38080   2.982   4.605   9.649  0.1901  0.3044 -0.0985
 8874SOL    HW138081   2.996   4.671   9.581  0.3703  0.9363  0.5520
 8874SOL    HW238082   3.033   4.528   9.622 -2.0774 -1.7263  1.4002
 8875SOL     OW38083   0.688   2.910  14.182  0.8751  0.0326 -0.1731
 8875SOL    HW138084   0.740   2.889  14.259  0.1310  0.1055  0.3553
 8875SOL    HW238085   0.598   2.887  14.205  0.6283 -0.7362 -1.9246
 8876SOL     OW38086   0.177   0.048  15.338 -0.5252  0.6958 -0.0842
 8876SOL    HW138087   0.199   0.136  15.369  0.9638 -0.5712  2.4554
 8876SOL    HW238088   0.125   0.075  15.262  0.9998  1.5711 -0.8226
 8877SOL     OW38089   0.479   3.937   1.239  0.2947  0.0260 -0.4518
 8877SOL    HW138090   0.444   3.896   1.159 -0.8008 -1.1433  0.6347
 8877SOL    HW238091   0.471   4.029   1.214  1.5410  0.2172 -0.1444
 8878SOL     OW38092   0.199   3.221  15.247 -0.2572  0.0463 -0.4391
 8878SOL    HW138093   0.191   3.182  15.334  0.9707  1.3567  0.2783
 8878SOL    HW238094   0.199   3.313  15.276  3.6582 -0.3497  0.8392
 8879SOL     OW38095   0.218   2.287  13.214  0.7821  0.3061 -0.3071
 8879SOL    HW138096   0.289   2.327  13.264  0.6184  0.1593  0.0442
 8879SOL    HW238097   0.169   2.257  13.290  3.5441 -0.2958  1.2281
 8880SOL     OW38098   3.403   4.371  13.407  0.3711  0.1717 -0.0976
 8880SOL    HW138099   3.313   4.401  13.416  0.0704 -0.6582 -0.3195
 8880SOL    HW238100   3.389   4.276  13.402 -0.2474  0.2691 -0.1422
 8881SOL     OW38101   1.422   3.553   2.153 -0.5453  0.2546 -0.1297
 8881SOL    HW138102   1.494   3.606   2.118  0.8772 -2.5326 -1.4578
 8881SOL    HW238103   1.449   3.544   2.245  1.3734 -0.2930 -0.7392
 8882SOL     OW38104   0.909   4.369  11.462 -0.3079  0.1940 -0.3206
 8882SOL    HW138105   0.991   4.363  11.413 -0.2192  0.8779 -0.2504
 8882SOL    HW238106   0.846   4.333  11.400  1.0646 -0.0828 -1.5674
 8883SOL     OW38107   2.823   4.038  11.773  0.1901 -0.0954 -0.0912
 8883SOL    HW138108   2.742   3.988  11.778 -0.6633  1.4983  2.0473
 8883SOL    HW238109   2.806   4.091  11.695  1.2859 -3.1817 -2.4629
 8884SOL     OW38110   0.713   0.235   6.011 -0.3348  0.1808 -0.2177
 8884SOL    HW138111   0.765   0.177   6.066  2.1341  0.2110 -2.5508
 8884SOL    HW238112   0.629   0.189   6.017  1.0868 -2.4728 -0.8156
 8885SOL     OW38113   4.134   0.763   7.968  0.4829 -0.5249 -0.0779
 8885SOL    HW138114   4.221   0.744   7.933 -0.2827  0.8061 -2.7392
 8885SOL    HW238115   4.077   0.703   7.919  0.4568  0.2978 -1.0582
 8886SOL     OW38116   3.611   2.050  15.891 -0.5121  0.5148  0.5154
 8886SOL    HW138117   3.541   2.040  15.956 -0.1440  1.5606  1.0667
 8886SOL    HW238118   3.602   2.130  15.840  1.5859  1.2474  1.3193
 8887SOL     OW38119   0.301   2.620  16.843 -0.4598  0.3296 -0.0597
 8887SOL    HW138120   0.240   2.569  16.896  0.2185 -1.0491 -0.6160
 8887SOL    HW238121   0.366   2.555  16.815 -0.1884  1.3780 -1.8811
 8888SOL     OW38122   0.656   3.401   3.978  0.0438  0.2147 -0.2534
 8888SOL    HW138123   0.589   3.444   4.031 -0.6433 -0.1420 -0.8281
 8888SOL    HW238124   0.694   3.476   3.933  1.8297 -1.6544 -1.8477
 8889SOL     OW38125   1.418   3.329   4.819 -0.3742 -0.2784  0.1079
 8889SOL    HW138126   1.352   3.272   4.857 -2.3632  1.0185 -1.4000
 8889SOL    HW238127   1.379   3.389   4.756 -1.1102  1.6904  2.4087
 8890SOL     OW38128   4.061   0.430   5.526 -0.1473  0.7737  0.0844
 8890SOL    HW138129   4.070   0.444   5.432  1.9736 -0.1879  0.1555
 8890SOL    HW238130   3.993   0.362   5.536 -1.6245  1.9881 -1.7426
 8891SOL     OW38131   1.650   3.822   4.942  0.6006  0.4968  0.3174
 8891SOL    HW138132   1.606   3.767   4.877 -0.3612  0.1018  1.3129
 8891SOL    HW238133   1.589   3.831   5.015 -1.0893 -0.4499 -0.9952
 8892SOL     OW38134   3.631   3.914   1.630 -0.5561 -0.1074 -0.3086
 8892SOL    HW138135   3.605   3.984   1.690  1.8745  0.7812 -0.2627
 8892SOL    HW238136   3.578   3.930   1.552 -0.3780  0.7003 -0.2639
 8893SOL     OW38137   2.945   1.396   4.416  0.1954 -0.0758  0.0123
 8893SOL    HW138138   2.911   1.429   4.499 -2.0337 -3.2330  0.3899
 8893SOL    HW238139   2.870   1.423   4.362 -0.0119  0.0903  0.3808
 8894SOL     OW38140   0.232   1.680   1.744 -0.3496 -0.1070 -0.4843
 8894SOL    HW138141   0.202   1.759   1.698  0.8734  1.0177  0.6888
 8894SOL    HW238142   0.158   1.670   1.804  0.3018  0.6480  0.4405
 8895SOL     OW38143   1.235   3.452   2.747  1.0087  0.0696 -0.9493
 8895SOL    HW138144   1.221   3.365   2.711 -2.9081  0.4860 -0.4415
 8895SOL    HW238145   1.146   3.488   2.748  0.2581 -1.8084 -0.3166
 8896SOL     OW38146   2.040   3.603   7.233  0.3259  0.2595 -0.5554
 8896SOL    HW138147   1.966   3.586   7.175  0.0929  1.7170 -0.6863
 8896SOL    HW238148   2.106   3.590   7.165 -1.1861 -0.2580 -1.9483
 8897SOL     OW38149   4.558   4.721   8.675 -0.1002  0.4830 -0.0708
 8897SOL    HW138150   4.644   0.040   8.668  0.4860 -0.6279  0.4729
 8897SOL    HW238151   4.536   0.018   8.766  0.2572  1.9372 -0.3054
 8898SOL     OW38152   1.770   1.219  11.779  0.6564 -0.3617 -0.0474
 8898SOL    HW138153   1.857   1.206  11.741  1.0404  0.6340  0.5089
 8898SOL    HW238154   1.795   1.272  11.854 -0.8927  1.3278 -0.7115
 8899SOL     OW38155   4.623   4.547  14.002 -0.4533  0.1055 -0.5688
 8899SOL    HW138156   4.656   4.631  13.969  1.1260  0.7011  2.5224
 8899SOL    HW238157   4.675   4.484  13.953  0.8429 -0.1966  1.1878
 8900SOL     OW38158   4.607   3.558   9.831  0.1914  0.2249  0.2764
 8900SOL    HW138159   4.662   3.632   9.859  1.5353  0.0867 -2.0183
 8900SOL    HW238160   4.611   3.563   9.736 -2.0052 -1.6281  0.0996
 8901SOL     OW38161   1.552   1.593   9.156  0.3185  0.0121 -0.2932
 8901SOL    HW138162   1.506   1.674   9.132 -1.3889 -0.9971 -0.4565
 8901SOL    HW238163   1.516   1.581   9.244  1.1527  0.9830  0.1810
 8902SOL     OW38164   1.157   2.318  16.792  0.0264 -0.2213  0.0143
 8902SOL    HW138165   1.190   2.308  16.702  0.9365 -2.2535  0.5814
 8902SOL    HW238166   1.126   2.229  16.805 -0.2293 -0.1933 -0.3892
 8903SOL     OW38167   0.586   2.623   7.518  0.6155  0.2284  0.0058
 8903SOL    HW138168   0.579   2.548   7.459 -0.8644 -0.5408  1.1466
 8903SOL    HW238169   0.654   2.591   7.577  0.6611  1.1630  0.4639
 8904SOL     OW38170   2.422   2.269   7.581 -0.2631 -0.0104  0.0273
 8904SOL    HW138171   2.448   2.284   7.671  1.6249 -0.8538 -0.3919
 8904SOL    HW238172   2.326   2.275   7.584 -0.4015 -1.1238 -1.7448
 8905SOL     OW38173   0.431   4.047   6.838  0.4575  0.1796  0.2124
 8905SOL    HW138174   0.345   4.030   6.801 -0.0431  0.8527  1.0758
 8905SOL    HW238175   0.486   4.092   6.773  2.7092 -2.0536  0.5549
 8906SOL     OW38176   3.006   1.848  12.320 -0.1700  0.3689 -0.2007
 8906SOL    HW138177   3.055   1.836  12.402  0.0043  0.7780 -0.2440
 8906SOL    HW238178   2.919   1.877  12.348  0.2745  0.5559  1.0196
 8907SOL     OW38179   0.493   2.187   2.834 -0.0383  0.1111  0.7798
 8907SOL    HW138180   0.432   2.117   2.857  3.0120 -2.7288  0.3440
 8907SOL    HW238181   0.568   2.139   2.799 -1.3191 -2.0227  0.9813
 8908SOL     OW38182   3.577   2.896   6.232  0.0375  0.5969  0.4038
 8908SOL    HW138183   3.663   2.871   6.198 -0.4568  0.2589 -0.5849
 8908SOL    HW238184   3.585   2.877   6.326 -3.0200  1.0031  0.7298
 8909SOL     OW38185   2.816   1.456   4.649 -0.2929 -0.0189 -0.1275
 8909SOL    HW138186   2.731   1.411   4.642 -0.7831  0.8104  0.3905
 8909SOL    HW238187   2.828   1.443   4.743 -1.5227 -1.0828 -0.1144
 8910SOL     OW38188   2.585   0.405  16.325 -0.0708  0.1301  0.3905
 8910SOL    HW138189   2.649   0.455  16.377  0.2122  0.1601  0.0120
 8910SOL    HW238190   2.505   0.447  16.356  0.7933  2.4228 -0.4250
 8911SOL     OW38191   2.896   1.557   7.351  0.5447  0.1910 -0.2866
 8911SOL    HW138192   2.808   1.550   7.387  0.1446 -0.6733 -1.4104
 8911SOL    HW238193   2.922   1.648   7.363  0.5633  0.6911 -3.9461
 8912SOL     OW38194   2.195   1.388   6.479  0.2435 -0.4979 -0.0216
 8912SOL    HW138195   2.159   1.411   6.565  0.6721  0.4417 -0.0931
 8912SOL    HW238196   2.216   1.295   6.483 -1.1100 -0.7019  2.6598
 8913SOL     OW38197   2.797   3.248   4.217  0.0369  0.2589  0.2368
 8913SOL    HW138198   2.815   3.300   4.138  0.0265 -1.8573 -1.1809
 8913SOL    HW238199   2.703   3.236   4.210 -0.1317  1.2272  0.9390
 8914SOL     OW38200   1.893   3.483   3.329  0.3816 -1.2662 -0.0508
 8914SOL    HW138201   1.820   3.528   3.373  1.6845  0.4846  0.3310
 8914SOL    HW238202   1.975   3.530   3.347  0.3385 -1.6018  1.0384
 8915SOL     OW38203   1.522   3.229  10.574  0.2599 -0.3893  0.0924
 8915SOL    HW138204   1.616   3.212  10.581  0.3121 -0.1211  0.0251
 8915SOL    HW238205   1.496   3.268  10.657 -1.8942 -1.5242 -0.0483
 8916SOL     OW38206   1.187   0.661   4.286  0.0691 -0.2152  0.3593
 8916SOL    HW138207   1.145   0.681   4.370 -1.7470  1.3635 -0.9234
 8916SOL    HW238208   1.269   0.636   4.328  0.2028 -0.3950 -0.0130
 8917SOL     OW38209   2.047   3.176   5.750 -0.4809  0.3557  0.3891
 8917SOL    HW138210   1.973   3.224   5.787 -0.6567  1.1894 -1.0704
 8917SOL    HW238211   2.024   3.088   5.780 -4.3085  1.3089  0.2566
 8918SOL     OW38212   0.284   1.702   5.902 -0.6997 -0.2983 -0.4365
 8918SOL    HW138213   0.372   1.731   5.927 -0.1508 -2.2235 -0.1440
 8918SOL    HW238214   0.239   1.781   5.872 -1.9923 -1.4970 -1.6543
 8919SOL     OW38215   1.788   0.212   7.197  0.3492  0.1480  0.2677
 8919SOL    HW138216   1.753   0.261   7.272 -0.2982  0.8774 -0.5161
 8919SOL    HW238217   1.843   0.157   7.254  0.5721  1.3905  1.2799
 8920SOL     OW38218   1.665   0.279   4.774 -0.1471  0.2409 -0.0767
 8920SOL    HW138219   1.670   0.283   4.870 -1.4013  0.3090 -0.0154
 8920SOL    HW238220   1.721   0.204   4.756  0.7450  0.6590  0.9765
 8921SOL     OW38221   4.651   2.470   5.579 -0.3867  0.2014 -0.2558
 8921SOL    HW138222   4.608   2.549   5.613 -0.0203  0.2916 -0.0085
 8921SOL    HW238223   4.626   2.471   5.487 -0.0052  1.3792 -0.3401
 8922SOL     OW38224   3.603   3.183   7.388  0.6002 -0.4001  0.2287
 8922SOL    HW138225   3.562   3.097   7.400  1.0640 -0.5142  0.9769
 8922SOL    HW238226   3.551   3.231   7.452 -1.4938 -1.2546 -0.8289
 8923SOL     OW38227   4.441   2.868   3.667 -0.2271 -0.1102 -0.4611
 8923SOL    HW138228   4.460   2.835   3.755 -1.8359 -0.6172 -0.3073
 8923SOL    HW238229   4.366   2.817   3.637 -0.1964 -0.9470  0.8712
 8924SOL     OW38230   1.510   0.211   6.164  0.0918  0.0165 -0.4053
 8924SOL    HW138231   1.440   0.213   6.229  0.0246  0.8052 -0.4966
 8924SOL    HW238232   1.496   0.122   6.132  1.8856 -0.9746  1.5565
 8925SOL     OW38233   0.258   1.245   4.760  0.0734 -0.0082 -0.0943
 8925SOL    HW138234   0.167   1.264   4.736 -0.1811 -1.0720  0.0080
 8925SOL    HW238235   0.272   1.308   4.831 -0.0863 -0.6930  0.5501
 8926SOL     OW38236   0.110   4.393   7.354  0.6291  0.2175 -0.2359
 8926SOL    HW138237   0.025   4.351   7.370  0.4976  0.9041  0.9194
 8926SOL    HW238238   0.163   4.317   7.329  0.4144 -0.0312  0.0638
 8927SOL     OW38239   3.589   0.501   7.926  0.0710  0.4146 -0.0101
 8927SOL    HW138240   3.570   0.550   7.846  1.2041  0.3123 -0.3470
 8927SOL    HW238241   3.509   0.510   7.978  0.4207 -1.1229  0.8139
 8928SOL     OW38242   0.623   1.729  16.064 -0.1281  0.1465  0.2073
 8928SOL    HW138243   0.539   1.775  16.061 -0.9375 -1.2960  0.4632
 8928SOL    HW238244   0.637   1.724  15.970 -0.4723 -0.3659  0.1780
 8929SOL     OW38245   1.068   1.091   1.873  0.1145 -0.0729 -0.6429
 8929SOL    HW138246   1.127   1.105   1.799  0.9963  2.4166  0.5089
 8929SOL    HW238247   0.984   1.121   1.839 -2.1164 -2.4354  2.9094
 8930SOL     OW38248   4.413   1.459  14.254  0.1370 -0.1394 -0.1785
 8930SOL    HW138249   4.336   1.510  14.280  1.6237  2.1941 -0.3176
 8930SOL    HW238250   4.433   1.497  14.168  2.5752 -0.7265  0.1284
 8931SOL     OW38251   1.991   3.096   2.842  0.2887  0.3912  0.0599
 8931SOL    HW138252   2.046   3.021   2.823  1.7450  1.4677 -0.0264
 8931SOL    HW238253   2.025   3.132   2.923  0.6528 -1.0693  0.5488
 8932SOL     OW38254   3.074   1.923   2.943 -0.1429  0.2237 -0.6188
 8932SOL    HW138255   3.069   1.924   3.039 -0.9517 -0.9367 -0.6444
 8932SOL    HW238256   3.051   1.833   2.918  1.7973  0.2154 -2.3080
 8933SOL     OW38257   3.640   4.674   5.045 -0.0445 -0.5803  1.1755
 8933SOL    HW138258   3.568   4.641   4.990  0.8723  0.7539 -0.7848
 8933SOL    HW238259   3.647   0.042   5.016  1.4972 -1.6364 -1.6950
 8934SOL     OW38260   1.763   2.890   5.850 -0.3564  0.1290 -0.1106
 8934SOL    HW138261   1.701   2.836   5.801 -0.3233  0.6404 -0.7185
 8934SOL    HW238262   1.843   2.865   5.805 -0.6067 -1.7863  0.5267
 8935SOL     OW38263   0.934   3.069   5.115 -1.0764 -0.3166 -0.0803
 8935SOL    HW138264   0.900   3.033   5.032 -0.1743  0.0054 -0.5877
 8935SOL    HW238265   0.992   3.141   5.090  0.7541 -1.5789  0.5421
 8936SOL     OW38266   0.332   1.925   3.787 -0.4239 -0.0804  0.4770
 8936SOL    HW138267   0.375   1.842   3.807 -1.0740 -0.1517  1.5782
 8936SOL    HW238268   0.250   1.919   3.835 -0.9927 -0.1702 -0.4974
 8937SOL     OW38269   4.241   3.309   4.580  0.4319 -0.2316 -0.4609
 8937SOL    HW138270   4.201   3.228   4.610  1.4725 -0.5449  0.0833
 8937SOL    HW238271   4.228   3.310   4.485 -1.7743  1.9989 -0.1487
 8938SOL     OW38272   2.775   0.654  17.357 -0.2617 -0.3013 -0.2397
 8938SOL    HW138273   2.764   0.691  17.270  0.6456 -3.4182 -1.6720
 8938SOL    HW238274   2.766   0.560  17.347  0.9217 -0.4581  0.1604
 8939SOL     OW38275   0.627   3.778   4.003  0.2398 -0.3827 -0.2003
 8939SOL    HW138276   0.646   3.867   3.972  1.3180 -0.0361  1.4811
 8939SOL    HW238277   0.706   3.755   4.051 -1.6321 -2.4106  1.9311
 8940SOL     OW38278   4.205   1.077   3.722  0.0015  0.9539 -0.7226
 8940SOL    HW138279   4.198   1.170   3.744 -0.1650  0.0079  3.2122
 8940SOL    HW238280   4.261   1.075   3.645  1.9541 -1.8147  0.7650
 8941SOL     OW38281   2.965   0.851  15.942 -0.4026 -0.3251  0.5131
 8941SOL    HW138282   2.905   0.778  15.958 -0.4443 -0.6025 -0.9582
 8941SOL    HW238283   2.902   0.923  15.933  0.0282 -0.0239 -0.0421
 8942SOL     OW38284   0.780   3.923   9.160  0.5752 -0.3681 -0.2510
 8942SOL    HW138285   0.834   3.849   9.189  0.9719 -0.3197 -0.8558
 8942SOL    HW238286   0.814   3.985   9.224 -0.4335 -0.1124  0.0247
 8943SOL     OW38287   1.173   2.772  14.745 -0.0208  0.0959  0.0414
 8943SOL    HW138288   1.182   2.682  14.777  0.4680 -0.5530 -1.9741
 8943SOL    HW238289   1.080   2.791  14.760 -0.8313 -1.6458 -2.8594
 8944SOL     OW38290   1.122   3.462  13.687  0.2708 -0.4906 -0.3569
 8944SOL    HW138291   1.032   3.455  13.720  0.3763  0.0549  0.0658
 8944SOL    HW238292   1.142   3.545  13.732  0.8790 -0.6777 -0.2885
 8945SOL     OW38293   3.405   0.524   3.758 -0.4428  0.2019 -0.0712
 8945SOL    HW138294   3.380   0.613   3.733 -0.5756  1.0136  2.9168
 8945SOL    HW238295   3.484   0.539   3.810 -0.5410  0.6643 -0.0586
 8946SOL     OW38296   3.987   1.402   5.026  0.0338 -0.1527  0.7447
 8946SOL    HW138297   3.941   1.354   5.095  0.5218 -0.6160  0.7497
 8946SOL    HW238298   3.976   1.338   4.956 -0.0895  0.8305 -0.1236
 8947SOL     OW38299   4.025   3.733   5.202 -0.1698  0.5511 -0.9084
 8947SOL    HW138300   3.932   3.747   5.218  0.0161 -0.2198  0.8017
 8947SOL    HW238301   4.027   3.714   5.108  1.8280 -1.5600 -0.4574
 8948SOL     OW38302   3.282   1.796   8.197 -0.1070 -0.4650 -0.0109
 8948SOL    HW138303   3.206   1.748   8.231 -0.0216  0.8887  2.1000
 8948SOL    HW238304   3.293   1.865   8.263 -0.0325 -0.8780  0.4120
 8949SOL     OW38305   4.479   4.071   0.693 -0.3867 -0.6330  0.2476
 8949SOL    HW138306   4.455   4.033   0.778  0.4617 -1.0638  0.2975
 8949SOL    HW238307   4.431   4.152   0.676  2.5715  1.2861  1.2330
 8950SOL     OW38308   0.469   4.688   5.403 -0.0886  0.0984  0.3152
 8950SOL    HW138309   0.564   4.702   5.410  0.1279 -2.2137  1.9028
 8950SOL    HW238310   0.449   0.010   5.321  1.3262  1.8663  0.9205
 8951SOL     OW38311   0.286   3.114   1.036 -0.0474  0.0647  0.3754
 8951SOL    HW138312   0.296   3.102   0.941 -0.9656 -2.8619  0.6504
 8951SOL    HW238313   0.238   3.197   1.033 -0.9923 -0.4816  0.2939
 8952SOL     OW38314   0.168   2.834   9.566 -0.2228 -0.2411  0.2021
 8952SOL    HW138315   0.160   2.788   9.483 -6.5569  2.5415 -0.6802
 8952SOL    HW238316   0.207   2.765   9.621  3.5783  1.3516 -0.4899
 8953SOL     OW38317   3.724   1.260  16.361 -0.0391 -0.8681 -0.1814
 8953SOL    HW138318   3.644   1.300  16.325  0.2298  0.8002  1.0667
 8953SOL    HW238319   3.700   1.259  16.454  0.9524  0.2449  0.0831
 8954SOL     OW38320   2.858   3.534  13.659  0.2210  0.1497  0.1603
 8954SOL    HW138321   2.858   3.464  13.725 -2.0511 -0.9269 -0.9770
 8954SOL    HW238322   2.766   3.560  13.664  0.8976  2.4292  0.5697
 8955SOL     OW38323   2.889   1.871   9.023 -0.2499  0.4570  0.3795
 8955SOL    HW138324   2.974   1.827   9.017  0.5205  2.0077 -0.2105
 8955SOL    HW238325   2.837   1.807   9.071 -1.7628  1.0367 -0.4798
 8956SOL     OW38326   1.730   3.060   2.698 -0.4585  0.6621  0.1684
 8956SOL    HW138327   1.730   3.133   2.636 -1.9096  1.9227  1.6547
 8956SOL    HW238328   1.820   3.060   2.731 -0.9384  0.3923  1.4487
 8957SOL     OW38329   4.180   4.543   2.738  0.3195  0.0275 -0.0119
 8957SOL    HW138330   4.134   4.531   2.655  0.7534 -0.2905 -0.2038
 8957SOL    HW238331   4.235   4.620   2.722  1.4231 -0.7781 -0.0849
 8958SOL     OW38332   2.612   3.788   5.767  0.1290 -0.4084 -0.1306
 8958SOL    HW138333   2.537   3.842   5.792  0.3154 -0.5511  0.7523
 8958SOL    HW238334   2.649   3.773   5.854  1.1735  2.1353 -0.1437
 8959SOL     OW38335   3.581   3.409   6.278  0.3436 -0.3815  0.7490
 8959SOL    HW138336   3.552   3.321   6.300 -0.2797 -0.9393 -2.3073
 8959SOL    HW238337   3.598   3.406   6.184  1.1739  2.4614  0.8005
 8960SOL     OW38338   2.159   1.635   0.837  0.5798 -0.0434  0.1703
 8960SOL    HW138339   2.195   1.583   0.909 -0.3942 -1.2144 -0.1877
 8960SOL    HW238340   2.207   1.717   0.845  2.1674 -0.7798 -1.6828
 8961SOL     OW38341   1.055   2.197   6.523  0.3279  0.1698 -0.2727
 8961SOL    HW138342   1.023   2.134   6.587 -0.5676 -3.5355 -4.3602
 8961SOL    HW238343   1.091   2.268   6.576  2.2226 -0.7985 -0.2885
 8962SOL     OW38344   2.887   3.301   8.144  0.6818  0.6786 -0.1097
 8962SOL    HW138345   2.825   3.241   8.103  0.9143 -0.2070  0.8254
 8962SOL    HW238346   2.943   3.324   8.071  1.1252  0.1353  0.0616
 8963SOL     OW38347   3.397   2.003   3.472  0.0887  0.7861  0.7099
 8963SOL    HW138348   3.463   2.016   3.404  0.2219 -1.9969  0.2963
 8963SOL    HW238349   3.457   1.969   3.538 -0.5766 -2.5358 -0.3987
 8964SOL     OW38350   1.438   0.949   5.631 -0.1132  0.5561 -0.2994
 8964SOL    HW138351   1.363   0.894   5.652  1.6020 -0.9995  1.7437
 8964SOL    HW238352   1.496   0.889   5.585 -3.6093 -1.4161 -2.1046
 8965SOL     OW38353   0.495   2.795   4.492 -0.2084 -0.4307 -0.2406
 8965SOL    HW138354   0.505   2.810   4.398 -0.2872  1.9338  0.1374
 8965SOL    HW238355   0.577   2.751   4.513 -0.3029 -1.1950 -1.4855
 8966SOL     OW38356   0.798   0.022  16.629 -0.4177 -0.3785  0.0972
 8966SOL    HW138357   0.741   4.671  16.649  0.5093 -0.5318  2.1808
 8966SOL    HW238358   0.885   4.708  16.644 -1.2368 -2.0517  0.7600
 8967SOL     OW38359   2.720   2.006   8.458 -0.0127  0.4562 -0.3778
 8967SOL    HW138360   2.694   1.934   8.400  1.5555  0.1267 -0.6872
 8967SOL    HW238361   2.749   2.075   8.398  0.7910  1.6467  1.3805
 8968SOL     OW38362   2.220   4.343   4.604  0.6614  0.5083 -0.3014
 8968SOL    HW138363   2.269   4.289   4.666  0.9487  1.1119 -0.0106
 8968SOL    HW238364   2.173   4.276   4.554  0.6356  0.4425 -0.1891
 8969SOL     OW38365   0.139   0.029   5.771 -0.1151 -0.7093  0.6869
 8969SOL    HW138366   0.162   0.012   5.680 -0.1353  1.2938  0.3083
 8969SOL    HW238367   0.225   0.051   5.807  0.8441  0.6741 -2.5253
 8970SOL     OW38368   4.399   3.757   4.034 -0.7735 -0.2548  0.3871
 8970SOL    HW138369   4.352   3.745   3.952  1.8415 -0.2474 -1.1133
 8970SOL    HW238370   4.357   3.698   4.097  0.6660 -1.2940  0.3806
 8971SOL     OW38371   0.605   2.196  15.770 -0.1919 -0.0609 -0.7866
 8971SOL    HW138372   0.593   2.107  15.737 -0.0653 -0.8838  1.3828
 8971SOL    HW238373   0.533   2.241  15.725 -0.5754 -0.3763 -0.4788
 8972SOL     OW38374   3.751   3.612   5.776  0.0173  0.1713  0.2882
 8972SOL    HW138375   3.812   3.586   5.845 -0.6007  0.7955  1.0662
 8972SOL    HW238376   3.751   3.536   5.717  0.9526  0.3910  0.0159
 8973SOL     OW38377   3.617   3.500   5.276  0.4907  0.0358  0.5690
 8973SOL    HW138378   3.566   3.482   5.197  1.2566  0.4505 -0.0220
 8973SOL    HW238379   3.704   3.495   5.237 -0.2228 -2.5036 -0.6532
 8974SOL     OW38380   1.547   1.769   3.270  0.0760  0.0285 -0.2639
 8974SOL    HW138381   1.532   1.749   3.362  0.2481  0.7159 -0.0848
 8974SOL    HW238382   1.491   1.701   3.233 -3.2560  1.6819  1.7476
 8975SOL     OW38383   4.019   4.232  15.349 -0.1248  0.0290 -0.2882
 8975SOL    HW138384   3.958   4.293  15.390 -2.2248 -0.5620 -2.5195
 8975SOL    HW238385   3.968   4.203  15.274 -1.5961  3.0623 -0.4670
 8976SOL     OW38386   1.647   4.163  16.820  0.2279  0.2449  0.1442
 8976SOL    HW138387   1.565   4.116  16.807  0.1619  1.4062 -3.5388
 8976SOL    HW238388   1.703   4.091  16.851  0.6664 -0.0213 -1.2738
 8977SOL     OW38389   2.075   1.224   5.556  0.0006  0.3444  0.2923
 8977SOL    HW138390   2.102   1.161   5.489  0.8514  0.4494  0.5375
 8977SOL    HW238391   2.050   1.166   5.629  2.1821 -0.3440  0.4904
 8978SOL     OW38392   0.924   1.423   8.240 -0.2584  0.0237 -0.3832
 8978SOL    HW138393   0.866   1.445   8.168 -2.0843 -1.0048  0.7609
 8978SOL    HW238394   0.905   1.495   8.300  0.2933 -0.8064  0.7947
 8979SOL     OW38395   3.528   1.116   4.554  0.3610  0.2139  0.3377
 8979SOL    HW138396   3.510   1.033   4.509  0.5362  0.5793 -0.3988
 8979SOL    HW238397   3.482   1.181   4.501  0.1497  1.2978  1.8582
 8980SOL     OW38398   0.972   4.143   1.057 -0.1953  0.0296 -0.1176
 8980SOL    HW138399   1.010   4.176   1.138  1.5382  0.4982 -1.1031
 8980SOL    HW238400   0.897   4.092   1.087 -0.7639  0.0330 -1.5323
 8981SOL     OW38401   1.559   3.934   7.859 -0.3077 -0.5649 -0.2820
 8981SOL    HW138402   1.611   4.013   7.845  0.3201 -0.8478  0.4355
 8981SOL    HW238403   1.471   3.962   7.884  0.3750  3.0347 -1.9259
 8982SOL     OW38404   3.613   4.477  15.584 -0.6181  0.4764 -0.5387
 8982SOL    HW138405   3.603   4.429  15.666 -0.2198 -0.9691 -1.3411
 8982SOL    HW238406   3.646   4.563  15.610 -1.6554  0.7950 -0.2799
 8983SOL     OW38407   2.485   2.315  15.654 -0.2267  0.8894  0.2867
 8983SOL    HW138408   2.507   2.394  15.604 -1.3169 -1.4454 -3.9275
 8983SOL    HW238409   2.566   2.281  15.691  0.0353  2.0172  0.7471
 8984SOL     OW38410   2.596   2.868   4.927 -0.5880 -0.4276 -0.6632
 8984SOL    HW138411   2.537   2.877   5.001 -1.8771 -0.0344 -1.7548
 8984SOL    HW238412   2.550   2.932   4.873 -0.0438  0.1193 -0.4845
 8985SOL     OW38413   1.860   2.692   2.710 -0.5390 -0.7452 -0.0638
 8985SOL    HW138414   1.945   2.723   2.679  0.5278 -2.7192  0.9169
 8985SOL    HW238415   1.865   2.599   2.692 -1.2621 -0.6326 -0.8458
 8986SOL     OW38416   1.151   1.346  15.473  0.3174  0.6511  0.1330
 8986SOL    HW138417   1.230   1.390  15.443 -0.3257  1.4536 -0.3699
 8986SOL    HW238418   1.186   1.262  15.503  0.7495  0.1665 -1.7037
 8987SOL     OW38419   3.945   1.880   7.896  0.0663  0.5043  0.7044
 8987SOL    HW138420   3.897   1.863   7.977 -2.3674 -0.0724 -0.8849
 8987SOL    HW238421   3.924   1.973   7.889  2.6772  1.0393 -0.0642
 8988SOL     OW38422   1.212   2.233   9.776  0.5032 -0.3117  0.2619
 8988SOL    HW138423   1.240   2.141   9.775 -1.3588 -0.8733 -0.2823
 8988SOL    HW238424   1.118   2.217   9.773  0.6747 -1.3150  0.3669
 8989SOL     OW38425   0.994   2.671   8.527 -0.2998 -0.2106  0.5743
 8989SOL    HW138426   0.996   2.579   8.553 -0.1973 -0.1891  0.6451
 8989SOL    HW238427   0.959   2.667   8.439  1.4034 -3.4915  0.0191
 8990SOL     OW38428   4.530   4.214   5.901 -0.4236  0.2042  0.6455
 8990SOL    HW138429   4.444   4.179   5.924  0.1334 -1.4973  0.1351
 8990SOL    HW238430   4.567   4.131   5.870  1.8155  1.6646 -0.5623
 8991SOL     OW38431   0.245   1.965   7.935 -0.3237 -0.0629 -0.0410
 8991SOL    HW138432   0.215   1.893   7.880 -0.7445 -0.1253  0.2683
 8991SOL    HW238433   0.291   2.011   7.865  2.3595 -1.1799  0.9956
 8992SOL     OW38434   2.237   3.158   4.150 -0.3519  0.4675  0.2393
 8992SOL    HW138435   2.150   3.163   4.189  0.1985  2.0301  1.2617
 8992SOL    HW238436   2.233   3.067   4.120 -1.2771 -0.0087  1.7895
 8993SOL     OW38437   3.957   1.721   2.047 -0.3147 -0.2802 -0.0508
 8993SOL    HW138438   3.941   1.640   1.997  0.7325 -0.0889 -0.7025
 8993SOL    HW238439   4.030   1.693   2.102  0.4668  1.0283 -0.4305
 8994SOL     OW38440   3.544   0.059   3.025 -0.0861  0.2543  0.1827
 8994SOL    HW138441   3.584   0.065   3.112  2.3317 -0.3183 -0.9074
 8994SOL    HW238442   3.481   0.131   3.034 -0.2547  0.5872 -3.6042
 8995SOL     OW38443   1.532   4.395   1.589  0.4084 -0.3152  0.0551
 8995SOL    HW138444   1.448   4.397   1.543  0.8258 -1.5253 -0.7578
 8995SOL    HW238445   1.512   4.437   1.673  0.5598  0.4772 -0.3033
 8996SOL     OW38446   1.451   3.793   7.502  0.0582  0.2361 -0.1294
 8996SOL    HW138447   1.415   3.753   7.582 -0.9047  1.7234  0.1905
 8996SOL    HW238448   1.544   3.785   7.523 -0.3947 -1.9729  1.0769
 8997SOL     OW38449   4.146   1.312   2.620 -0.0467 -0.6751 -0.1139
 8997SOL    HW138450   4.217   1.265   2.576  0.5096 -0.7487  0.8617
 8997SOL    HW238451   4.097   1.353   2.548 -1.4446  0.7005  1.6228
 8998SOL     OW38452   1.300   2.553   6.857 -0.0333 -0.4612  0.1859
 8998SOL    HW138453   1.277   2.536   6.948  0.5030 -1.9062  0.0434
 8998SOL    HW238454   1.248   2.633   6.846  2.9432  1.1686 -2.1096
 8999SOL     OW38455   1.715   1.312   7.053  0.4008  0.9174 -0.3902
 8999SOL    HW138456   1.762   1.304   6.970  1.7628  1.3207  0.3384
 8999SOL    HW238457   1.625   1.309   7.020  1.0361 -2.3014 -1.8521
 9000SOL     OW38458   3.545   4.271  11.092  0.6621  0.1218 -0.4258
 9000SOL    HW138459   3.517   4.184  11.121  0.2644  0.4855  0.3152
 9000SOL    HW238460   3.582   4.319  11.166 -0.8502  1.6627 -0.6509
 9001SOL     OW38461   0.481   0.972   1.062  0.1672  0.3220 -0.0345
 9001SOL    HW138462   0.398   0.983   1.108 -1.1805  0.1357 -2.3872
 9001SOL    HW238463   0.543   0.990   1.132 -1.2992  2.5025  0.7041
 9002SOL     OW38464   2.326   2.245   4.256 -0.1113 -0.5670 -0.3152
 9002SOL    HW138465   2.345   2.265   4.348  1.9658 -1.7303 -0.4881
 9002SOL    HW238466   2.350   2.326   4.211 -1.4973  0.0915  0.1302
 9003SOL     OW38467   2.625   1.324   0.196 -0.0932  0.8393  0.4872
 9003SOL    HW138468   2.660   1.352   0.112  2.5395  0.8945  1.5870
 9003SOL    HW238469   2.693   1.369   0.247 -0.8066 -2.0198  4.0255
 9004SOL     OW38470   4.429   2.035   6.170  1.0858 -0.4679 -0.1735
 9004SOL    HW138471   4.405   2.119   6.132 -2.1251 -0.3725  2.0864
 9004SOL    HW238472   4.346   1.990   6.154  0.3478  0.9884 -0.4001
 9005SOL     OW38473   3.267   0.187   2.451 -0.3299  0.1603 -0.6687
 9005SOL    HW138474   3.297   0.146   2.370  1.9454  0.6306 -0.0597
 9005SOL    HW238475   3.351   0.225   2.478 -0.3887  0.2539 -0.6198
 9006SOL     OW38476   0.975   1.798   7.457  0.1131  0.1706  0.5533
 9006SOL    HW138477   1.047   1.736   7.448 -0.7775 -0.6019 -1.4937
 9006SOL    HW238478   0.990   1.839   7.371  2.2557  0.8599  1.2640
 9007SOL     OW38479   4.630   2.296   0.837 -0.1805  0.3851 -0.2411
 9007SOL    HW138480   4.694   2.225   0.848  0.9345  0.7282 -4.2948
 9007SOL    HW238481   4.611   2.289   0.743  1.0350  3.4839 -0.7179
 9008SOL     OW38482   4.112   0.095   7.196  0.2202 -0.4867 -0.4552
 9008SOL    HW138483   4.033   0.107   7.143 -0.6647 -0.9575  0.7636
 9008SOL    HW238484   4.177   0.112   7.127 -2.3931 -0.1027 -2.8281
 9009SOL     OW38485   2.889   3.721   3.175 -0.4241 -0.1908 -0.4685
 9009SOL    HW138486   2.883   3.786   3.105 -0.0042  0.2625 -0.0786
 9009SOL    HW238487   2.811   3.736   3.228 -0.1477 -0.1236 -0.0821
 9010SOL     OW38488   3.453   0.244  10.039  0.0150 -0.2182 -0.2902
 9010SOL    HW138489   3.530   0.240  10.096 -0.2519 -1.4151 -0.0048
 9010SOL    HW238490   3.495   0.227   9.954  2.7636  3.0608  0.4124
 9011SOL     OW38491   4.306   2.270   3.006 -0.1499 -0.1470  0.8061
 9011SOL    HW138492   4.293   2.271   2.911 -2.1374 -1.6059  1.0691
 9011SOL    HW238493   4.396   2.238   3.009  0.6640  1.9881 -0.4916
 9012SOL     OW38494   3.142   3.694   3.301  0.8175 -0.5089  0.0384
 9012SOL    HW138495   3.055   3.696   3.262  0.1623  0.3146  1.5274
 9012SOL    HW238496   3.163   3.787   3.309 -0.9352 -0.0121 -1.1612
 9013SOL     OW38497   2.346   0.341   6.287  0.1786  0.3318  0.0517
 9013SOL    HW138498   2.257   0.374   6.272  1.7845  4.1189 -1.1918
 9013SOL    HW238499   2.332   0.251   6.315 -0.4118  0.0802 -1.0388
 9014SOL     OW38500   4.217   1.891   6.132 -0.3063 -0.5670  0.2396
 9014SOL    HW138501   4.179   1.898   6.219 -1.7046 -0.5638 -0.3589
 9014SOL    HW238502   4.140   1.893   6.074 -1.3374  0.1851  1.6250
 9015SOL     OW38503   4.549   3.465  17.650  0.6357  0.3305  0.7198
 9015SOL    HW138504   4.475   3.424   0.001 -1.4600 -0.1476 -3.2935
 9015SOL    HW238505   4.620   3.413  17.687  0.5535  0.5190  1.1355
 9016SOL     OW38506   2.215   1.847  12.102 -0.2676 -0.3702  0.3621
 9016SOL    HW138507   2.271   1.773  12.126 -1.2045 -1.4162 -0.6311
 9016SOL    HW238508   2.200   1.826  12.010  1.7197 -0.8072  0.1491
 9017SOL     OW38509   2.349   1.288   9.664 -0.2416  0.0598  0.3132
 9017SOL    HW138510   2.440   1.312   9.679 -0.8371  3.9616 -2.1786
 9017SOL    HW238511   2.334   1.268   9.756  1.7354  0.3621  0.6921
 9018SOL     OW38512   3.041   2.682  11.404  0.4238 -0.4420  0.0438
 9018SOL    HW138513   2.987   2.605  11.388 -0.1149 -0.1502  0.4501
 9018SOL    HW238514   3.117   2.668  11.347 -0.2655  1.4273 -1.3298
 9019SOL     OW38515   3.538   3.126   3.548 -0.0774 -0.3200  0.8190
 9019SOL    HW138516   3.558   3.032   3.552  1.7178  0.0878  1.1123
 9019SOL    HW238517   3.444   3.136   3.565 -0.0492  0.0636  0.7385
 9020SOL     OW38518   1.365   2.943   1.265  0.4131 -0.5589 -0.6097
 9020SOL    HW138519   1.451   2.979   1.286  1.3379 -2.4082 -1.2107
 9020SOL    HW238520   1.304   3.011   1.294  0.5748  0.5079 -2.7467
 9021SOL     OW38521   2.112   3.553  16.921 -0.0119 -0.7475 -0.4549
 9021SOL    HW138522   2.207   3.547  16.917  0.1773  2.3574 -0.5309
 9021SOL    HW238523   2.093   3.485  16.856  0.6542 -1.3805  0.0186
 9022SOL     OW38524   2.563   1.760   2.412  0.8007 -0.3380  0.0121
 9022SOL    HW138525   2.511   1.738   2.335  0.3413  1.0331 -0.0717
 9022SOL    HW238526   2.507   1.822   2.459 -1.1368 -0.8932 -1.5516
 9023SOL     OW38527   4.628   3.019  11.033 -0.4204 -0.3437  0.2161
 9023SOL    HW138528   4.722   3.006  11.024 -0.1217  0.7080  1.6344
 9023SOL    HW238529   4.608   3.110  11.058  2.2291  1.4153 -4.1842
 9024SOL     OW38530   2.869   1.108   9.596  0.2512 -0.7484  0.3918
 9024SOL    HW138531   2.794   1.152   9.637  2.0910  0.0418  2.9108
 9024SOL    HW238532   2.871   1.021   9.634  1.5766  0.9938  4.3143
 9025SOL     OW38533   3.265   3.578  17.153 -0.3322 -0.0309  0.2961
 9025SOL    HW138534   3.219   3.660  17.170  1.6280  0.7785  1.7216
 9025SOL    HW238535   3.193   3.515  17.158 -0.8983  0.7377  1.9666
 9026SOL     OW38536   1.964   2.002   9.380 -0.0526 -0.1590  0.2782
 9026SOL    HW138537   1.887   1.946   9.388 -0.2846  0.0832 -0.2510
 9026SOL    HW238538   2.032   1.951   9.422  1.6126  3.8335  2.4696
 9027SOL     OW38539   1.257   2.299  15.101  0.0715  0.5421 -0.1189
 9027SOL    HW138540   1.192   2.300  15.171 -0.1822 -3.7251 -0.3037
 9027SOL    HW238541   1.282   2.206  15.100  0.1750  0.5728 -0.4496
 9028SOL     OW38542   0.270   2.345   6.634  0.4602  0.1220  0.5795
 9028SOL    HW138543   0.195   2.405   6.632  0.5726  0.2191 -0.9594
 9028SOL    HW238544   0.232   2.265   6.669 -1.1820 -0.0630 -1.6271
 9029SOL     OW38545   3.282   2.660   5.510 -0.2453 -0.1325  0.3250
 9029SOL    HW138546   3.246   2.580   5.549  0.2263 -1.2967 -1.6000
 9029SOL    HW238547   3.329   2.617   5.439 -0.2799 -1.0567  0.8608
 9030SOL     OW38548   3.290   1.071   7.730  0.1031 -0.4271  0.5243
 9030SOL    HW138549   3.379   1.035   7.728  1.0925  2.0291  0.0834
 9030SOL    HW238550   3.324   1.157   7.755  1.6129 -1.1326  0.9368
 9031SOL     OW38551   4.699   0.513   0.316 -0.0795  0.2477 -0.3702
 9031SOL    HW138552   4.659   0.534   0.401 -1.2337  2.7626 -1.5065
 9031SOL    HW238553   0.061   0.488   0.354 -0.8749 -2.3808 -0.3890
 9032SOL     OW38554   1.379   3.485  11.828  0.4970 -0.1054  0.2808
 9032SOL    HW138555   1.377   3.454  11.737  2.0410 -1.0208  0.5609
 9032SOL    HW238556   1.455   3.436  11.860 -0.9607 -1.3369  1.8712
 9033SOL     OW38557   0.449   1.966   1.743 -0.2230 -0.4951  0.4831
 9033SOL    HW138558   0.461   2.058   1.768 -1.1958 -0.2301 -0.0349
 9033SOL    HW238559   0.412   1.929   1.823  0.8866  1.6228  1.9773
 9034SOL     OW38560   2.441   0.059  12.002  0.2759  1.0887 -0.2002
 9034SOL    HW138561   2.479   0.101  12.079  2.6887  2.4548 -2.1623
 9034SOL    HW238562   2.393   4.704  12.032 -0.3274  1.3649 -0.4412
 9035SOL     OW38563   4.364   1.862   8.941  0.2775  0.5853  0.4777
 9035SOL    HW138564   4.445   1.824   8.908 -0.4648 -2.8374  2.5830
 9035SOL    HW238565   4.347   1.806   9.016 -0.7528  0.3081  0.0353
 9036SOL     OW38566   0.757   0.244  10.194  0.7034  0.0016  0.3874
 9036SOL    HW138567   0.813   0.322  10.192 -0.2036  0.7250  2.8914
 9036SOL    HW238568   0.806   0.197  10.261 -0.4980  0.4614  1.6047
 9037SOL     OW38569   3.098   2.851  17.139  0.5419  0.0580  0.5440
 9037SOL    HW138570   3.041   2.774  17.133  2.5640 -1.4592  0.9560
 9037SOL    HW238571   3.044   2.929  17.125 -0.6019 -1.0512 -1.1976
 9038SOL     OW38572   0.762   3.797   4.710 -0.0350  0.5304  0.4557
 9038SOL    HW138573   0.782   3.834   4.624  1.3249 -0.2847  0.4333
 9038SOL    HW238574   0.767   3.874   4.766 -1.9047  1.6917 -0.9570
 9039SOL     OW38575   3.064   4.369   6.166 -0.5159 -0.6050 -0.5577
 9039SOL    HW138576   3.064   4.417   6.249 -1.3697 -2.3539  0.4494
 9039SOL    HW238577   2.977   4.330   6.177  0.3853 -2.9069 -1.8660
 9040SOL     OW38578   1.945   2.037   2.835 -0.0793 -0.1854 -0.0987
 9040SOL    HW138579   1.933   2.031   2.740 -1.5696 -0.0310  0.0870
 9040SOL    HW238580   1.899   2.120   2.844 -0.2364 -0.2396 -0.4057
 9041SOL     OW38581   0.994   2.443   6.767  0.3852 -0.2034  0.3776
 9041SOL    HW138582   0.974   2.530   6.800 -1.4968 -0.8692  0.9607
 9041SOL    HW238583   0.927   2.429   6.700  0.0937  2.1498  0.1719
 9042SOL     OW38584   2.793   4.612   5.258 -0.4963  0.2123  0.0468
 9042SOL    HW138585   2.869   4.574   5.215  0.1524  1.2037  0.3192
 9042SOL    HW238586   2.784   4.549   5.331 -0.6115 -0.4257 -0.5193
 9043SOL     OW38587   4.168   3.957   0.690  1.0008  0.0021 -0.5157
 9043SOL    HW138588   4.213   4.041   0.687 -1.2053  1.3198  4.2386
 9043SOL    HW238589   4.144   3.931   0.600  0.5468 -0.2352 -0.3307
 9044SOL     OW38590   1.738   2.197   5.721 -0.2853  0.0858  0.5932
 9044SOL    HW138591   1.725   2.280   5.676 -2.3487 -0.8991 -0.6375
 9044SOL    HW238592   1.751   2.135   5.649  0.6506  1.1478 -0.1426
 9045SOL     OW38593   2.776   4.489  16.153 -0.0554 -0.1875 -0.2043
 9045SOL    HW138594   2.714   4.494  16.225  1.4968 -0.3101  1.1546
 9045SOL    HW238595   2.722   4.444  16.088  0.7216  0.5979 -1.3863
 9046SOL     OW38596   2.506   1.124   2.140  0.1824 -0.3409  0.5244
 9046SOL    HW138597   2.562   1.168   2.076 -1.9896  0.3516 -0.8831
 9046SOL    HW238598   2.426   1.176   2.127  0.0483 -0.4863  0.7735
 9047SOL     OW38599   2.343   1.838   7.848 -0.1128  0.3543 -0.2314
 9047SOL    HW138600   2.408   1.834   7.778 -0.9865 -1.6162 -0.9342
 9047SOL    HW238601   2.271   1.880   7.801  0.4009 -0.8607 -2.0605
 9048SOL     OW38602   3.890   1.093   5.719  0.1578 -0.2209  0.2800
 9048SOL    HW138603   3.873   0.999   5.707  1.2787 -0.2163 -1.3536
 9048SOL    HW238604   3.985   1.099   5.702  0.0311  0.3351 -0.2285
 9049SOL     OW38605   1.161   1.361   0.177  0.5899 -0.8092  0.2839
 9049SOL    HW138606   1.207   1.278   0.191 -0.1330 -1.0731  1.0878
 9049SOL    HW238607   1.073   1.335   0.203  0.0355 -0.4285 -1.2624
 9050SOL     OW38608   1.487   3.875   2.630  0.1292 -0.4397 -0.0392
 9050SOL    HW138609   1.412   3.883   2.689  0.4910  0.0694  0.3631
 9050SOL    HW238610   1.497   3.961   2.588 -0.5476 -1.2636 -1.8645
 9051SOL     OW38611   3.209   2.263   3.133  0.5974 -0.2470 -0.5009
 9051SOL    HW138612   3.214   2.234   3.224 -0.5066 -1.3820 -0.8076
 9051SOL    HW238613   3.119   2.238   3.114 -0.3892  1.1685  2.3561
 9052SOL     OW38614   2.685   2.676  14.613 -0.0384  0.0506 -0.5022
 9052SOL    HW138615   2.601   2.722  14.619  0.2211  0.4934 -0.2657
 9052SOL    HW238616   2.657   2.591  14.646  2.3304 -1.1925 -1.7621
 9053SOL     OW38617   4.549   0.997   9.196 -0.0449  0.0226 -0.3171
 9053SOL    HW138618   4.644   1.009   9.203 -0.0653  0.3605 -0.6447
 9053SOL    HW238619   4.526   0.940   9.269  1.9901  2.0071  1.8938
 9054SOL     OW38620   4.280   1.271   8.559 -0.0491 -0.3515 -0.0302
 9054SOL    HW138621   4.198   1.273   8.607  0.1958 -0.6562  0.3936
 9054SOL    HW238622   4.277   1.191   8.506  0.1017 -1.6463  1.9237
 9055SOL     OW38623   3.970   2.023   8.274  0.2799 -0.6615 -0.3537
 9055SOL    HW138624   3.919   1.977   8.208  0.6557 -2.6383  0.7239
 9055SOL    HW238625   3.941   1.982   8.356  0.6223  0.0908  0.1392
 9056SOL     OW38626   1.978   1.047  11.278  0.3990  0.1208 -0.4302
 9056SOL    HW138627   2.051   0.994  11.246  0.8964 -1.7059  3.7395
 9056SOL    HW238628   1.968   1.093  11.195 -0.9720  0.0782 -0.2771
 9057SOL     OW38629   2.683   1.935   1.600  0.0282 -0.1168 -0.6862
 9057SOL    HW138630   2.668   1.944   1.694  0.9210  1.7234 -0.7164
 9057SOL    HW238631   2.772   1.900   1.601  0.4251  0.8902 -0.3683
 9058SOL     OW38632   4.052   3.589   4.956 -0.3465 -0.1924 -0.5349
 9058SOL    HW138633   4.025   3.500   4.933  0.8149 -1.0064  1.1823
 9058SOL    HW238634   4.145   3.572   4.972 -0.8420 -0.3592  2.2672
 9059SOL     OW38635   1.288   3.141   3.303 -0.3579  0.0556 -0.6877
 9059SOL    HW138636   1.272   3.047   3.315 -1.9277  0.3541 -0.3742
 9059SOL    HW238637   1.203   3.177   3.277 -0.4632  0.9933  0.9968
 9060SOL     OW38638   2.374   0.790   4.053  0.0865  0.1925 -0.6061
 9060SOL    HW138639   2.444   0.725   4.059  0.3968  0.6640  0.8838
 9060SOL    HW238640   2.297   0.734   4.061  1.6337 -1.7177  0.6062
 9061SOL     OW38641   1.508   3.525   2.411 -0.2654  0.3130  0.0780
 9061SOL    HW138642   1.556   3.460   2.359  1.7940  0.8908  1.2629
 9061SOL    HW238643   1.529   3.504   2.502  0.7046  2.4870  0.3486
 9062SOL     OW38644   1.704   0.571   3.099  0.4158  0.2174 -0.1006
 9062SOL    HW138645   1.747   0.607   3.176 -0.4949  0.9412  0.0673
 9062SOL    HW238646   1.657   0.646   3.062  0.2008  1.1102  1.9413
 9063SOL     OW38647   3.877   2.787   2.316  0.1649  0.1410 -0.0456
 9063SOL    HW138648   3.783   2.800   2.312  0.2134  0.5390  0.1525
 9063SOL    HW238649   3.892   2.732   2.238  0.3517 -0.6433  0.5460
 9064SOL     OW38650   3.971   3.296   3.927 -0.4957  0.3501  0.0316
 9064SOL    HW138651   4.017   3.374   3.895  2.4601 -1.6922 -0.7304
 9064SOL    HW238652   3.953   3.322   4.017  2.7340 -0.6083  0.9286
 9065SOL     OW38653   1.640   2.186   4.287 -0.0180  0.2795 -0.1415
 9065SOL    HW138654   1.710   2.201   4.223 -0.2510  2.1911  0.0606
 9065SOL    HW238655   1.600   2.272   4.300 -0.3723  0.1343 -0.2556
 9066SOL     OW38656   0.193   2.273   2.064  0.1577 -0.2640  0.0550
 9066SOL    HW138657   0.284   2.271   2.093 -0.5033  0.1102  2.2236
 9066SOL    HW238658   0.218   2.292   1.974 -2.1159  0.2405 -0.4677
 9067SOL     OW38659   1.703   2.733   1.075  0.8713  0.2147 -0.0352
 9067SOL    HW138660   1.724   2.783   0.996  3.3552  0.9126  1.0701
 9067SOL    HW238661   1.610   2.727   1.054  1.4115  0.9238 -2.6818
 9068SOL     OW38662   4.114   4.164   7.453 -0.0923  0.0846 -0.3652
 9068SOL    HW138663   4.180   4.111   7.408 -0.8440  0.0864 -1.4728
 9068SOL    HW238664   4.066   4.208   7.382  1.3367 -0.3663 -1.5890
 9069SOL     OW38665   4.629   0.119   5.351  0.2219  0.7321 -0.0619
 9069SOL    HW138666   4.701   0.057   5.338  1.3713  1.6696  1.7023
 9069SOL    HW238667   4.635   0.114   5.447 -2.6973  0.7418  0.0961
 9070SOL     OW38668   3.067   2.414   3.366 -0.2281 -0.1112  0.0192
 9070SOL    HW138669   3.111   2.498   3.359 -0.4229  0.3624  4.1080
 9070SOL    HW238670   3.121   2.366   3.429  3.1341 -0.3251 -3.0550
 9071SOL     OW38671   4.708   2.759   2.165  0.2047  0.4763 -0.3942
 9071SOL    HW138672   4.630   2.747   2.111 -0.0343 -1.6659  0.4315
 9071SOL    HW238673   0.022   2.672   2.149  2.6510  1.1378  1.6046
 9072SOL     OW38674   1.154   1.763   6.019  0.4598  0.4661 -0.3372
 9072SOL    HW138675   1.139   1.821   6.094  1.4702 -0.4036  0.5397
 9072SOL    HW238676   1.229   1.803   5.977  0.5092  0.1345 -0.5644
 9073SOL     OW38677   0.996   1.351   6.288  0.0810  0.1341 -0.1044
 9073SOL    HW138678   0.921   1.297   6.312 -0.1377  0.6454  0.3487
 9073SOL    HW238679   0.965   1.430   6.332  2.9569  1.5389 -0.6178
 9074SOL     OW38680   2.442   2.562  10.598  0.4133 -0.3492 -0.1823
 9074SOL    HW138681   2.382   2.582  10.670  1.1371  0.5639  0.1726
 9074SOL    HW238682   2.463   2.470  10.613 -0.4959 -0.6707 -0.8876
 9075SOL     OW38683   0.570   1.953   3.612 -0.2849  0.0712  0.2126
 9075SOL    HW138684   0.624   2.014   3.661  1.9858  1.2090 -3.6865
 9075SOL    HW238685   0.509   1.925   3.681 -0.8975  0.9658  0.0344
 9076SOL     OW38686   0.273   0.553   4.036 -0.4981 -0.3981  0.1556
 9076SOL    HW138687   0.227   0.631   4.005  2.4284  0.8453 -1.0748
 9076SOL    HW238688   0.357   0.566   3.991 -0.3610  1.4779  0.9781
 9077SOL     OW38689   1.905   1.828   4.576 -0.0465  0.1501  0.1169
 9077SOL    HW138690   1.823   1.871   4.553 -0.2554  0.0845  0.7241
 9077SOL    HW238691   1.969   1.899   4.582  0.9675 -0.8293  0.7822
 9078SOL     OW38692   0.340   4.528   5.613  0.4755  0.2552 -0.1829
 9078SOL    HW138693   0.368   4.595   5.676 -1.3079  0.3629  0.4724
 9078SOL    HW238694   0.360   4.572   5.530  2.8899  2.2676  1.4572
 9079SOL     OW38695   1.211   0.749   5.693 -0.9042 -0.0634 -0.0033
 9079SOL    HW138696   1.208   0.745   5.789  1.5789 -1.6809  0.0145
 9079SOL    HW238697   1.119   0.730   5.674 -1.3297  1.4172  0.5969
 9080SOL     OW38698   0.941   3.420   2.089 -0.4472  0.0254  0.1799
 9080SOL    HW138699   0.974   3.337   2.122 -0.9012 -0.9311 -1.8058
 9080SOL    HW238700   0.863   3.377   2.053 -1.3661  2.5331 -0.8441
 9081SOL     OW38701   2.899   2.539   6.373  0.3096  0.1362  0.7780
 9081SOL    HW138702   2.880   2.506   6.460 -1.7260  0.8060  0.5920
 9081SOL    HW238703   2.894   2.634   6.384 -0.1841 -0.1021  2.4794
 9082SOL     OW38704   2.606   1.081   9.639 -0.5922 -0.0017 -0.6013
 9082SOL    HW138705   2.577   1.029   9.714 -1.4610  2.5853  0.8685
 9082SOL    HW238706   2.562   1.163   9.664  0.1616 -0.2748  1.6102
 9083SOL     OW38707   3.459   0.672   5.888  0.6050 -0.3834 -0.1103
 9083SOL    HW138708   3.365   0.687   5.902  0.7378  1.4017 -1.0561
 9083SOL    HW238709   3.444   0.644   5.798  1.9407 -1.3479 -0.0186
 9084SOL     OW38710   3.632   0.598   2.414  0.1376  0.7679  0.3947
 9084SOL    HW138711   3.675   0.633   2.336  0.4385 -0.0882  0.1720
 9084SOL    HW238712   3.711   0.572   2.462 -0.8534 -0.6341  1.2373
 9085SOL     OW38713   2.652   2.460   0.765 -0.1400  0.4474  0.1315
 9085SOL    HW138714   2.633   2.486   0.674  0.7978  0.7423  0.0195
 9085SOL    HW238715   2.655   2.543   0.812  0.2961  0.6202 -0.1922
 9086SOL     OW38716   1.584   2.439   8.822  0.6817 -0.3397  0.1037
 9086SOL    HW138717   1.516   2.471   8.762 -0.9720 -0.9670  1.6593
 9086SOL    HW238718   1.531   2.438   8.902 -0.2179  0.3096 -0.4755
 9087SOL     OW38719   0.617   2.092  12.249 -0.2508  0.0426 -0.3571
 9087SOL    HW138720   0.701   2.123  12.216  1.0575  0.0980  3.0324
 9087SOL    HW238721   0.648   2.014  12.295 -0.5340  1.3288  1.9918
 9088SOL     OW38722   1.394   3.597   4.018  0.2613 -0.0350 -0.2454
 9088SOL    HW138723   1.391   3.668   4.082 -3.4994  0.5099 -1.0230
 9088SOL    HW238724   1.411   3.650   3.940  0.9585 -0.4533 -0.3826
 9089SOL     OW38725   4.119   3.079   4.661  0.1773  0.1370 -0.3669
 9089SOL    HW138726   4.150   3.021   4.731 -1.0253 -1.3281 -1.0641
 9089SOL    HW238727   4.036   3.044   4.630 -0.5052  1.2103  0.2419
 9090SOL     OW38728   2.112   1.443   9.673 -0.0979 -0.2095  0.0676
 9090SOL    HW138729   2.047   1.427   9.741 -1.7103 -1.7116 -1.8386
 9090SOL    HW238730   2.188   1.388   9.691 -0.4485 -0.9837 -0.8413
 9091SOL     OW38731   3.818   2.247  13.942 -0.0122  0.4879  0.0180
 9091SOL    HW138732   3.839   2.298  14.020 -0.2940 -0.8825  0.9738
 9091SOL    HW238733   3.848   2.163  13.975 -1.3947 -0.5010 -1.2272
 9092SOL     OW38734   2.639   1.788  10.388  0.0128 -0.3138 -0.2640
 9092SOL    HW138735   2.604   1.824  10.469 -0.6932 -1.4634 -0.0721
 9092SOL    HW238736   2.692   1.864  10.362 -0.0277 -0.1484  0.1505
 9093SOL     OW38737   3.950   3.445  11.465 -0.7784 -0.0637 -0.3283
 9093SOL    HW138738   3.916   3.366  11.423 -1.5121 -0.0835  0.2873
 9093SOL    HW238739   3.982   3.404  11.545  1.5946 -0.5156 -1.5315
 9094SOL     OW38740   0.021   4.685   9.345 -0.1161  0.4285  0.4443
 9094SOL    HW138741   0.004   4.645   9.430 -0.1690 -2.7871 -1.0878
 9094SOL    HW238742   0.075   0.037   9.374  0.8482 -0.5449  1.1254
 9095SOL     OW38743   4.583   2.111   5.930 -0.6747 -0.3735 -0.4850
 9095SOL    HW138744   4.542   2.054   5.994 -1.8276  1.5801  0.5218
 9095SOL    HW238745   4.591   2.044   5.862 -2.0206 -0.5004 -0.5168
 9096SOL     OW38746   0.518   1.986   2.607 -0.0587 -0.0418 -0.2007
 9096SOL    HW138747   0.497   1.895   2.627  1.5414 -0.0447  1.4720
 9096SOL    HW238748   0.606   1.996   2.644  1.1029 -0.9983 -2.6511
 9097SOL     OW38749   3.146   3.596  17.524  0.0600 -0.7005  0.2327
 9097SOL    HW138750   3.217   3.616  17.585  0.5613  0.4198 -0.7277
 9097SOL    HW238751   3.112   3.684  17.507 -0.2091 -0.8551 -0.0233
 9098SOL     OW38752   1.540   1.387  14.092 -0.0357  0.3272  0.4399
 9098SOL    HW138753   1.634   1.406  14.080 -0.0893 -0.9505 -2.0692
 9098SOL    HW238754   1.547   1.330  14.168 -2.4153 -1.2639 -0.5640
 9099SOL     OW38755   2.767   0.858  10.345 -0.2807 -0.4540  0.4304
 9099SOL    HW138756   2.773   0.777  10.396  1.3800 -1.0612 -0.6971
 9099SOL    HW238757   2.818   0.917  10.400 -0.0438  1.4353 -1.8195
 9100SOL     OW38758   1.592   4.295   4.981 -0.5495  0.1960 -0.2385
 9100SOL    HW138759   1.679   4.330   4.964 -0.4834 -0.3032 -0.9170
 9100SOL    HW238760   1.575   4.315   5.073 -2.1647 -1.7142 -0.1334
 9101SOL     OW38761   4.176   2.094  16.913 -0.3156  0.4105 -0.7887
 9101SOL    HW138762   4.100   2.063  16.864 -0.5233 -0.2219 -0.0748
 9101SOL    HW238763   4.195   2.172  16.862  1.8931  0.9844  0.9181
 9102SOL     OW38764   2.512   3.280   2.217 -0.7958  0.1592 -0.1966
 9102SOL    HW138765   2.602   3.275   2.186 -1.7052  1.2405 -3.0493
 9102SOL    HW238766   2.486   3.188   2.223 -0.3489  0.0627  0.1890
 9103SOL     OW38767   0.841   4.179  14.870 -0.2791 -0.3328  0.0984
 9103SOL    HW138768   0.889   4.251  14.910 -1.2721  0.6800 -0.5373
 9103SOL    HW238769   0.755   4.198  14.908 -1.2880 -2.4433 -1.1004
 9104SOL     OW38770   4.433   1.274  14.749 -0.2052  0.0679  0.1609
 9104SOL    HW138771   4.528   1.289  14.749 -0.0732 -0.7929  1.3996
 9104SOL    HW238772   4.397   1.337  14.686  1.7940  0.3915 -0.6883
 9105SOL     OW38773   3.118   0.727   3.511  0.4480  0.2061 -0.1646
 9105SOL    HW138774   3.040   0.676   3.529  0.9793 -0.3281  0.5987
 9105SOL    HW238775   3.129   0.700   3.420 -1.9403  0.6179 -0.5789
 9106SOL     OW38776   4.168   2.698  17.198 -0.2664  0.3603 -0.2653
 9106SOL    HW138777   4.257   2.724  17.224  0.3334 -1.9798 -0.0194
 9106SOL    HW238778   4.110   2.772  17.219  0.0675  0.1769  1.3510
 9107SOL     OW38779   3.885   1.183  10.192 -0.0288  0.4238  0.1155
 9107SOL    HW138780   3.963   1.235  10.176  0.2343 -0.0353 -0.0639
 9107SOL    HW238781   3.876   1.205  10.285  0.1471  3.5275 -0.6173
 9108SOL     OW38782   4.274   0.317  16.548  0.5653 -0.6623 -0.6435
 9108SOL    HW138783   4.277   0.327  16.453 -0.0350  0.9652 -0.5027
 9108SOL    HW238784   4.351   0.363  16.583  1.1887 -0.8195 -1.8150
 9109SOL     OW38785   3.215   4.173  11.988 -0.0639  0.1989 -0.0223
 9109SOL    HW138786   3.187   4.085  12.013  1.8315 -0.3066  0.3377
 9109SOL    HW238787   3.247   4.202  12.074  0.0032  0.1186 -0.0201
 9110SOL     OW38788   0.765   1.973   9.913  0.0597  0.2897  0.2634
 9110SOL    HW138789   0.802   1.950   9.999  0.3597  0.3096  0.1416
 9110SOL    HW238790   0.829   1.937   9.852 -0.3096  1.9121 -1.0900
 9111SOL     OW38791   1.776   3.779   9.975 -0.6270 -0.0101  0.2868
 9111SOL    HW138792   1.735   3.847   9.920 -0.3517  1.0120  1.3460
 9111SOL    HW238793   1.821   3.725   9.909  0.9794  0.0725  1.3210
 9112SOL     OW38794   2.380   0.244   3.094  0.2300 -0.0642 -0.5494
 9112SOL    HW138795   2.397   0.327   3.049 -1.6938 -0.0581 -1.2436
 9112SOL    HW238796   2.285   0.240   3.095  0.2928 -1.8998 -2.0333
 9113SOL     OW38797   3.693   4.111   5.195 -0.2894 -0.5342 -0.4286
 9113SOL    HW138798   3.774   4.107   5.145  1.1137 -3.7011  2.1105
 9113SOL    HW238799   3.644   4.174   5.142  0.1885 -0.9563 -1.3765
 9114SOL     OW38800   2.704   4.205   8.329  0.8171  0.1300  0.8203
 9114SOL    HW138801   2.659   4.287   8.351  0.0470 -0.2786  0.7728
 9114SOL    HW238802   2.659   4.149   8.393  1.0113 -0.9542  0.0101
 9115SOL     OW38803   2.385   4.466   5.014  0.3820 -0.2868  0.1616
 9115SOL    HW138804   2.387   4.415   4.932  3.3175  0.0188  0.0445
 9115SOL    HW238805   2.350   4.547   4.978 -1.5844 -0.6176  1.3365
 9116SOL     OW38806   2.992   4.550   9.922 -0.7560 -0.4112 -0.7251
 9116SOL    HW138807   2.933   4.618   9.957  1.3638  0.4872  1.1426
 9116SOL    HW238808   2.979   4.548   9.828  0.9515 -1.2567 -0.9344
 9117SOL     OW38809   0.627   1.508   7.356  0.7503 -0.4862  0.2626
 9117SOL    HW138810   0.689   1.435   7.348  1.9537  0.7136 -1.4897
 9117SOL    HW238811   0.681   1.561   7.415  1.4812  0.7648 -1.4937
 9118SOL     OW38812   3.848   4.139  17.088 -0.2185  0.0723  0.4041
 9118SOL    HW138813   3.753   4.136  17.076 -0.3730  1.0291  1.3457
 9118SOL    HW238814   3.873   4.211  17.030 -2.1099  1.2963  1.0763
 9119SOL     OW38815   0.198   1.528  13.221 -0.2023 -0.4660  0.2561
 9119SOL    HW138816   0.182   1.446  13.174  1.1791  0.1900 -1.3631
 9119SOL    HW238817   0.235   1.491  13.301  2.2698  0.6229 -0.3906
 9120SOL     OW38818   1.094   4.541   1.392  0.1866 -0.2067  0.1883
 9120SOL    HW138819   1.133   4.530   1.479  1.4226 -1.5121 -0.5139
 9120SOL    HW238820   1.018   4.590   1.422  0.1580 -0.9104  1.2751
 9121SOL     OW38821   0.880   4.290   0.673 -0.5310 -0.1465  0.1209
 9121SOL    HW138822   0.916   4.336   0.749  2.1643 -0.1821 -1.1393
 9121SOL    HW238823   0.859   4.371   0.626  0.8726  0.0344 -0.2014
 9122SOL     OW38824   0.944   0.360   7.254 -0.6267 -0.6746 -0.4421
 9122SOL    HW138825   0.994   0.436   7.283 -1.8616 -0.0892  0.1784
 9122SOL    HW238826   0.884   0.409   7.198  0.4659  0.7750 -0.3244
 9123SOL     OW38827   0.717   1.052   8.397  0.2337  0.2208 -0.3277
 9123SOL    HW138828   0.648   1.064   8.331  3.3341  2.6374 -3.1322
 9123SOL    HW238829   0.790   1.104   8.364  0.3763  0.4158  0.3016
 9124SOL     OW38830   4.295   3.403   6.912  0.1815  0.2491  0.4669
 9124SOL    HW138831   4.210   3.407   6.956 -0.1822 -0.9587 -0.1191
 9124SOL    HW238832   4.329   3.492   6.921 -0.4482  0.4182  1.1407
 9125SOL     OW38833   0.299   0.839  16.433 -0.4879  0.0232  0.1015
 9125SOL    HW138834   0.320   0.901  16.503  1.2283  0.5243 -0.8560
 9125SOL    HW238835   0.265   0.776  16.497 -0.0098  0.2635  0.5883
 9126SOL     OW38836   1.503   3.437  17.324 -0.6760  0.3813 -0.3549
 9126SOL    HW138837   1.589   3.431  17.282 -1.4816  1.0121 -2.1070
 9126SOL    HW238838   1.458   3.502  17.270  0.4575  1.7261  0.3337
 9127SOL     OW38839   0.442   0.340   8.383 -0.4164 -0.0203  0.5455
 9127SOL    HW138840   0.497   0.287   8.441  1.1201  1.4315  0.3910
 9127SOL    HW238841   0.441   0.419   8.437  0.7481 -0.0519  0.6103
 9128SOL     OW38842   0.315   2.875  14.581 -1.5667  0.4072 -0.2619
 9128SOL    HW138843   0.313   2.959  14.535  0.3164  0.6579  0.1063
 9128SOL    HW238844   0.270   2.831  14.509  1.3143  1.4461 -2.7029
 9129SOL     OW38845   1.846   0.189   5.710  0.3656  0.7452 -0.1812
 9129SOL    HW138846   1.766   0.136   5.712  1.4909 -1.0329 -2.2036
 9129SOL    HW238847   1.908   0.131   5.667 -0.6769  0.0777 -0.8027
 9130SOL     OW38848   2.536   4.003  10.515  0.0911 -0.1241  0.0818
 9130SOL    HW138849   2.622   3.966  10.494 -0.7451 -2.2269  0.4007
 9130SOL    HW238850   2.501   3.967  10.596  0.6189 -1.0365 -0.1004
 9131SOL     OW38851   3.059   0.737  14.177  0.1581  0.6019  0.5048
 9131SOL    HW138852   3.116   0.661  14.167 -1.4059 -0.2797 -1.6830
 9131SOL    HW238853   3.000   0.695  14.240  2.8549  1.3962  3.5977
 9132SOL     OW38854   0.511   1.460   0.321  0.1540  0.2838 -0.1403
 9132SOL    HW138855   0.521   1.379   0.270  0.8793 -0.0943  0.6140
 9132SOL    HW238856   0.490   1.422   0.406 -0.7798  0.1940 -0.4084
 9133SOL     OW38857   3.733   1.922   8.382  0.3369  0.3496 -0.1135
 9133SOL    HW138858   3.639   1.932   8.396  0.4407  0.6016  0.4072
 9133SOL    HW238859   3.760   2.012   8.401 -2.1978  0.7112  1.7138
 9134SOL     OW38860   4.282   0.987   9.924 -0.1933 -0.3871 -0.6953
 9134SOL    HW138861   4.338   0.962   9.851 -1.6085 -0.7725 -1.6346
 9134SOL    HW238862   4.343   0.973   9.997  0.6205 -0.3061 -1.3686
 9135SOL     OW38863   1.638   2.360   5.474 -0.3460  0.2396 -0.0311
 9135SOL    HW138864   1.547   2.351   5.444  0.3039 -0.0726 -1.9309
 9135SOL    HW238865   1.651   2.455   5.480  2.1969 -0.0188 -1.2888
 9136SOL     OW38866   1.487   3.164   4.009  0.0948 -0.3813  0.0110
 9136SOL    HW138867   1.399   3.137   4.037 -0.0389 -1.7196 -1.6782
 9136SOL    HW238868   1.539   3.157   4.089  1.3413 -0.6338 -0.8266
 9137SOL     OW38869   4.459   3.989   0.942 -0.3565  1.2699  0.3265
 9137SOL    HW138870   4.389   3.927   0.964 -1.3786  2.0513 -0.7801
 9137SOL    HW238871   4.516   3.955   1.011 -1.2030  0.1737  0.4872
 9138SOL     OW38872   2.802   2.106   3.199 -0.3016 -0.3255 -0.3228
 9138SOL    HW138873   2.793   2.190   3.244  0.9399  0.7751 -2.1407
 9138SOL    HW238874   2.723   2.066   3.236  0.1224  0.7055  1.6710
 9139SOL     OW38875   0.830   1.906   2.271 -0.3199 -0.0955 -0.1990
 9139SOL    HW138876   0.775   1.909   2.192  2.1227 -0.7001 -1.9297
 9139SOL    HW238877   0.779   1.973   2.316  0.0055  0.2680 -0.3750
 9140SOL     OW38878   2.311   0.182   7.630  0.1934 -0.3638  0.1396
 9140SOL    HW138879   2.269   0.227   7.704  1.3450  2.3613 -0.8712
 9140SOL    HW238880   2.247   0.190   7.560 -1.5570  0.4903  1.8324
 9141SOL     OW38881   2.029   4.534   3.371  1.0282 -0.1527  0.5857
 9141SOL    HW138882   2.099   4.580   3.323  0.0686  0.0331 -0.6340
 9141SOL    HW238883   2.009   4.466   3.306  1.3065 -0.3064  0.6602
 9142SOL     OW38884   3.228   2.333   7.431  0.6562  0.7497  0.1130
 9142SOL    HW138885   3.147   2.283   7.435  0.7155  0.5900 -0.6372
 9142SOL    HW238886   3.215   2.378   7.515  1.0649 -1.1395  1.1763
 9143SOL     OW38887   0.082   3.488   6.261 -0.3611 -0.1426 -0.3350
 9143SOL    HW138888   0.056   3.441   6.340 -0.4176  0.5129  0.0322
 9143SOL    HW238889   0.117   3.415   6.210  0.6541 -0.5590  0.9720
 9144SOL     OW38890   3.036   3.011   8.387  0.6863 -0.2115 -0.6180
 9144SOL    HW138891   3.079   2.949   8.327  0.8560 -0.3020 -0.4001
 9144SOL    HW238892   3.050   2.964   8.469 -2.7069 -1.1066 -0.5561
 9145SOL     OW38893   2.465   2.141   3.372  0.3276 -0.2017 -0.2570
 9145SOL    HW138894   2.407   2.217   3.366  1.7034  0.8287 -0.5995
 9145SOL    HW238895   2.548   2.169   3.410  0.4315 -1.1266  0.1698
 9146SOL     OW38896   2.518   4.039   7.524 -0.1495 -0.9758  0.5798
 9146SOL    HW138897   2.508   3.962   7.579  0.8636 -1.0759  0.6308
 9146SOL    HW238898   2.603   4.027   7.481 -1.7190 -1.6381 -2.3557
 9147SOL     OW38899   0.679   4.479   1.926  0.6362 -0.4788 -0.7600
 9147SOL    HW138900   0.602   4.502   1.979  0.8876  1.0328 -1.0345
 9147SOL    HW238901   0.742   4.433   1.981  1.0339 -0.6149 -1.3200
 9148SOL     OW38902   2.423   3.722  12.263 -0.4241 -0.4228 -0.0762
 9148SOL    HW138903   2.392   3.812  12.269  1.8638  0.3046  0.9266
 9148SOL    HW238904   2.351   3.675  12.221  1.3971 -3.2142 -0.1402
 9149SOL     OW38905   2.333   4.338   5.506  0.1107  0.4602 -0.2265
 9149SOL    HW138906   2.276   4.353   5.430 -1.6681  1.4958  1.3267
 9149SOL    HW238907   2.274   4.341   5.580 -0.8644 -0.8927 -0.9543
 9150SOL     OW38908   0.606   3.510   0.592  0.0343  0.2004  0.0797
 9150SOL    HW138909   0.569   3.571   0.656 -2.1828 -0.5373 -0.4994
 9150SOL    HW238910   0.561   3.432   0.625 -1.6281  0.7707 -0.8470
 9151SOL     OW38911   1.291   1.189   9.586  0.0344 -0.1480  0.9781
 9151SOL    HW138912   1.357   1.258   9.580  0.3884 -0.5925 -0.3090
 9151SOL    HW238913   1.351   1.118   9.563  1.5018  1.5504 -0.4685
 9152SOL     OW38914   0.943   4.470   2.347  0.1563 -0.3449  0.1914
 9152SOL    HW138915   1.012   4.425   2.299  0.0968 -1.1305  0.8422
 9152SOL    HW238916   0.870   4.409   2.334  0.7558 -0.6555 -1.5762
 9153SOL     OW38917   0.128   0.914   3.824 -0.1079 -0.2414  0.3023
 9153SOL    HW138918   0.167   0.945   3.743  0.2143  1.3889  1.0818
 9153SOL    HW238919   0.113   0.997   3.870  0.7564  1.2637 -2.1342
 9154SOL     OW38920   1.042   4.233   2.827 -0.4987  0.3557 -0.5205
 9154SOL    HW138921   0.969   4.268   2.776 -0.5936 -0.3157 -0.8459
 9154SOL    HW238922   1.099   4.310   2.830  4.1701 -3.2552  2.9130
 9155SOL     OW38923   0.174   3.057  15.463  0.3870  0.1555  0.1750
 9155SOL    HW138924   0.090   3.019  15.489  0.4166 -0.6984 -0.9306
 9155SOL    HW238925   0.244   3.027  15.520  0.8678  1.0494  0.0574
 9156SOL     OW38926   4.296   2.152   0.129 -0.3882  0.4043 -0.3568
 9156SOL    HW138927   4.211   2.170   0.089 -0.1717  0.9294 -0.5788
 9156SOL    HW238928   4.352   2.210   0.077 -1.7022 -0.1904 -2.4078
 9157SOL     OW38929   0.885   4.183   7.909  0.0503  0.3911  0.0928
 9157SOL    HW138930   0.945   4.111   7.926 -1.2043 -0.7525 -0.3268
 9157SOL    HW238931   0.903   4.192   7.815 -1.3263  2.1550 -0.0175
 9158SOL     OW38932   0.359   1.063   9.684 -0.1507 -0.6839 -0.4131
 9158SOL    HW138933   0.391   0.986   9.636  1.0208 -0.1562 -0.4766
 9158SOL    HW238934   0.396   1.051   9.772  0.0852 -0.3027 -0.4583
 9159SOL     OW38935   1.494   0.067   2.139  0.1745  0.4303  0.5149
 9159SOL    HW138936   1.502   0.141   2.078 -1.5012 -0.5038 -0.8261
 9159SOL    HW238937   1.482   0.115   2.221 -0.6618  4.0475 -1.6954
 9160SOL     OW38938   3.253   3.365   7.697  0.7294  0.5869  0.4247
 9160SOL    HW138939   3.248   3.272   7.678 -0.4518  0.8907 -0.7443
 9160SOL    HW238940   3.260   3.402   7.608 -0.8623 -0.5524 -0.1658
 9161SOL     OW38941   1.231   0.143  13.523 -0.3783 -0.0149  0.0285
 9161SOL    HW138942   1.213   0.161  13.615  0.3258 -1.8207  0.5292
 9161SOL    HW238943   1.141   0.126  13.495 -0.4579  0.3407  0.0690
 9162SOL     OW38944   3.213   4.466   6.704  0.2821 -0.2545 -0.1323
 9162SOL    HW138945   3.134   4.505   6.740 -0.4592 -0.6224 -1.3851
 9162SOL    HW238946   3.255   4.517   6.635  1.7416 -0.3993  0.6307
 9163SOL     OW38947   1.829   4.063  12.276  0.3445  0.2394  0.1625
 9163SOL    HW138948   1.853   4.071  12.368  1.0484  0.8882 -0.0806
 9163SOL    HW238949   1.734   4.068  12.281  0.3428  0.2655  0.0999
 9164SOL     OW38950   4.437   3.887   2.462 -0.1718  0.2326 -0.2886
 9164SOL    HW138951   4.513   3.940   2.486  1.3174 -2.2128  0.4101
 9164SOL    HW238952   4.412   3.874   2.554 -0.3772  0.5175 -0.3038
 9165SOL     OW38953   1.393   2.782   8.955 -0.3644  0.4868 -1.0242
 9165SOL    HW138954   1.306   2.742   8.965  0.6298 -0.6801  3.0754
 9165SOL    HW238955   1.440   2.709   8.995 -2.9882 -0.7225 -0.1330
 9166SOL     OW38956   3.930   2.915   1.613 -0.1028 -0.1498 -0.1650
 9166SOL    HW138957   3.960   3.003   1.594 -1.8665  0.4297 -0.3308
 9166SOL    HW238958   3.915   2.875   1.527 -1.0163 -2.6801  1.1738
 9167SOL     OW38959   2.897   2.747   9.170 -0.4579  0.4026 -0.0070
 9167SOL    HW138960   2.835   2.798   9.222 -0.5979 -0.9309  1.1199
 9167SOL    HW238961   2.984   2.771   9.202 -0.5220 -1.5053  1.5183
 9168SOL     OW38962   4.175   0.797   5.179  0.0410  0.4795 -0.2309
 9168SOL    HW138963   4.267   0.819   5.173  0.0026  0.4691 -0.9113
 9168SOL    HW238964   4.144   0.855   5.109  2.2773  1.4760 -0.4013
 9169SOL     OW38965   1.647   1.244  17.416  0.3444  0.2362  0.5448
 9169SOL    HW138966   1.555   1.270  17.416  0.3962  0.4184 -0.3402
 9169SOL    HW238967   1.689   1.317  17.463  1.2680  0.2225 -0.2483
 9170SOL     OW38968   0.380   3.946   7.723  0.1613  0.0277 -0.3560
 9170SOL    HW138969   0.454   3.968   7.666 -0.7643  1.9496 -0.8424
 9170SOL    HW238970   0.364   4.035   7.756  0.0857 -0.2841  0.4231
 9171SOL     OW38971   3.761   3.559   8.753  0.4350 -0.0738  0.0651
 9171SOL    HW138972   3.676   3.594   8.780 -0.4681 -0.6461 -2.0336
 9171SOL    HW238973   3.800   3.641   8.724 -0.6204  0.2057 -0.5790
 9172SOL     OW38974   4.266   4.291   4.539  0.1072  0.1786 -0.2748
 9172SOL    HW138975   4.325   4.318   4.468  0.7785  0.0917  0.2449
 9172SOL    HW238976   4.215   4.223   4.495  0.3885  0.2588 -0.7281
 9173SOL     OW38977   3.263   0.838   5.352 -0.2578 -0.2296 -0.0947
 9173SOL    HW138978   3.348   0.796   5.354  0.7595  1.7697 -1.2498
 9173SOL    HW238979   3.282   0.906   5.287 -2.8555 -0.2016 -0.8355
 9174SOL     OW38980   0.410   2.697   0.916 -0.5231  0.1210 -0.6131
 9174SOL    HW138981   0.464   2.726   0.843  1.1118 -0.7123  0.2830
 9174SOL    HW238982   0.384   2.609   0.891  0.5528 -1.3178  3.3913
 9175SOL     OW38983   0.898   2.745   5.141  0.2589  0.2596 -0.4770
 9175SOL    HW138984   0.874   2.793   5.062 -0.1034  1.6071  0.4386
 9175SOL    HW238985   0.842   2.787   5.207  1.9429 -0.5133  1.4755
 9176SOL     OW38986   1.726   2.703  11.157 -0.0490 -0.0023  0.3064
 9176SOL    HW138987   1.783   2.778  11.170  1.5925 -1.2530  0.4058
 9176SOL    HW238988   1.752   2.635  11.220 -1.7222  0.8936  1.9307
 9177SOL     OW38989   4.442   1.801  11.193  0.3133  0.0359 -0.0782
 9177SOL    HW138990   4.438   1.714  11.233  0.0548  0.4433  0.7818
 9177SOL    HW238991   4.351   1.830  11.199  0.3100  0.6275 -3.4761
 9178SOL     OW38992   4.498   2.966   1.857 -0.5087 -0.1600  0.0290
 9178SOL    HW138993   4.431   3.023   1.819 -0.4065  0.6314  1.0180
 9178SOL    HW238994   4.552   3.030   1.904  0.3079 -0.5079 -0.4380
 9179SOL     OW38995   0.150   4.446   4.829  0.3445 -0.5808 -0.7323
 9179SOL    HW138996   0.235   4.489   4.822 -0.2077  0.4694 -0.9181
 9179SOL    HW238997   0.147   4.421   4.921 -0.6342  0.6370 -0.4488
 9180SOL     OW38998   1.209   3.344   8.594  0.4369 -0.2016 -0.3723
 9180SOL    HW138999   1.227   3.268   8.539 -0.6932  1.3490 -2.9005
 9180SOL    HW239000   1.222   3.306   8.681 -0.3065 -0.8444 -0.5345
 9181SOL     OW39001   4.558   0.720   2.828 -0.0945  0.0538  0.7019
 9181SOL    HW139002   4.585   0.732   2.738 -2.7426  0.5607 -0.0331
 9181SOL    HW239003   4.482   0.666   2.805  0.6428 -0.2221 -1.0589
 9182SOL     OW39004   2.981   2.447   3.990 -0.2570 -0.1224 -0.1338
 9182SOL    HW139005   2.991   2.436   4.084 -0.2223 -1.7679 -0.3194
 9182SOL    HW239006   2.893   2.484   3.982  0.4365  1.6743  0.6070
 9183SOL     OW39007   4.386   4.562   5.318 -0.2016 -0.3377  0.4580
 9183SOL    HW139008   4.468   4.573   5.366 -0.2327  0.2844  0.3687
 9183SOL    HW239009   4.422   4.545   5.231 -2.2848 -1.0624 -0.2563
 9184SOL     OW39010   0.255   1.721   9.142 -0.2560  0.0978  0.3734
 9184SOL    HW139011   0.345   1.750   9.125  0.0627  0.4428  2.7217
 9184SOL    HW239012   0.219   1.801   9.180  1.5502  0.0577  2.1440
 9185SOL     OW39013   4.206   3.761  10.766  0.1503 -0.4499  0.2504
 9185SOL    HW139014   4.267   3.696  10.729  1.1996  0.7769 -0.1601
 9185SOL    HW239015   4.267   3.807  10.824 -2.4723 -1.4781  3.8448
 9186SOL     OW39016   2.889   3.899   6.602  0.4178  0.3827  0.3632
 9186SOL    HW139017   2.951   3.945   6.658  0.8039 -0.9805  1.0723
 9186SOL    HW239018   2.810   3.918   6.652  0.8461  1.2090  0.7178
 9187SOL     OW39019   2.539   2.933   8.170 -0.0269  0.6284  0.9651
 9187SOL    HW139020   2.605   2.951   8.238 -0.1679 -0.4539  1.3831
 9187SOL    HW239021   2.471   2.894   8.225 -0.0078 -0.9254 -0.1133
 9188SOL     OW39022   1.118   2.825   2.190  0.3421 -0.6112 -0.2225
 9188SOL    HW139023   1.122   2.881   2.268  0.8816  1.4283 -1.7231
 9188SOL    HW239024   1.159   2.885   2.128  0.6730 -0.0875  0.4992
 9189SOL     OW39025   3.471   4.257   9.781 -0.1210  0.2988 -0.5268
 9189SOL    HW139026   3.435   4.241   9.868 -4.4152 -1.3312 -2.6129
 9189SOL    HW239027   3.565   4.246   9.796 -0.1246  1.0690  0.0356
 9190SOL     OW39028   0.805   0.767  16.830  0.1298 -0.0424 -0.2788
 9190SOL    HW139029   0.718   0.735  16.806  0.3023 -1.2735  0.7067
 9190SOL    HW239030   0.783   0.857  16.851  2.7619  0.5723 -0.1644
 9191SOL     OW39031   2.051   0.168   4.033 -0.6883  0.7694 -0.4331
 9191SOL    HW139032   1.997   0.093   4.060  0.0013  0.7806  0.9881
 9191SOL    HW239033   2.136   0.125   4.028 -0.5623  0.7408  2.1790
 9192SOL     OW39034   3.542   1.168   9.150 -0.0432 -0.0880 -0.3838
 9192SOL    HW139035   3.452   1.179   9.182 -0.7555  0.8626 -2.6538
 9192SOL    HW239036   3.536   1.175   9.055  1.0903 -0.3198 -0.4656
 9193SOL     OW39037   0.639   2.408   5.410  0.3156 -0.8442 -0.8126
 9193SOL    HW139038   0.731   2.435   5.411  0.1977 -0.4511  0.2016
 9193SOL    HW239039   0.610   2.440   5.325 -1.9611  1.4343  0.8337
 9194SOL     OW39040   1.468   3.615   5.920  0.4942  0.3845  0.5824
 9194SOL    HW139041   1.393   3.642   5.866  1.6162  0.4500 -0.9307
 9194SOL    HW239042   1.448   3.686   5.981 -1.1271 -1.1676  1.8583
 9195SOL     OW39043   2.599   2.523   9.261  0.4205 -0.0654 -0.2914
 9195SOL    HW139044   2.547   2.585   9.210  3.6204  2.5731 -0.3249
 9195SOL    HW239045   2.561   2.532   9.348  0.5985  0.3972 -0.2622
 9196SOL     OW39046   1.384   2.847   1.695 -0.4478 -0.1842 -0.5614
 9196SOL    HW139047   1.354   2.823   1.607  0.8000 -2.0932 -0.4577
 9196SOL    HW239048   1.469   2.887   1.678 -1.2604  1.4902 -0.7257
 9197SOL     OW39049   1.107   3.432  15.123 -0.2938 -0.2343 -0.0060
 9197SOL    HW139050   1.186   3.412  15.074 -1.1766  0.4400 -1.7177
 9197SOL    HW239051   1.126   3.392  15.208  0.0102 -0.1002 -0.0130
 9198SOL     OW39052   1.511   2.756  16.489  0.3742 -0.0035  0.2506
 9198SOL    HW139053   1.575   2.753  16.561 -0.6815  0.9683  1.2232
 9198SOL    HW239054   1.431   2.756  16.541  0.4361  0.8804  0.3452
 9199SOL     OW39055   0.817   0.389   4.223 -0.3495 -0.3779  0.2124
 9199SOL    HW139056   0.875   0.453   4.182 -0.5087  0.6408  1.6062
 9199SOL    HW239057   0.864   0.316   4.182 -0.9398 -0.5061 -0.2411
 9200SOL     OW39058   3.005   0.731   2.428  0.0355  0.4292  0.0509
 9200SOL    HW139059   2.935   0.747   2.492  1.7721  0.4232  1.9497
 9200SOL    HW239060   3.028   0.823   2.412 -0.5661  0.7760  1.2130
 9201SOL     OW39061   3.993   2.840   7.963 -0.0929 -0.2663 -0.2195
 9201SOL    HW139062   4.015   2.924   8.005 -1.3221 -0.0277 -0.0375
 9201SOL    HW239063   4.001   2.786   8.042 -1.3236  0.2182  0.2453
 9202SOL     OW39064   0.123   0.640   8.304  0.2185 -0.0397 -0.0010
 9202SOL    HW139065   0.186   0.576   8.271  1.0774  0.6834  0.2310
 9202SOL    HW239066   0.090   0.673   8.221 -0.7300 -1.0479 -0.0192
 9203SOL     OW39067   1.530   1.191   0.087 -0.0824 -0.2044  0.2857
 9203SOL    HW139068   1.570   1.278   0.085  0.3594 -0.4288 -1.3618
 9203SOL    HW239069   1.610   1.138   0.083  0.7418  1.1476 -1.2481
 9204SOL     OW39070   2.709   4.651  11.389  0.4430 -0.0361 -0.7562
 9204SOL    HW139071   2.799   4.666  11.360 -0.1555 -0.9050 -3.0355
 9204SOL    HW239072   2.670   0.015  11.397  2.0930  0.7581 -1.2441
 9205SOL     OW39073   4.178   0.885   8.641 -0.2728 -0.0757  0.3185
 9205SOL    HW139074   4.128   0.934   8.707 -2.0051  0.2554 -1.2145
 9205SOL    HW239075   4.259   0.875   8.691 -0.0488  0.2601  0.0209
 9206SOL     OW39076   0.097   3.931   8.274 -0.4236 -0.3628  0.3527
 9206SOL    HW139077   0.066   4.014   8.311 -0.5157 -0.6772  0.9950
 9206SOL    HW239078   0.173   3.913   8.330  0.4654  0.4720 -0.5959
 9207SOL     OW39079   1.460   0.116   3.852  0.0353 -0.4316  1.1401
 9207SOL    HW139080   1.524   0.046   3.840 -0.8435 -1.0625  0.1380
 9207SOL    HW239081   1.511   0.194   3.830  0.3949 -0.6201  1.3037
 9208SOL     OW39082   2.732   3.601  11.936  0.4090 -0.1169 -0.5139
 9208SOL    HW139083   2.693   3.665  11.995 -2.2067 -1.4135 -0.8734
 9208SOL    HW239084   2.798   3.657  11.893  1.0852  1.0535  2.0800
 9209SOL     OW39085   0.441   0.048   3.073  0.3945  0.0783  0.0409
 9209SOL    HW139086   0.444   0.001   2.990  1.0255  0.2794 -0.0497
 9209SOL    HW239087   0.373   0.114   3.057  0.3500 -0.3463 -1.4430
 9210SOL     OW39088   2.890   1.516   2.499 -0.2404 -0.0889  0.2917
 9210SOL    HW139089   2.948   1.521   2.575 -0.4386 -0.8089  0.4906
 9210SOL    HW239090   2.832   1.441   2.516 -2.8236  1.6750 -0.8169
 9211SOL     OW39091   2.562   2.386   8.182  0.7439  0.1659  0.1176
 9211SOL    HW139092   2.506   2.369   8.257  0.9288  0.5303  0.3404
 9211SOL    HW239093   2.497   2.439   8.137 -0.0735 -2.1030 -1.3466
 9212SOL     OW39094   0.540   2.046   4.644  0.3591 -1.0732  0.1111
 9212SOL    HW139095   0.581   2.026   4.728 -0.6868 -0.6094  0.7330
 9212SOL    HW239096   0.491   2.126   4.662  0.5143 -0.5108 -1.9221
 9213SOL     OW39097   2.485   0.332   6.526 -0.6487  0.4051 -0.0186
 9213SOL    HW139098   2.440   0.248   6.527  1.5443 -0.7418  1.5400
 9213SOL    HW239099   2.513   0.331   6.434  1.1751 -2.6861  0.5820
 9214SOL     OW39100   3.080   0.187   4.597  0.0607 -0.0534  0.0622
 9214SOL    HW139101   3.152   0.166   4.537 -2.4676 -0.4466 -2.8372
 9214SOL    HW239102   3.071   0.282   4.589 -0.7580 -0.1024  0.3934
 9215SOL     OW39103   2.730   4.091   3.737  0.4803 -0.1963 -0.6827
 9215SOL    HW139104   2.792   4.093   3.810  0.6548  1.2798 -0.8781
 9215SOL    HW239105   2.653   4.067   3.788  0.5205 -0.7947 -0.8915
 9216SOL     OW39106   1.084   4.214  16.038 -0.2409  0.1993 -0.0110
 9216SOL    HW139107   1.162   4.268  16.030  0.7272 -1.3350 -0.8939
 9216SOL    HW239108   1.035   4.217  15.956 -1.8841  0.5112  0.9908
 9217SOL     OW39109   4.519   2.486   2.797 -0.0471 -0.2731 -0.5640
 9217SOL    HW139110   4.597   2.492   2.852  0.2829  0.8963 -1.1531
 9217SOL    HW239111   4.547   2.503   2.707 -0.6090  0.8318 -0.5341
 9218SOL     OW39112   4.492   1.405   9.102 -0.1022 -0.7246 -0.0637
 9218SOL    HW139113   4.454   1.486   9.067  1.5452 -0.4702 -1.2200
 9218SOL    HW239114   4.577   1.392   9.062  0.0212 -3.7063  1.1414
 9219SOL     OW39115   0.480   0.029   3.641  0.3037  0.4785 -0.4744
 9219SOL    HW139116   0.490   0.026   3.546  0.7907 -0.0575 -0.3996
 9219SOL    HW239117   0.563   0.054   3.682  1.4604 -2.5305 -1.0247
 9220SOL     OW39118   0.717   4.471   0.464 -0.1372 -0.5736 -0.1510
 9220SOL    HW139119   0.690   4.529   0.393  0.0993 -1.4544 -0.9668
 9220SOL    HW239120   0.812   4.478   0.452 -0.4241  0.4795 -1.7629
 9221SOL     OW39121   2.674   3.565   1.450 -0.1864 -0.0072  0.4356
 9221SOL    HW139122   2.652   3.553   1.357  0.8165 -0.3099  0.2420
 9221SOL    HW239123   2.769   3.576   1.460 -0.0754 -0.4130 -0.1924
 9222SOL     OW39124   0.842   3.240   0.206  0.0852 -0.0843 -0.5733
 9222SOL    HW139125   0.791   3.161   0.191  0.6501 -0.4653 -0.4657
 9222SOL    HW239126   0.800   3.276   0.284 -0.5563  1.0483 -1.4321
 9223SOL     OW39127   0.957   3.032   7.428 -0.2499 -0.3895 -0.3697
 9223SOL    HW139128   1.024   2.966   7.447 -1.4161 -1.6164 -0.5179
 9223SOL    HW239129   0.980   3.106   7.484 -4.0834 -0.0965  0.8397
 9224SOL     OW39130   0.354   4.232  15.425  0.4302  0.1841 -0.0596
 9224SOL    HW139131   0.376   4.187  15.506  0.3021 -0.2130 -0.2433
 9224SOL    HW239132   0.379   4.323  15.444 -0.6043  0.6840 -1.0576
 9225SOL     OW39133   4.568   0.854   6.282  0.6729  0.5775  0.5692
 9225SOL    HW139134   4.586   0.940   6.244  2.1561 -1.1648 -2.6696
 9225SOL    HW239135   4.492   0.885   6.330 -0.3742  0.8778 -1.2882
 9226SOL     OW39136   4.013   4.133  16.128 -0.0520 -0.4365 -0.0614
 9226SOL    HW139137   4.105   4.147  16.151 -0.1574  0.2731 -0.0585
 9226SOL    HW239138   4.010   4.164  16.037 -0.4823 -3.4468 -1.0791
 9227SOL     OW39139   1.920   1.559   8.192 -0.0455 -0.5614  0.7074
 9227SOL    HW139140   1.906   1.468   8.167 -2.7554  0.0474 -0.0173
 9227SOL    HW239141   1.869   1.601   8.123  0.0425 -1.0493  0.3454
 9228SOL     OW39142   0.314   1.198   5.325  0.5779  0.1881 -0.3099
 9228SOL    HW139143   0.319   1.260   5.252 -0.8800 -0.8129 -1.2647
 9228SOL    HW239144   0.380   1.211   5.393  0.7105  1.6627 -0.7193
 9229SOL     OW39145   1.696   0.687   5.100  0.0445  0.7219  0.3511
 9229SOL    HW139146   1.750   0.766   5.090 -0.9190  0.8247 -4.2446
 9229SOL    HW239147   1.758   0.643   5.158 -0.7525  1.8618  2.0730
 9230SOL     OW39148   4.336   3.890   4.637  0.0614  0.2195  0.7370
 9230SOL    HW139149   4.269   3.828   4.666  0.2522 -0.3727 -0.0898
 9230SOL    HW239150   4.318   3.960   4.699 -0.1865  0.1770  0.7160
 9231SOL     OW39151   3.093   3.269   3.925  0.0967  0.1447  0.0120
 9231SOL    HW139152   3.166   3.319   3.890  0.4697  0.2553  0.9538
 9231SOL    HW239153   3.134   3.183   3.937  0.5826  0.3141 -0.4493
 9232SOL     OW39154   2.814   0.326   5.295 -0.3123 -0.1012  0.1517
 9232SOL    HW139155   2.820   0.373   5.378  0.5971  0.9472 -0.5148
 9232SOL    HW239156   2.748   0.259   5.314 -0.5847 -0.2228 -1.2553
 9233SOL     OW39157   1.705   0.544  16.643 -0.1078  0.1849  0.4920
 9233SOL    HW139158   1.645   0.488  16.693  0.5203 -1.8725 -1.0544
 9233SOL    HW239159   1.756   0.477  16.598  0.0867 -0.4192  1.6145
 9234SOL     OW39160   3.956   2.775   2.807 -0.0683  0.2046  0.2027
 9234SOL    HW139161   3.948   2.704   2.870  1.1504  0.3824  0.5658
 9234SOL    HW239162   3.871   2.781   2.764  0.5431 -1.5390 -1.2203
 9235SOL     OW39163   4.541   1.402   3.369 -0.1048 -0.3173 -0.0053
 9235SOL    HW139164   4.448   1.413   3.349 -0.3041  0.9682  1.5400
 9235SOL    HW239165   4.558   1.475   3.429  0.6528  0.3226 -1.0103
 9236SOL     OW39166   1.148   2.410   3.616  0.3453 -0.3833  0.4672
 9236SOL    HW139167   1.237   2.411   3.651  0.4801  0.7390  0.1161
 9236SOL    HW239168   1.165   2.374   3.529 -1.7870 -2.6454  1.0101
 9237SOL     OW39169   4.146   1.316   6.751 -0.4810  0.0423 -0.6959
 9237SOL    HW139170   4.242   1.319   6.743 -0.3212 -0.5490  1.0403
 9237SOL    HW239171   4.124   1.407   6.771 -1.3149 -0.1600 -0.7155
 9238SOL     OW39172   3.821   2.560  11.588 -0.6987  0.4121 -0.0740
 9238SOL    HW139173   3.780   2.495  11.645  0.7054  0.3084  0.8220
 9238SOL    HW239174   3.747   2.603  11.544 -0.4352  0.2587 -0.6738
 9239SOL     OW39175   1.358   3.801  12.295 -0.8727  0.3145  0.1910
 9239SOL    HW139176   1.297   3.787  12.222 -1.6577  1.1705  0.6796
 9239SOL    HW239177   1.300   3.767  12.362  0.6566 -0.7254  0.9958
 9240SOL     OW39178   4.507   3.605   6.159 -0.3366 -0.6848  0.6469
 9240SOL    HW139179   4.479   3.521   6.194 -0.3630  0.4286  3.2636
 9240SOL    HW239180   4.593   3.582   6.125  0.6838 -0.6073  3.1926
 9241SOL     OW39181   1.348   0.118   4.905  0.1904 -0.3396 -0.2901
 9241SOL    HW139182   1.301   0.101   4.824  0.3091 -0.1908 -0.3903
 9241SOL    HW239183   1.340   0.214   4.907 -0.7289 -0.4484  0.8518
 9242SOL     OW39184   2.114   2.747   5.975  0.2244 -0.1157 -0.6366
 9242SOL    HW139185   2.068   2.751   6.059 -1.2829 -0.0339 -1.4605
 9242SOL    HW239186   2.205   2.766   5.998  0.7598 -0.9458 -2.1090
 9243SOL     OW39187   4.149   1.460  12.766 -0.1374  0.3419  0.3018
 9243SOL    HW139188   4.115   1.378  12.729  0.9191 -0.2108  0.5352
 9243SOL    HW239189   4.127   1.456  12.859  1.7133 -1.5798  0.6638
 9244SOL     OW39190   2.349   3.257   6.321  0.0502  0.0214 -0.1598
 9244SOL    HW139191   2.415   3.325   6.307  0.4224 -0.9431 -3.1443
 9244SOL    HW239192   2.276   3.315   6.343  0.4644  0.4604  0.0481
 9245SOL     OW39193   3.958   1.490   7.520  0.5192 -0.5249  0.3826
 9245SOL    HW139194   3.952   1.546   7.598  2.0265  0.1442  0.0205
 9245SOL    HW239195   4.054   1.495   7.518  0.5000  0.0881  0.7531
 9246SOL     OW39196   3.380   3.687   7.294  0.5225 -0.4749 -0.3736
 9246SOL    HW139197   3.324   3.742   7.348  0.9498  0.6761 -1.1158
 9246SOL    HW239198   3.465   3.731   7.299  0.4480 -0.1975 -1.6584
 9247SOL     OW39199   4.250   2.446   5.828  0.1908 -0.5257  0.3982
 9247SOL    HW139200   4.312   2.375   5.812 -1.0113 -1.9391  1.9004
 9247SOL    HW239201   4.305   2.521   5.806  0.9900 -1.3228 -0.3495
 9248SOL     OW39202   3.461   2.131   2.638 -0.0590  0.1541 -0.1407
 9248SOL    HW139203   3.542   2.169   2.603  0.9536 -2.0707 -0.1909
 9248SOL    HW239204   3.418   2.108   2.556  1.0247 -1.8660 -0.1579
 9249SOL     OW39205   2.813   2.118   7.968 -0.2324  0.8168  0.4838
 9249SOL    HW139206   2.792   2.128   8.061 -0.7599 -1.7910  0.6669
 9249SOL    HW239207   2.775   2.198   7.932  1.6790  1.8909  0.8854
 9250SOL     OW39208   2.697   2.548   5.067  0.0636  0.1034 -0.1433
 9250SOL    HW139209   2.690   2.633   5.110 -2.5907 -0.3013  0.2610
 9250SOL    HW239210   2.662   2.483   5.128  1.4024 -2.1390 -1.7605
 9251SOL     OW39211   3.843   3.607   7.525 -0.2596  0.1730  0.5790
 9251SOL    HW139212   3.921   3.662   7.519 -0.6007  0.6173  0.1400
 9251SOL    HW239213   3.877   3.524   7.558  1.0186  0.1058 -0.9120
 9252SOL     OW39214   1.203   1.040   3.642 -0.0707 -0.0714 -0.3781
 9252SOL    HW139215   1.118   1.012   3.675  0.0093 -0.2908 -0.3628
 9252SOL    HW239216   1.244   1.050   3.728  0.5408 -1.8990 -0.4717
 9253SOL     OW39217   4.595   3.651   7.683  0.7336 -0.0549  0.6330
 9253SOL    HW139218   4.624   3.645   7.775 -1.5884 -1.1005  1.2846
 9253SOL    HW239219   4.540   3.572   7.685  0.4542  0.1589  1.3187
 9254SOL     OW39220   0.260   2.082  17.670  0.1856  0.0279 -0.2931
 9254SOL    HW139221   0.311   2.106  17.593  3.6488 -1.1898  1.6047
 9254SOL    HW239222   0.180   2.042  17.636  0.5561 -1.3071  0.4300
 9255SOL     OW39223   4.117   0.194   7.599  0.2316  0.2774 -0.5061
 9255SOL    HW139224   4.191   0.136   7.583  0.5875  1.2349 -2.3154
 9255SOL    HW239225   4.117   0.249   7.521  0.3472 -0.6855 -1.1815
 9256SOL     OW39226   4.069   0.554   5.147 -0.2171 -0.3277 -0.3575
 9256SOL    HW139227   4.091   0.646   5.155 -1.5406 -0.2448  2.3278
 9256SOL    HW239228   4.133   0.516   5.207 -0.7904 -0.9326 -0.1272
 9257SOL     OW39229   2.769   4.671   4.511  0.2198 -0.3934 -0.4159
 9257SOL    HW139230   2.805   4.584   4.528 -0.7208 -0.7456 -0.2161
 9257SOL    HW239231   2.798   4.718   4.590  2.4900 -0.6433 -1.1044
 9258SOL     OW39232   4.129   3.393  12.535 -0.3075 -1.0803  0.6233
 9258SOL    HW139233   4.143   3.364  12.445  3.3520  2.1031  0.1271
 9258SOL    HW239234   4.038   3.369  12.550 -0.3384 -0.2227  1.8563
 9259SOL     OW39235   2.750   3.303  13.070  0.3234  0.0214 -0.2475
 9259SOL    HW139236   2.806   3.275  12.998  1.1642  0.0040  0.4151
 9259SOL    HW239237   2.706   3.381  13.037 -1.1264  0.1432  1.9320
 9260SOL     OW39238   2.775   1.195   0.628  0.2103 -0.4619 -0.4488
 9260SOL    HW139239   2.753   1.120   0.573 -2.9633 -0.2504  0.5017
 9260SOL    HW239240   2.689   1.197   0.672  1.0778 -3.1379  1.3782
 9261SOL     OW39241   0.901   2.137  17.687 -0.5463 -0.5628  0.0624
 9261SOL    HW139242   0.840   2.131   0.069 -0.0579 -2.0760  0.3467
 9261SOL    HW239243   0.919   2.043  17.677 -0.6752 -0.5381 -0.3659
 9262SOL     OW39244   3.907   1.366   3.434  0.4296 -0.0180  0.0778
 9262SOL    HW139245   3.896   1.400   3.523  1.0523  1.3174 -0.3573
 9262SOL    HW239246   3.827   1.313   3.427  0.3460  0.2425 -0.9207
 9263SOL     OW39247   2.863   3.598   2.711 -0.7082 -0.7036  0.2465
 9263SOL    HW139248   2.922   3.672   2.695 -0.8448 -0.8104 -0.7460
 9263SOL    HW239249   2.801   3.599   2.639  1.2026 -0.1144 -1.3866
 9264SOL     OW39250   0.497   1.983  11.850  0.3018 -0.1589 -0.3665
 9264SOL    HW139251   0.455   2.028  11.776  0.3068  1.6913  0.7382
 9264SOL    HW239252   0.448   1.902  11.864  0.5746  0.0706  1.9321
 9265SOL     OW39253   0.056   0.379   3.023  0.4258  0.8011 -0.0453
 9265SOL    HW139254   0.078   0.472   3.014  0.1538  0.8966  0.2641
 9265SOL    HW239255   0.079   0.356   3.114 -0.0400 -1.4057 -0.4730
 9266SOL     OW39256   1.943   2.868  12.276  0.8497 -0.4315 -0.3163
 9266SOL    HW139257   1.952   2.794  12.215 -1.3497  0.0784 -1.2560
 9266SOL    HW239258   2.005   2.934  12.243  0.3095 -1.5323 -3.5578
 9267SOL     OW39259   4.254   3.753  13.312 -0.0131 -0.9231 -0.2333
 9267SOL    HW139260   4.207   3.751  13.395 -0.9815 -0.1129 -0.7724
 9267SOL    HW239261   4.271   3.661  13.288 -0.5008 -1.5170  1.6946
 9268SOL     OW39262   1.951   4.319   2.837 -0.5029  0.0164 -0.2893
 9268SOL    HW139263   1.919   4.242   2.886  1.1119 -0.3167  0.2499
 9268SOL    HW239264   1.965   4.279   2.751  0.4639 -1.0373  0.3547
 9269SOL     OW39265   0.455   2.539   8.371  0.2212  0.1757  0.1836
 9269SOL    HW139266   0.360   2.533   8.365  0.2583  1.2050 -1.5512
 9269SOL    HW239267   0.486   2.449   8.356 -2.0101 -0.5719  0.0166
 9270SOL     OW39268   2.622   3.663   5.223 -0.1655  0.3134 -0.7004
 9270SOL    HW139269   2.633   3.571   5.196 -1.5069  0.0538 -0.3279
 9270SOL    HW239270   2.687   3.706   5.167  0.6053  0.3922  0.2434
 9271SOL     OW39271   0.342   2.457  10.063 -0.2384 -0.1747 -0.0042
 9271SOL    HW139272   0.314   2.516  10.134  0.1008 -0.6338  0.5172
 9271SOL    HW239273   0.437   2.453  10.069 -0.2699  1.7199  2.1835
 9272SOL     OW39274   4.289   4.388   0.371  0.2759 -0.0762  0.0659
 9272SOL    HW139275   4.342   4.427   0.441 -0.6180  0.9067  0.1947
 9272SOL    HW239276   4.344   4.403   0.294  0.4382 -1.9468 -0.1887
 9273SOL     OW39277   1.119   4.318   6.301  0.4114  0.1074 -0.1988
 9273SOL    HW139278   1.035   4.285   6.333 -0.7314  1.2341 -2.0077
 9273SOL    HW239279   1.166   4.239   6.273 -0.4638 -0.4739 -0.0195
 9274SOL     OW39280   2.413   0.078   4.667 -0.4190 -0.1195 -0.1214
 9274SOL    HW139281   2.417   0.091   4.573  0.1123  0.1145 -0.0679
 9274SOL    HW239282   2.486   0.137   4.687  0.4370 -0.5912 -1.8861
 9275SOL     OW39283   1.677   1.982   4.516 -0.0800  0.5711  0.8369
 9275SOL    HW139284   1.669   2.040   4.440  1.1982  1.9455  1.7653
 9275SOL    HW239285   1.634   2.037   4.582  2.0324  1.8375  1.1666
 9276SOL     OW39286   1.345   4.626   4.622  0.2839 -0.1806  0.1671
 9276SOL    HW139287   1.385   4.713   4.619 -0.4962  0.2371  1.6924
 9276SOL    HW239288   1.375   4.591   4.706 -0.5824  1.8046  1.3230
 9277SOL     OW39289   2.320   2.344   9.192  0.3160 -0.1403  0.0483
 9277SOL    HW139290   2.248   2.299   9.238 -0.2379  0.3529 -0.3394
 9277SOL    HW239291   2.282   2.428   9.167 -0.3049 -0.2187  0.7157
 9278SOL     OW39292   0.982   2.544  17.496 -0.1689 -0.4633 -0.1562
 9278SOL    HW139293   0.939   2.573  17.576 -0.0498  0.0898 -0.2921
 9278SOL    HW239294   0.920   2.477  17.466  0.3859 -1.1576  0.2313
 9279SOL     OW39295   3.183   1.795  12.557  0.1481  0.0724 -0.0050
 9279SOL    HW139296   3.237   1.874  12.564 -0.7475  0.8023 -1.2787
 9279SOL    HW239297   3.147   1.790  12.646 -1.8559 -1.6093 -0.9000
 9280SOL     OW39298   1.675   2.183   2.638 -0.1487  0.1936 -0.1328
 9280SOL    HW139299   1.623   2.242   2.582  0.8167  0.5074 -0.6953
 9280SOL    HW239300   1.715   2.124   2.575  0.3909  0.0573  0.3434
 9281SOL     OW39301   1.950   3.842   0.667  0.0909  0.5812 -0.1137
 9281SOL    HW139302   1.959   3.792   0.749 -0.3025  1.9256  0.7558
 9281SOL    HW239303   1.854   3.845   0.670  0.0949 -0.2883  1.3001
 9282SOL     OW39304   2.139   3.640  12.121  0.1332 -0.9882 -0.4788
 9282SOL    HW139305   2.172   3.558  12.083  0.5622 -0.9811 -0.1253
 9282SOL    HW239306   2.054   3.615  12.157 -0.6880  1.4048 -0.7509
 9283SOL     OW39307   1.522   0.221   7.865 -0.1084  0.3118 -0.4842
 9283SOL    HW139308   1.606   0.263   7.878 -0.2768  0.3663  0.4055
 9283SOL    HW239309   1.524   0.212   7.769  0.8438 -2.3749 -0.1996
 9284SOL     OW39310   3.647   1.380   8.307  0.3153  0.2360  0.0190
 9284SOL    HW139311   3.566   1.346   8.269 -0.9485  1.5118  1.5983
 9284SOL    HW239312   3.625   1.362   8.398 -0.7043  0.9626 -0.0874
 9285SOL     OW39313   1.410   1.245  13.884  0.1648  0.1380 -0.0318
 9285SOL    HW139314   1.362   1.182  13.939 -1.2043  1.0690 -0.1527
 9285SOL    HW239315   1.455   1.288  13.956 -1.8083 -0.9659  1.8484
 9286SOL     OW39316   1.137   0.242  13.757  0.5850  0.1989 -0.0722
 9286SOL    HW139317   1.124   0.337  13.753  2.9641  0.4538 -1.4320
 9286SOL    HW239318   1.050   0.210  13.780  1.7080 -2.4912  0.4288
 9287SOL     OW39319   3.101   2.120   8.150  0.2855  0.3792  0.3974
 9287SOL    HW139320   3.073   2.187   8.088  0.8152  0.6974  0.4979
 9287SOL    HW239321   3.183   2.160   8.181  1.6358 -0.0899 -2.5569
 9288SOL     OW39322   3.477   3.182  12.271 -0.0664  0.3998  0.6173
 9288SOL    HW139323   3.382   3.171  12.261 -0.0361  2.3418 -2.0295
 9288SOL    HW239324   3.508   3.117  12.209  1.0086  1.2901  0.2264
 9289SOL     OW39325   2.857   2.779   8.908  0.2680  0.3659 -0.5366
 9289SOL    HW139326   2.832   2.871   8.900  0.9859  0.7665  1.9082
 9289SOL    HW239327   2.875   2.771   9.002 -0.8721  1.2144 -0.2461
 9290SOL     OW39328   2.081   1.893   5.888 -0.1325  0.1574 -0.7432
 9290SOL    HW139329   2.038   1.859   5.966  2.4834 -0.2225  0.5580
 9290SOL    HW239330   2.067   1.823   5.825 -0.7106  0.8162 -1.3485
 9291SOL     OW39331   2.827   4.095   7.236  0.2316  0.3554 -0.6398
 9291SOL    HW139332   2.864   4.157   7.172 -0.3719  2.1685  0.7664
 9291SOL    HW239333   2.905   4.071   7.286 -0.4598 -1.1979 -0.3246
 9292SOL     OW39334   2.538   1.447   5.899 -0.3163  0.5285  0.4227
 9292SOL    HW139335   2.611   1.388   5.883 -0.0346  0.8918  0.3827
 9292SOL    HW239336   2.506   1.412   5.982 -1.0852 -1.8898 -0.9047
 9293SOL     OW39337   0.208   2.911   6.033 -0.4292  0.0692  0.1935
 9293SOL    HW139338   0.141   2.880   5.972 -1.0690  1.5390  0.1467
 9293SOL    HW239339   0.167   2.886   6.116 -0.1580 -1.6752 -0.1997
 9294SOL     OW39340   0.947   4.265   8.247  0.1878 -0.1638  0.0103
 9294SOL    HW139341   0.945   4.178   8.286 -0.0021 -1.9488 -3.9016
 9294SOL    HW239342   1.015   4.313   8.293  0.9504 -0.5082 -0.7651
 9295SOL     OW39343   0.364   0.810   9.041  0.1914 -0.5278 -0.2191
 9295SOL    HW139344   0.314   0.871   8.986 -0.1612  0.6182  1.3567
 9295SOL    HW239345   0.409   0.878   9.092  0.7873 -2.2542  1.5216
 9296SOL     OW39346   4.246   0.468  12.735  0.5285 -0.0927  0.2367
 9296SOL    HW139347   4.220   0.543  12.789  1.3570  0.1249  0.3282
 9296SOL    HW239348   4.328   0.441  12.777  1.6657  1.8300 -0.7504
 9297SOL     OW39349   4.597   1.132   3.993  0.3093 -0.0224  0.1440
 9297SOL    HW139350   4.561   1.167   4.074 -0.9867 -1.4267  0.1546
 9297SOL    HW239351   4.685   1.115   4.026  0.9570  0.0286 -1.5527
 9298SOL     OW39352   1.247   1.608   8.785  0.7842  0.2702  0.0533
 9298SOL    HW139353   1.269   1.591   8.693  1.6691 -0.3724  0.3848
 9298SOL    HW239354   1.205   1.526   8.809  2.4252 -0.9514 -1.2811
 9299SOL     OW39355   1.935   4.554   2.140  0.3218 -0.1484 -0.1540
 9299SOL    HW139356   2.027   4.527   2.136 -0.0667 -1.2255 -1.9445
 9299SOL    HW239357   1.896   4.472   2.171  0.2180 -0.0635 -0.0611
 9300SOL     OW39358   4.233   1.734   1.952 -0.6032  0.1414 -0.0096
 9300SOL    HW139359   4.204   1.654   1.997 -0.7559  0.2157  0.0259
 9300SOL    HW239360   4.253   1.701   1.865 -3.5515 -1.3152 -0.1592
 9301SOL     OW39361   0.490   2.623   6.447  1.0699  0.2261 -0.0688
 9301SOL    HW139362   0.519   2.545   6.496  1.3027  0.2804 -0.1202
 9301SOL    HW239363   0.510   2.589   6.360 -0.4605 -3.6791  1.0992
 9302SOL     OW39364   2.928   2.354   8.398  0.1621 -0.1891  0.4195
 9302SOL    HW139365   2.995   2.303   8.444 -0.8961  0.2855  2.4706
 9302SOL    HW239366   2.875   2.363   8.476  0.7281 -0.9351  0.8920
 9303SOL     OW39367   1.366   3.355  15.080  0.3965  0.3420 -0.6685
 9303SOL    HW139368   1.411   3.435  15.053  0.9908  0.6691  1.3118
 9303SOL    HW239369   1.363   3.301  15.000  1.3820  3.8864 -3.1088
 9304SOL     OW39370   1.393   3.831   4.131 -0.3373 -0.0329 -0.0043
 9304SOL    HW139371   1.419   3.860   4.219  2.5839  1.4480 -1.3653
 9304SOL    HW239372   1.432   3.896   4.072 -0.4336  1.7383  1.8911
 9305SOL     OW39373   1.835   0.501   5.270  0.0559 -0.0560 -0.1086
 9305SOL    HW139374   1.894   0.488   5.344  1.0904  1.2109 -0.6939
 9305SOL    HW239375   1.769   0.437   5.295  0.2924 -0.1082  0.3709
 9306SOL     OW39376   2.552   4.067   9.187 -0.1508  0.3987 -0.4811
 9306SOL    HW139377   2.538   4.161   9.175  1.8372  0.7249 -0.3202
 9306SOL    HW239378   2.647   4.069   9.194 -0.1492  0.9772 -0.6226
 9307SOL     OW39379   0.725   1.513   6.363  0.0648 -0.3101 -0.2048
 9307SOL    HW139380   0.783   1.590   6.361  1.3955 -1.2717  1.0038
 9307SOL    HW239381   0.651   1.535   6.308 -0.3617 -0.3852  0.3400
 9308SOL     OW39382   4.231   3.463   0.718  0.1702 -0.3174  0.2299
 9308SOL    HW139383   4.261   3.518   0.646 -2.7923  0.2307 -0.5479
 9308SOL    HW239384   4.152   3.421   0.684  0.4985  0.3423 -1.3121
 9309SOL     OW39385   0.024   3.500   4.296  0.7095  0.3736 -0.7022
 9309SOL    HW139386   0.006   3.417   4.251  1.7038  0.9349 -2.1558
 9309SOL    HW239387   0.004   3.565   4.228 -1.4715  0.3364 -0.0975
 9310SOL     OW39388   1.693   4.164   5.382 -0.4302  0.3206  0.6955
 9310SOL    HW139389   1.780   4.204   5.374 -0.6820  0.1912 -2.4834
 9310SOL    HW239390   1.716   4.083   5.335 -0.8540  0.5248  0.1448
 9311SOL     OW39391   3.731   1.819   7.103  0.2687 -0.6259 -0.8517
 9311SOL    HW139392   3.799   1.781   7.158  0.6201  0.6944 -0.3718
 9311SOL    HW239393   3.658   1.762   7.127 -1.5755  1.8493 -0.6393
 9312SOL     OW39394   1.844   3.596   1.464  0.3740 -0.4721  0.0501
 9312SOL    HW139395   1.917   3.592   1.526  1.9253  1.1725 -1.6856
 9312SOL    HW239396   1.888   3.587   1.380 -0.6286  2.4723 -0.7996
 9313SOL     OW39397   1.441   3.557   7.364 -0.1368 -0.1712 -0.3970
 9313SOL    HW139398   1.423   3.651   7.376 -1.0209 -0.1049 -2.2485
 9313SOL    HW239399   1.524   3.538   7.408  0.8480  1.3754 -1.5882
 9314SOL     OW39400   3.726   3.830   5.201  0.2695  0.0160  0.8143
 9314SOL    HW139401   3.723   3.826   5.297  0.3124  2.1485  0.9011
 9314SOL    HW239402   3.704   3.918   5.171  0.0729 -0.4182 -0.3052
 9315SOL     OW39403   0.820   4.245  13.432  0.2554  0.3547 -0.5387
 9315SOL    HW139404   0.762   4.209  13.365  2.4534  0.4206 -2.4699
 9315SOL    HW239405   0.864   4.164  13.458 -0.1250  0.2183 -0.3163
 9316SOL     OW39406   0.359   0.841   7.867  0.7509 -0.1237 -0.5493
 9316SOL    HW139407   0.367   0.936   7.856  1.6757 -0.2504 -0.9185
 9316SOL    HW239408   0.432   0.806   7.816  0.3980  0.9648 -1.7873
 9317SOL     OW39409   4.277   4.680   3.256 -0.3919  0.4359  0.8060
 9317SOL    HW139410   4.275   0.014   3.179  0.6353  1.4273  1.4984
 9317SOL    HW239411   4.206   4.619   3.237 -0.4575  0.4209  1.0946
 9318SOL     OW39412   3.950   0.357  16.211  0.2647  0.0282 -0.0649
 9318SOL    HW139413   3.880   0.346  16.275 -0.7855 -0.6670 -1.3359
 9318SOL    HW239414   3.921   0.445  16.185  0.9656  0.6388  1.2478
 9319SOL     OW39415   4.525   1.286   4.551 -0.4100 -0.1246  0.7258
 9319SOL    HW139416   4.525   1.334   4.634  0.3230 -2.2884  1.9613
 9319SOL    HW239417   4.503   1.197   4.579  0.9132 -0.7070 -0.0683
 9320SOL     OW39418   4.037   4.601   7.585 -0.8217  0.4766  0.6080
 9320SOL    HW139419   3.943   4.586   7.597 -0.5400  0.9337  3.4650
 9320SOL    HW239420   4.044   4.651   7.504  0.5501 -1.6634 -0.5871
 9321SOL     OW39421   1.451   3.382   3.853  0.3644  0.0666  0.0840
 9321SOL    HW139422   1.422   3.460   3.900 -1.5496 -0.0026 -0.9816
 9321SOL    HW239423   1.465   3.325   3.928 -1.1467 -0.9127 -0.3921
 9322SOL     OW39424   3.886   1.787  14.341  0.4104 -0.0696 -0.4701
 9322SOL    HW139425   3.849   1.782  14.430  0.7246  2.4861 -0.2079
 9322SOL    HW239426   3.898   1.880  14.328 -1.6407  0.5356  1.8963
 9323SOL     OW39427   2.537   0.111   5.089  0.3500  0.6787 -0.0985
 9323SOL    HW139428   2.446   0.081   5.088  0.6686 -0.3029  0.4038
 9323SOL    HW239429   2.554   0.107   5.184 -0.5981  0.7366  0.0738
 9324SOL     OW39430   4.427   4.063   7.744 -0.0283 -0.2353 -0.4877
 9324SOL    HW139431   4.427   4.158   7.741  0.4812 -0.2007  0.5978
 9324SOL    HW239432   4.351   4.051   7.801 -0.2905  1.6601 -0.4423
 9325SOL     OW39433   3.047   2.627   7.971 -0.0684  0.3357 -0.2502
 9325SOL    HW139434   3.142   2.633   7.981 -0.1639  1.1657  0.1222
 9325SOL    HW239435   3.036   2.532   7.979  0.6555  0.0652 -2.3640
 9326SOL     OW39436   1.793   3.489   3.063  0.3877  0.0145  0.0445
 9326SOL    HW139437   1.786   3.474   3.157  1.3697  1.0483  0.2821
 9326SOL    HW239438   1.698   3.497   3.053  0.5805  1.7009 -0.4520
 9327SOL     OW39439   4.341   4.599   3.907 -0.5907  0.1757  0.2613
 9327SOL    HW139440   4.342   4.533   3.976  0.8238  0.1462  0.2061
 9327SOL    HW239441   4.420   4.593   3.853  0.0486  0.8689  1.1329
 9328SOL     OW39442   0.077   2.902  14.377 -0.7372  0.0763  0.2722
 9328SOL    HW139443   0.042   2.846  14.307  1.7850  1.1435 -1.8503
 9328SOL    HW239444   0.040   2.990  14.367 -0.8871 -0.1977 -1.6170
 9329SOL     OW39445   4.103   3.387   6.177 -0.0778  0.0289 -0.3313
 9329SOL    HW139446   4.008   3.387   6.189 -0.0205  1.1433  0.1624
 9329SOL    HW239447   4.133   3.443   6.248  0.3075 -1.5617  0.7669
 9330SOL     OW39448   2.507   0.910  17.031  0.2614 -0.1785 -0.0271
 9330SOL    HW139449   2.423   0.904  17.077 -0.6826 -0.1603 -1.7595
 9330SOL    HW239450   2.499   0.996  16.990 -0.4842 -0.0225  0.4599
 9331SOL     OW39451   4.300   0.886   7.559  0.7132 -0.0678 -0.3254
 9331SOL    HW139452   4.300   0.866   7.653 -2.4802  0.4803 -0.1885
 9331SOL    HW239453   4.391   0.871   7.534  0.1812  1.0504 -2.8924
 9332SOL     OW39454   1.663   4.287   0.088 -0.3166 -0.6679 -0.4090
 9332SOL    HW139455   1.616   4.346   0.147  1.2557  0.0409  0.1407
 9332SOL    HW239456   1.745   4.336   0.088 -0.5220 -0.3237 -0.1137
 9333SOL     OW39457   3.276   0.064  15.163 -0.3501 -0.1793 -0.0043
 9333SOL    HW139458   3.232   0.148  15.152 -0.1126  0.2635  2.3287
 9333SOL    HW239459   3.256   0.066  15.257 -2.1576 -0.1254 -0.3875
 9334SOL     OW39460   0.075   4.088   4.860 -0.1092  0.4139 -0.9074
 9334SOL    HW139461   0.137   4.112   4.791  0.7741  0.5800 -0.0575
 9334SOL    HW239462   4.721   4.061   4.810 -0.6033 -0.0009  0.0866
 9335SOL     OW39463   4.245   0.389   4.648  0.1198 -0.9961 -0.2631
 9335SOL    HW139464   4.235   0.475   4.609 -0.1030 -1.3875 -1.0788
 9335SOL    HW239465   4.235   0.411   4.740  1.6458 -0.9583 -0.1078
 9336SOL     OW39466   1.287   1.777   9.318 -0.3381 -0.1639  0.0014
 9336SOL    HW139467   1.293   1.740   9.230  0.5109 -1.5029  0.6300
 9336SOL    HW239468   1.348   1.724   9.369 -1.2199 -1.1341  0.0477
 9337SOL     OW39469   3.266   4.693   8.423 -0.6025  0.5286 -0.4411
 9337SOL    HW139470   3.267   4.599   8.441  0.7009  0.7681  0.7229
 9337SOL    HW239471   3.332   4.690   8.354  0.7298  0.1242  0.8542
 9338SOL     OW39472   4.042   1.801   5.031  0.5222  0.1482 -0.5500
 9338SOL    HW139473   3.973   1.866   5.023 -0.6012 -0.6905  2.3094
 9338SOL    HW239474   4.055   1.780   4.939  1.5927  0.1531 -0.4089
 9339SOL     OW39475   3.106   4.640   7.101  0.1183 -0.9356 -0.0642
 9339SOL    HW139476   3.174   4.577   7.075  1.4913  0.5207  0.0076
 9339SOL    HW239477   3.142   4.682   7.179 -2.3127  1.7523 -0.3825
 9340SOL     OW39478   4.244   2.212  15.043 -0.6210  0.2930 -0.1137
 9340SOL    HW139479   4.340   2.219  15.041 -0.6651  0.5156 -1.1657
 9340SOL    HW239480   4.215   2.276  15.108  0.4282  0.0026  0.6488
 9341SOL     OW39481   0.499   4.544   6.325 -0.1222  0.2495 -0.3745
 9341SOL    HW139482   0.407   4.565   6.311 -0.6529 -1.8368 -0.0226
 9341SOL    HW239483   0.486   4.507   6.412  1.0590 -0.6630 -0.5819
 9342SOL     OW39484   4.668   4.428   4.674  0.7804  0.6169  0.5974
 9342SOL    HW139485   4.701   4.413   4.585 -1.1460  0.6751 -0.1295
 9342SOL    HW239486   0.028   4.430   4.722 -0.3101  0.6539  2.4720
 9343SOL     OW39487   3.199   0.202   7.050  0.4667 -0.5216 -0.4250
 9343SOL    HW139488   3.165   0.117   7.020 -0.8028 -0.0093 -0.4116
 9343SOL    HW239489   3.242   0.179   7.132 -1.1291  0.1727  0.5981
 9344SOL     OW39490   3.539   1.876  10.403 -0.5352  0.0495 -0.4421
 9344SOL    HW139491   3.504   1.966  10.405  0.1707  0.3655 -2.0810
 9344SOL    HW239492   3.536   1.855  10.496  1.0530  0.0531 -0.3884
 9345SOL     OW39493   3.914   3.031   3.690 -0.3403  0.9544  0.0082
 9345SOL    HW139494   3.828   2.995   3.711 -0.6411  2.6839  1.6409
 9345SOL    HW239495   3.970   2.989   3.755 -0.9472 -1.6702 -1.1457
 9346SOL     OW39496   2.987   1.225   2.601  0.3355 -0.5593 -0.8893
 9346SOL    HW139497   3.007   1.287   2.671  1.1082 -1.6476 -0.1397
 9346SOL    HW239498   3.060   1.254   2.547  0.3701 -1.5291 -1.3774
 9347SOL     OW39499   4.048   3.271   2.708 -1.1798 -0.0899  0.3415
 9347SOL    HW139500   3.957   3.299   2.721 -1.1779  0.6030 -1.1800
 9347SOL    HW239501   4.053   3.308   2.620  0.5650  0.1021  0.5356
 9348SOL     OW39502   3.893   0.548   8.673 -0.7681 -0.1981 -0.0370
 9348SOL    HW139503   3.908   0.568   8.765 -0.5877  0.0075 -0.1083
 9348SOL    HW239504   3.839   0.624   8.651 -0.4090  0.6953  2.1248
 9349SOL     OW39505   2.047   0.693   5.112 -0.3903 -0.4364 -0.0543
 9349SOL    HW139506   2.009   0.754   5.050  0.2065 -0.0093  0.0030
 9349SOL    HW239507   2.034   0.724   5.201  1.2981  0.3411 -0.0731
 9350SOL     OW39508   2.524   3.099  14.740  0.6187  0.5271 -0.1653
 9350SOL    HW139509   2.608   3.144  14.737  1.3077 -0.6949  0.7089
 9350SOL    HW239510   2.538   3.050  14.822 -0.1804 -2.1617 -1.6388
 9351SOL     OW39511   4.556   3.906  16.267 -0.5728  0.2015  0.3811
 9351SOL    HW139512   4.642   3.864  16.272  0.1648  1.6137 -0.5276
 9351SOL    HW239513   4.515   3.855  16.337  1.8791 -1.1682  0.8199
 9352SOL     OW39514   2.041   4.011   3.530 -0.5757 -0.0698 -0.0441
 9352SOL    HW139515   2.059   3.918   3.514  1.2512  0.0907  1.0582
 9352SOL    HW239516   2.106   4.057   3.476  0.7401  0.1336  1.7183
 9353SOL     OW39517   3.277   4.479   6.978  0.4774 -0.0763 -0.1363
 9353SOL    HW139518   3.240   4.489   6.890  2.0655  0.9618 -0.6991
 9353SOL    HW239519   3.254   4.388   6.995 -2.0740  0.5104 -0.3134
 9354SOL     OW39520   3.598   1.865  14.078  0.5503  0.3161 -0.6346
 9354SOL    HW139521   3.557   1.909  14.003 -1.3331 -1.3658 -0.6207
 9354SOL    HW239522   3.678   1.916  14.079  0.4585  0.4578 -0.4640
 9355SOL     OW39523   2.187   0.456   6.775 -0.6958  0.5183 -0.2970
 9355SOL    HW139524   2.190   0.448   6.680 -2.2001  1.1670 -0.4051
 9355SOL    HW239525   2.276   0.436   6.803 -0.2652  1.6786 -0.8493
 9356SOL     OW39526   0.281   3.053  13.392  0.4947  0.3350  0.2045
 9356SOL    HW139527   0.350   2.987  13.397 -0.9936 -1.1481  1.1540
 9356SOL    HW239528   0.286   3.079  13.300 -0.5390  1.5248  0.4793
 9357SOL     OW39529   1.564   1.392   2.602  0.2282 -0.1249  0.2876
 9357SOL    HW139530   1.557   1.467   2.542  2.1582 -0.8262 -0.8277
 9357SOL    HW239531   1.643   1.348   2.570 -0.4909 -1.6933  0.6765
 9358SOL     OW39532   2.652   2.290   6.417  0.2699 -0.2378 -0.3125
 9358SOL    HW139533   2.594   2.314   6.344  1.0833  0.7767 -0.6206
 9358SOL    HW239534   2.637   2.365   6.475  0.4370 -0.6115  0.2139
 9359SOL     OW39535   2.443   2.081   3.727 -0.1988 -0.0912  0.6848
 9359SOL    HW139536   2.520   2.040   3.689  1.1343  1.8418  1.2849
 9359SOL    HW239537   2.381   2.009   3.736 -0.7302  0.2845  0.0482
 9360SOL     OW39538   1.249   0.895   6.919  0.2347  0.3349  0.2546
 9360SOL    HW139539   1.345   0.895   6.910  0.5496 -0.1598  3.8247
 9360SOL    HW239540   1.234   0.989   6.915  0.9118  0.4747  1.1620
 9361SOL     OW39541   4.639   1.739  15.417  0.2695 -0.0618 -0.3620
 9361SOL    HW139542   4.622   1.780  15.332  1.3958  0.0416 -0.5490
 9361SOL    HW239543   4.686   1.658  15.395 -0.5967 -0.7875  0.5095
 9362SOL     OW39544   2.506   4.693   6.890  0.4637 -0.0998 -0.1231
 9362SOL    HW139545   2.426   0.023   6.898 -0.6068 -1.4827 -2.0000
 9362SOL    HW239546   2.504   4.638   6.968  0.3386  3.6956  2.5488
 9363SOL     OW39547   2.297   0.574   3.911 -0.3044  0.4439  0.4825
 9363SOL    HW139548   2.317   0.656   3.866  2.2264 -0.2239  0.4199
 9363SOL    HW239549   2.342   0.511   3.854 -2.4916 -0.3239 -0.4138
 9364SOL     OW39550   1.441   3.704   3.771 -0.0971  0.0536 -0.1284
 9364SOL    HW139551   1.423   3.630   3.715  0.1597 -1.3867  1.6768
 9364SOL    HW239552   1.508   3.743   3.715  1.8817  0.6206  2.6019
 9365SOL     OW39553   0.955   1.208   8.422  0.5408  0.6273 -0.1573
 9365SOL    HW139554   0.924   1.278   8.365 -1.9143 -0.3473  0.0005
 9365SOL    HW239555   0.981   1.254   8.502  1.9324  0.2750 -0.4063
 9366SOL     OW39556   1.452   3.232   5.664  0.0722 -0.3584 -0.3710
 9366SOL    HW139557   1.471   3.321   5.636 -0.3466 -0.6143 -1.5009
 9366SOL    HW239558   1.364   3.218   5.629  0.3490 -0.9354 -0.8435
 9367SOL     OW39559   3.465   3.663   3.371  0.6219  0.1000 -0.2795
 9367SOL    HW139560   3.425   3.750   3.377 -1.9031 -0.9208 -2.5550
 9367SOL    HW239561   3.516   3.652   3.452 -1.5937 -1.2253  0.9160
 9368SOL     OW39562   0.205   0.317   8.937 -0.0582  0.1824 -0.6297
 9368SOL    HW139563   0.164   0.331   9.023  1.1388  0.5099 -0.1049
 9368SOL    HW239564   0.196   0.401   8.893 -0.5963  0.4209 -0.0657
 9369SOL     OW39565   0.225   3.685   6.179  0.2276 -0.2519 -0.3123
 9369SOL    HW139566   0.166   3.624   6.224  2.7126 -1.0287  1.8736
 9369SOL    HW239567   0.299   3.626   6.167  0.8622  0.4858  0.0102
 9370SOL     OW39568   2.773   1.468  10.923  0.1190  0.0715 -0.1737
 9370SOL    HW139569   2.839   1.506  10.982  2.6797 -0.0813 -2.9750
 9370SOL    HW239570   2.713   1.424  10.984 -0.7839 -0.9017 -1.7634
 9371SOL     OW39571   3.813   3.488  14.460 -0.1851 -0.2494 -0.2277
 9371SOL    HW139572   3.903   3.518  14.471 -0.5688  0.9107 -0.2822
 9371SOL    HW239573   3.806   3.449  14.547  1.1141 -0.2522 -0.1223
 9372SOL     OW39574   1.648   1.648  11.267 -0.1692  0.4985  0.1906
 9372SOL    HW139575   1.703   1.701  11.208 -1.1570 -2.0072 -2.9825
 9372SOL    HW239576   1.709   1.597  11.321  1.6777  2.4416 -0.0412
 9373SOL     OW39577   3.759   0.323   7.623  0.5774 -0.2464 -1.0178
 9373SOL    HW139578   3.773   0.404   7.575  1.2493  0.5720  0.5612
 9373SOL    HW239579   3.741   0.271   7.544 -0.7449 -1.5096  0.1013
 9374SOL     OW39580   2.303   1.300   4.342  0.2362  0.3728 -0.2059
 9374SOL    HW139581   2.301   1.346   4.258  1.9858  2.6222  0.9723
 9374SOL    HW239582   2.229   1.338   4.391 -1.0171  0.3678 -2.1043
 9375SOL     OW39583   0.280   4.190   6.452 -0.1904 -0.1999  0.1837
 9375SOL    HW139584   0.346   4.143   6.401  0.8114  1.1225  0.2450
 9375SOL    HW239585   0.263   4.120   6.515 -0.9357 -0.5794 -0.4401
 9376SOL     OW39586   3.280   2.836   7.861 -0.1550  0.1568  0.4207
 9376SOL    HW139587   3.352   2.781   7.891 -1.5769 -1.7548  0.2658
 9376SOL    HW239588   3.266   2.896   7.934 -0.0233  0.2868  0.3400
 9377SOL     OW39589   1.512   4.125   2.450 -0.4962  0.2441  0.2686
 9377SOL    HW139590   1.524   4.160   2.362 -1.4292  0.0283  0.0492
 9377SOL    HW239591   1.559   4.186   2.506 -0.0775  1.8204 -1.7934
 9378SOL     OW39592   0.739   0.414  13.054 -0.1646  0.1662 -0.0460
 9378SOL    HW139593   0.773   0.347  13.114 -1.1489  0.9639  1.4252
 9378SOL    HW239594   0.643   0.412  13.064 -0.1973  2.1959 -0.1027
 9379SOL     OW39595   3.680   4.309   4.473 -0.1724  0.6959  0.4859
 9379SOL    HW139596   3.733   4.229   4.470 -0.0815  0.8621 -2.3693
 9379SOL    HW239597   3.641   4.279   4.556  2.7428  1.9885  2.3004
 9380SOL     OW39598   1.734   2.201   8.418 -0.6213  0.1055 -0.0037
 9380SOL    HW139599   1.649   2.246   8.422  0.2313  1.9281 -2.4121
 9380SOL    HW239600   1.797   2.252   8.469 -0.1315  1.2891 -1.7768
 9381SOL     OW39601   3.326   3.895   2.807 -0.2205  0.2115 -0.2530
 9381SOL    HW139602   3.314   3.940   2.724 -0.5824 -1.3478 -1.0434
 9381SOL    HW239603   3.389   3.962   2.834 -3.0924  1.9236  2.1980
 9382SOL     OW39604   3.586   1.967   0.855  0.2496  0.2145 -0.1060
 9382SOL    HW139605   3.541   1.994   0.775  1.8923 -0.8998 -1.4048
 9382SOL    HW239606   3.534   2.013   0.921  0.6562 -1.5605  1.4389
 9383SOL     OW39607   4.430   1.901   2.044 -0.1783  0.4630 -0.4701
 9383SOL    HW139608   4.355   1.856   2.005  0.8300 -1.0187 -0.6848
 9383SOL    HW239609   4.488   1.897   1.968 -0.4328 -1.0733 -0.5893
 9384SOL     OW39610   1.248   4.503  11.492 -0.0232 -0.0327  0.8110
 9384SOL    HW139611   1.313   4.434  11.501  0.5555  0.4337  0.1754
 9384SOL    HW239612   1.190   4.485  11.566 -0.5812 -1.0842  0.1139
 9385SOL     OW39613   2.388   1.634   2.193 -0.7070 -0.2917 -0.0570
 9385SOL    HW139614   2.314   1.596   2.239 -0.2439 -2.5194 -1.1979
 9385SOL    HW239615   2.349   1.712   2.154  0.2494  0.9099  1.3659
 9386SOL     OW39616   3.062   2.934   7.693  0.2133 -0.2191 -0.4588
 9386SOL    HW139617   3.122   2.912   7.765  0.2653  1.2077 -0.0540
 9386SOL    HW239618   3.065   2.859   7.634 -0.4653 -0.2997 -0.3990
 9387SOL     OW39619   3.568   0.912  10.314  0.5912 -0.2112  0.4118
 9387SOL    HW139620   3.523   0.945  10.391 -2.0942 -0.6223 -0.9817
 9387SOL    HW239621   3.565   0.823  10.349 -2.8728 -1.0779 -2.0326
 9388SOL     OW39622   2.720   3.033   8.360  0.0356 -0.2914  0.0351
 9388SOL    HW139623   2.813   3.032   8.383 -0.5702 -0.7517  2.4097
 9388SOL    HW239624   2.692   3.114   8.403 -2.3387 -0.2291 -1.5851
 9389SOL     OW39625   4.387   4.225   5.436 -0.0699  0.4252 -0.5847
 9389SOL    HW139626   4.426   4.197   5.353  0.7237 -0.1972  0.0008
 9389SOL    HW239627   4.441   4.299   5.464 -0.1825 -0.8820  3.0368
 9390SOL     OW39628   0.574   0.749   3.514 -0.2208 -0.5292 -0.0560
 9390SOL    HW139629   0.662   0.747   3.477 -0.2054  2.3288 -0.1603
 9390SOL    HW239630   0.539   0.820   3.460  1.6544 -0.6386 -1.3946
 9391SOL     OW39631   1.576   1.111   5.052  0.0090 -0.1627  1.0365
 9391SOL    HW139632   1.507   1.099   4.987 -0.8956 -0.1668  2.0045
 9391SOL    HW239633   1.520   1.119   5.130 -1.8772  2.5257 -0.5783
 9392SOL     OW39634   2.698   1.605   8.572  0.4389 -0.2542  0.2297
 9392SOL    HW139635   2.622   1.558   8.537 -0.2951  0.2969  1.0699
 9392SOL    HW239636   2.707   1.570   8.661  1.6356  0.0609  0.2316
 9393SOL     OW39637   0.820   0.539   2.447 -0.6262 -0.0109  0.0361
 9393SOL    HW139638   0.870   0.458   2.439  1.7591  1.6520 -1.8483
 9393SOL    HW239639   0.766   0.517   2.370 -0.2883  0.7263 -0.4092
 9394SOL     OW39640   4.229   1.247   0.976 -0.3557  0.3105  0.5882
 9394SOL    HW139641   4.177   1.247   0.896 -0.9339  1.1186  0.9625
 9394SOL    HW239642   4.177   1.187   1.029  0.4169 -2.3509 -1.6895
 9395SOL     OW39643   0.508   3.771   2.730  0.0416  0.0411  0.0458
 9395SOL    HW139644   0.417   3.788   2.705 -0.1816  2.2572  2.3502
 9395SOL    HW239645   0.550   3.752   2.647  0.4276 -0.4291  0.3492
 9396SOL     OW39646   4.143   3.552   0.106 -0.0283  0.0058  0.1605
 9396SOL    HW139647   4.121   3.570   0.014 -1.1127 -0.8718  0.2438
 9396SOL    HW239648   4.201   3.476   0.098  0.7909  0.7217 -0.7224
 9397SOL     OW39649   0.660   3.063   0.076 -0.3576  0.0628 -0.2785
 9397SOL    HW139650   0.629   3.017   0.154 -1.9278 -1.0332 -1.5594
 9397SOL    HW239651   0.712   2.995   0.034 -1.4260 -1.1996  0.4719
 9398SOL     OW39652   1.793   1.563   4.224 -0.2775  0.1540  0.6625
 9398SOL    HW139653   1.764   1.653   4.213 -1.6881 -0.3684  0.1420
 9398SOL    HW239654   1.720   1.509   4.192 -1.9556  0.9746  3.1544
 9399SOL     OW39655   4.150   1.042   6.093  0.4158  0.1063 -0.2587
 9399SOL    HW139656   4.075   0.987   6.070  1.0770 -0.1663 -1.7775
 9399SOL    HW239657   4.114   1.105   6.156  1.4872 -2.4343  2.9481
 9400SOL     OW39658   2.478   2.976   6.744  0.4223 -0.1414 -0.2144
 9400SOL    HW139659   2.443   3.064   6.727 -1.6942 -0.6121  1.7466
 9400SOL    HW239660   2.463   2.933   6.660  0.4646 -1.7589  0.6225
 9401SOL     OW39661   3.161   3.090   6.924 -0.4619 -0.1157 -0.1793
 9401SOL    HW139662   3.137   3.172   6.881 -0.8088 -0.2282 -0.1970
 9401SOL    HW239663   3.073   3.064   6.952 -0.4563  0.1827  0.1103
 9402SOL     OW39664   0.752   1.090  14.966  0.5937  0.2950 -0.1893
 9402SOL    HW139665   0.818   1.048  14.912  0.9150 -2.2693  2.1713
 9402SOL    HW239666   0.810   1.156  15.005 -0.1476  1.7760 -1.5867
 9403SOL     OW39667   0.386   3.514   7.840  0.7658 -0.1818 -0.5510
 9403SOL    HW139668   0.399   3.443   7.903 -0.4045 -0.7248 -0.9183
 9403SOL    HW239669   0.381   3.592   7.894 -0.1695 -0.0045 -0.8850
 9404SOL     OW39670   0.591   0.386   8.151 -0.0827  0.1834  0.2629
 9404SOL    HW139671   0.530   0.355   8.218  0.2429 -1.1513 -0.0532
 9404SOL    HW239672   0.671   0.340   8.175 -0.2390  0.6532  1.6815
 9405SOL     OW39673   3.270   2.321   9.930 -0.0106 -0.6938  0.0351
 9405SOL    HW139674   3.286   2.412   9.955 -0.0632  0.0436 -2.6689
 9405SOL    HW239675   3.180   2.304   9.955  0.2143  2.0805  2.7622
 9406SOL     OW39676   3.309   2.670   8.613 -0.3264  0.1266  0.2905
 9406SOL    HW139677   3.321   2.707   8.526 -1.7077 -0.4464 -0.1352
 9406SOL    HW239678   3.369   2.596   8.604 -0.8879 -0.5194  1.7624
 9407SOL     OW39679   2.683   1.950   4.789  0.0625  0.2496  0.4719
 9407SOL    HW139680   2.725   1.904   4.717  0.3919  0.4888  0.5126
 9407SOL    HW239681   2.760   1.948   4.845 -0.4748  0.1265  1.2077
 9408SOL     OW39682   2.427   4.500   1.439 -0.9149  0.5119 -0.2028
 9408SOL    HW139683   2.487   4.558   1.392  0.1626  0.4447  1.0950
 9408SOL    HW239684   2.340   4.538   1.439 -1.5929 -1.0437  0.2060
 9409SOL     OW39685   2.186   0.922   0.562  0.2939 -0.2330 -0.2648
 9409SOL    HW139686   2.154   0.908   0.651  1.3125 -0.8025  0.0114
 9409SOL    HW239687   2.232   1.004   0.580  1.5919 -1.3475  1.4724
 9410SOL     OW39688   2.976   1.869   7.014 -0.3468  0.0300  0.5226
 9410SOL    HW139689   3.043   1.903   6.955 -0.5394  1.9430  1.4111
 9410SOL    HW239690   3.016   1.792   7.053 -0.1551  0.4843  1.2296
 9411SOL     OW39691   2.505   3.387   7.296  0.1097  0.3048  0.1713
 9411SOL    HW139692   2.473   3.304   7.332 -0.0177  0.0479 -0.5343
 9411SOL    HW239693   2.573   3.404   7.361 -0.0455 -1.1334  0.7173
 9412SOL     OW39694   1.436   2.401   3.950  0.1017  0.3649  0.2891
 9412SOL    HW139695   1.451   2.415   4.044  0.2144 -3.0915  0.8085
 9412SOL    HW239696   1.341   2.396   3.940  0.1050  1.3306 -0.2655
 9413SOL     OW39697   3.376   4.654   2.569 -0.4090  0.8972  0.3377
 9413SOL    HW139698   3.346   4.693   2.650 -1.1539  0.5037  0.2559
 9413SOL    HW239699   3.347   4.564   2.585 -0.1024  0.2297 -2.7731
 9414SOL     OW39700   0.546   2.915   0.274  0.2111 -0.7522  0.4381
 9414SOL    HW139701   0.540   2.822   0.254  0.0152 -0.8247  0.8261
 9414SOL    HW239702   0.460   2.914   0.316  1.7700 -0.5950  3.6603
 9415SOL     OW39703   3.614   0.715   3.901  0.1389  0.7770 -0.5835
 9415SOL    HW139704   3.641   0.731   3.811 -3.7226  1.1765 -1.6503
 9415SOL    HW239705   3.631   0.621   3.907 -0.7108  0.6930  0.6053
 9416SOL     OW39706   1.374   3.904   8.233  0.3816 -0.4424  0.2063
 9416SOL    HW139707   1.346   3.947   8.313 -0.9200 -0.6461 -0.1313
 9416SOL    HW239708   1.352   3.977   8.174  3.2193  1.9847  2.1667
 9417SOL     OW39709   1.565   2.753   5.747 -0.0782  0.0122 -0.3318
 9417SOL    HW139710   1.520   2.704   5.678  1.4458 -0.3872 -1.0432
 9417SOL    HW239711   1.492   2.806   5.779 -0.4575  0.2391 -1.5642
 9418SOL     OW39712   1.301   0.280   2.538 -0.6818  0.5160  0.0593
 9418SOL    HW139713   1.207   0.265   2.540 -0.6043 -0.0286 -0.2855
 9418SOL    HW239714   1.340   0.196   2.513 -0.5197  0.8595 -0.8510
 9419SOL     OW39715   1.776   0.417  15.735 -0.0995 -0.1776 -0.4852
 9419SOL    HW139716   1.837   0.466  15.680 -0.8870  1.6672  0.2802
 9419SOL    HW239717   1.741   0.480  15.798  0.4195  0.5550 -0.9339
 9420SOL     OW39718   2.497   3.374   5.885 -0.4727 -0.5023  0.1640
 9420SOL    HW139719   2.466   3.358   5.796 -1.6916 -0.5413  0.5897
 9420SOL    HW239720   2.421   3.420   5.923  0.3428  1.8850 -1.0533
 9421SOL     OW39721   2.835   1.234   7.240  0.0278 -0.0445  0.0498
 9421SOL    HW139722   2.834   1.298   7.169 -1.4894  0.8612  0.8796
 9421SOL    HW239723   2.902   1.272   7.298 -1.4124  0.7469  1.1978
 9422SOL     OW39724   3.519   4.097   5.735 -0.0607 -0.5489 -0.3540
 9422SOL    HW139725   3.534   4.185   5.770 -0.5553  0.2142 -2.0889
 9422SOL    HW239726   3.601   4.059   5.767 -0.3389 -0.7422  0.1245
 9423SOL     OW39727   3.635   0.160   7.383  0.1644 -0.5124 -0.2528
 9423SOL    HW139728   3.649   0.247   7.347  1.7153 -1.0558 -0.9780
 9423SOL    HW239729   3.693   0.108   7.327  1.0420  0.4620 -0.2509
 9424SOL     OW39730   3.452   2.767  13.045 -0.2327 -0.2655 -0.0755
 9424SOL    HW139731   3.411   2.680  13.040  0.5177 -0.7118  1.7363
 9424SOL    HW239732   3.394   2.806  12.979  0.3661 -0.5661 -0.7873
 9425SOL     OW39733   2.270   3.644   2.769 -0.1859 -0.1429  0.1515
 9425SOL    HW139734   2.337   3.610   2.709  0.2976 -0.1863  0.7116
 9425SOL    HW239735   2.315   3.704   2.829  2.0643 -1.0101 -0.6543
 9426SOL     OW39736   2.432   1.752  16.927 -0.3173  0.7389 -0.7576
 9426SOL    HW139737   2.464   1.819  16.987 -1.5663  0.9966 -0.3817
 9426SOL    HW239738   2.348   1.735  16.969 -0.6403 -0.2732 -1.8191
 9427SOL     OW39739   4.539   3.623  16.186  1.4934 -0.2255  0.1509
 9427SOL    HW139740   4.555   3.542  16.235 -0.9498 -0.4522  0.5468
 9427SOL    HW239741   4.494   3.672  16.255  1.3601 -1.4503  0.9282
 9428SOL     OW39742   2.316   0.251   3.785 -0.1799 -0.4277 -0.0995
 9428SOL    HW139743   2.293   0.190   3.715 -3.5560  1.3740 -0.5916
 9428SOL    HW239744   2.399   0.281   3.748 -0.2299  1.4947  1.3216
 9429SOL     OW39745   4.185   0.978   2.655  0.2808 -0.2389 -0.2936
 9429SOL    HW139746   4.146   0.979   2.567 -0.5460  0.4663  0.0798
 9429SOL    HW239747   4.275   0.978   2.623  0.2870  0.6970 -0.2826
 9430SOL     OW39748   4.498   4.000  10.458 -0.2617 -0.3787  0.3432
 9430SOL    HW139749   4.460   3.916  10.431  0.7095 -0.1624 -1.6481
 9430SOL    HW239750   4.444   4.067  10.416  1.7103 -0.0007 -1.6032
 9431SOL     OW39751   1.498   1.834   9.022 -0.3960 -0.0652 -0.1540
 9431SOL    HW139752   1.510   1.926   9.043  0.5574 -0.3176  0.4009
 9431SOL    HW239753   1.453   1.848   8.939 -0.4763  2.6247  0.3346
 9432SOL     OW39754   3.382   0.537   8.126  0.4529 -0.2712 -0.1145
 9432SOL    HW139755   3.301   0.545   8.077  0.5371 -3.4361 -0.8168
 9432SOL    HW239756   3.393   0.626   8.159 -2.4266 -0.1042  0.3889
 9433SOL     OW39757   4.084   1.097  14.251  0.4460 -0.2241 -0.3488
 9433SOL    HW139758   4.088   1.171  14.311 -1.0257  0.8885 -1.6169
 9433SOL    HW239759   3.999   1.100  14.206  0.1464  0.0976  0.2325
 9434SOL     OW39760   4.465   0.057   2.800 -0.4815  0.0226 -0.2489
 9434SOL    HW139761   4.523   0.132   2.817 -0.2541 -0.2394  0.1294
 9434SOL    HW239762   4.525   4.711   2.829 -0.0270  1.1880  1.5701
 9435SOL     OW39763   1.205   1.464   7.372 -0.0634  0.1949 -0.4389
 9435SOL    HW139764   1.229   1.526   7.302  0.6360  0.0139 -0.3588
 9435SOL    HW239765   1.209   1.385   7.319  2.0441  0.4225 -0.6279
 9436SOL     OW39766   4.062   0.280   3.930  0.0803 -0.1264  0.0232
 9436SOL    HW139767   4.052   0.279   3.835 -3.2279 -0.0878  0.3784
 9436SOL    HW239768   4.123   0.206   3.940 -0.3648 -0.4944  0.0360
 9437SOL     OW39769   2.987   0.118   4.209 -0.3759  0.3860 -0.8158
 9437SOL    HW139770   2.999   0.177   4.135 -2.3082  1.1525 -0.5233
 9437SOL    HW239771   3.065   0.130   4.262 -0.6143 -3.0164  0.3278
 9438SOL     OW39772   1.958   3.111  15.871  0.7063 -0.3916  0.0556
 9438SOL    HW139773   1.876   3.158  15.887  0.4911 -0.1631 -1.6388
 9438SOL    HW239774   2.027   3.176  15.886  0.3120  0.3274 -1.2180
 9439SOL     OW39775   2.389   4.530  15.049 -0.2011 -0.4159  0.0236
 9439SOL    HW139776   2.365   4.571  14.966  1.1530  0.6501  0.1571
 9439SOL    HW239777   2.309   4.520  15.100 -1.5557  2.5744 -1.4489
 9440SOL     OW39778   1.170   2.701   5.152 -0.0960 -0.0149  0.0094
 9440SOL    HW139779   1.077   2.716   5.170 -0.0665  0.2765 -0.0892
 9440SOL    HW239780   1.189   2.761   5.080  1.3091 -0.9763 -0.4237
 9441SOL     OW39781   2.841   4.272   0.036  0.0467  0.6563  0.3938
 9441SOL    HW139782   2.807   4.288  17.640  2.2948  1.5459 -0.3087
 9441SOL    HW239783   2.856   4.364   0.059 -2.2234  0.7118  1.6395
 9442SOL     OW39784   4.185   0.227   1.219 -0.4281 -0.0314 -0.8157
 9442SOL    HW139785   4.170   0.317   1.248  0.3205  0.2801 -1.3761
 9442SOL    HW239786   4.190   0.178   1.301  2.7607 -1.7293 -2.0277
 9443SOL     OW39787   0.569   3.761  14.827  0.1953 -0.2690 -0.0456
 9443SOL    HW139788   0.603   3.739  14.914  1.8041  1.5314 -0.2229
 9443SOL    HW239789   0.648   3.789  14.780  0.2235 -0.0045  0.1650
 9444SOL     OW39790   3.927   3.274   5.646  0.5607 -0.0584  0.1196
 9444SOL    HW139791   3.874   3.268   5.566  0.5373 -0.6055  0.1751
 9444SOL    HW239792   4.018   3.289   5.620  0.6864 -2.0562 -0.6000
 9445SOL     OW39793   1.306   3.919   2.857 -0.0186  0.5205  0.1328
 9445SOL    HW139794   1.338   3.961   2.937 -0.0343 -0.6667  0.7536
 9445SOL    HW239795   1.240   3.860   2.891 -0.9864  1.2507 -0.4856
 9446SOL     OW39796   4.142   3.118  12.755  0.2219 -0.0759 -0.3139
 9446SOL    HW139797   4.057   3.074  12.766 -0.9868  1.9706 -1.4340
 9446SOL    HW239798   4.114   3.201  12.717 -2.0642 -0.8341 -0.3020
 9447SOL     OW39799   2.174   0.729   6.387 -0.3439 -0.4116  0.1997
 9447SOL    HW139800   2.247   0.691   6.437 -1.2542 -0.7300  1.2896
 9447SOL    HW239801   2.124   0.650   6.368 -1.9225  0.7285 -0.3545
 9448SOL     OW39802   0.288   4.200   8.577 -0.3365  0.1616 -0.3123
 9448SOL    HW139803   0.279   4.166   8.666  3.3420  1.3235  0.5018
 9448SOL    HW239804   0.202   4.182   8.540 -1.5437  0.2639  2.4689
 9449SOL     OW39805   4.271   3.168   6.250  0.2734  0.4769 -0.0001
 9449SOL    HW139806   4.295   3.110   6.178  0.7639  1.0444 -0.3004
 9449SOL    HW239807   4.213   3.229   6.205  1.1387  0.8751 -0.5935
 9450SOL     OW39808   2.227   0.996   9.508  0.1965 -0.1824  0.0314
 9450SOL    HW139809   2.166   0.923   9.496 -0.8607  0.8919 -1.1453
 9450SOL    HW239810   2.305   0.941   9.523 -1.2069 -1.0757  4.1308
 9451SOL     OW39811   3.649   4.719   5.785 -0.5919 -0.2684 -0.3852
 9451SOL    HW139812   3.690   4.634   5.800  2.2548  1.2805  0.5353
 9451SOL    HW239813   3.680   0.008   5.695  1.8278  1.5440  0.6898
 9452SOL     OW39814   3.572   2.017   7.458  0.4321  0.4951 -0.0801
 9452SOL    HW139815   3.563   1.924   7.476 -1.6227  1.2285  2.7565
 9452SOL    HW239816   3.596   2.057   7.541  2.2801  0.3444 -0.5537
 9453SOL     OW39817   2.399   0.378   5.072  0.1489 -0.1551  0.1284
 9453SOL    HW139818   2.366   0.336   4.993 -2.0982 -0.7883  1.4257
 9453SOL    HW239819   2.338   0.338   5.133  0.4186  1.9508  1.7954
 9454SOL     OW39820   1.146   0.570   4.712 -0.0393  0.3560 -0.3767
 9454SOL    HW139821   1.160   0.484   4.673  3.0875  1.0027 -0.7181
 9454SOL    HW239822   1.232   0.613   4.711  0.3692 -0.4703 -2.2124
 9455SOL     OW39823   3.538   0.676   8.532 -0.4347 -0.2664  0.5380
 9455SOL    HW139824   3.550   0.598   8.586 -0.0798 -1.0352 -0.6645
 9455SOL    HW239825   3.624   0.707   8.503 -1.7943  1.4741 -1.7103
 9456SOL     OW39826   0.348   4.582   4.701 -0.3834  0.5763 -0.2394
 9456SOL    HW139827   0.319   4.668   4.730  0.1431  0.4083  0.7964
 9456SOL    HW239828   0.442   4.589   4.721  0.3302  1.2937 -3.8362
 9457SOL     OW39829   3.010   0.721   5.226 -0.0903 -0.3108 -0.6962
 9457SOL    HW139830   3.096   0.737   5.265 -0.7425  2.3075 -0.2926
 9457SOL    HW239831   2.942   0.761   5.280  0.4812  1.1586 -1.0733
 9458SOL     OW39832   3.599   4.102   9.285  0.2816 -0.1326 -0.3771
 9458SOL    HW139833   3.610   4.017   9.328 -0.2795  0.4596  0.9249
 9458SOL    HW239834   3.621   4.163   9.355  0.4870 -0.8468  0.1905
 9459SOL     OW39835   0.993   1.416   4.092  0.7258 -0.5377 -0.1577
 9459SOL    HW139836   1.073   1.400   4.142  0.6370  2.0676  0.8632
 9459SOL    HW239837   0.932   1.348   4.121  1.6687 -0.4280  2.1051
 9460SOL     OW39838   2.454   2.356   8.940 -0.0835 -0.0949  0.4672
 9460SOL    HW139839   2.546   2.332   8.940  0.2901  1.3299  3.4997
 9460SOL    HW239840   2.423   2.326   9.026  0.7241  0.4369  0.9401
 9461SOL     OW39841   1.382   4.208  17.213  0.7350  0.1971  0.3264
 9461SOL    HW139842   1.407   4.117  17.196 -0.6520 -0.3008  0.9637
 9461SOL    HW239843   1.434   4.255  17.147 -3.2050  1.4846 -1.8844
 9462SOL     OW39844   1.996   3.223   7.106 -0.2021  0.3192 -0.3705
 9462SOL    HW139845   2.088   3.202   7.087 -0.2211  0.8286 -1.0319
 9462SOL    HW239846   1.956   3.141   7.077  1.6123  0.7554 -4.1864
 9463SOL     OW39847   3.593   3.124   2.754 -0.5657  0.3272 -0.3144
 9463SOL    HW139848   3.525   3.188   2.734 -2.5704 -1.6392  0.2925
 9463SOL    HW239849   3.617   3.129   2.847 -1.3690 -1.0925 -0.0400
 9464SOL     OW39850   1.866   0.545   1.385 -0.2698 -0.3967 -0.0708
 9464SOL    HW139851   1.928   0.574   1.318  0.2665  1.4861  1.2429
 9464SOL    HW239852   1.825   0.474   1.335  1.6956  0.1473 -2.4402
 9465SOL     OW39853   4.268   2.951  14.754 -0.1120 -0.3194  0.2546
 9465SOL    HW139854   4.226   2.887  14.696  0.5505 -0.4775 -0.0524
 9465SOL    HW239855   4.248   3.037  14.718 -3.7072 -2.1656 -2.1694
 9466SOL     OW39856   2.765   2.005  10.282  0.1514  0.3881  0.2561
 9466SOL    HW139857   2.827   2.046  10.221 -1.3583  1.1761 -0.7220
 9466SOL    HW239858   2.678   2.038  10.263  0.0627 -1.4252 -2.3567
 9467SOL     OW39859   4.598   1.096   3.524  0.2631  0.0352  0.1503
 9467SOL    HW139860   4.507   1.124   3.537 -0.2883 -1.5903 -0.2348
 9467SOL    HW239861   4.602   1.073   3.431  0.9348  1.2477 -0.1284
 9468SOL     OW39862   0.106   3.626   8.269 -0.6153 -0.1215 -0.0596
 9468SOL    HW139863   0.109   3.719   8.287  3.4190 -0.1798 -0.4560
 9468SOL    HW239864   0.197   3.598   8.282 -1.5157 -1.7783  2.7190
 9469SOL     OW39865   3.832   3.717   6.338 -0.7721  0.3031  0.2906
 9469SOL    HW139866   3.756   3.774   6.327  0.3016  2.0643  2.0799
 9469SOL    HW239867   3.839   3.706   6.433 -0.8240 -0.4622  0.2072
 9470SOL     OW39868   4.064   3.905   8.125  0.1106 -0.0943 -0.1671
 9470SOL    HW139869   4.091   3.997   8.120 -1.2915  0.3282 -0.0040
 9470SOL    HW239870   4.132   3.867   8.070 -1.2543 -2.1765 -0.4273
 9471SOL     OW39871   1.325   2.339   6.095 -0.1552  0.5996  0.2640
 9471SOL    HW139872   1.337   2.425   6.054 -0.2220  0.3407 -0.2943
 9471SOL    HW239873   1.406   2.325   6.144 -0.2602  2.4678  0.9681
 9472SOL     OW39874   4.087   0.919  10.265 -0.1207  0.2152 -0.2641
 9472SOL    HW139875   4.095   1.003  10.312  1.3575 -1.1229  1.8785
 9472SOL    HW239876   4.177   0.900  10.240 -0.6250 -0.1317 -1.7689
 9473SOL     OW39877   3.015   2.217   5.198  0.0647  0.2316 -0.1534
 9473SOL    HW139878   3.002   2.123   5.209  0.0992  0.3615  1.0637
 9473SOL    HW239879   2.937   2.251   5.154 -1.3213 -2.0145  0.5799
 9474SOL     OW39880   0.004   4.449   9.159  0.0472  0.5854  0.1828
 9474SOL    HW139881   4.656   4.393   9.191  0.5982 -0.3040 -0.1508
 9474SOL    HW239882   0.041   4.499   9.231 -2.9147  0.5437  1.7243
 9475SOL     OW39883   2.319   1.810   4.445 -0.0320 -0.1052 -0.6362
 9475SOL    HW139884   2.254   1.761   4.394 -1.0395 -0.6232  1.1638
 9475SOL    HW239885   2.286   1.803   4.534  1.9336 -2.3234 -0.0737
 9476SOL     OW39886   0.972   0.421   4.450 -0.0359  0.0937  0.2140
 9476SOL    HW139887   0.895   0.426   4.394 -0.1113  0.0492  0.3125
 9476SOL    HW239888   1.044   0.394   4.393  0.3586 -1.2729  1.3420
 9477SOL     OW39889   0.295   0.209   7.370 -0.1011 -0.1272  0.6328
 9477SOL    HW139890   0.241   0.140   7.332 -0.9960  1.4386 -0.9262
 9477SOL    HW239891   0.310   0.248   7.284  0.4085 -0.4516  0.5701
 9478SOL     OW39892   0.929   4.461   6.119 -0.0639 -0.7197 -0.1961
 9478SOL    HW139893   1.012   4.435   6.159 -1.5327  0.0062  3.3213
 9478SOL    HW239894   0.945   4.408   6.041  0.4616 -2.5095  1.1247
 9479SOL     OW39895   4.208   4.149  11.186  0.3281  0.1497 -0.3032
 9479SOL    HW139896   4.287   4.201  11.171 -0.2509  1.3753  0.9959
 9479SOL    HW239897   4.248   4.072  11.228 -0.5064 -0.5785 -0.8404
 9480SOL     OW39898   4.099   0.614  10.039  0.4566 -0.0151 -0.4362
 9480SOL    HW139899   4.185   0.639  10.072  0.5902  0.6019 -1.2379
 9480SOL    HW239900   4.050   0.567  10.106  1.3561 -0.0453  0.1908
 9481SOL     OW39901   1.256   2.524  11.912  0.4443 -0.1632  0.0991
 9481SOL    HW139902   1.222   2.607  11.944 -0.1574 -0.9350  1.4588
 9481SOL    HW239903   1.263   2.472  11.992 -0.2450  0.6317  0.6708
 9482SOL     OW39904   4.532   1.290  12.323 -0.2289  0.2734 -0.3350
 9482SOL    HW139905   4.513   1.198  12.305  0.1440 -0.4065  2.7143
 9482SOL    HW239906   4.591   1.306  12.250 -0.2399  1.1397 -0.1491
 9483SOL     OW39907   1.052   3.600  11.371  0.2054 -0.1829  0.5250
 9483SOL    HW139908   0.965   3.623  11.339  1.7842  3.2616 -1.4056
 9483SOL    HW239909   1.054   3.506  11.354 -0.6479  0.0871 -1.0608
 9484SOL     OW39910   2.687   2.613   1.068  0.3781  0.7355 -0.3138
 9484SOL    HW139911   2.673   2.705   1.091  0.1238  0.0876  2.1289
 9484SOL    HW239912   2.652   2.580   1.150  0.0316 -0.5435 -0.9758
 9485SOL     OW39913   1.685   1.682   4.664 -0.4604  0.0113 -0.1066
 9485SOL    HW139914   1.775   1.711   4.680  0.1640 -1.0710 -1.6107
 9485SOL    HW239915   1.699   1.607   4.606  3.4560  0.7777 -0.1367
 9486SOL     OW39916   4.171   1.321   4.041 -0.2138 -0.3642  0.4270
 9486SOL    HW139917   4.153   1.376   3.965 -0.7650 -0.4156  0.5219
 9486SOL    HW239918   4.105   1.254   4.026  0.9805 -1.5356  0.3636
 9487SOL     OW39919   1.518   0.889   8.953 -0.7133  0.3388 -0.4977
 9487SOL    HW139920   1.562   0.897   9.038  0.5464 -0.3158 -1.0876
 9487SOL    HW239921   1.488   0.980   8.955  0.0069  0.5331  1.0283
 9488SOL     OW39922   1.595   0.299  17.623 -0.0504 -0.6386  0.0314
 9488SOL    HW139923   1.543   0.340  17.553  1.8229  0.5202 -0.6820
 9488SOL    HW239924   1.535   0.295   0.005  0.1857 -1.1975  0.1889
 9489SOL     OW39925   0.223   0.906   0.401  0.2907  0.5940  0.0580
 9489SOL    HW139926   0.224   0.942   0.489  0.1382 -2.0855  1.1706
 9489SOL    HW239927   0.261   0.968   0.339 -0.0138 -1.1797 -1.9237
 9490SOL     OW39928   1.438   0.290   2.278  0.0293 -0.1609 -0.6853
 9490SOL    HW139929   1.410   0.338   2.356  0.0715 -1.3893  0.0771
 9490SOL    HW239930   1.531   0.309   2.269  0.2047 -0.6962  0.0900
 9491SOL     OW39931   4.465   1.368   8.727  0.5630 -0.1001  0.0095
 9491SOL    HW139932   4.403   1.384   8.798  0.2670 -2.0473  0.1829
 9491SOL    HW239933   4.401   1.350   8.658  2.4916 -0.8233 -1.6101
 9492SOL     OW39934   4.600   2.010   7.285  0.0096 -0.1011 -0.2504
 9492SOL    HW139935   4.536   2.081   7.287  1.4904  1.1828  0.8050
 9492SOL    HW239936   4.652   2.048   7.214  1.8974  0.3869  1.4223
 9493SOL     OW39937   3.592   0.034  13.086  0.1075 -0.4249  0.0200
 9493SOL    HW139938   3.657   0.013  13.019 -0.4253 -0.3825 -0.5129
 9493SOL    HW239939   3.523   4.694  13.063 -1.2570  2.5820 -3.9884
 9494SOL     OW39940   3.354   2.023   6.572 -0.5360  0.3643  0.0327
 9494SOL    HW139941   3.286   1.964   6.540  1.0566 -0.7189 -1.2973
 9494SOL    HW239942   3.426   1.998   6.516 -0.8839 -1.2041  0.2965
 9495SOL     OW39943   3.622   0.591   5.315 -0.0972 -0.4569 -0.2763
 9495SOL    HW139944   3.706   0.590   5.268 -0.6019 -0.1563 -1.1969
 9495SOL    HW239945   3.606   0.677   5.276  1.3762 -0.0491  0.0049
 9496SOL     OW39946   3.265   4.518  12.805  0.0691  0.1172 -0.3874
 9496SOL    HW139947   3.275   4.548  12.895 -0.5452 -1.4489  0.1940
 9496SOL    HW239948   3.171   4.529  12.791 -0.0039 -0.6136 -0.4860
 9497SOL     OW39949   1.119   2.792   8.891  0.2331 -0.0845 -0.0484
 9497SOL    HW139950   1.107   2.878   8.852 -2.4695 -0.1822  0.5449
 9497SOL    HW239951   1.080   2.733   8.826  0.0178  0.7938 -0.7200
 9498SOL     OW39952   3.673   3.426   8.213 -0.2114 -0.3359  0.0620
 9498SOL    HW139953   3.678   3.465   8.301 -2.1479 -0.3728  0.1773
 9498SOL    HW239954   3.715   3.488   8.153 -0.2027 -2.2270 -1.8834
 9499SOL     OW39955   0.943   4.382   8.754 -0.7357 -0.7981  0.0341
 9499SOL    HW139956   0.927   4.340   8.838  1.0719  0.3459  0.9365
 9499SOL    HW239957   0.999   4.459   8.766  1.0757 -2.1716  0.4044
 9500SOL     OW39958   1.797   0.619   3.709  0.1509 -0.0432  0.4247
 9500SOL    HW139959   1.847   0.607   3.628  1.5619  1.2595  1.0989
 9500SOL    HW239960   1.855   0.583   3.775  0.6347 -1.3194 -0.7092
 9501SOL     OW39961   2.186   1.807   6.661 -0.0939  0.0297 -0.7995
 9501SOL    HW139962   2.183   1.714   6.684  2.1087  0.0797 -0.2816
 9501SOL    HW239963   2.156   1.802   6.571 -2.0413 -1.0881 -0.0963
 9502SOL     OW39964   4.432   4.503   0.554 -0.3713 -0.1534  0.1607
 9502SOL    HW139965   4.481   4.474   0.631  0.7732 -2.5116 -1.4344
 9502SOL    HW239966   4.459   4.595   0.548  0.7839 -0.3338  2.7504
 9503SOL     OW39967   4.485   2.115   8.625 -0.3356 -0.8620  0.1716
 9503SOL    HW139968   4.442   2.151   8.702 -0.7889  0.2896 -0.6183
 9503SOL    HW239969   4.446   2.027   8.624 -0.9239 -0.6418  2.9566
 9504SOL     OW39970   3.191   1.557   5.694  0.4461  0.4287  0.9808
 9504SOL    HW139971   3.193   1.473   5.649 -1.0651  1.4069 -0.8776
 9504SOL    HW239972   3.231   1.606   5.622 -0.1052 -1.2316 -0.4477
 9505SOL     OW39973   0.189   3.834   1.281  0.2613 -0.2902 -0.1323
 9505SOL    HW139974   0.214   3.886   1.358  2.1158 -0.3224 -0.6948
 9505SOL    HW239975   0.248   3.864   1.212  2.3715 -1.9499  0.9369
 9506SOL     OW39976   4.355   3.970   5.179 -0.2915  0.0716  0.0895
 9506SOL    HW139977   4.410   3.933   5.247  0.2982  0.0138 -0.4185
 9506SOL    HW239978   4.269   3.975   5.219 -0.5761 -0.8652 -0.4019
 9507SOL     OW39979   2.121   2.670  11.429 -0.1846 -0.0022 -0.1119
 9507SOL    HW139980   2.121   2.690  11.523 -1.6232  1.0425 -0.3320
 9507SOL    HW239981   2.212   2.670  11.400  0.0294 -0.2638  0.5588
 9508SOL     OW39982   3.477   1.611  13.859  0.0438  0.1274  0.1521
 9508SOL    HW139983   3.572   1.617  13.860  0.0611 -0.4953  2.5238
 9508SOL    HW239984   3.466   1.517  13.865 -0.1921 -0.0132 -2.3732
 9509SOL     OW39985   3.156   2.049  12.888 -0.5095 -0.4400  0.2995
 9509SOL    HW139986   3.165   1.957  12.864  0.5141  0.0088 -1.0560
 9509SOL    HW239987   3.127   2.051  12.979  1.1731 -1.7589  0.8430
 9510SOL     OW39988   3.344   3.582   6.090 -0.7419  0.1813 -0.2815
 9510SOL    HW139989   3.351   3.650   6.023 -0.2305 -0.9566 -1.3721
 9510SOL    HW239990   3.418   3.525   6.068 -0.8110  0.6528 -1.7484
 9511SOL     OW39991   0.184   2.891  12.966  0.1703 -0.3583 -0.1061
 9511SOL    HW139992   0.269   2.924  12.994 -0.5456  1.3043  0.1224
 9511SOL    HW239993   0.121   2.930  13.027 -0.6593  0.0523 -1.2322
 9512SOL     OW39994   2.099   3.070   8.338 -0.0467  0.2655  0.4058
 9512SOL    HW139995   2.026   3.013   8.363  0.9257  0.1724  3.0646
 9512SOL    HW239996   2.085   3.131   8.411 -0.3465  0.8834 -0.1668
 9513SOL     OW39997   1.861   3.771   3.172 -0.1440  0.0067 -0.5068
 9513SOL    HW139998   1.792   3.740   3.113 -0.0315  0.6191 -0.9564
 9513SOL    HW239999   1.940   3.747   3.124 -0.3048  1.7668 -1.6295
 9514SOL     OW40000   0.775   3.754   7.564 -0.5874  0.6490  1.0970
 9514SOL    HW140001   0.701   3.815   7.559 -1.6030 -0.6557  0.1617
 9514SOL    HW240002   0.825   3.788   7.491  0.4841 -0.6606  1.2181
 9515SOL     OW40003   2.034   1.841   2.383  0.5175 -0.7975 -0.0153
 9515SOL    HW140004   2.116   1.889   2.374  0.8494 -1.2978  0.3530
 9515SOL    HW240005   2.055   1.748   2.378  2.2815 -0.5645  3.2708
 9516SOL     OW40006   1.681   2.353   0.967  0.6253  0.4016  0.7091
 9516SOL    HW140007   1.670   2.351   0.872  0.9353  2.0205  0.6390
 9516SOL    HW240008   1.765   2.310   0.980 -0.4494 -1.0063  2.9839
 9517SOL     OW40009   4.442   4.421  17.291 -0.3004  0.4636 -0.2687
 9517SOL    HW140010   4.387   4.387  17.362  3.4495 -0.7659  2.0513
 9517SOL    HW240011   4.425   4.358  17.221  2.3134 -0.2638 -0.2435
 9518SOL     OW40012   0.018   3.788  14.675 -0.3777  0.0156  0.1645
 9518SOL    HW140013   0.001   3.802  14.582 -0.2251  0.4887  0.2056
 9518SOL    HW240014   0.091   3.727  14.669 -1.7327 -1.6559  0.6554
 9519SOL     OW40015   1.031   4.628  16.714 -0.0093 -0.0004  0.0305
 9519SOL    HW140016   1.051   4.706  16.766 -1.1294 -1.1560  2.2118
 9519SOL    HW240017   1.114   4.582  16.714 -0.1001 -0.1625  1.8631
 9520SOL     OW40018   0.683   1.055   8.679  0.1166  0.0319  0.2185
 9520SOL    HW140019   0.590   1.069   8.666  0.2252  0.4939 -0.0666
 9520SOL    HW240020   0.722   1.068   8.592  0.5640 -1.8491  0.1489
 9521SOL     OW40021   3.881   2.781   5.018  0.0212  0.1029  0.2069
 9521SOL    HW140022   3.802   2.797   4.966  0.4289 -1.7416 -0.9922
 9521SOL    HW240023   3.888   2.686   5.025  1.1329  0.1095 -0.9280
 9522SOL     OW40024   1.463   1.758  17.380 -0.5465  0.2384 -0.0945
 9522SOL    HW140025   1.392   1.801  17.332 -0.4588 -0.0181 -0.4637
 9522SOL    HW240026   1.535   1.814  17.352  0.3818 -2.0942 -2.4542
 9523SOL     OW40027   3.542   0.508   8.734  0.1860  0.2298 -0.1836
 9523SOL    HW140028   3.598   0.481   8.807 -1.1003 -2.0089 -0.0310
 9523SOL    HW240029   3.478   0.560   8.782 -0.4241 -0.9276  0.2352
 9524SOL     OW40030   3.020   0.693   4.050 -0.0424  0.8800  0.3850
 9524SOL    HW140031   3.010   0.629   4.121  0.3384  0.7704  0.3397
 9524SOL    HW240032   2.935   0.735   4.059 -0.3692  0.4460 -0.6876
 9525SOL     OW40033   1.080   3.452   1.456 -0.3549 -0.0587  0.3920
 9525SOL    HW140034   1.098   3.358   1.457 -1.8809 -0.3718 -0.8177
 9525SOL    HW240035   1.104   3.472   1.365 -1.3803  0.0530  0.1443
 9526SOL     OW40036   1.246   1.799   7.613 -0.2421 -0.2566  0.6461
 9526SOL    HW140037   1.211   1.886   7.595 -0.3298 -0.5861 -0.7196
 9526SOL    HW240038   1.248   1.757   7.527  1.4554  1.6699 -0.2483
 9527SOL     OW40039   1.060   0.307   3.561  0.3108  0.0455 -0.1835
 9527SOL    HW140040   0.969   0.286   3.537 -0.4491 -0.0327  2.6975
 9527SOL    HW240041   1.077   0.388   3.514 -0.4897 -0.2210 -0.9349
 9528SOL     OW40042   4.588   1.588   6.999  0.2426  0.6048  0.0573
 9528SOL    HW140043   4.669   1.624   6.962 -0.9385  1.2433 -1.8874
 9528SOL    HW240044   4.608   1.604   7.092 -1.2597  0.9106  0.3285
 9529SOL     OW40045   1.144   4.700   7.345  0.1800  0.6491 -0.2236
 9529SOL    HW140046   1.162   4.715   7.252 -1.6118 -0.7028 -0.7934
 9529SOL    HW240047   1.138   4.604   7.353  0.2109  0.5219 -1.7690
 9530SOL     OW40048   2.826   0.889   5.364 -0.6351 -0.0510  0.7416
 9530SOL    HW140049   2.740   0.906   5.327 -1.3112 -3.6526  0.7373
 9530SOL    HW240050   2.804   0.852   5.450  0.2042 -3.1841 -0.4365
 9531SOL     OW40051   3.249   2.370   6.400  0.1579  0.2628 -0.4276
 9531SOL    HW140052   3.176   2.393   6.457  1.9777  2.6021  0.9225
 9531SOL    HW240053   3.205   2.293   6.362 -2.0083  2.1381 -1.7128
 9532SOL     OW40054   2.692   4.543   9.273  0.4242 -0.0717 -0.6692
 9532SOL    HW140055   2.659   4.560   9.361  1.2544 -1.6799 -0.0437
 9532SOL    HW240056   2.617   4.573   9.222  0.2382 -0.5996 -0.7140
 9533SOL     OW40057   3.264   4.013   5.703 -0.1366 -0.2896 -0.0956
 9533SOL    HW140058   3.248   3.925   5.668 -1.2565 -0.7211  1.5220
 9533SOL    HW240059   3.359   4.011   5.716 -0.3786 -0.9065  1.5293
 9534SOL     OW40060   4.648   3.859   1.188 -0.4624  0.0728 -1.1574
 9534SOL    HW140061   4.597   3.898   1.259  0.0152 -1.0083 -0.2037
 9534SOL    HW240062   0.007   3.837   1.234  0.3588  1.7908 -1.7955
 9535SOL     OW40063   1.158   4.024   2.668  0.4499 -0.2091 -0.1483
 9535SOL    HW140064   1.227   3.988   2.723  0.0365 -2.9955 -1.4325
 9535SOL    HW240065   1.116   4.086   2.728  1.2130  2.5998 -2.4989
 9536SOL     OW40066   3.128   3.133  11.195 -0.3633  0.1777 -0.4654
 9536SOL    HW140067   3.112   3.109  11.287  1.1598 -0.7270 -0.4323
 9536SOL    HW240068   3.223   3.146  11.190 -0.5961  1.9014 -0.1668
 9537SOL     OW40069   4.228   1.551  14.689 -0.0792  0.0145  0.0910
 9537SOL    HW140070   4.224   1.641  14.656  1.0880  0.2227  0.4969
 9537SOL    HW240071   4.323   1.535  14.688 -0.1972 -0.6247 -0.8470
 9538SOL     OW40072   1.851   4.428   9.613  0.7267  0.4485 -0.5418
 9538SOL    HW140073   1.837   4.521   9.595 -1.4290 -0.1226 -1.8675
 9538SOL    HW240074   1.931   4.427   9.665  0.0781  0.6912  0.4664
 9539SOL     OW40075   1.460   0.066   5.157 -0.5504  0.2929 -0.1846
 9539SOL    HW140076   1.467   0.161   5.161  3.2935  0.0859 -1.5463
 9539SOL    HW240077   1.408   0.055   5.078  1.6180  1.0558 -1.7397
 9540SOL     OW40078   0.644   2.609   2.052 -0.0837 -0.1522 -0.6000
 9540SOL    HW140079   0.685   2.534   2.009 -1.9309 -1.5429  0.0640
 9540SOL    HW240080   0.724   2.659   2.065  0.8911 -2.1823  1.3128
 9541SOL     OW40081   0.633   2.637   6.192  0.7598  0.3665 -0.7935
 9541SOL    HW140082   0.585   2.672   6.117 -0.7419 -0.1030 -0.0503
 9541SOL    HW240083   0.642   2.548   6.157  1.0114 -1.0003  2.7747
 9542SOL     OW40084   3.032   1.749  17.514  0.2051  0.5990  0.7505
 9542SOL    HW140085   2.978   1.825  17.493 -0.7570  0.1832  1.7234
 9542SOL    HW240086   2.978   1.701  17.578 -1.2141 -0.7119 -1.4298
 9543SOL     OW40087   1.384   4.714  13.799 -0.4344  0.6588  0.0023
 9543SOL    HW140088   1.432   0.017  13.720 -1.2089  0.9151 -0.3831
 9543SOL    HW240089   1.295   4.699  13.766 -1.6332  3.2158  2.0457
 9544SOL     OW40090   3.455   2.124  14.703 -0.0028 -0.4250  0.2953
 9544SOL    HW140091   3.365   2.108  14.733 -0.4680  0.0898 -0.8191
 9544SOL    HW240092   3.474   2.042  14.658 -0.5689 -1.0532  1.2067
 9545SOL     OW40093   4.638   0.210   3.349 -0.7735  0.2541 -0.2317
 9545SOL    HW140094   4.619   0.290   3.398 -2.3724 -0.5210  0.4183
 9545SOL    HW240095   0.011   0.215   3.346 -0.8366  0.9450 -1.2402
 9546SOL     OW40096   2.980   2.430   4.258  0.1190  0.5413  0.0207
 9546SOL    HW140097   2.985   2.492   4.331 -1.6010  0.0643  0.5452
 9546SOL    HW240098   2.897   2.390   4.281  0.6612 -1.5479 -1.6785
 9547SOL     OW40099   4.279   0.262   4.293 -0.5766  0.9264 -0.3818
 9547SOL    HW140100   4.257   0.310   4.213  2.6158  3.2860  0.1583
 9547SOL    HW240101   4.345   0.314   4.339  0.6978  1.0380 -2.3418
 9548SOL     OW40102   3.394   3.604   2.830 -0.5354  0.0556 -0.0145
 9548SOL    HW140103   3.380   3.697   2.847 -1.0944  0.1304 -0.8753
 9548SOL    HW240104   3.341   3.569   2.901 -1.8400 -3.1783 -2.6058
 9549SOL     OW40105   2.481   2.346   3.674 -0.0505 -0.1745 -0.0399
 9549SOL    HW140106   2.466   2.252   3.681  2.3953 -0.6178 -0.8505
 9549SOL    HW240107   2.562   2.353   3.724 -0.1267 -1.3470  0.2390
 9550SOL     OW40108   1.824   3.895   9.063 -0.7871  0.1849 -0.2910
 9550SOL    HW140109   1.886   3.842   9.013  0.7874  1.0631  0.7259
 9550SOL    HW240110   1.839   3.848   9.145 -1.7703 -0.3194 -0.3976
 9551SOL     OW40111   3.980   0.060  16.485  0.2286  0.0377 -0.3404
 9551SOL    HW140112   3.892   0.092  16.504  0.0140 -0.6283 -0.2262
 9551SOL    HW240113   4.031   0.137  16.509 -0.6654  0.7912 -0.8698
 9552SOL     OW40114   1.215   4.406  15.109  0.3743  0.7761  0.8872
 9552SOL    HW140115   1.264   4.363  15.039 -2.8121  0.5097 -1.1989
 9552SOL    HW240116   1.256   4.492  15.121  1.7098  0.3571 -0.6249
 9553SOL     OW40117   1.028   3.061   9.545 -0.3185  0.2960  0.0310
 9553SOL    HW140118   1.086   2.987   9.562 -2.0044 -1.6891 -2.8902
 9553SOL    HW240119   1.051   3.083   9.455  0.1317  1.1084  0.3416
 9554SOL     OW40120   0.711   4.189  11.887  0.0292 -0.2344  0.3751
 9554SOL    HW140121   0.636   4.241  11.859  0.5178 -0.1263 -0.7654
 9554SOL    HW240122   0.769   4.227  11.821  0.1458 -0.4388  0.3578
 9555SOL     OW40123   0.180   0.645  13.881  0.0143 -0.2890 -0.1036
 9555SOL    HW140124   0.107   0.663  13.822 -1.4142  0.9270  2.0540
 9555SOL    HW240125   0.187   0.551  13.863 -2.5286 -0.7113  1.1177
 9556SOL     OW40126   4.163   4.002  17.681 -0.3822 -0.2180 -0.0994
 9556SOL    HW140127   4.228   3.946  17.637  0.7291 -1.0643  2.6143
 9556SOL    HW240128   4.122   4.058  17.615  1.2705  0.0966 -0.8500
 9557SOL     OW40129   3.081   0.077   9.427 -0.4046  0.1638  0.0647
 9557SOL    HW140130   3.118   0.092   9.340  0.9388  0.2294  0.6390
 9557SOL    HW240131   3.028   0.157   9.430  3.1636  2.4879  1.6115
 9558SOL     OW40132   2.848   2.472   2.972  0.8193 -0.2461 -0.2968
 9558SOL    HW140133   2.820   2.503   2.886 -0.2417  0.8830  0.4692
 9558SOL    HW240134   2.878   2.386   2.942  0.1734 -0.8196  0.6830
 9559SOL     OW40135   1.603   1.386   4.148  0.2892  0.0129 -0.1726
 9559SOL    HW140136   1.578   1.338   4.227  2.3786 -1.3164 -0.3244
 9559SOL    HW240137   1.537   1.358   4.084  0.8567 -1.7701  0.0191
 9560SOL     OW40138   3.739   4.505   6.065 -0.5560  0.4888  0.3587
 9560SOL    HW140139   3.750   4.419   6.025  1.4946  1.0842 -0.3873
 9560SOL    HW240140   3.816   4.548   6.027  0.2806 -0.5770  0.8475
 9561SOL     OW40141   1.317   2.400  10.217 -0.6155  0.7633 -0.6715
 9561SOL    HW140142   1.392   2.450  10.186  0.8365 -2.1779 -1.9024
 9561SOL    HW240143   1.265   2.412  10.137 -0.6181 -0.8198 -0.8988
 9562SOL     OW40144   2.669   1.564   5.360  0.0981 -0.7527 -0.3245
 9562SOL    HW140145   2.751   1.541   5.406  0.3274  0.3713 -0.1609
 9562SOL    HW240146   2.619   1.565   5.442  1.5519 -0.3486  0.5733
 9563SOL     OW40147   3.600   1.485   0.238 -0.2492 -0.1102 -0.4291
 9563SOL    HW140148   3.649   1.559   0.204 -2.4735  0.6794 -1.8926
 9563SOL    HW240149   3.526   1.528   0.281 -0.4995 -0.9240 -0.0335
 9564SOL     OW40150   0.609   2.589   2.466 -0.1801  0.5393  0.0862
 9564SOL    HW140151   0.556   2.569   2.544 -2.0499  2.4329 -0.6977
 9564SOL    HW240152   0.569   2.528   2.405  2.9573  0.2058 -1.6289
 9565SOL     OW40153   0.449   3.592  12.717 -0.3755 -0.2079  0.5510
 9565SOL    HW140154   0.445   3.578  12.812 -0.9617  0.1796  0.5840
 9565SOL    HW240155   0.365   3.637  12.716 -1.0498 -1.4621  1.4487
   4.72253   4.72253  17.69214
