Membrane in water
40155
    1TCq1    O1    1   0.621   4.653  10.706 -0.2830 -0.0672  0.1630
    1TCq1    C1    2   0.495   4.677  10.742  0.5635 -0.6408 -0.0642
    1TCq1    O2    3   0.400   4.614  10.703 -0.1905 -0.1195 -0.0395
    1TCq1    C2    4   0.492   0.063  10.843  0.4082 -0.7543  0.7220
    1TCq1    C3    5   0.557   0.182  10.810  0.3130 -0.0131 -0.1280
    1TCq1    C4    6   0.516   0.296  10.880  0.3055 -0.3268 -0.4749
    1TCq1    C5    7   0.407   0.300  10.966  0.2850  0.2976 -0.2311
    1TCq1    C6    8   0.332   0.180  10.977 -0.1391 -0.2871 -0.0163
    1TCq1    C7    9   0.383   0.061  10.923  0.5997 -0.4898  0.0181
    1TCq1    C8   10   0.221   0.176  11.066 -0.7777  0.2315  0.1892
    1TCq1    O4   11   0.200   0.274  11.135 -0.5451 -0.0014 -0.2916
    1TCq1    C9   12   0.582   0.422  10.847  0.3049  0.1827 -0.2454
    1TCq1    O5   13   0.528   0.537  10.859 -0.3044 -0.3789  0.0796
    1TCq1    O6   14   0.706   0.408  10.835 -0.3290 -0.1053 -0.1494
    1TCq1    H1   15   0.688   4.709  10.751 -2.1700  1.7223  0.7248
    1TCq1    H2   16   0.644   0.182  10.746 -0.1906  0.5265 -0.8005
    1TCq1    H3   17   0.374   0.392  11.012  0.6033  0.3501 -0.1106
    1TCq1    H4   18   0.334   4.687  10.934 -0.9223  0.2752 -0.0927
    2MPD2     C   19   4.469   0.054  11.221  0.0673  0.2753  0.2337
    2MPD2    C1   20   4.570   0.117  11.292 -0.2533  0.5581 -0.1962
    2MPD2    C2   21   4.690   0.127  11.228  0.5643 -0.6793 -0.6667
    2MPD2    C3   22   4.718   0.071  11.101 -0.1529  0.2644  0.4988
    2MPD2    C4   23   4.614   0.000  11.041  0.2059  0.2582 -0.0056
    2MPD2    C5   24   4.487   0.000  11.097  0.4194 -0.0878 -0.7077
    2MPD2     H   25   0.041   0.187  11.281 -2.2725  1.0296  1.3256
    2MPD2    H1   26   4.636   4.665  10.952  0.9051  0.3549  0.1037
    2MPD2    H2   27   4.367   0.067  11.255 -0.8028 -2.6027 -1.2428
    2MPD2    H3   28   4.402   4.673  11.051  1.1962 -1.4517 -0.6698
    2MPD2     N   29   0.131   0.075  11.041  0.1293 -0.1654 -0.0327
    2MPD2    H5   30   0.145   0.022  10.956 -1.2991  0.5313 -0.6900
    2MPD2    N1   31   4.547   0.169  11.420  0.1495 -0.1894  0.2738
    2MPD2    H7   32   4.628   0.203  11.471  1.2960 -0.5611 -1.2982
    3TCq1    O1   33   4.222   1.696  10.886  0.3714 -0.5542  0.9137
    3TCq1    C1   34   4.142   1.737  10.990 -0.0286 -0.0916  0.2102
    3TCq1    O2   35   4.117   1.661  11.083  0.2658 -1.5664  0.3456
    3TCq1    C2   36   4.144   1.883  10.997  0.0809  0.9811 -0.7076
    3TCq1    C3   37   4.149   1.965  10.891  0.8536  0.0902 -0.3405
    3TCq1    C4   38   4.166   2.103  10.913 -0.4393  0.3768 -0.5328
    3TCq1    C5   39   4.180   2.154  11.041 -0.2656  0.5425 -0.0025
    3TCq1    C6   40   4.170   2.072  11.143  0.3406 -0.2226 -0.8259
    3TCq1    C7   41   4.150   1.934  11.127  0.2134  0.1120 -0.0950
    3TCq1    C8   42   4.112   2.134  11.264 -0.1192  0.1378  0.5142
    3TCq1    O4   43   4.135   2.091  11.375  0.6031  0.0067 -0.1547
    3TCq1    C9   44   4.145   2.196  10.806  0.0631  0.3759 -0.4742
    3TCq1    O5   45   4.122   2.141  10.694  0.2378 -0.3776  0.5024
    3TCq1    O6   46   4.169   2.316  10.821 -0.2643 -0.1282 -0.4475
    3TCq1    H1   47   4.265   1.767  10.834 -0.1823 -0.2065  0.9313
    3TCq1    H2   48   4.136   1.925  10.792 -2.4391  1.8086 -0.5973
    3TCq1    H3   49   4.196   2.260  11.057  1.1621  0.4891 -1.0904
    3TCq1    H4   50   4.129   1.880  11.219 -1.6512  0.4552 -0.3044
    4MPD2     C   51   3.794   2.482  11.460 -0.2082  0.8274  0.5820
    4MPD2    C1   52   3.780   2.484  11.321 -0.0399  0.2201  0.2751
    4MPD2    C2   53   3.856   2.396  11.248  1.2328  0.4169 -0.4383
    4MPD2    C3   54   3.940   2.304  11.310  0.2185 -0.1023 -0.6525
    4MPD2    C4   55   3.954   2.302  11.451  0.3171  0.4837  0.1069
    4MPD2    C5   56   3.881   2.395  11.526  0.4001 -0.4681 -0.4619
    4MPD2     H   57   3.859   2.395  11.140 -0.8386  1.7922 -0.4973
    4MPD2    H1   58   4.024   2.241  11.506 -1.4599  1.6033  3.6163
    4MPD2    H2   59   3.741   2.552  11.525 -2.2015 -0.2717  0.1396
    4MPD2    H3   60   3.877   2.388  11.634 -0.8808 -1.9024 -0.5945
    4MPD2     N   61   4.023   2.232  11.224  0.0713  0.0005  0.5449
    4MPD2    H5   62   4.000   2.233  11.125 -2.5868 -3.3847  1.1305
    4MPD2    N1   63   3.694   2.571  11.244 -0.0402 -0.0515  0.3886
    4MPD2    H7   64   3.693   2.549  11.144  1.2972 -2.1708  0.8426
    5TCq1    O1   65   3.788   3.293  10.572 -0.5699 -0.9024 -0.9792
    5TCq1    C1   66   3.890   3.252  10.489  0.2116 -0.5710  0.1217
    5TCq1    O2   67   3.962   3.325  10.423  0.5850  1.0546  0.3283
    5TCq1    C2   68   3.936   3.120  10.531  1.0458  0.2895 -0.1126
    5TCq1    C3   69   3.855   3.015  10.519 -0.4070  0.5268  0.1676
    5TCq1    C4   70   3.900   2.892  10.527  0.2903  0.0681 -0.6686
    5TCq1    C5   71   4.035   2.868  10.547 -0.5769 -0.3412 -0.6008
    5TCq1    C6   72   4.121   2.978  10.541  0.7225 -0.5408  0.5469
    5TCq1    C7   73   4.073   3.113  10.539 -0.0686  0.0276  0.0054
    5TCq1    C8   74   4.261   2.941  10.530 -0.2213  0.7737 -0.1066
    5TCq1    O4   75   4.292   2.822  10.505 -0.2876 -0.4518 -0.4853
    5TCq1    C9   76   3.810   2.783  10.517  0.5655 -0.0843  0.4191
    5TCq1    O5   77   3.859   2.668  10.537  0.2290  0.0181 -0.5412
    5TCq1    O6   78   3.696   2.805  10.490 -0.1975  0.2272  0.0432
    5TCq1    H1   79   3.774   3.227  10.642 -2.6629  1.2025  0.5860
    5TCq1    H2   80   3.752   3.041  10.499 -0.3303  0.2938 -0.5105
    5TCq1    H3   81   4.068   2.765  10.545  0.5881  0.0251 -0.3681
    5TCq1    H4   82   4.140   3.198  10.540 -0.5176  0.3887 -0.9885
    6MPD2     C   83   4.509   3.212  10.543 -0.1082 -0.3906 -0.0596
    6MPD2    C1   84   4.469   3.079  10.526 -0.4761 -0.2576 -0.4028
    6MPD2    C2   85   4.557   2.985  10.477  0.0216  0.6081  0.0486
    6MPD2    C3   86   4.685   3.025  10.457  0.6616 -0.7618  0.8369
    6MPD2    C4   87   0.004   3.157  10.469 -0.0501 -0.2477  0.1406
    6MPD2    C5   88   4.637   3.253  10.515  0.5583 -0.4763 -0.0498
    6MPD2     H   89   4.523   2.886  10.447 -1.1820  0.6759  1.1471
    6MPD2    H1   90   0.111   3.172  10.458 -0.0387 -1.3726 -1.4597
    6MPD2    H2   91   4.441   3.296  10.555 -0.9313 -1.2891  1.5391
    6MPD2    H3   92   4.662   3.359  10.511 -0.5677 -0.3204 -2.7797
    6MPD2     N   93   0.050   2.917  10.419 -0.0322 -0.3190 -0.0119
    6MPD2    H5   94   0.006   2.830  10.395 -0.6585  0.0152 -0.0726
    6MPD2    N1   95   4.336   3.051  10.552 -0.0307  0.0776 -0.6046
    6MPD2    H7   96   4.288   3.136  10.579  1.2951  1.1884 -1.7019
    7TCq1    O1   97   2.278   3.864  13.137  0.6996  0.4204 -0.4247
    7TCq1    C1   98   2.254   3.804  13.258  0.1259  0.0425 -0.2919
    7TCq1    O2   99   2.323   3.823  13.358  0.4482 -0.3236 -0.2658
    7TCq1    C2  100   2.192   3.673  13.237  0.1941  0.1936 -0.2676
    7TCq1    C3  101   2.098   3.656  13.143  0.9929  0.5803 -0.4729
    7TCq1    C4  102   2.082   3.533  13.088  0.1647 -0.0711 -0.2325
    7TCq1    C5  103   2.145   3.424  13.142 -0.4005 -0.1019  0.5197
    7TCq1    C6  104   2.223   3.444  13.251 -0.4660 -0.0171  0.1662
    7TCq1    C7  105   2.248   3.566  13.300 -0.1532  0.1134 -0.2743
    7TCq1    C8  106   2.264   3.326  13.315 -0.1915 -0.0006 -0.2505
    7TCq1    O4  107   2.296   3.227  13.250  0.0185 -0.2426 -0.0076
    7TCq1    C9  108   2.007   3.512  12.961  0.2016 -0.3467 -0.2395
    7TCq1    O5  109   2.001   3.396  12.910  0.3274  0.4725 -0.2757
    7TCq1    O6  110   1.930   3.605  12.926 -0.0851  0.1462  0.6600
    7TCq1    H1  111   2.228   3.823  13.063  0.6732  0.4518 -0.4245
    7TCq1    H2  112   2.050   3.744  13.101 -0.7215 -0.0394  0.2046
    7TCq1    H3  113   2.124   3.324  13.106 -0.6422 -0.1133  0.6913
    7TCq1    H4  114   2.324   3.577  13.378 -2.2463  0.8190  1.6736
    8MPD2     C  115   2.471   3.144  13.742 -0.1127 -0.6772  0.3012
    8MPD2    C1  116   2.455   3.075  13.621  0.4620 -0.3424 -0.2510
    8MPD2    C2  117   2.391   3.144  13.518 -0.2299  0.1986 -0.4169
    8MPD2    C3  118   2.338   3.272  13.545  0.0311  0.2114  0.0236
    8MPD2    C4  119   2.348   3.329  13.673 -0.3812  0.1576 -0.4374
    8MPD2    C5  120   2.432   3.270  13.758  0.8149 -0.0298 -0.2934
    8MPD2     H  121   2.399   3.110  13.415 -0.8866 -1.0337 -0.0587
    8MPD2    H1  122   2.302   3.421  13.709  0.4855  0.3710  0.1190
    8MPD2    H2  123   2.537   3.101  13.816  0.6027  0.1542  0.1431
    8MPD2    H3  124   2.455   3.322  13.850 -1.7706 -1.0760  0.9711
    8MPD2     N  125   2.277   3.357  13.449  0.4396 -0.1865 -0.2415
    8MPD2    H5  126   2.233   3.438  13.492  0.0304 -1.3365  1.4833
    8MPD2    N1  127   2.515   2.947  13.615  1.0869  0.0391 -0.5256
    8MPD2    H7  128   2.578   2.922  13.691  2.2122 -0.8760 -1.7620
    9TCq1    O1  129   4.062   1.188  10.682  0.2157 -0.1403 -0.0632
    9TCq1    C1  130   4.121   1.284  10.760 -0.1775  0.0101 -0.0577
    9TCq1    O2  131   4.072   1.336  10.855 -0.0171 -0.1478 -0.5241
    9TCq1    C2  132   4.239   1.334  10.694  0.4644  0.0107  0.0081
    9TCq1    C3  133   4.233   1.350  10.559  0.6266  0.5836 -0.5290
    9TCq1    C4  134   4.326   1.432  10.496  0.3754  0.2541  0.2780
    9TCq1    C5  135   4.423   1.490  10.570  0.3018  0.7540  0.6137
    9TCq1    C6  136   4.426   1.469  10.705 -0.1826  0.3110  0.1627
    9TCq1    C7  137   4.334   1.390  10.774  0.9136 -0.5940  0.5488
    9TCq1    C8  138   4.537   1.528  10.778  0.1129 -0.0640  0.4635
    9TCq1    O4  139   4.623   1.581  10.707  0.0670  0.0039  0.1532
    9TCq1    C9  140   4.342   1.445  10.353  0.0137  0.1390  0.0215
    9TCq1    O5  141   4.246   1.407  10.279 -0.2539 -0.4634  1.3157
    9TCq1    O6  142   4.460   1.475  10.316 -0.0994  0.3090 -0.0644
    9TCq1    H1  143   4.116   1.160  10.606  1.4709  0.1199  0.7323
    9TCq1    H2  144   4.155   1.314  10.493  1.4562 -2.6927  0.3193
    9TCq1    H3  145   4.485   1.564  10.521  2.1697 -3.1794 -3.0101
    9TCq1    H4  146   4.315   1.386  10.881 -0.9733  0.0517  0.2313
   10MPD2     C  147   4.718   1.668  10.961 -0.4379  0.8196  0.2257
   10MPD2    C1  148   4.638   1.562  11.004  0.1791 -0.1807 -0.0214
   10MPD2    C2  149   4.640   1.530  11.137  1.0353 -0.2864 -0.4138
   10MPD2    C3  150   4.712   1.601  11.228  0.0099 -0.4014 -0.2450
   10MPD2    C4  151   0.067   1.705  11.182  0.1320  0.7204 -0.3160
   10MPD2    C5  152   0.070   1.744  11.045 -0.2426 -0.4360 -0.3998
   10MPD2     H  153   4.578   1.445  11.164 -0.3778  0.6394 -0.7540
   10MPD2    H1  154   0.115   1.773  11.251 -1.7567 -0.3181  2.0076
   10MPD2    H2  155   0.009   1.691  10.856  2.6603 -3.0359 -0.2545
   10MPD2    H3  156   0.140   1.823  11.018 -1.8927  0.6549 -1.4673
   10MPD2     N  157   4.703   1.580  11.368 -0.7668  0.1411  0.0278
   10MPD2    H5  158   0.031   1.646  11.427 -0.3137  1.2672 -1.6269
   10MPD2    N1  159   4.545   1.500  10.910  0.2968 -0.0779  0.3372
   10MPD2    H7  160   4.486   1.436  10.962 -0.1163 -0.5273 -0.6865
   11TCq1    O1  161   1.016   2.233  13.359 -0.8393  0.5606  0.6021
   11TCq1    C1  162   1.072   2.243  13.476  0.3365 -0.0307  0.1313
   11TCq1    O2  163   1.188   2.280  13.491 -0.4117  0.1891  0.4112
   11TCq1    C2  164   1.002   2.139  13.556 -0.0678 -0.5146  1.0581
   11TCq1    C3  165   1.073   2.044  13.623 -0.6800  0.5623 -0.2386
   11TCq1    C4  166   1.012   1.962  13.713  0.0328 -0.5862 -0.5798
   11TCq1    C5  167   0.868   1.961  13.721 -0.1609  0.7496  0.0007
   11TCq1    C6  168   0.799   2.056  13.647 -0.4874  0.1398 -0.1676
   11TCq1    C7  169   0.868   2.148  13.567  0.2117 -0.4543 -0.2925
   11TCq1    C8  170   0.652   2.058  13.639 -0.2142 -0.3710  0.3535
   11TCq1    O4  171   0.600   2.159  13.593 -0.4467 -0.3570  0.2181
   11TCq1    C9  172   1.088   1.863  13.797 -0.5460  0.4470  0.0565
   11TCq1    O5  173   1.212   1.849  13.774 -0.1845 -0.1527  0.1953
   11TCq1    O6  174   1.017   1.771  13.846  0.6164 -0.3599 -0.6964
   11TCq1    H1  175   0.918   2.231  13.359 -0.8062 -0.8169  0.5569
   11TCq1    H2  176   1.181   2.052  13.632 -0.8392  0.1261  2.0124
   11TCq1    H3  177   0.826   1.884  13.785 -1.0063  0.6773 -0.6484
   11TCq1    H4  178   0.806   2.210  13.502 -1.0131 -2.5850 -1.1342
   12MPD2     C  179   0.362   2.007  13.704 -0.2806 -0.1901  0.6973
   12MPD2    C1  180   0.451   1.908  13.691 -0.1998  0.3180  0.3771
   12MPD2    C2  181   0.412   1.773  13.698  0.2730  0.7021  0.0073
   12MPD2    C3  182   0.275   1.750  13.707 -0.0943  0.1942 -1.0504
   12MPD2    C4  183   0.182   1.853  13.715  0.3547 -0.8564  0.1369
   12MPD2    C5  184   0.226   1.982  13.716 -0.2426 -0.8854 -0.3377
   12MPD2     H  185   0.486   1.698  13.677  1.4793  2.0940 -0.7288
   12MPD2    H1  186   0.075   1.836  13.725  0.2501  0.8241  1.8644
   12MPD2    H2  187   0.404   2.107  13.715  0.4332 -0.4355  0.2084
   12MPD2    H3  188   0.160   2.065  13.740  1.8253  1.4355 -2.6991
   12MPD2     N  189   0.220   1.622  13.722 -0.2531 -0.2743 -0.0326
   12MPD2    H5  190   0.119   1.615  13.726 -0.2807 -0.6645 -1.2581
   12MPD2    N1  191   0.591   1.938  13.672 -0.1541 -0.4380 -0.2091
   12MPD2    H7  192   0.644   1.855  13.695 -0.3150 -0.1152  1.3284
   13TCq1    O1  193   4.715   1.449  10.388  0.3089  0.2551 -0.5939
   13TCq1    C1  194   0.049   1.355  10.461 -0.5599 -0.4740  0.2490
   13TCq1    O2  195   0.160   1.366  10.508 -0.4903  0.2764 -0.0711
   13TCq1    C2  196   4.682   1.241  10.465 -0.7257 -0.0737 -0.5027
   13TCq1    C3  197   4.605   1.217  10.352 -0.0514  0.2589 -0.3394
   13TCq1    C4  198   4.508   1.122  10.354  1.0092  0.4546 -0.1604
   13TCq1    C5  199   4.485   1.062  10.471  0.1173  0.6124 -0.0755
   13TCq1    C6  200   4.563   1.079  10.582  0.7769  0.4196 -0.8756
   13TCq1    C7  201   4.674   1.164  10.575 -0.3919 -0.3220 -0.5882
   13TCq1    C8  202   4.509   1.071  10.721 -0.4800 -0.0703 -0.3547
   13TCq1    O4  203   4.566   1.141  10.803 -0.3745 -0.0459  0.7050
   13TCq1    C9  204   4.413   1.109  10.245 -0.7405 -0.5267 -0.2746
   13TCq1    O5  205   4.304   1.048  10.269 -0.3109  0.5254 -0.1432
   13TCq1    O6  206   4.449   1.156  10.136  0.3895 -0.1758 -0.0368
   13TCq1    H1  207   4.631   1.429  10.342 -0.2834 -1.5595  1.3020
   13TCq1    H2  208   4.617   1.283  10.267  0.6809  0.3144 -0.1872
   13TCq1    H3  209   4.401   0.995  10.480 -0.4188  1.3443  0.3568
   13TCq1    H4  210   0.019   1.174  10.659 -0.3867 -0.4388 -0.5778
   14MPD2     C  211   4.207   0.904  10.828 -0.4911  0.4148 -0.2455
   14MPD2    C1  212   4.313   0.992  10.840  0.6331 -0.2531  0.4893
   14MPD2    C2  213   4.327   1.062  10.960 -0.0524  0.6278 -0.2366
   14MPD2    C3  214   4.220   1.063  11.048  0.1315  0.0947 -0.1997
   14MPD2    C4  215   4.115   0.973  11.034 -0.0094 -0.4354  0.3671
   14MPD2    C5  216   4.111   0.894  10.922  0.0451 -0.5605 -0.9988
   14MPD2     H  217   4.414   1.126  10.972 -0.7297  1.6504 -0.7404
   14MPD2    H1  218   4.036   0.973  11.108  1.1372 -0.3381  1.6056
   14MPD2    H2  219   4.189   0.850  10.735  2.0031 -2.8385  1.1852
   14MPD2    H3  220   4.020   0.840  10.899 -0.2994  0.4381 -1.9690
   14MPD2     N  221   4.215   1.152  11.153 -0.4940  0.7562  0.2003
   14MPD2    H5  222   4.137   1.148  11.218 -0.3603  0.1320  0.3241
   14MPD2    N1  223   4.402   0.992  10.735  0.5280  0.0761 -0.7123
   14MPD2    H7  224   4.395   0.918  10.666 -2.3660 -1.0916  0.8128
   15TCq1    O1  225   0.840   1.008   2.208  0.3427 -0.5116 -0.4388
   15TCq1    C1  226   0.847   0.921   2.101  0.2114 -0.0446 -0.6822
   15TCq1    O2  227   0.807   0.941   1.989  0.1699  0.0572  0.0840
   15TCq1    C2  228   0.961   0.833   2.135  0.0861 -0.5466  0.6406
   15TCq1    C3  229   0.956   0.772   2.259  0.5703 -1.3210 -0.2117
   15TCq1    C4  230   1.063   0.692   2.288  0.0524  0.4079 -0.1506
   15TCq1    C5  231   1.160   0.670   2.197  0.6336  0.3371  0.0388
   15TCq1    C6  232   1.154   0.721   2.069 -0.4256  0.2028 -0.5066
   15TCq1    C7  233   1.049   0.803   2.032 -0.2797  0.2669  0.1563
   15TCq1    C8  234   1.259   0.698   1.971 -0.0499  0.2955 -0.1381
   15TCq1    O4  235   1.370   0.662   2.019 -0.1705  0.5876  0.6634
   15TCq1    C9  236   1.063   0.619   2.413  0.0060 -0.2459  0.0143
   15TCq1    O5  237   1.174   0.569   2.445  0.1124  0.3356 -0.4686
   15TCq1    O6  238   0.963   0.640   2.487 -0.4340 -0.1981 -0.2797
   15TCq1    H1  239   0.894   0.969   2.279  0.9951  1.0555 -0.0811
   15TCq1    H2  240   0.879   0.782   2.334 -1.2570 -1.1332 -2.1277
   15TCq1    H3  241   1.249   0.610   2.213  1.5138  1.6726  0.1847
   15TCq1    H4  242   1.041   0.856   1.938 -0.9724  0.5827  0.3884
   16MPD2     C  243   1.229   0.710   1.600  1.0922 -0.2324 -0.1517
   16MPD2    C1  244   1.295   0.688   1.718  0.1619 -0.4163  0.1538
   16MPD2    C2  245   1.429   0.643   1.719 -0.3182  0.2348 -0.4656
   16MPD2    C3  246   1.494   0.619   1.596 -0.3413 -0.0120  0.1474
   16MPD2    C4  247   1.417   0.629   1.482  0.5971 -0.0865  0.3225
   16MPD2    C5  248   1.290   0.673   1.483  0.3584  0.0262  0.0226
   16MPD2     H  249   1.481   0.650   1.814  1.4177 -1.4791 -1.2881
   16MPD2    H1  250   1.454   0.598   1.385 -0.6327  1.3864 -0.6033
   16MPD2    H2  251   1.126   0.742   1.592  0.6301 -1.3240  1.4110
   16MPD2    H3  252   1.238   0.694   1.391  0.0659 -0.4409  0.0800
   16MPD2     N  253   1.631   0.578   1.598 -0.5270 -0.1949 -0.2727
   16MPD2    H5  254   1.673   0.578   1.690 -1.1176 -0.6713  0.0014
   16MPD2    N1  255   1.220   0.710   1.834  0.3194  0.0272  0.1145
   16MPD2    H7  256   1.125   0.743   1.816 -0.2675  0.1508  3.4478
   17TCq1    O1  257   4.323   3.706  11.147  0.0046  0.0123  0.3076
   17TCq1    C1  258   4.303   3.673  11.016  0.1302 -0.2275  0.2945
   17TCq1    O2  259   4.365   3.588  10.952  0.3159  0.6743  0.2016
   17TCq1    C2  260   4.281   3.798  10.950  0.5963  0.5720  0.1586
   17TCq1    C3  261   4.297   3.920  11.018  0.8493 -0.5233  0.0583
   17TCq1    C4  262   4.330   4.032  10.947  0.0788  0.2885  0.3108
   17TCq1    C5  263   4.343   4.034  10.809 -0.2518  0.2228  0.0227
   17TCq1    C6  264   4.339   3.909  10.749 -0.0678 -0.1037  0.6127
   17TCq1    C7  265   4.307   3.795  10.818  0.0629  0.2624  0.0729
   17TCq1    C8  266   4.392   3.877  10.609  0.4482 -0.7264 -0.5747
   17TCq1    O4  267   4.375   3.767  10.567 -0.1233 -0.0995  0.1055
   17TCq1    C9  268   4.340   4.155  11.017 -0.0342 -0.3226 -0.8370
   17TCq1    O5  269   4.399   4.245  10.953  0.0033 -0.4099  0.2428
   17TCq1    O6  270   4.300   4.162  11.135  0.1299 -0.1879 -0.4201
   17TCq1    H1  271   4.246   3.759  11.175 -0.0810  1.2256 -2.2290
   17TCq1    H2  272   4.282   3.934  11.125 -1.0708 -0.4539 -0.2143
   17TCq1    H3  273   4.350   4.129  10.758 -0.9182  0.6818  0.7802
   17TCq1    H4  274   4.309   3.696  10.774 -2.4770  0.1613  0.1681
   18MPD2     C  275   4.530   3.864  10.346  0.1009  0.5394  0.3577
   18MPD2    C1  276   4.531   3.972  10.433 -0.0871 -0.2268 -0.1327
   18MPD2    C2  277   4.612   4.085  10.417 -0.3019 -0.7384  0.0385
   18MPD2    C3  278   4.699   4.084  10.317 -0.0209 -0.0306 -0.2999
   18MPD2    C4  279   4.705   3.974  10.239 -0.2668  0.2277  1.2355
   18MPD2    C5  280   4.633   3.864  10.257  0.2436  0.0698 -0.1869
   18MPD2     H  281   4.610   4.167  10.487 -1.6532 -1.7643  1.2064
   18MPD2    H1  282   0.057   3.979  10.161 -2.3090 -0.3098 -0.7197
   18MPD2    H2  283   4.462   3.780  10.349 -1.1525  1.5175 -0.7349
   18MPD2    H3  284   4.646   3.784  10.185  0.6495 -0.3175  0.3243
   18MPD2     N  285   0.063   4.184  10.278  0.1754 -0.0656 -0.2432
   18MPD2    H5  286   0.128   4.168  10.203  0.1189 -0.6881 -0.1567
   18MPD2    N1  287   4.452   3.980  10.549  0.3779  0.0497  0.0297
   18MPD2    H7  288   4.449   4.071  10.594 -0.3072  0.2156 -0.3552
   19TMC2    C1  289   1.428   1.501  13.847  0.6696  0.4659  0.2138
   19TMC2    C2  290   1.381   1.579  13.740 -0.4091 -0.3554  0.0503
   19TMC2    C3  291   1.258   1.547  13.690 -0.2190  0.0965 -0.3011
   19TMC2    C4  292   1.338   1.417  13.910  0.7205 -0.6843 -0.3435
   19TMC2    C5  293   1.220   1.393  13.857  0.3565 -0.1696  0.1413
   19TMC2    C6  294   1.180   1.449  13.744  0.1929  0.4215  0.7418
   19TMC2     C  295   1.545   1.545  13.931 -0.5804  0.3323  0.1890
   19TMC2     O  296   1.574   1.662  13.911  0.1295 -0.4611 -0.5017
   19TMC2     H  297   1.447   1.651  13.693 -1.1934 -0.7193 -1.5919
   19TMC2    H1  298   1.374   1.355  13.992  0.5048  0.3788  0.5647
   19TMC2    H2  299   1.079   1.425  13.711  0.8377 -0.6768 -0.4388
   19TMC2    C7  300   1.142   1.279  13.904 -0.3650 -0.1865 -0.0177
   19TMC2    C8  301   1.227   1.587  13.553  0.8822  0.6325 -0.3710
   19TMC2    O1  302   1.200   1.178  13.935 -0.1274 -0.1193  0.1523
   19TMC2    O2  303   1.195   1.509  13.467 -0.0859  0.1155 -0.0300
   19TMC2    O5  304   1.242   1.721  13.553 -0.3535  0.3249 -0.6335
   19TMC2    H5  305   1.233   1.762  13.642 -1.5015 -0.3716 -0.4315
   20MPD2     C  306   1.793   1.585  14.088  0.5602 -0.2551  0.4696
   20MPD2    C1  307   1.719   1.465  14.076  0.3778 -0.4241  0.0245
   20MPD2    C2  308   1.772   1.357  14.142  0.4618 -0.6673  0.4665
   20MPD2    C3  309   1.879   1.373  14.233  0.4394  0.3954 -0.3640
   20MPD2    C4  310   1.945   1.492  14.242  0.5822  0.1285 -0.4428
   20MPD2    C5  311   1.890   1.597  14.175  0.4006 -0.4112 -0.2558
   20MPD2     H  312   1.733   1.257  14.124  0.0581 -0.3880 -0.2116
   20MPD2    H1  313   2.025   1.497  14.315 -0.5814  2.0612  0.6963
   20MPD2    H2  314   1.768   1.679  14.040 -1.0677  0.2358  2.2422
   20MPD2    H3  315   1.948   1.688  14.183  0.6368 -0.7395  1.5774
   20MPD2     N  316   1.948   1.257  14.284 -0.2714 -0.5619  0.3835
   20MPD2    H5  317   2.024   1.277  14.349  0.9441 -1.3784 -0.8003
   20MPD2    N1  318   1.606   1.446  13.994 -0.0036  0.2989 -0.1145
   20MPD2    H7  319   1.578   1.350  13.979 -3.7200  1.6462 -1.5996
   21MPD2     C  320   4.096   2.021  14.043  0.3289 -0.0924 -0.5201
   21MPD2    C1  321   4.070   1.890  14.081 -0.6660 -0.6520  0.3001
   21MPD2    C2  322   3.991   1.873  14.196 -0.3135 -0.2674  0.5232
   21MPD2    C3  323   3.944   1.978  14.278  0.1982  1.0814  0.4308
   21MPD2    C4  324   3.975   2.106  14.234 -0.2350 -1.0136  0.0541
   21MPD2    C5  325   4.049   2.124  14.118 -0.1587  0.4772  0.5887
   21MPD2     H  326   3.959   1.772  14.219 -1.3928 -0.0207  0.0978
   21MPD2    H1  327   3.928   2.188  14.287 -1.6276 -0.9758 -1.2574
   21MPD2    H2  328   4.132   2.048  13.944 -0.6590  2.6251 -0.1681
   21MPD2    H3  329   4.044   2.218  14.064 -1.1605  0.9710  1.5515
   21MPD2     N  330   3.880   1.957  14.403  0.0062  0.3613 -0.1804
   21MPD2    H5  331   3.890   2.039  14.463  1.3754  1.0281 -1.3212
   21MPD2    N1  332   4.112   1.776  14.005  0.1771 -0.2806 -0.1353
   21MPD2    H7  333   4.079   1.690  14.047  0.6219 -1.4379 -2.1613
   22TCq2    C1  334   3.849   1.835  14.461  0.4914  0.3704 -0.7464
   22TCq2    O2  335   3.881   1.722  14.429 -0.2556  0.0206  0.6419
   22TCq2    C2  336   3.813   1.855  14.599  0.9917 -0.0915 -0.2564
   22TCq2    C3  337   3.874   1.769  14.686  0.1466  0.4570 -0.1328
   22TCq2    C4  338   3.862   1.803  14.817 -0.0841 -0.6055  0.0002
   22TCq2    C5  339   3.789   1.913  14.861 -1.0568  0.8058 -0.2117
   22TCq2    C6  340   3.739   2.001  14.763  0.0979 -0.1907  0.1848
   22TCq2    C7  341   3.749   1.975  14.630 -0.3731  0.0540  0.1400
   22TCq2    C8  342   3.651   2.111  14.807  0.1443  0.5695 -0.7782
   22TCq2    O4  343   3.666   2.140  14.924  0.3171 -0.0071  1.0428
   22TCq2    C9  344   3.912   1.704  14.909  0.0514 -0.0275  0.0982
   22TCq2    O5  345   3.960   1.601  14.863  0.5779 -0.4169 -0.4071
   22TCq2    O6  346   3.899   1.734  15.032 -0.3405 -0.4981  0.3298
   22TCq2    H2  347   3.924   1.677  14.656 -1.3636  0.0160 -1.3287
   22TCq2    H3  348   3.782   1.929  14.968 -1.5019 -2.0994  0.2077
   22TCq2    H4  349   3.709   2.039  14.552  1.1597 -1.1487 -1.6202
   23MPD2     C  350   0.660   2.684  14.385  0.4814  0.1411 -0.3586
   23MPD2    C1  351   0.582   2.679  14.502 -0.0105 -0.1331  0.2408
   23MPD2    C2  352   0.471   2.769  14.510 -0.2445 -0.5196 -0.0450
   23MPD2    C3  353   0.444   2.850  14.403  0.1472 -0.4635 -0.1758
   23MPD2    C4  354   0.529   2.860  14.302 -0.2094 -0.6831  0.3465
   23MPD2    C5  355   0.640   2.783  14.298 -0.4920 -0.1756 -0.8506
   23MPD2     H  356   0.402   2.746  14.591 -0.1607  1.2247  0.5229
   23MPD2    H1  357   0.515   2.938  14.229 -2.2077 -0.2820  1.1668
   23MPD2    H2  358   0.745   2.620  14.365  1.1233  1.1422 -0.8267
   23MPD2    H3  359   0.689   2.778  14.201 -0.6081 -1.0290 -0.8624
   23MPD2     N  360   0.328   2.919  14.386  0.2121  0.3904  0.4509
   23MPD2    H5  361   0.319   2.957  14.292 -3.0977  1.2505  1.1352
   23MPD2    N1  362   0.599   2.595  14.615 -0.1075 -0.1289 -0.6134
   23MPD2    H7  363   0.539   2.621  14.693  0.4237  0.7265 -0.4946
   24TCq2    C1  364   0.231   2.955  14.477 -0.6695  0.0908 -0.1070
   24TCq2    O2  365   0.229   2.928  14.592  0.2647  0.2909 -0.0316
   24TCq2    C2  366   0.106   3.000  14.418 -0.2407 -0.0384 -0.2684
   24TCq2    C3  367   0.021   3.051  14.512  0.0784 -0.4328  0.5047
   24TCq2    C4  368   4.609   3.058  14.478  0.4535 -0.7461  0.1717
   24TCq2    C5  369   4.573   3.024  14.350  0.2061  0.3502  0.0945
   24TCq2    C6  370   4.672   2.985  14.258  0.4716  0.3571 -0.1855
   24TCq2    C7  371   0.079   2.981  14.291  0.3228  0.5809 -0.5326
   24TCq2    C8  372   4.629   2.906  14.144  0.0826  0.1824  0.1312
   24TCq2    O4  373   4.703   2.813  14.109 -0.3586 -0.0575 -0.0190
   24TCq2    C9  374   4.522   3.122  14.567  0.0397  0.5664 -0.0274
   24TCq2    O5  375   4.400   3.129  14.537 -0.5110 -0.2429  0.2646
   24TCq2    O6  376   4.573   3.206  14.643  0.3602  0.3753 -0.4542
   24TCq2    H2  377   0.053   3.077  14.612 -2.8003 -1.0460  1.5949
   24TCq2    H3  378   4.467   3.027  14.329  0.5519  0.1135 -1.6884
   24TCq2    H4  379   0.136   2.935  14.210  1.3661 -1.9315  1.6359
   25TMC2    C1  380   3.470   0.066  11.077 -0.6010 -0.6871 -0.1512
   25TMC2    C2  381   3.340   0.095  11.089 -0.0108  0.2380  0.6646
   25TMC2    C3  382   3.302   0.145  11.205 -0.4501  0.1134 -0.3660
   25TMC2    C4  383   3.564   0.089  11.177 -0.1425 -0.7095 -0.1420
   25TMC2    C5  384   3.516   0.152  11.292  0.1485 -0.2297 -0.2437
   25TMC2    C6  385   3.385   0.184  11.309 -0.0180  0.1716 -0.3209
   25TMC2     C  386   3.510   0.023  10.944  0.1136 -0.8260  0.0946
   25TMC2     O  387   3.423   0.033  10.860  0.7819 -0.2859  0.5804
   25TMC2     H  388   3.260   0.061  11.024 -0.5018  2.5229  0.0615
   25TMC2    H1  389   3.664   0.051  11.162  0.4777 -0.0321  2.2046
   25TMC2    H2  390   3.348   0.207  11.408  0.3988 -0.4564 -0.0177
   25TMC2    C7  391   3.601   0.200  11.401 -0.6324  0.1507 -0.0650
   25TMC2    C8  392   3.160   0.150  11.227  0.0969  0.0153 -0.3767
   25TMC2    O1  393   3.543   0.261  11.488  0.0834 -0.3863  0.1959
   25TMC2    O2  394   3.070   0.167  11.146  0.1366  0.1594 -0.1373
   25TMC2    O5  395   3.135   0.120  11.363 -0.0339 -0.0550  0.5775
   25TMC2    H5  396   3.203   0.066  11.407  0.3891  1.5994  1.9534
   26MPD2     C  397   3.729   4.412  10.626 -0.2866  0.9737  0.1380
   26MPD2    C1  398   3.767   4.377  10.752  0.5940  0.3902  0.1048
   26MPD2    C2  399   3.748   4.467  10.851 -0.1041 -0.9351 -0.5271
   26MPD2    C3  400   3.656   4.569  10.834 -0.2918 -0.5889 -0.1922
   26MPD2    C4  401   3.619   4.601  10.706 -0.6157  0.1106 -1.0622
   26MPD2    C5  402   3.659   4.528  10.604 -0.0744  0.6005 -0.3649
   26MPD2     H  403   3.775   4.445  10.954 -0.3549 -0.4165 -0.3483
   26MPD2    H1  404   3.547   4.679  10.682 -0.0904  0.5363 -1.2481
   26MPD2    H2  405   3.736   4.340  10.545 -1.8695 -0.2809  1.1169
   26MPD2    H3  406   3.614   4.555  10.509  0.1075 -0.2811 -0.7025
   26MPD2     N  407   3.605   4.645  10.951 -0.0119 -0.4960  0.4673
   26MPD2    H5  408   3.631   4.606  11.041  0.3560 -1.3597 -0.0206
   26MPD2    N1  409   3.854   4.265  10.761  0.8180  0.0507 -0.3723
   26MPD2    H7  410   3.862   4.198  10.685 -2.0155 -0.7888  0.0941
   27TMC2    C1  411   3.145   2.499  11.838 -0.2991  0.1324  0.4379
   27TMC2    C2  412   3.151   2.536  11.706 -0.1527 -0.0151  0.0438
   27TMC2    C3  413   3.145   2.664  11.673  0.3092 -0.3265  0.0186
   27TMC2    C4  414   3.126   2.597  11.937 -0.2724  0.8716 -1.2249
   27TMC2    C5  415   3.125   2.728  11.902  0.4930 -0.0836 -0.0139
   27TMC2    C6  416   3.130   2.758  11.763 -1.2193 -0.3265 -0.6014
   27TMC2     C  417   3.067   2.376  11.859  0.4155 -1.2381  0.2722
   27TMC2     O  418   3.128   2.277  11.903  0.5614 -0.1480  0.3925
   27TMC2     H  419   3.136   2.462  11.628  0.7015 -2.2556  1.9992
   27TMC2    H1  420   3.099   2.565  12.037  1.7835  0.9258 -0.6487
   27TMC2    H2  421   3.123   2.864  11.739  2.6501  0.2456  0.8081
   27TMC2    C7  422   3.068   2.833  11.989 -0.1759  0.1770 -0.3150
   27TMC2    C8  423   3.105   2.685  11.539 -0.1320 -0.0357  0.4549
   27TMC2    O1  424   3.004   2.924  11.946  0.0499  0.1408  0.3805
   27TMC2    O2  425   2.987   2.711  11.515  0.2541 -0.1769 -0.0357
   27TMC2    O5  426   3.192   2.624  11.458 -0.7398  0.1947  0.2829
   27TMC2    H5  427   3.274   2.591  11.502 -0.2100  0.8922 -0.1665
   28MPD2     C  428   2.697   2.193  12.133  0.4714 -0.4607  0.3128
   28MPD2    C1  429   2.694   2.330  12.146  0.8769 -0.4159 -0.5843
   28MPD2    C2  430   2.776   2.401  12.058 -0.0984 -0.4176  0.4702
   28MPD2    C3  431   2.857   2.343  11.964  0.4063  0.6778 -0.0284
   28MPD2    C4  432   2.852   2.202  11.953  0.2714 -0.5765  0.9182
   28MPD2    C5  433   2.771   2.129  12.037 -0.4312  0.7269 -0.4132
   28MPD2     H  434   2.794   2.506  12.080  3.9724 -1.0856  0.2700
   28MPD2    H1  435   2.912   2.149  11.880 -2.2017 -0.7574 -0.9878
   28MPD2    H2  436   2.635   2.138  12.203  0.0149 -0.0358  0.2437
   28MPD2    H3  437   2.772   2.021  12.031 -0.6805  0.6675  0.5460
   28MPD2     N  438   2.943   2.421  11.884  0.2421 -0.2937 -0.2128
   28MPD2    H5  439   2.929   2.521  11.871 -1.5120 -0.3346  1.2901
   28MPD2    N1  440   2.608   2.393  12.245  0.6646  0.1590  0.2150
   28MPD2    H7  441   2.568   2.333  12.316  1.7410 -1.4743 -0.5633
   29MPD2     C  442   2.309   4.497  13.919 -0.3011  0.2612  0.2146
   29MPD2    C1  443   2.444   4.504  13.940  0.0864 -0.2086 -0.2917
   29MPD2    C2  444   2.495   4.616  14.004  0.5230 -0.5315 -0.0568
   29MPD2    C3  445   2.411   4.711  14.061 -0.3109  0.1548 -0.5294
   29MPD2    C4  446   2.279   4.686  14.061 -0.4128 -0.5342  0.5632
   29MPD2    C5  447   2.230   4.580  13.992  0.4902  0.6919 -0.7418
   29MPD2     H  448   2.603   4.626  14.002  0.5906 -1.4430 -0.6458
   29MPD2    H1  449   2.216   0.032  14.118  0.8166 -1.1921  2.7392
   29MPD2    H2  450   2.257   4.430  13.852 -1.6837  1.5380  0.0063
   29MPD2    H3  451   2.123   4.567  13.984  0.6669 -1.0187 -0.4393
   29MPD2     N  452   2.459   0.108  14.129  0.8873  0.0260 -0.8013
   29MPD2    H5  453   2.391   0.163  14.181 -0.2381 -1.7530 -0.3937
   29MPD2    N1  454   2.533   4.400  13.906  0.0337 -0.1903  0.4656
   29MPD2    H7  455   2.626   4.412  13.945  0.3562 -1.2355  0.0339
   30TCq2    C1  456   2.592   0.156  14.115  0.3107 -0.1331 -0.1767
   30TCq2    O2  457   2.679   0.119  14.038  0.2199 -0.0527 -0.2467
   30TCq2    C2  458   2.634   0.265  14.208 -0.0060 -0.1709  0.1052
   30TCq2    C3  459   2.556   0.296  14.318 -0.6097  0.1456  1.1023
   30TCq2    C4  460   2.599   0.391  14.402 -0.0683  0.1026  0.2156
   30TCq2    C5  461   2.723   0.449  14.386  0.1550  0.0248 -0.3522
   30TCq2    C6  462   2.801   0.404  14.279  0.2762 -0.1347 -0.1845
   30TCq2    C7  463   2.759   0.312  14.191 -0.3688 -0.2464  0.9818
   30TCq2    C8  464   2.882   0.511  14.220 -0.3471 -0.2966 -0.0344
   30TCq2    O4  465   2.880   0.527  14.101  0.7008 -0.0993 -0.2092
   30TCq2    C9  466   2.516   0.434  14.510  0.0762  0.0273  0.0537
   30TCq2    O5  467   2.411   0.367  14.534  0.4273  0.3005 -0.6058
   30TCq2    O6  468   2.564   0.518  14.588  0.0349  0.2410  0.5016
   30TCq2    H2  469   2.456   0.254  14.324 -0.9864  1.0451  1.1402
   30TCq2    H3  470   2.750   0.523  14.460  1.5009 -0.1223 -0.6917
   30TCq2    H4  471   2.812   0.292  14.098 -0.1974  3.5081  0.2886
   31MPD2     C  472   0.487   3.273  14.718 -0.0733  0.0493 -0.0247
   31MPD2    C1  473   0.448   3.396  14.768  0.4210 -0.5559 -0.0150
   31MPD2    C2  474   0.360   3.402  14.875  0.1103 -0.1035  0.5092
   31MPD2    C3  475   0.323   3.286  14.944  0.0951 -0.7600 -0.6353
   31MPD2    C4  476   0.368   3.166  14.892  0.4597  0.1880 -0.1282
   31MPD2    C5  477   0.442   3.161  14.776 -0.0142  0.6671 -0.3271
   31MPD2     H  478   0.340   3.498  14.922  2.8441  0.9530 -0.4427
   31MPD2    H1  479   0.351   3.072  14.943  0.1733  0.6653  0.6717
   31MPD2    H2  480   0.562   3.259  14.641  1.5879  0.3098  1.5515
   31MPD2    H3  481   0.474   3.063  14.743 -0.7046  0.3243  0.0194
   31MPD2     N  482   0.238   3.294  15.053  0.0851  0.1172  0.0102
   31MPD2    H5  483   0.239   3.213  15.114 -1.9176 -0.2516 -0.4747
   31MPD2    N1  484   0.505   3.508  14.705  0.1943  0.0678 -0.0971
   31MPD2    H7  485   0.556   3.484  14.620  3.0656 -0.0842  1.6614
   32TCq2    C1  486   0.166   3.406  15.090  0.1093  0.4115  0.2480
   32TCq2    O2  487   0.135   3.503  15.022  0.0095  0.0456 -0.3487
   32TCq2    C2  488   0.135   3.410  15.229 -0.2649  0.1202  0.3753
   32TCq2    C3  489   0.011   3.467  15.257  0.6419 -0.3662 -0.3219
   32TCq2    C4  490   4.700   3.490  15.385  0.0793  0.4516 -0.0153
   32TCq2    C5  491   0.072   3.468  15.485  0.0720 -0.6205  0.3056
   32TCq2    C6  492   0.186   3.405  15.456  0.3655 -0.4800  0.5371
   32TCq2    C7  493   0.219   3.373  15.326  0.0658 -0.4487  0.1283
   32TCq2    C8  494   0.288   3.389  15.553  0.0108 -0.1961  0.1967
   32TCq2    O4  495   0.395   3.334  15.520  0.0659 -0.3660  0.2380
   32TCq2    C9  496   4.578   3.544  15.423  0.1999 -0.1961 -0.0583
   32TCq2    O5  497   4.497   3.581  15.328  0.0064  0.4350 -0.1941
   32TCq2    O6  498   4.567   3.578  15.543 -0.1921  0.9682  0.4355
   32TCq2    H2  499   4.659   3.492  15.182 -1.5608  2.6708  2.8371
   32TCq2    H3  500   0.044   3.490  15.588 -0.3366  0.3223 -0.0020
   32TCq2    H4  501   0.316   3.340  15.292 -0.4162 -0.2510 -1.4244
   33MPD2     C  502   0.591   0.202  10.477  0.0812  0.7359  0.1590
   33MPD2    C1  503   0.470   0.175  10.415 -0.0062 -0.3814 -0.6278
   33MPD2    C2  504   0.384   0.281  10.386 -0.2984 -0.1487 -0.6373
   33MPD2    C3  505   0.423   0.418  10.396 -0.9715  0.1721 -0.4164
   33MPD2    C4  506   0.544   0.433  10.474  0.7201  0.1202  0.2153
   33MPD2    C5  507   0.624   0.331  10.512 -0.1468  0.4189  0.0371
   33MPD2     H  508   0.286   0.260  10.344 -0.1334 -2.7153  0.2745
   33MPD2    H1  509   0.583   0.526  10.513 -1.1393  0.9467  0.0906
   33MPD2    H2  510   0.657   0.120  10.501  2.1454  2.4175  0.2345
   33MPD2    H3  511   0.719   0.349  10.562 -0.3392  0.4071  0.4029
   33MPD2     N  512   0.341   0.528  10.374  0.2073  0.2584  0.2754
   33MPD2    H5  513   0.386   0.610  10.412  1.8595  0.2872 -1.6939
   33MPD2    N1  514   0.441   0.043  10.371 -0.0835  0.0273 -0.3984
   33MPD2    H7  515   0.518   4.700  10.381 -0.4549 -0.3726 -0.1033
   34TCq2    C1  516   0.211   0.517  10.332  0.2784 -0.4738 -0.2105
   34TCq2    O2  517   0.144   0.429  10.279 -0.1585 -0.2027 -0.4569
   34TCq2    C2  518   0.140   0.647  10.330 -0.3289  0.1621  0.4592
   34TCq2    C3  519   0.003   0.662  10.320 -0.2223 -0.4394 -0.2100
   34TCq2    C4  520   4.671   0.777  10.280  0.0364  0.3498 -0.0477
   34TCq2    C5  521   0.023   0.893  10.256 -0.5259 -0.2987  0.4239
   34TCq2    C6  522   0.162   0.884  10.265  0.1907  0.3806  0.1948
   34TCq2    C7  523   0.218   0.758  10.297  0.2886 -0.1465  0.1187
   34TCq2    C8  524   0.247   0.998  10.237 -0.7033 -0.6462 -0.6596
   34TCq2    O4  525   0.363   0.982  10.281  0.3559  0.0150 -0.2039
   34TCq2    C9  526   4.530   0.780  10.244  0.5456  0.5214 -0.1893
   34TCq2    O5  527   4.451   0.715  10.315  0.5184  0.2558  0.0454
   34TCq2    O6  528   4.488   0.846  10.151  0.1492 -0.1319 -0.2881
   34TCq2    H2  529   4.660   0.578  10.339 -0.1805 -0.4450 -0.0938
   34TCq2    H3  530   4.700   0.979  10.209  0.8949  0.9271  1.3139
   34TCq2    H4  531   0.326   0.753  10.293  0.2678 -0.7286  0.4215
   35MPD2     C  532   2.405   1.919  12.138 -0.1137  0.2014 -0.0167
   35MPD2    C1  533   2.319   2.024  12.119 -0.4665  0.4034  0.2074
   35MPD2    C2  534   2.274   2.052  11.992  0.5994 -0.3829 -0.1348
   35MPD2    C3  535   2.309   1.975  11.885  0.1655  0.2294 -0.0272
   35MPD2    C4  536   2.399   1.866  11.910 -1.1232  0.1282  0.3835
   35MPD2    C5  537   2.446   1.837  12.038  0.1644  0.4891 -0.1586
   35MPD2     H  538   2.199   2.130  11.984  1.1563  0.1079 -0.5357
   35MPD2    H1  539   2.432   1.796  11.835 -1.0154 -1.1765  1.6368
   35MPD2    H2  540   2.441   1.893  12.237 -0.9194 -1.9782 -0.2909
   35MPD2    H3  541   2.509   1.751  12.054  1.0053  0.9300 -1.1652
   35MPD2     N  542   2.262   2.003  11.762  0.7017  0.2018  0.0942
   35MPD2    H5  543   2.188   2.071  11.749 -0.1518 -1.0658 -1.7278
   35MPD2    N1  544   2.272   2.098  12.230 -0.3063 -0.5358  0.6779
   35MPD2    H7  545   2.292   2.060  12.322 -0.9590 -1.4951  0.4252
   36TCq2    C1  546   2.285   1.932  11.649  0.0008  0.5730  0.2540
   36TCq2    O2  547   2.326   1.818  11.635  0.1571 -0.3275 -0.6156
   36TCq2    C2  548   2.201   1.981  11.537  0.5135  0.3716  0.2747
   36TCq2    C3  549   2.156   2.108  11.545  0.9207 -0.6027  0.0232
   36TCq2    C4  550   2.048   2.138  11.468 -0.0444 -0.5541  0.3797
   36TCq2    C5  551   1.982   2.056  11.381  0.2930  0.2027 -0.4416
   36TCq2    C6  552   2.034   1.929  11.380 -0.7246 -0.5125 -0.0042
   36TCq2    C7  553   2.134   1.890  11.464 -0.0750  0.1913 -0.1622
   36TCq2    C8  554   1.945   1.827  11.328 -0.6245  0.5458  0.3091
   36TCq2    O4  555   1.822   1.853  11.323  0.3693  0.0609  0.0156
   36TCq2    C9  556   1.992   2.274  11.467  0.2410 -0.7391  0.9446
   36TCq2    O5  557   1.901   2.307  11.386  0.0464 -0.0982  0.0110
   36TCq2    O6  558   2.045   2.351  11.554 -0.3326 -0.2850 -0.4772
   36TCq2    H2  559   2.203   2.177  11.615  1.9399 -1.5917  0.3200
   36TCq2    H3  560   1.896   2.086  11.322  0.3382  0.8638 -0.1623
   36TCq2    H4  561   2.177   1.792  11.478  1.9197  1.1260  0.1578
   37TMC2    C1  562   4.266   2.774  11.348  0.8539  0.2376 -0.6747
   37TMC2    C2  563   4.264   2.699  11.234  0.6962  0.2600 -0.8067
   37TMC2    C3  564   4.379   2.646  11.194  0.9936  0.1564 -0.3817
   37TMC2    C4  565   4.376   2.789  11.421  0.1028  0.3239 -0.4081
   37TMC2    C5  566   4.493   2.740  11.371 -0.4321 -0.8585 -0.4564
   37TMC2    C6  567   4.494   2.654  11.267 -0.4043 -0.5912  0.1897
   37TMC2     C  568   4.135   2.782  11.419 -0.2227  0.0331 -0.2186
   37TMC2     O  569   4.030   2.785  11.359 -0.1957 -0.1982 -0.3221
   37TMC2     H  570   4.178   2.689  11.168  0.1408 -0.2932  0.0071
   37TMC2    H1  571   4.385   2.870  11.493 -0.3131  0.1887 -0.2099
   37TMC2    H2  572   4.582   2.613  11.221  0.2850  1.5553 -0.4285
   37TMC2    C7  573   4.607   2.747  11.460 -0.4470 -0.4479 -0.0565
   37TMC2    C8  574   4.365   2.533  11.113 -0.1818  0.2250  0.1765
   37TMC2    O1  575   4.599   2.816  11.559  0.2319  0.4501 -1.2149
   37TMC2    O2  576   4.284   2.537  11.019 -0.3975  0.2789 -0.3013
   37TMC2    O5  577   4.415   2.429  11.182 -0.7616  0.2595  0.7064
   37TMC2    H5  578   4.459   2.465  11.262  0.0944  0.0979  0.3168
   38MPD2     C  579   3.831   2.720  11.807 -0.4516 -1.1114  0.0893
   38MPD2    C1  580   3.951   2.664  11.844 -0.5502  0.0017 -0.1327
   38MPD2    C2  581   4.060   2.684  11.766  0.0796  0.0322 -0.1714
   38MPD2    C3  582   4.041   2.755  11.652  0.2524  0.0282  0.3090
   38MPD2    C4  583   3.924   2.820  11.623  0.7049 -0.1746 -0.5981
   38MPD2    C5  584   3.817   2.808  11.706  0.0334 -0.3245  0.3611
   38MPD2     H  585   4.155   2.650  11.806 -0.6405  0.1583  1.6887
   38MPD2    H1  586   3.908   2.865  11.525 -1.3491  2.1774  0.8141
   38MPD2    H2  587   3.742   2.707  11.868  0.4757 -0.4035  1.5859
   38MPD2    H3  588   3.722   2.849  11.672  0.7701  0.0822 -1.2274
   38MPD2     N  589   4.153   2.762  11.558  0.1762 -0.8114  0.8471
   38MPD2    H5  590   4.244   2.737  11.595  0.4004  0.3660  1.1189
   38MPD2    N1  591   3.955   2.575  11.954 -0.4521  0.3908  0.0259
   38MPD2    H7  592   4.033   2.513  11.970 -0.2925  0.5486 -0.1421
   39MPD2     C  593   2.094   0.035   1.811  0.8318  0.0867  0.4237
   39MPD2    C1  594   2.045   0.155   1.862  0.4652  0.0405  0.2436
   39MPD2    C2  595   1.926   0.199   1.819 -0.5221  0.0284 -0.2404
   39MPD2    C3  596   1.845   0.124   1.730  0.2796  0.3578  0.6056
   39MPD2    C4  597   1.895   0.000   1.688 -0.6909  0.0908 -0.3874
   39MPD2    C5  598   2.016   4.677   1.735 -0.0149  0.0340  0.5221
   39MPD2     H  599   1.884   0.291   1.857 -1.8465 -0.6160 -0.1382
   39MPD2    H1  600   1.831   4.646   1.645  0.9378 -1.4070 -0.1523
   39MPD2    H2  601   2.194   4.718   1.826  0.5659 -0.7059  0.1556
   39MPD2    H3  602   2.062   4.587   1.697 -2.1241 -1.0245  0.4710
   39MPD2     N  603   1.708   0.152   1.702 -0.2195  0.0592  0.5406
   39MPD2    H5  604   1.663   0.085   1.640 -2.6484  0.2541  2.1013
   39MPD2    N1  605   2.140   0.230   1.935 -0.1539  0.1236 -0.3822
   39MPD2    H7  606   2.232   0.189   1.939  0.2519  1.2818  2.1365
   40TCq2    C1  607   2.117   0.349   1.994  0.2135 -0.0681 -0.1463
   40TCq2    O2  608   2.014   0.404   2.028  0.9509  0.0805  0.4745
   40TCq2    C2  609   2.240   0.421   2.027 -0.0042 -0.1160  0.5287
   40TCq2    C3  610   2.230   0.503   2.140 -0.9020 -0.1246 -0.8044
   40TCq2    C4  611   2.357   0.550   2.184 -0.3693  0.2931  0.0907
   40TCq2    C5  612   2.474   0.526   2.119 -0.5398  0.8472 -0.2420
   40TCq2    C6  613   2.476   0.431   2.021  0.6162  0.1048 -0.0330
   40TCq2    C7  614   2.359   0.388   1.966  0.0207 -0.9340  0.0881
   40TCq2    C8  615   2.591   0.414   1.940 -0.7241  0.2567  0.0888
   40TCq2    O4  616   2.577   0.343   1.840 -0.1214  0.1669 -0.0048
   40TCq2    C9  617   2.358   0.648   2.290  0.7577 -0.2151 -0.6836
   40TCq2    O5  618   2.469   0.702   2.319  0.3351  1.1024  0.1969
   40TCq2    O6  619   2.254   0.666   2.356 -0.3997 -0.1544 -0.2223
   40TCq2    H2  620   2.141   0.532   2.194  0.6339  0.6729  1.2793
   40TCq2    H3  621   2.564   0.567   2.164 -0.7784  0.2739  0.7563
   40TCq2    H4  622   2.362   0.314   1.887  0.1751  0.3762 -1.1529
   41TMC2    C1  623   1.182   2.986  13.311  0.1989 -0.3863 -0.7431
   41TMC2    C2  624   1.140   3.098  13.380  0.3410 -0.5522 -0.5956
   41TMC2    C3  625   1.079   3.191  13.308 -0.3748  0.4434 -1.2178
   41TMC2    C4  626   1.171   2.975  13.171  0.1722 -0.2696 -0.6534
   41TMC2    C5  627   1.109   3.076  13.107 -0.3839  0.5294  0.0531
   41TMC2    C6  628   1.059   3.184  13.173 -0.3150 -0.4746 -0.6793
   41TMC2     C  629   1.213   2.866  13.378  0.3788  0.0624  0.4167
   41TMC2     O  630   1.210   2.765  13.312 -0.1346 -0.5478  0.1646
   41TMC2     H  631   1.128   3.099  13.488 -1.9357  0.2372 -0.8540
   41TMC2    H1  632   1.200   2.885  13.118  0.0977 -0.3220 -0.6064
   41TMC2    H2  633   1.001   3.254  13.114 -1.5883  0.5978  1.8381
   41TMC2    C7  634   1.060   3.043  12.979 -0.6253  0.2797  0.5745
   41TMC2    C8  635   1.008   3.298  13.381 -0.1076  0.1799  0.1863
   41TMC2    O1  636   0.942   3.043  12.966 -0.1418  0.2966  0.0666
   41TMC2    O2  637   0.928   3.369  13.331  0.1723  0.1839  0.0102
   41TMC2    O5  638   1.071   3.334  13.497 -0.3898 -0.6181  0.1729
   41TMC2    H5  639   1.164   3.303  13.507 -0.9327 -1.7548  1.6168
   42MPD2     C  640   1.360   2.648  13.526 -0.2277 -0.9126  0.0960
   42MPD2    C1  641   1.323   2.772  13.575 -0.1045  0.7016 -0.6148
   42MPD2    C2  642   1.338   2.799  13.711 -1.1613  0.4831 -0.2355
   42MPD2    C3  643   1.390   2.697  13.799 -0.3923  0.7912  0.4127
   42MPD2    C4  644   1.425   2.572  13.744  0.1453 -0.1542 -0.2435
   42MPD2    C5  645   1.408   2.551  13.608 -0.0131  0.1428 -0.9044
   42MPD2     H  646   1.301   2.897  13.740  0.6095  1.2228 -0.5210
   42MPD2    H1  647   1.457   2.489  13.805  0.1929  1.5565  2.0462
   42MPD2    H2  648   1.352   2.614  13.424  0.5000  3.2241 -1.3693
   42MPD2    H3  649   1.439   2.457  13.563  3.1210 -0.1024  1.8112
   42MPD2     N  650   1.412   2.720  13.933  0.1542  0.0511 -0.4246
   42MPD2    H5  651   1.440   2.636  13.982 -0.7000  0.9322  1.6011
   42MPD2    N1  652   1.261   2.879  13.507  0.2044  0.4716  0.3444
   42MPD2    H7  653   1.251   2.973  13.543 -1.6637  0.8369 -1.0865
   43MPD2     C  654   1.849   1.070   0.964 -0.2022 -0.9221 -0.3757
   43MPD2    C1  655   1.949   1.075   1.055 -0.2642 -0.6242  0.2087
   43MPD2    C2  656   1.927   1.119   1.186 -0.1452  0.2330 -0.1584
   43MPD2    C3  657   1.795   1.151   1.226  0.3461 -0.6419  0.6919
   43MPD2    C4  658   1.698   1.143   1.135  0.1127 -0.2951  0.1106
   43MPD2    C5  659   1.719   1.097   1.014 -0.0789  0.6397 -0.1959
   43MPD2     H  660   2.001   1.106   1.264 -0.6728 -0.1784  0.2719
   43MPD2    H1  661   1.598   1.170   1.170  1.2353  1.2638  2.1288
   43MPD2    H2  662   1.865   1.045   0.860 -1.3266  0.4594 -0.8758
   43MPD2    H3  663   1.636   1.097   0.945  0.6760  0.0035 -1.1165
   43MPD2     N  664   1.760   1.203   1.351  0.0525  0.6910 -0.6316
   43MPD2    H5  665   1.664   1.231   1.370  0.1854  0.1714  0.7516
   43MPD2    N1  666   2.083   1.024   1.027 -0.2368  0.9177  0.9017
   43MPD2    H7  667   2.157   1.037   1.096 -0.3042  0.4300  1.0640
   44TCq2    C1  668   1.906   1.351   1.911 -0.0489  0.6614  0.0859
   44TCq2    O2  669   1.990   1.261   1.919 -0.7124 -0.2025  0.0275
   44TCq2    C2  670   1.806   1.340   1.798  0.6792  0.1521 -0.0188
   44TCq2    C3  671   1.716   1.436   1.786  0.3948  0.2899  0.0598
   44TCq2    C4  672   1.666   1.469   1.663 -0.3709 -0.2041  0.3889
   44TCq2    C5  673   1.698   1.388   1.555 -0.4558  0.4762  0.2306
   44TCq2    C6  674   1.781   1.283   1.577  0.0117  0.0952  0.2815
   44TCq2    C7  675   1.843   1.263   1.694 -0.1419  0.2104 -0.3249
   44TCq2    C8  676   1.837   1.209   1.463  0.1831  0.2829 -0.9314
   44TCq2    O4  677   1.956   1.181   1.475 -0.8316 -0.4414  0.0470
   44TCq2    C9  678   1.579   1.585   1.643 -0.1603 -0.2106  0.7771
   44TCq2    O5  679   1.550   1.653   1.744 -0.4099  0.3177  0.1326
   44TCq2    O6  680   1.536   1.619   1.531  0.0345  0.4539  0.0859
   44TCq2    H2  681   1.673   1.486   1.871  1.3083  0.2019  0.5723
   44TCq2    H3  682   1.654   1.416   1.460  0.5799  3.1538  0.5365
   44TCq2    H4  683   1.906   1.175   1.706 -3.5770 -2.3660 -1.0539
   45TMC2    C1  684   3.456   2.192   9.553 -0.2360  0.0581 -0.1222
   45TMC2    C2  685   3.439   2.098   9.456 -0.8250  0.1660 -0.0634
   45TMC2    C3  686   3.521   2.098   9.345  0.0208 -0.4881  0.3599
   45TMC2    C4  687   3.561   2.279   9.560  0.4742  0.4437 -0.7706
   45TMC2    C5  688   3.654   2.260   9.455  0.5782  0.1612 -0.2944
   45TMC2    C6  689   3.635   2.167   9.355 -0.8064 -0.7857 -0.6340
   45TMC2     C  690   3.382   2.175   9.675  0.3668 -0.1464  0.1784
   45TMC2     O  691   3.437   2.210   9.776 -0.2068  0.2848  0.2961
   45TMC2     H  692   3.352   2.033   9.453  1.0029 -2.3548  1.3349
   45TMC2    H1  693   3.578   2.346   9.644  0.8532 -0.2102 -0.3268
   45TMC2    H2  694   3.716   2.161   9.283  0.4029 -1.0340  0.7424
   45TMC2    C7  695   3.763   2.351   9.436  0.0898 -0.6222 -0.2973
   45TMC2    C8  696   3.515   1.980   9.259 -0.3245  0.0738  0.2309
   45TMC2    O1  697   3.818   2.354   9.325 -0.2445  0.0895 -0.2454
   45TMC2    O2  698   3.442   1.886   9.280 -0.4130  1.0909  0.1245
   45TMC2    O5  699   3.583   2.008   9.147  0.1821 -0.0732 -0.0981
   45TMC2    H5  700   3.625   2.097   9.146 -0.6160  0.2933 -1.9125
   46MPD2     C  701   3.179   2.077   9.859  0.0516 -0.3019 -0.2379
   46MPD2    C1  702   3.150   2.104   9.727 -0.8254  0.4622 -0.4727
   46MPD2    C2  703   3.029   2.058   9.674  0.1751 -0.3365  0.0125
   46MPD2    C3  704   2.955   1.978   9.753 -0.2960  0.3290 -0.1164
   46MPD2    C4  705   2.981   1.956   9.887  0.1280 -0.3893  0.1908
   46MPD2    C5  706   3.097   2.005   9.940 -0.2562 -0.7501  0.0895
   46MPD2     H  707   3.012   2.081   9.570  0.2433 -0.7987 -0.1013
   46MPD2    H1  708   2.913   1.894   9.944 -0.9020  1.9728  1.4952
   46MPD2    H2  709   3.270   2.119   9.901 -1.5774  1.3605  1.6427
   46MPD2    H3  710   3.131   1.992  10.042 -2.8994  0.7461  1.1825
   46MPD2     N  711   2.831   1.925   9.699 -0.2874 -0.1047  0.0594
   46MPD2    H5  712   2.801   1.965   9.611 -0.8763  1.7193  1.0924
   46MPD2    N1  713   3.244   2.170   9.648 -0.6825  0.4615 -0.0652
   46MPD2    H7  714   3.215   2.162   9.551  0.8428 -1.3684 -0.3655
   47TMC2    C1  715   1.061   2.950   9.221  0.2111  0.7658 -0.6885
   47TMC2    C2  716   1.034   2.812   9.231  0.0664  0.5818 -0.0222
   47TMC2    C3  717   0.920   2.767   9.184  0.0090 -0.4051 -0.8260
   47TMC2    C4  718   0.990   3.031   9.138  0.5837 -0.2094  0.1308
   47TMC2    C5  719   0.879   2.977   9.083  0.0599  0.4190 -0.2261
   47TMC2    C6  720   0.843   2.848   9.101  0.2523 -0.0768  0.0968
   47TMC2     C  721   1.157   3.007   9.315 -0.4785 -0.1395  0.5156
   47TMC2     O  722   1.181   3.127   9.318 -0.5848  0.1913  0.1351
   47TMC2     H  723   1.107   2.742   9.269  2.0645  2.7672  0.1353
   47TMC2    H1  724   1.014   3.135   9.124 -2.0268  0.5173  1.1890
   47TMC2    H2  725   0.743   2.815   9.075 -0.4626  0.7178  1.8060
   47TMC2    C7  726   0.807   3.063   8.990 -0.3178 -0.1697  0.1785
   47TMC2    C8  727   0.910   2.625   9.165  0.0015 -0.4743 -0.9039
   47TMC2    O1  728   0.813   3.185   9.019 -0.1591 -0.2342  0.1629
   47TMC2    O2  729   0.854   2.574   9.068  0.3795  0.2444 -0.4295
   47TMC2    O5  730   0.942   2.559   9.278  0.4049  0.7764 -0.1194
   47TMC2    H5  731   0.965   2.609   9.360 -1.0371 -1.5757  1.7189
   48MPD2     C  732   1.348   3.045   9.541 -0.6694 -0.7582 -0.6635
   48MPD2    C1  733   1.306   2.925   9.499  0.2582  0.2713 -0.9800
   48MPD2    C2  734   1.343   2.808   9.557 -0.9621 -0.1111  0.5182
   48MPD2    C3  735   1.429   2.819   9.670  0.1046 -0.2279  0.1676
   48MPD2    C4  736   1.479   2.945   9.716 -0.3063  0.2788  0.4749
   48MPD2    C5  737   1.438   3.060   9.646  0.1130 -0.3737  0.4326
   48MPD2     H  738   1.301   2.718   9.513  0.1554 -0.4248  0.0770
   48MPD2    H1  739   1.538   2.957   9.807 -0.4930  0.6416  0.5465
   48MPD2    H2  740   1.308   3.137   9.501 -1.0013 -0.1160  1.1597
   48MPD2    H3  741   1.465   3.160   9.677  1.5131 -1.2141  1.9043
   48MPD2     N  742   1.458   2.701   9.741 -0.4464  0.0583 -0.2532
   48MPD2    H5  743   1.394   2.625   9.721 -0.1367 -0.7736  1.8617
   48MPD2    N1  744   1.213   2.912   9.394  0.5332 -0.4278 -0.6727
   48MPD2    H7  745   1.169   2.821   9.391  0.9141 -0.6338  0.0039
   49MPD2     C  746   3.537   0.449   9.713  0.2198  0.6747 -0.2463
   49MPD2    C1  747   3.472   0.393   9.826 -0.2900 -0.4767 -0.1234
   49MPD2    C2  748   3.518   0.427   9.952  0.5102 -0.5583 -0.1224
   49MPD2    C3  749   3.631   0.511   9.966 -0.1506 -0.4359 -0.0359
   49MPD2    C4  750   3.694   0.562   9.856 -0.2458  0.2236  0.8845
   49MPD2    C5  751   3.644   0.541   9.730  0.1629 -0.8687 -0.0410
   49MPD2     H  752   3.476   0.392  10.045  1.3631 -0.2338  0.3865
   49MPD2    H1  753   3.776   0.633   9.863 -0.2331  0.2669  0.2866
   49MPD2    H2  754   3.499   0.442   9.612  0.6176  3.8278 -0.6320
   49MPD2    H3  755   3.695   0.582   9.643 -1.4439  0.7915 -0.2123
   49MPD2     N  756   3.690   0.552  10.086 -0.5429 -0.4623 -0.0551
   49MPD2    H5  757   3.763   0.622  10.075 -2.3645  1.3377 -0.7638
   49MPD2    N1  758   3.375   0.294   9.812 -0.1070 -0.6158 -0.5065
   49MPD2    H7  759   3.337   0.257   9.899  0.8796  1.1241  0.6615
   50TCq2    C1  760   3.327   0.245   9.692 -0.4575  0.1821  0.4109
   50TCq2    O2  761   3.309   0.296   9.582 -0.2782 -0.2741  0.1272
   50TCq2    C2  762   3.231   0.139   9.714  0.6987 -0.6933  0.3924
   50TCq2    C3  763   3.131   0.120   9.615  0.7969  0.0444  0.4586
   50TCq2    C4  764   3.066   4.718   9.607 -0.0331 -0.2689 -0.0181
   50TCq2    C5  765   3.085   4.619   9.701  0.6544 -0.2677 -0.1685
   50TCq2    C6  766   3.183   4.648   9.801 -0.0403  0.6376  0.5534
   50TCq2    C7  767   3.254   0.043   9.806  0.3407 -0.3975  0.0938
   50TCq2    C8  768   3.192   4.560   9.922  0.2554  0.0205  0.7979
   50TCq2    O4  769   3.218   4.628  10.019  0.4512 -0.2315  0.1487
   50TCq2    C9  770   2.953   4.703   9.514 -0.0169  0.5070  0.1470
   50TCq2    O5  771   2.939   0.084   9.446 -0.2632 -0.6830  0.0066
   50TCq2    O6  772   2.883   4.601   9.515 -0.0918 -0.1211 -0.0190
   50TCq2    H2  773   3.115   0.208   9.554  0.1399 -0.0651  0.4715
   50TCq2    H3  774   3.024   4.530   9.713  1.8280 -0.9450  0.8253
   50TCq2    H4  775   3.340   0.041   9.872  2.2115  0.4284 -2.2897
   51MPD2     C  776   3.263   0.204   0.771 -0.0144  0.0926 -0.3511
   51MPD2    C1  777   3.399   0.216   0.777  0.1305  0.3107  0.0411
   51MPD2    C2  778   3.453   0.327   0.844 -0.0626  0.0790  0.6941
   51MPD2    C3  779   3.380   0.424   0.901  0.0394 -0.1575 -0.1485
   51MPD2    C4  780   3.242   0.411   0.892 -0.0662  0.2309  0.3856
   51MPD2    C5  781   3.179   0.303   0.827 -0.1270 -0.2438 -0.4351
   51MPD2     H  782   3.559   0.333   0.866  0.6151 -4.1170 -1.4433
   51MPD2    H1  783   3.179   0.494   0.922  2.0211  1.0279  2.5815
   51MPD2    H2  784   3.212   0.119   0.728  0.5544  0.5989 -2.0308
   51MPD2    H3  785   3.072   0.285   0.820 -0.4390  0.6812  2.0834
   51MPD2     N  786   3.428   0.533   0.979  0.1253  0.0215  0.3051
   51MPD2    H5  787   3.362   0.590   1.031 -2.1070 -1.0887 -1.3389
   51MPD2    N1  788   3.471   0.108   0.722 -0.5270  0.3413 -0.3892
   51MPD2    H7  789   3.422   0.020   0.713 -3.1672  1.9960 -2.1740
   52TCq2    C1  790   3.559   0.570   1.005  0.3287  0.7996  0.3277
   52TCq2    O2  791   3.661   0.512   0.977 -0.8144 -0.0070  0.0880
   52TCq2    C2  792   3.571   0.677   1.102  0.4835 -1.3730  0.6946
   52TCq2    C3  793   3.462   0.757   1.112 -0.4709 -0.3050  0.6402
   52TCq2    C4  794   3.466   0.846   1.211 -0.1739 -0.0796  0.1835
   52TCq2    C5  795   3.565   0.858   1.305  0.2745 -0.1227 -0.0331
   52TCq2    C6  796   3.662   0.761   1.299  0.2534  0.3929  0.0900
   52TCq2    C7  797   3.678   0.671   1.194  0.1341 -0.2412 -0.2503
   52TCq2    C8  798   3.756   0.763   1.412 -0.0656  0.0992  0.0287
   52TCq2    O4  799   3.746   0.848   1.495  0.5521 -0.4070  0.0803
   52TCq2    C9  800   3.358   0.944   1.213  0.6886 -0.0719  0.3583
   52TCq2    O5  801   3.266   0.926   1.126 -0.2005  0.1293 -0.0377
   52TCq2    O6  802   3.372   1.047   1.287  0.1813  0.2652 -0.3483
   52TCq2    H2  803   3.385   0.773   1.037  0.8476 -0.4958 -0.7647
   52TCq2    H3  804   3.566   0.935   1.381  1.1803  0.1800 -0.3498
   52TCq2    H4  805   3.752   0.593   1.185  0.9880  0.3911  1.2915
   53TMC2    C1  806   0.333   2.790  12.044  0.5925  0.2007 -0.3791
   53TMC2    C2  807   0.428   2.775  12.143 -0.8880  0.1347 -0.5232
   53TMC2    C3  808   0.384   2.820  12.270  0.7054  0.2114  0.6003
   53TMC2    C4  809   0.212   2.856  12.061  0.1887  0.3492  0.6202
   53TMC2    C5  810   0.172   2.884  12.191  0.1271 -0.2804 -0.0902
   53TMC2    C6  811   0.261   2.876  12.291  0.2348 -0.3121 -0.5215
   53TMC2     C  812   0.343   2.702  11.935 -0.0835  0.3148  0.0756
   53TMC2     O  813   0.424   2.612  11.942  0.3229  0.3397 -0.2492
   53TMC2     H  814   0.527   2.735  12.125 -0.7589  0.7654 -1.2018
   53TMC2    H1  815   0.143   2.884  11.983 -0.3439  0.0262  0.9716
   53TMC2    H2  816   0.234   2.917  12.388  0.6527  0.1211 -0.5898
   53TMC2    C7  817   0.033   2.913  12.210  0.0213 -0.3391  0.0723
   53TMC2    C8  818   0.469   2.795  12.384  0.0950 -0.2657  0.1398
   53TMC2    O1  819   4.686   2.934  12.112  0.1453 -0.1824  0.6925
   53TMC2    O2  820   0.468   2.862  12.483 -0.1957 -0.0125  0.2888
   53TMC2    O5  821   0.477   2.660  12.392  0.8430  0.3001  0.0049
   53TMC2    H5  822   0.433   2.620  12.314  1.8375  0.0403 -0.4156
   54MPD2     C  823   0.305   2.552  11.683 -0.3058 -0.0187  0.1087
   54MPD2    C1  824   0.222   2.648  11.725 -0.2953  0.1441  0.5401
   54MPD2    C2  825   0.113   2.683  11.644  0.9159  0.6945 -0.8621
   54MPD2    C3  826   0.084   2.615  11.528 -0.5625  0.6373 -0.5479
   54MPD2    C4  827   0.164   2.507  11.498 -0.6548  1.2220 -0.9639
   54MPD2    C5  828   0.277   2.482  11.567 -0.0305 -0.1219  0.8639
   54MPD2     H  829   0.060   2.770  11.679  1.3095  1.1816 -1.4952
   54MPD2    H1  830   0.150   2.440  11.414  2.2496  0.1203 -0.5712
   54MPD2    H2  831   0.389   2.518  11.743 -0.5804 -3.0849 -1.2498
   54MPD2    H3  832   0.339   2.396  11.546  1.1921  1.2701 -1.1433
   54MPD2     N  833   4.699   2.648  11.439  0.0990  0.8186  0.7641
   54MPD2    H5  834   4.696   2.588  11.357  3.4358 -0.8181  1.8499
   54MPD2    N1  835   0.253   2.731  11.832 -0.4116 -0.2314  0.6297
   54MPD2    H7  836   0.195   2.814  11.842 -2.6594 -1.5286 -1.8956
   55MPD2     C  837   1.127   0.504   0.056  0.1160 -0.1249 -0.1766
   55MPD2    C1  838   1.062   0.450   0.161 -0.2323  0.2695  0.0962
   55MPD2    C2  839   0.999   0.528   0.250  0.6444 -0.8831 -0.5080
   55MPD2    C3  840   0.990   0.664   0.236 -0.2346 -0.4124 -0.3298
   55MPD2    C4  841   1.052   0.714   0.125 -0.7124 -0.5213  0.1387
   55MPD2    C5  842   1.121   0.640   0.034 -0.0153  0.1837  1.2151
   55MPD2     H  843   0.949   0.486   0.336 -2.3662 -0.7775 -2.1796
   55MPD2    H1  844   1.039   0.820   0.102  1.2828 -0.2188  0.3850
   55MPD2    H2  845   1.170   0.438  17.673 -1.3768 -2.8521  1.3752
   55MPD2    H3  846   1.164   0.679  17.633 -1.0898 -1.7087 -0.0849
   55MPD2     N  847   0.916   0.745   0.329  0.3426 -0.0212  0.9529
   55MPD2    H5  848   0.867   0.693   0.401 -0.2781  0.5210  0.9210
   55MPD2    N1  849   1.069   0.308   0.171 -0.3272 -0.7436  0.0755
   55MPD2    H7  850   1.119   0.250   0.105 -1.1713 -0.9789 -0.3473
   56TCq2    C1  851   1.001   0.241   0.276 -0.1387  1.5318  0.0296
   56TCq2    O2  852   0.920   0.273   0.360 -0.4743  0.0272  0.2893
   56TCq2    C2  853   1.031   0.099   0.260  0.7881 -0.0684  0.7633
   56TCq2    C3  854   1.141   0.054   0.198  0.3177  0.5288  0.8408
   56TCq2    C4  855   1.169   4.640   0.203 -0.3836  0.3422 -1.1948
   56TCq2    C5  856   1.085   4.553   0.275 -0.6827 -0.2185 -0.1943
   56TCq2    C6  857   0.984   4.607   0.344 -0.1016  0.1369  0.2594
   56TCq2    C7  858   0.956   0.012   0.341  0.2482 -0.1957  0.6348
   56TCq2    C8  859   0.885   4.508   0.391  0.0296  0.3510  0.4765
   56TCq2    O4  860   0.888   4.407   0.323 -0.0361 -0.1316  0.5824
   56TCq2    C9  861   1.291   4.578   0.151 -0.2135  0.2219 -0.2047
   56TCq2    O5  862   1.380   4.649   0.097 -0.0894 -1.1241  0.3449
   56TCq2    O6  863   1.317   4.461   0.195 -0.1946 -0.1196  0.5984
   56TCq2    H2  864   1.207   0.118   0.140  1.6661 -1.4876  0.1718
   56TCq2    H3  865   1.109   4.447   0.278  0.6551  0.0560 -1.4499
   56TCq2    H4  866   0.867   0.054   0.386  1.2912  1.5269  1.1011
   57TMC2    C1  867   4.554   1.794  12.973 -0.0476  0.2154 -0.6739
   57TMC2    C2  868   4.499   1.695  12.897  0.2214 -0.2629 -0.2710
   57TMC2    C3  869   4.579   1.592  12.847  0.3451 -0.6687 -0.3687
   57TMC2    C4  870   4.683   1.795  13.017  0.1537 -0.0485  0.2827
   57TMC2    C5  871   0.035   1.685  12.977 -0.3157 -0.4050 -0.4369
   57TMC2    C6  872   4.707   1.581  12.901  0.1355  0.6234 -0.9249
   57TMC2     C  873   4.464   1.845  13.074  0.7955 -0.7948 -0.6307
   57TMC2     O  874   4.483   1.956  13.118  0.0433 -0.1754 -0.1274
   57TMC2     H  875   4.401   1.705  12.851 -0.2461  0.3379  0.8599
   57TMC2    H1  876   4.717   1.872  13.086 -1.0186  0.8460 -0.1302
   57TMC2    H2  877   0.057   1.505  12.872  0.3124  0.9159 -1.2516
   57TMC2    C7  878   0.177   1.684  13.010 -0.4324 -0.1509 -0.6192
   57TMC2    C8  879   4.511   1.467  12.848  0.7854 -0.0359 -0.3999
   57TMC2    O1  880   0.224   1.793  13.050 -0.2850  0.3287 -0.3664
   57TMC2    O2  881   4.410   1.460  12.917 -0.8904 -0.0496 -0.1109
   57TMC2    O5  882   4.589   1.363  12.809 -0.1811  0.1105  0.5560
   57TMC2    H5  883   4.645   1.397  12.736 -2.2571 -3.2048 -2.5789
   58MPD2     C  884   4.128   1.715  13.458  0.3828 -0.6612 -0.1259
   58MPD2    C1  885   4.179   1.838  13.415  0.4818  0.6815  0.3045
   58MPD2    C2  886   4.264   1.849  13.305  0.5307  0.0771  0.5013
   58MPD2    C3  887   4.296   1.736  13.230 -0.1492 -0.4696  0.0481
   58MPD2    C4  888   4.243   1.616  13.272  0.6006 -0.1048 -0.0388
   58MPD2    C5  889   4.161   1.606  13.384  0.0027  0.1166 -0.7813
   58MPD2     H  890   4.296   1.947  13.272  2.3329 -1.3252 -1.9335
   58MPD2    H1  891   4.261   1.518  13.229 -1.6593  0.3864 -2.1446
   58MPD2    H2  892   4.055   1.696  13.536  0.8664 -1.2434  0.1775
   58MPD2    H3  893   4.120   1.510  13.412  0.7808 -0.1615 -0.5810
   58MPD2     N  894   4.386   1.740  13.116 -0.9126 -0.1158  0.4103
   58MPD2    H5  895   4.404   1.659  13.059 -2.2801 -1.0231  1.2611
   58MPD2    N1  896   4.147   1.963  13.477 -0.0148 -0.9037 -0.3643
   58MPD2    H7  897   4.180   2.049  13.435 -0.8838  0.0174  0.8383
   59MPD2     C  898   2.549   1.541  13.005  0.1485 -0.5072 -1.1900
   59MPD2    C1  899   2.492   1.604  13.115 -1.0375  0.2718  0.2832
   59MPD2    C2  900   2.576   1.679  13.193  0.5367 -0.3314  0.9162
   59MPD2    C3  901   2.713   1.698  13.166  0.0006  0.4486 -0.0668
   59MPD2    C4  902   2.765   1.630  13.055 -0.5949 -0.0829  0.6398
   59MPD2    C5  903   2.679   1.548  12.973  0.7666  0.3562 -1.0749
   59MPD2     H  904   2.533   1.734  13.276 -1.2647 -0.4934  0.0889
   59MPD2    H1  905   2.867   1.645  13.022 -0.2791 -1.7206  0.8738
   59MPD2    H2  906   2.486   1.484  12.938 -0.5132  1.5369 -2.3072
   59MPD2    H3  907   2.720   1.490  12.891 -0.1087 -1.0004 -0.5460
   59MPD2     N  908   2.797   1.786  13.237 -0.0565  0.6547  0.0020
   59MPD2    H5  909   2.884   1.817  13.195 -0.1977  0.9913 -0.0477
   59MPD2    N1  910   2.355   1.602  13.142 -0.4666  0.5090 -0.1130
   59MPD2    H7  911   2.323   1.645  13.228 -3.5035  0.8358 -1.4060
   60TCq2    C1  912   2.264   1.543  13.058 -0.1340  0.2486  0.4991
   60TCq2    O2  913   2.262   1.516  12.938 -0.1439  0.2240 -0.3454
   60TCq2    C2  914   2.137   1.526  13.116 -0.5766  0.1228  0.8572
   60TCq2    C3  915   2.129   1.543  13.251 -0.2819 -0.2976  0.1149
   60TCq2    C4  916   2.007   1.575  13.304  0.0994  0.3305  0.2691
   60TCq2    C5  917   1.895   1.556  13.231 -0.1346  0.1253 -0.6459
   60TCq2    C6  918   1.901   1.543  13.093 -0.0118 -0.0808  0.2750
   60TCq2    C7  919   2.027   1.543  13.036 -0.6046 -0.4435  0.4666
   60TCq2    C8  920   1.790   1.597  13.023 -0.6253 -0.4272  0.0783
   60TCq2    O4  921   1.678   1.574  13.070  0.1029  0.4725  0.1856
   60TCq2    C9  922   1.997   1.602  13.451 -0.9739  0.4960  0.4889
   60TCq2    O5  923   2.108   1.621  13.511 -0.4879  0.1596  0.1334
   60TCq2    O6  924   1.890   1.631  13.496 -0.4201  0.1918 -0.0967
   60TCq2    H2  925   2.211   1.536  13.322  0.7001  0.5233 -0.9561
   60TCq2    H3  926   1.802   1.573  13.284  0.6106  2.0252  0.0482
   60TCq2    H4  927   2.036   1.536  12.928  2.7819 -0.4708  0.7804
   61MPD2     C  928   1.817   3.006  15.454  0.4483 -0.8496 -0.2816
   61MPD2    C1  929   1.926   3.086  15.455  0.2187  0.2113  0.4546
   61MPD2    C2  930   1.992   3.106  15.334 -0.3294  0.1203  0.9881
   61MPD2    C3  931   1.952   3.050  15.220 -0.0108  0.8581 -0.2807
   61MPD2    C4  932   1.840   2.971  15.212 -0.2617  0.4406 -0.0796
   61MPD2    C5  933   1.773   2.948  15.332  0.0694  0.0302 -1.0232
   61MPD2     H  934   2.073   3.178  15.335 -0.0954 -0.1092 -1.4599
   61MPD2    H1  935   1.806   2.933  15.117  1.9355  0.5858 -0.9227
   61MPD2    H2  936   1.753   3.005  15.541  0.4847 -1.8185 -0.2686
   61MPD2    H3  937   1.682   2.890  15.328 -1.2383  2.0385 -0.3304
   61MPD2     N  938   2.032   3.061  15.104  0.1706 -0.2182 -0.2288
   61MPD2    H5  939   1.994   3.021  15.018 -0.4255  0.4785 -0.2970
   61MPD2    N1  940   1.959   3.173  15.560  0.3214 -0.3079 -0.1304
   61MPD2    H7  941   2.015   3.256  15.542  1.7639 -1.3155 -0.2519
   62TCq2    C1  942   1.931   3.154  15.691 -0.0843 -0.5378  0.3031
   62TCq2    O2  943   1.901   3.048  15.743  1.0313 -0.3015  0.3012
   62TCq2    C2  944   1.951   3.273  15.777 -0.3468 -0.7573 -0.1257
   62TCq2    C3  945   1.996   3.259  15.905 -0.2352 -0.4938  0.3681
   62TCq2    C4  946   2.011   3.376  15.974  0.0281  0.3749 -0.2531
   62TCq2    C5  947   1.966   3.496  15.931  0.9219 -0.2684  0.3124
   62TCq2    C6  948   1.927   3.506  15.806 -0.7756  0.6171 -0.2005
   62TCq2    C7  949   1.917   3.394  15.722 -0.2292  0.0516  0.3026
   62TCq2    C8  950   1.918   3.641  15.755 -0.0752 -0.2905 -0.4753
   62TCq2    O4  951   1.992   3.730  15.805  0.0680  0.9752 -0.1713
   62TCq2    C9  952   2.047   3.360  16.112 -0.3206 -0.0737  0.7512
   62TCq2    O5  953   2.090   3.248  16.148  0.5654  0.9786 -0.2103
   62TCq2    O6  954   2.033   3.456  16.189 -0.3567 -0.4931  0.0801
   62TCq2    H2  955   2.018   3.161  15.945  0.5165 -0.7121 -0.5916
   62TCq2    H3  956   1.963   3.577  16.002  0.3176 -0.1657  0.1669
   62TCq2    H4  957   1.874   3.396  15.623  0.0259  0.1941  0.1924
   63TMC2    C1  958   0.764   2.749  11.329 -0.0042  0.2851 -0.1590
   63TMC2    C2  959   0.724   2.869  11.373  0.6131  1.0345  0.5967
   63TMC2    C3  960   0.797   2.977  11.332 -0.3697 -0.2126 -0.0494
   63TMC2    C4  961   0.873   2.738  11.248  0.1978  0.3368  0.6394
   63TMC2    C5  962   0.951   2.851  11.219 -0.4732  0.8420  0.0665
   63TMC2    C6  963   0.912   2.976  11.265 -0.6816 -0.3324  0.0764
   63TMC2     C  964   0.695   2.631  11.382  1.0269  0.1567 -0.0400
   63TMC2     O  965   0.604   2.652  11.457 -0.4978  0.5635 -0.4477
   63TMC2     H  966   0.637   2.889  11.435  0.8655  2.2563  0.5618
   63TMC2    H1  967   0.914   2.641  11.221 -3.2079 -0.8532 -0.2472
   63TMC2    H2  968   0.963   3.066  11.233 -1.2184 -0.3008 -0.7080
   63TMC2    C7  969   1.003   2.842  11.086  0.6372 -0.4350  0.0812
   63TMC2    C8  970   0.717   3.099  11.357  0.2196 -0.2976  0.0745
   63TMC2    O1  971   0.968   2.747  11.015  0.6557 -0.1055  0.4451
   63TMC2    O2  972   0.596   3.100  11.340 -0.1574 -0.1652 -0.0454
   63TMC2    O5  973   0.771   3.128  11.477 -0.1836 -0.2121  0.1396
   63TMC2    H5  974   0.868   3.119  11.479 -0.1873 -0.6674 -1.5150
   64MPD2     C  975   0.616   2.122  11.410 -0.3394  0.0966  0.2730
   64MPD2    C1  976   0.682   2.154  11.293  0.1570  0.1906  0.1640
   64MPD2    C2  977   0.716   2.281  11.264  0.2199  0.2331 -0.3195
   64MPD2    C3  978   0.677   2.388  11.348 -0.4621 -0.2358  0.5518
   64MPD2    C4  979   0.608   2.362  11.464 -0.1662  0.9169 -0.9390
   64MPD2    C5  980   0.582   2.232  11.493  0.3612 -0.4331 -0.4959
   64MPD2     H  981   0.775   2.297  11.175  1.3054  1.0744  0.5353
   64MPD2    H1  982   0.582   2.432  11.542 -1.6800  0.0779 -0.6929
   64MPD2    H2  983   0.591   2.021  11.443 -0.2517 -0.5551 -1.6592
   64MPD2    H3  984   0.526   2.217  11.585  0.3186 -0.0822 -0.4653
   64MPD2     N  985   0.726   2.515  11.313  0.6034  0.0580 -0.4314
   64MPD2    H5  986   0.795   2.524  11.239  0.2297  1.4687 -0.6202
   64MPD2    N1  987   0.721   2.063  11.192 -0.3674  0.6389  0.5845
   64MPD2    H7  988   0.765   2.101  11.109 -0.6942 -2.6365 -1.1079
   65MPD2     C  989   2.352   3.033  15.757  0.1900  0.7799 -0.1341
   65MPD2    C1  990   2.378   3.031  15.619 -0.7125 -0.2110  0.6654
   65MPD2    C2  991   2.296   2.949  15.544 -0.6452  0.3896  0.3273
   65MPD2    C3  992   2.184   2.875  15.598  0.1544 -0.9219  0.1833
   65MPD2    C4  993   2.164   2.890  15.732  0.8009 -0.8625  0.1249
   65MPD2    C5  994   2.244   2.972  15.806  0.0189 -0.0054 -0.5385
   65MPD2     H  995   2.309   2.945  15.436  0.6025 -3.3559  0.6174
   65MPD2    H1  996   2.089   2.831  15.783 -1.1128  0.1412 -1.5473
   65MPD2    H2  997   2.415   3.092  15.824  1.5714 -0.2194 -0.5394
   65MPD2    H3  998   2.233   2.982  15.914  1.2635 -1.9887 -0.2392
   65MPD2     N  999   2.112   2.768  15.540  0.2545  0.1176 -0.7756
   65MPD2    H5 1000   2.028   2.730  15.583  0.1012  0.9067 -0.3837
   65MPD2    N1 1001   2.475   3.112  15.561  0.1259  0.2812  0.5652
   65MPD2    H7 1002   2.498   3.096  15.463 -0.2964 -1.7520  0.8092
   66TCq2    C1 1003   2.538   3.218  15.622  0.8594  0.2933  0.0245
   66TCq2    O2 1004   2.503   3.267  15.726  0.3270  0.1395  0.1870
   66TCq2    C2 1005   2.617   3.291  15.529 -0.3914 -0.5339 -0.8960
   66TCq2    C3 1006   2.624   3.257  15.399  0.1422  0.5586 -0.2145
   66TCq2    C4 1007   2.679   3.340  15.310  0.1911  0.8586  0.7043
   66TCq2    C5 1008   2.716   3.463  15.348  0.0137 -0.2307  0.4787
   66TCq2    C6 1009   2.708   3.495  15.482 -0.5569 -0.0150  0.0372
   66TCq2    C7 1010   2.658   3.415  15.576  0.2415 -0.6970  0.0832
   66TCq2    C8 1011   2.651   3.629  15.499  0.3549  0.8756 -0.3755
   66TCq2    O4 1012   2.707   3.725  15.444 -0.3045  0.6553 -0.6433
   66TCq2    C9 1013   2.679   3.294  15.171  1.0497 -0.5458  0.3496
   66TCq2    O5 1014   2.635   3.176  15.149  0.3443  0.1761 -0.3870
   66TCq2    O6 1015   2.711   3.374  15.078  0.0977  0.3145  0.4797
   66TCq2    H2 1016   2.603   3.158  15.360 -0.8979 -0.9233  4.1400
   66TCq2    H3 1017   2.743   3.531  15.268 -1.2173 -0.6478 -0.3018
   66TCq2    H4 1018   2.678   3.426  15.681  2.2406  0.5585 -0.4388
   67MPD2     C 1019   2.170   2.171  13.962 -0.2926 -0.0353 -0.2049
   67MPD2    C1 1020   2.190   2.288  14.034  0.3161  0.5274  1.0465
   67MPD2    C2 1021   2.088   2.381  14.025 -0.6646 -0.4727  0.1393
   67MPD2    C3 1022   1.983   2.372  13.939 -0.3072  0.4016 -0.3317
   67MPD2    C4 1023   1.983   2.275  13.848 -0.1645 -0.2476 -1.0807
   67MPD2    C5 1024   2.073   2.169  13.860 -0.2334  0.1968  0.5083
   67MPD2     H 1025   2.106   2.467  14.088 -0.9136  0.4915 -1.0949
   67MPD2    H1 1026   1.906   2.267  13.772  1.1942 -1.8125 -2.2897
   67MPD2    H2 1027   2.218   2.075  13.979 -0.0838  0.1964  0.4961
   67MPD2    H3 1028   2.046   2.075  13.812 -1.6283  1.3443 -0.9315
   67MPD2     N 1029   1.890   2.480  13.927 -0.5020 -0.0648  0.8995
   67MPD2    H5 1030   1.828   2.476  13.846  0.2208  3.4220  0.1626
   67MPD2    N1 1031   2.302   2.308  14.117  0.2359 -0.2467 -0.4987
   67MPD2    H7 1032   2.303   2.384  14.184 -0.1463 -0.5444 -0.1539
   68TCq2    C1 1033   2.412   2.225  14.127 -0.4630 -0.8331  0.4002
   68TCq2    O2 1034   2.426   2.105  14.101 -0.0980  0.3468  0.4311
   68TCq2    C2 1035   2.504   2.283  14.222 -0.0934 -1.1203  0.3186
   68TCq2    C3 1036   2.498   2.422  14.236  0.0340 -0.6579  0.1232
   68TCq2    C4 1037   2.583   2.487  14.326  0.3174 -0.4795  0.3266
   68TCq2    C5 1038   2.651   2.416  14.416  0.6787 -0.1935 -0.0757
   68TCq2    C6 1039   2.642   2.277  14.404  0.2675  0.2502 -0.1223
   68TCq2    C7 1040   2.570   2.207  14.309  0.4981  0.2329 -0.3250
   68TCq2    C8 1041   2.682   2.194  14.515  0.0622 -0.7888  0.8851
   68TCq2    O4 1042   2.690   2.072  14.509  0.1194  0.2487  0.4483
   68TCq2    C9 1043   2.574   2.625  14.340 -0.4451 -0.0065  0.6019
   68TCq2    O5 1044   2.574   2.694  14.233  0.1078 -0.0967 -0.1863
   68TCq2    O6 1045   2.610   2.677  14.448 -0.3789  0.4292  0.1125
   68TCq2    H2 1046   2.447   2.491  14.169  1.9854  1.0932  0.4588
   68TCq2    H3 1047   2.722   2.458  14.486 -0.7943  1.7515  0.2501
   68TCq2    H4 1048   2.547   2.101  14.310  1.2186  0.0820  0.5799
   69TMC2    C1 1049   4.160   3.451  11.760 -0.1274 -0.8597  0.1406
   69TMC2    C2 1050   4.059   3.434  11.668 -0.0315 -0.2196 -1.2002
   69TMC2    C3 1051   4.078   3.463  11.533  0.5118  1.0566  0.6013
   69TMC2    C4 1052   4.286   3.485  11.720  0.4822  0.0082 -1.0756
   69TMC2    C5 1053   4.308   3.511  11.588 -0.1791  0.1112  0.5480
   69TMC2    C6 1054   4.203   3.504  11.493 -0.2955 -0.8066 -0.0334
   69TMC2     C 1055   4.131   3.413  11.892  0.3631 -0.4851  0.3893
   69TMC2     O 1056   4.015   3.421  11.936  0.3985  0.0994  0.0544
   69TMC2     H 1057   3.959   3.410  11.700  0.7645 -1.4326  0.3992
   69TMC2    H1 1058   4.366   3.500  11.792 -0.6070  0.8345 -0.0468
   69TMC2    H2 1059   4.220   3.540  11.392 -3.3708 -0.3336 -0.3935
   69TMC2    C7 1060   4.446   3.511  11.544 -0.4301 -0.1500  0.3082
   69TMC2    C8 1061   3.969   3.493  11.450  1.5137  0.7867 -0.5058
   69TMC2    O1 1062   4.526   3.482  11.633 -0.2170  0.2415  0.2382
   69TMC2    O2 1063   4.002   3.515  11.337  0.0321  0.1546  0.2487
   69TMC2    O5 1064   3.898   3.580  11.517  0.1684  0.6500 -0.2929
   69TMC2    H5 1065   3.854   3.547  11.598  0.6661 -0.9122 -0.6613
   70MPD2     C 1066   4.410   3.252  12.074 -0.1839  0.3674  0.4533
   70MPD2    C1 1067   4.279   3.296  12.060 -0.5414 -0.0439 -0.5786
   70MPD2    C2 1068   4.181   3.281  12.155 -0.5300 -0.2160 -0.8411
   70MPD2    C3 1069   4.223   3.236  12.282  0.1230 -0.5225 -0.1436
   70MPD2    C4 1070   4.356   3.212  12.300  0.3788  0.3271  0.9009
   70MPD2    C5 1071   4.452   3.215  12.192 -0.0536  0.3806 -0.1771
   70MPD2     H 1072   4.076   3.308  12.145 -0.8071 -0.7216  0.7391
   70MPD2    H1 1073   4.392   3.178  12.396  0.0156  0.5631  1.1209
   70MPD2    H2 1074   4.478   3.259  11.990 -3.6603  0.5420 -2.3418
   70MPD2    H3 1075   4.554   3.181  12.211 -1.0383 -3.2689 -1.4855
   70MPD2     N 1076   4.146   3.216  12.393 -0.2152  0.3273  0.2460
   70MPD2    H5 1077   4.194   3.178  12.474  2.2930  1.0453 -0.9091
   70MPD2    N1 1078   4.244   3.347  11.930  0.7162 -0.5592 -0.2143
   70MPD2    H7 1079   4.315   3.341  11.858 -0.5414 -2.3206 -1.2923
   71TMC2    C1 1080   2.379   3.998   2.086  0.3053  0.6019  0.1409
   71TMC2    C2 1081   2.435   3.888   2.156  0.1478 -0.2179 -0.5285
   71TMC2    C3 1082   2.417   3.881   2.290  0.1625 -0.4302 -0.0999
   71TMC2    C4 1083   2.285   4.075   2.144 -0.2760  0.7435 -0.0542
   71TMC2    C5 1084   2.275   4.067   2.279  1.1345 -0.0392 -0.6411
   71TMC2    C6 1085   2.337   3.969   2.353  0.0377  0.2755  1.1378
   71TMC2     C 1086   2.395   4.016   1.942 -0.0051  0.2690 -0.5752
   71TMC2     O 1087   2.384   4.133   1.903  0.5601  0.1578  0.3485
   71TMC2     H 1088   2.490   3.804   2.115  0.1896 -0.8452  0.8194
   71TMC2    H1 1089   2.241   4.158   2.089  1.3956  0.3787 -1.9462
   71TMC2    H2 1090   2.332   3.963   2.461 -0.4863 -1.4522  1.0224
   71TMC2    C7 1091   2.170   4.151   2.344 -0.2210  0.4192 -0.1251
   71TMC2    C8 1092   2.478   3.770   2.362  0.1447 -0.1415 -0.1235
   71TMC2    O1 1093   2.165   4.162   2.464 -0.1394  0.1543 -0.5718
   71TMC2    O2 1094   2.410   3.703   2.439  0.0691 -0.1533  0.7163
   71TMC2    O5 1095   2.599   3.812   2.402 -0.0045  0.7115 -0.3696
   71TMC2    H5 1096   2.649   3.861   2.333  2.2016  0.3084  0.9620
   72MPD2     C 1097   2.519   3.834   1.482  0.6865  0.7272  0.1908
   72MPD2    C1 1098   2.507   3.964   1.528  0.4374  0.3689  0.3024
   72MPD2    C2 1099   2.466   3.985   1.663 -0.9568 -0.1982  0.7659
   72MPD2    C3 1100   2.446   3.870   1.742  0.3340  0.2712 -0.1848
   72MPD2    C4 1101   2.453   3.744   1.691  0.2865 -1.0878 -0.3370
   72MPD2    C5 1102   2.478   3.723   1.553 -0.4628 -0.5232 -0.5547
   72MPD2     H 1103   2.450   4.087   1.697  1.6436  0.7304 -0.8365
   72MPD2    H1 1104   2.440   3.657   1.756  3.4912 -0.7215  0.8005
   72MPD2    H2 1105   2.559   3.814   1.384  2.0683 -0.9450  1.0971
   72MPD2    H3 1106   2.486   3.621   1.516 -0.6843 -0.2224 -1.4379
   72MPD2     N 1107   2.419   3.892   1.882  0.0560  0.0692  0.4377
   72MPD2    H5 1108   2.404   3.809   1.939 -0.1591 -0.0159  0.2575
   72MPD2    N1 1109   2.534   4.075   1.453  0.5914 -0.5181  0.2215
   72MPD2    H7 1110   2.538   4.162   1.505 -1.1972  1.0792 -2.3148
   73TMC2    C1 1111   1.398   0.672  13.958 -0.1353 -0.3051 -0.1050
   73TMC2    C2 1112   1.334   0.695  14.078  0.0054 -0.0337 -0.0554
   73TMC2    C3 1113   1.392   0.669  14.199 -0.2398  0.1024 -0.2321
   73TMC2    C4 1114   1.519   0.608  13.975  0.1845 -0.2225 -0.1276
   73TMC2    C5 1115   1.576   0.576  14.094  1.2114 -0.5600  0.3521
   73TMC2    C6 1116   1.509   0.605  14.209  0.9291 -0.3743  0.0699
   73TMC2     C 1117   1.421   0.789  13.880 -0.4492  0.0109  0.0478
   73TMC2     O 1118   1.536   0.815  13.865  0.6322  0.1140  0.0567
   73TMC2     H 1119   1.254   0.768  14.066 -0.0457 -0.2030 -0.7872
   73TMC2    H1 1120   1.575   0.591  13.883 -2.1355 -0.3331 -1.5331
   73TMC2    H2 1121   1.574   0.594  14.295  1.2528  1.8810  0.0982
   73TMC2    C7 1122   1.719   0.611  14.100  0.3618 -0.2477  0.0968
   73TMC2    C8 1123   1.329   0.698  14.322  0.3421 -0.4211  0.5926
   73TMC2    O1 1124   1.788   0.556  14.184 -0.1528 -0.2411  0.5101
   73TMC2    O2 1125   1.315   0.610  14.407 -0.3283 -0.0825  0.3239
   73TMC2    O5 1126   1.250   0.807  14.310  0.0076 -0.2591 -0.1020
   73TMC2    H5 1127   1.274   0.860  14.230  0.0280 -0.8873 -0.5099
   74MPD2     C 1128   1.301   1.164  13.570  0.0887  0.4174 -0.4927
   74MPD2    C1 1129   1.427   1.122  13.607  0.6452 -0.1640  0.1810
   74MPD2    C2 1130   1.436   1.001  13.678  0.5609 -0.0712  0.6689
   74MPD2    C3 1131   1.319   0.937  13.711 -0.5129  1.0800 -0.4726
   74MPD2    C4 1132   1.193   0.982  13.670  0.1384  1.0330 -0.6199
   74MPD2    C5 1133   1.184   1.098  13.598 -0.1558 -0.1929  0.0266
   74MPD2     H 1134   1.529   0.952  13.702  1.7296  1.6011 -0.4573
   74MPD2    H1 1135   1.108   0.926  13.707  1.7504 -0.8283  0.3186
   74MPD2    H2 1136   1.292   1.266  13.534  0.1092  0.5420 -0.1452
   74MPD2    H3 1137   1.087   1.143  13.580 -0.1432  0.4545  1.5256
   74MPD2     N 1138   1.314   0.829  13.806 -0.6863  0.1165 -0.0905
   74MPD2    H5 1139   1.224   0.804  13.845  0.6161 -1.0427  2.1855
   74MPD2    N1 1140   1.534   1.204  13.582  0.3466 -0.3099 -0.7366
   74MPD2    H7 1141   1.518   1.281  13.518 -0.9872  0.7818  0.9035
   75TCq2    C1 1142   1.875   2.577  14.022  0.5842 -0.1113 -0.1371
   75TCq2    O2 1143   1.911   2.575  14.140 -0.1505  0.0207 -0.0802
   75TCq2    C2 1144   1.790   2.690  13.973  0.2482  0.0063  0.2538
   75TCq2    C3 1145   1.787   2.800  14.061 -1.1072 -0.3052  0.3899
   75TCq2    C4 1146   1.752   2.922  14.010  0.0073 -0.4596 -0.2208
   75TCq2    C5 1147   1.716   2.936  13.882 -0.5716  0.2987  0.7339
   75TCq2    C6 1148   1.717   2.824  13.794  0.0697  0.9648  0.0610
   75TCq2    C7 1149   1.758   2.702  13.838  0.0791  0.1744 -0.2948
   75TCq2    C8 1150   1.703   2.829  13.652  0.4584 -0.3543 -0.3783
   75TCq2    O4 1151   1.716   2.726  13.588  0.0313 -0.8268  0.0733
   75TCq2    C9 1152   1.762   3.034  14.099  0.3887 -0.4635 -0.4343
   75TCq2    O5 1153   1.729   3.146  14.050 -0.5946 -0.0050  0.3184
   75TCq2    O6 1154   1.815   3.010  14.209 -0.5402 -0.4508  0.3574
   75TCq2    H2 1155   1.831   2.785  14.159  1.4548  0.5696 -0.6432
   75TCq2    H3 1156   1.708   3.036  13.841 -1.6686 -0.2423 -0.3658
   75TCq2    H4 1157   1.757   2.612  13.777 -2.3819  0.2910 -0.4600
   76MPD2     C 1158   0.732   2.887  11.834  0.2954 -0.0525 -0.6046
   76MPD2    C1 1159   0.659   2.809  11.757 -0.5056 -0.0417 -0.0559
   76MPD2    C2 1160   0.683   2.673  11.755  0.2820 -0.4805  0.0524
   76MPD2    C3 1161   0.780   2.616  11.834 -0.3040 -0.0780 -0.4337
   76MPD2    C4 1162   0.851   2.699  11.909  0.7036 -0.3457  0.0547
   76MPD2    C5 1163   0.826   2.832  11.905 -0.8838  0.1513  0.2536
   76MPD2     H 1164   0.622   2.617  11.684  0.9028  0.2158 -1.0241
   76MPD2    H1 1165   0.933   2.652  11.961 -0.2824 -1.2398  0.7813
   76MPD2    H2 1166   0.714   2.994  11.831 -0.7032 -0.1454  2.1464
   76MPD2    H3 1167   0.889   2.888  11.973 -0.2663 -1.0069  0.6248
   76MPD2     N 1168   0.823   2.482  11.835 -0.2052 -0.1735  0.1975
   76MPD2    H5 1169   0.918   2.460  11.861 -0.0568 -0.1426 -0.3252
   76MPD2    N1 1170   0.550   2.842  11.675 -0.0149 -0.0292 -0.4066
   76MPD2    H7 1171   0.505   2.768  11.622 -1.7220 -0.5793  1.8201
   77TCq2    C1 1172   0.741   2.386  11.787 -0.7856 -0.3237  0.4338
   77TCq2    O2 1173   0.619   2.381  11.776  0.2143  0.0658 -0.5896
   77TCq2    C2 1174   0.804   2.261  11.776 -0.6195 -0.0749  0.1805
   77TCq2    C3 1175   0.722   2.149  11.771 -0.0856 -0.1395 -1.3744
   77TCq2    C4 1176   0.784   2.028  11.741 -0.7836 -0.6036 -0.0063
   77TCq2    C5 1177   0.917   2.014  11.713 -0.6745 -0.1542 -0.2594
   77TCq2    C6 1178   0.993   2.127  11.711  0.5064 -0.4793  0.0120
   77TCq2    C7 1179   0.939   2.252  11.740 -0.4125  0.5206  0.4866
   77TCq2    C8 1180   1.140   2.113  11.714  0.5866 -0.6278  0.2515
   77TCq2    O4 1181   1.174   1.998  11.679  0.5541  0.0644  0.1204
   77TCq2    C9 1182   0.696   1.915  11.749 -0.8730  0.0254  0.4552
   77TCq2    O5 1183   0.575   1.925  11.792  0.6333 -0.0287  0.7266
   77TCq2    O6 1184   0.739   1.815  11.683  0.5604 -0.2459 -0.3304
   77TCq2    H2 1185   0.613   2.155  11.770  0.0047  1.5271  0.0279
   77TCq2    H3 1186   0.959   1.916  11.691 -2.5124 -1.0749  0.2753
   77TCq2    H4 1187   0.995   2.344  11.745 -1.2267  1.1912 -2.5154
   78MPD1     C 1188   1.277   2.668   0.738  0.0841  0.0096 -0.5652
   78MPD1    C1 1189   1.254   2.761   0.836 -0.3200  0.0173 -0.8650
   78MPD1    C2 1190   1.343   2.868   0.834 -0.1190  0.3342 -0.0904
   78MPD1    C3 1191   1.436   2.894   0.731  0.1893  0.3430 -0.3973
   78MPD1    C4 1192   1.455   2.800   0.633 -0.4391 -0.2189 -1.0460
   78MPD1    C5 1193   1.367   2.693   0.636  1.0757 -0.0496 -0.6308
   78MPD1     H 1194   1.333   2.945   0.910  0.0641 -0.5582  0.8267
   78MPD1    H1 1195   1.523   2.804   0.549 -0.4159  0.7547 -0.9793
   78MPD1    H2 1196   1.214   2.581   0.724 -2.7258  1.8056  0.8277
   78MPD1    H3 1197   1.368   2.619   0.557  0.4863 -1.6117  0.7909
   78MPD1     N 1198   1.531   3.001   0.732 -0.2839  0.1937  0.4831
   78MPD1    H5 1199   1.604   3.004   0.661 -0.5216 -2.6294  0.0969
   78MPD1    N1 1200   1.168   2.730   0.944  0.2403  0.0703 -0.1285
   78MPD1    H6 1201   1.133   2.806   1.001 -2.9001 -2.1447  0.8733
   78MPD1    H7 1202   1.094   2.664   0.922  2.0244 -1.8865 -0.3140
   79TCq2    C1 1203   1.529   3.109   0.812  0.3443  0.0651 -0.6419
   79TCq2    O2 1204   1.454   3.137   0.906 -0.0506  0.2027  0.3135
   79TCq2    C2 1205   1.640   3.197   0.783 -0.6097  0.5169  0.4279
   79TCq2    C3 1206   1.623   3.328   0.824  0.6087 -0.3282  0.3186
   79TCq2    C4 1207   1.731   3.415   0.833  0.5240 -0.2252  0.0943
   79TCq2    C5 1208   1.855   3.372   0.806 -0.4994  0.4288 -0.1351
   79TCq2    C6 1209   1.874   3.240   0.777  0.0076  0.5626  0.3377
   79TCq2    C7 1210   1.770   3.147   0.764  0.2363  0.1300  0.8204
   79TCq2    C8 1211   2.015   3.185   0.783  0.2993  0.0836 -0.3186
   79TCq2    O4 1212   2.097   3.254   0.840 -0.4991  0.1730  0.4972
   79TCq2    C9 1213   1.716   3.555   0.856 -0.6295  0.2253  0.0538
   79TCq2    O5 1214   1.603   3.612   0.841  0.4410  0.7404  0.7630
   79TCq2    O6 1215   1.817   3.615   0.897  0.2164  0.4279  0.3862
   79TCq2    H2 1216   1.527   3.368   0.853  0.2344 -0.9071 -0.1296
   79TCq2    H3 1217   1.935   3.445   0.796  1.0761 -1.3562 -0.4800
   79TCq2    H4 1218   1.786   3.041   0.749 -0.6076 -0.3679  3.5190
   80MPD2     C 1219   4.390   2.433  12.605  0.3292  0.1028 -0.0657
   80MPD2    C1 1220   4.358   2.512  12.494 -0.4146 -0.2586 -0.5102
   80MPD2    C2 1221   4.231   2.527  12.445 -0.3606  0.2133  0.0452
   80MPD2    C3 1222   4.125   2.473  12.514  0.0931 -1.0093 -0.2666
   80MPD2    C4 1223   4.154   2.402  12.633  1.2551 -0.1615  0.0256
   80MPD2    C5 1224   4.284   2.383  12.673 -0.4286  0.4078  0.4741
   80MPD2     H 1225   4.213   2.594  12.362  3.1299  0.8444 -0.1900
   80MPD2    H1 1226   4.082   2.352  12.697 -0.3285  0.5197 -1.2475
   80MPD2    H2 1227   4.493   2.419  12.636  0.5033  2.5571  0.4691
   80MPD2    H3 1228   4.291   2.337  12.771  0.1631  0.5682  0.5040
   80MPD2     N 1229   3.999   2.472  12.455 -0.1817  0.4400 -0.1053
   80MPD2    H5 1230   3.979   2.526  12.371 -2.3544  1.7215  1.2358
   80MPD2    N1 1231   4.458   2.562  12.413 -0.0742 -0.0088 -0.7399
   80MPD2    H7 1232   4.432   2.619  12.334 -1.0684  1.9577  0.9997
   81TCq2    C1 1233   4.594   2.538  12.421  0.4262 -0.3985  0.1046
   81TCq2    O2 1234   4.664   2.490  12.509 -0.0163 -0.2542  0.8173
   81TCq2    C2 1235   4.657   2.561  12.290 -0.9142  0.3470 -0.5351
   81TCq2    C3 1236   0.071   2.543  12.283 -0.0189 -0.1694 -0.0447
   81TCq2    C4 1237   0.130   2.518  12.162 -0.0092  0.0367 -0.0788
   81TCq2    C5 1238   0.059   2.509  12.043 -0.4002  0.9115 -0.3633
   81TCq2    C6 1239   4.650   2.550  12.053 -0.0384 -0.5867  0.1375
   81TCq2    C7 1240   4.586   2.577  12.170 -0.2165 -1.0326  0.2790
   81TCq2    C8 1241   4.559   2.500  11.953 -0.5275  0.2555  0.2760
   81TCq2    O4 1242   4.456   2.565  11.935  0.4339  0.0008 -0.1576
   81TCq2    C9 1243   0.267   2.467  12.163 -0.0571  0.3370  0.1748
   81TCq2    O5 1244   0.292   2.360  12.105 -0.2452  0.5286  0.0923
   81TCq2    O6 1245   0.333   2.514  12.262  0.2871 -0.0962 -0.3259
   81TCq2    H2 1246   0.133   2.539  12.373  1.0953 -1.2872 -0.8636
   81TCq2    H3 1247   0.105   2.469  11.954  0.8584 -0.0804  0.7266
   81TCq2    H4 1248   4.481   2.603  12.163 -0.4405 -1.7407  0.9596
   82MPD2     C 1249   2.241   2.074  10.631 -0.8426 -0.7053  0.5207
   82MPD2    C1 1250   2.189   1.946  10.639  0.1717  0.2939 -0.1921
   82MPD2    C2 1251   2.250   1.847  10.716  0.8964 -0.1111  0.0171
   82MPD2    C3 1252   2.366   1.877  10.779 -0.1089 -0.0296 -0.4670
   82MPD2    C4 1253   2.415   2.004  10.779 -0.6998  0.5742  0.6658
   82MPD2    C5 1254   2.353   2.102  10.702 -0.1111 -0.2925 -0.0842
   82MPD2     H 1255   2.212   1.745  10.704 -2.5691  1.1529  0.0787
   82MPD2    H1 1256   2.514   2.035  10.811  0.7356 -2.1449 -1.1059
   82MPD2    H2 1257   2.192   2.151  10.572 -3.9734 -0.0198  4.0642
   82MPD2    H3 1258   2.401   2.199  10.698  0.7836 -0.7014  0.6879
   82MPD2     N 1259   2.452   1.784  10.847 -0.3066 -0.5097  0.2029
   82MPD2    H5 1260   2.533   1.827  10.891 -0.9431  1.4475 -0.4984
   82MPD2    N1 1261   2.066   1.928  10.581 -0.4396  0.0572 -0.7835
   82MPD2    H7 1262   2.026   2.015  10.546 -2.9138 -0.7671  0.0018
   83TCq2    C1 1263   2.420   1.651  10.873  0.5229  0.3728  0.3355
   83TCq2    O2 1264   2.317   1.586  10.847  0.0614  0.2814 -0.4476
   83TCq2    C2 1265   2.536   1.578  10.910  0.4514 -0.3071  0.8541
   83TCq2    C3 1266   2.657   1.599  10.846 -0.2046  0.3007  0.3926
   83TCq2    C4 1267   2.753   1.494  10.839 -0.8429 -0.6060  0.9869
   83TCq2    C5 1268   2.722   1.368  10.883 -0.3853  0.5568  0.5142
   83TCq2    C6 1269   2.598   1.354  10.933 -0.3207  0.0829  0.1946
   83TCq2    C7 1270   2.505   1.453  10.949  0.4090 -0.8479  0.1500
   83TCq2    C8 1271   2.571   1.236  11.008 -0.6544  0.4828 -0.1021
   83TCq2    O4 1272   2.492   1.244  11.105 -0.3448  0.3459 -0.7752
   83TCq2    C9 1273   2.880   1.512  10.772 -0.0816 -0.4819  0.6240
   83TCq2    O5 1274   2.967   1.419  10.795  0.1916 -0.4907  0.0552
   83TCq2    O6 1275   2.912   1.627  10.727 -0.6066 -0.1329 -0.2168
   83TCq2    H2 1276   2.678   1.699  10.810 -1.4167  0.3772 -0.1139
   83TCq2    H3 1277   2.788   1.284  10.866  0.0691  1.4512 -2.2409
   83TCq2    H4 1278   2.410   1.423  10.991  0.8642 -1.0356  1.0577
   84TCq2    C1 1279   3.648   0.523  10.214  0.1078  0.1682  0.2269
   84TCq2    O2 1280   3.540   0.472  10.246  0.0432 -0.0957 -0.0889
   84TCq2    C2 1281   3.728   0.581  10.319 -0.3568 -0.5309 -0.4195
   84TCq2    C3 1282   3.863   0.606  10.289  0.0814  0.1959  0.6196
   84TCq2    C4 1283   3.952   0.652  10.383 -0.2169 -0.3490 -0.1323
   84TCq2    C5 1284   3.889   0.706  10.489  0.2412 -0.5427 -0.0942
   84TCq2    C6 1285   3.755   0.684  10.521  0.3360  0.7793  0.1730
   84TCq2    C7 1286   3.677   0.610  10.438 -0.6601  0.1215  0.1490
   84TCq2    C8 1287   3.706   0.734  10.650  0.0856 -0.4957 -0.3359
   84TCq2    O4 1288   3.788   0.771  10.733 -0.1604  0.1801  0.1736
   84TCq2    C9 1289   4.085   0.686  10.354 -0.0132 -0.4992  0.2695
   84TCq2    O5 1290   4.141   0.770  10.426  0.5770 -0.4340  0.4411
   84TCq2    O6 1291   4.123   0.662  10.241 -0.1998 -0.0340 -0.1554
   84TCq2    H2 1292   3.903   0.577  10.193 -0.5321  2.3603 -0.2974
   84TCq2    H3 1293   3.953   0.756  10.562 -0.0041 -0.5350  0.1173
   84TCq2    H4 1294   3.578   0.581  10.472 -0.6001  0.0171  0.2361
   85MPD2     C 1295   0.110   3.826  16.205  0.8051  0.0601 -0.0804
   85MPD2    C1 1296   0.047   3.782  16.094  0.0531 -0.0013  0.6792
   85MPD2    C2 1297   0.038   3.875  15.995 -0.3427  0.8811 -0.1860
   85MPD2    C3 1298   0.102   3.993  15.995  0.6097  0.1582  0.4034
   85MPD2    C4 1299   0.169   4.035  16.108  0.1446 -0.7575  0.0424
   85MPD2    C5 1300   0.175   3.946  16.209  0.0593  0.3436 -0.4353
   85MPD2     H 1301   4.702   3.846  15.908  0.2194  3.7084 -1.5285
   85MPD2    H1 1302   0.217   4.132  16.116  0.7770 -1.0830  0.2259
   85MPD2    H2 1303   0.138   3.761  16.287  0.3542  1.4714  1.1781
   85MPD2    H3 1304   0.206   3.976  16.308 -0.3629 -1.1263  0.1291
   85MPD2     N 1305   0.094   4.078  15.882  0.0430  0.5734  0.0868
   85MPD2    H5 1306   0.070   4.024  15.799 -3.3825  0.7784  0.9843
   85MPD2    N1 1307   4.709   3.650  16.080  0.1036  0.5669 -0.5756
   85MPD2    H7 1308   4.664   3.637  15.990 -0.0653  1.9863 -0.6960
   86TCq2    C1 1309   0.132   4.208  15.879  1.3126  0.0238 -0.6972
   86TCq2    O2 1310   0.142   4.291  15.968  0.4728  0.2651 -0.1803
   86TCq2    C2 1311   0.152   4.266  15.746  0.6800  0.0609  0.6248
   86TCq2    C3 1312   0.124   4.396  15.734  0.9239  0.7249 -0.0536
   86TCq2    C4 1313   0.136   4.453  15.609  0.0403 -0.5287 -0.4126
   86TCq2    C5 1314   0.189   4.379  15.502 -0.2948  0.1970 -0.3074
   86TCq2    C6 1315   0.220   4.248  15.526  0.6935  0.4522  0.1060
   86TCq2    C7 1316   0.194   4.185  15.646  0.1254  0.0453  0.3158
   86TCq2    C8 1317   0.264   4.159  15.421 -0.0882  0.4449 -0.7404
   86TCq2    O4 1318   0.322   4.059  15.461 -0.2903 -0.0709 -0.5237
   86TCq2    C9 1319   0.095   4.589  15.593  0.2068  0.0188 -0.5271
   86TCq2    O5 1320   0.064   4.658  15.697  0.0490 -0.3111  0.2630
   86TCq2    O6 1321   0.112   4.648  15.481  0.2531 -0.3951 -0.0951
   86TCq2    H2 1322   0.083   4.460  15.812 -0.2005  0.1162 -0.1537
   86TCq2    H3 1323   0.207   4.430  15.408  1.3713 -0.4741 -0.3667
   86TCq2    H4 1324   0.223   4.082  15.664  2.8107  0.8147  0.2297
   87MPD2     C 1325   1.185   1.866   0.370  0.8131 -0.4835 -0.2988
   87MPD2    C1 1326   1.244   1.956   0.449 -0.5148 -0.1685 -0.2692
   87MPD2    C2 1327   1.219   2.089   0.423  0.0478  0.1007 -0.2145
   87MPD2    C3 1328   1.121   2.129   0.331 -1.2926  0.5017  0.7135
   87MPD2    C4 1329   1.058   2.028   0.260  0.0026  0.4412  0.0536
   87MPD2    C5 1330   1.094   1.900   0.273 -0.3626 -0.6839  0.0095
   87MPD2     H 1331   1.271   2.162   0.483  0.5719  0.4244 -1.0657
   87MPD2    H1 1332   0.980   2.044   0.187  0.7140 -1.0540 -1.0187
   87MPD2    H2 1333   1.226   1.766   0.377 -1.4579 -1.1535  3.3965
   87MPD2    H3 1334   1.046   1.828   0.207  0.2546 -2.3467  1.3919
   87MPD2     N 1335   1.074   2.265   0.317 -1.1007 -0.1621  0.1649
   87MPD2    H5 1336   0.989   2.283   0.265 -1.2692 -1.4545  0.0154
   87MPD2    N1 1337   1.317   1.905   0.555  0.2971  0.1959 -1.1497
   87MPD2    H7 1338   1.322   1.804   0.556  1.5957  0.2925  1.5190
   88TCq2    C1 1339   1.373   1.968   0.665 -0.0239  0.1960 -0.2247
   88TCq2    O2 1340   1.349   2.083   0.702 -0.2571  0.0303  0.8528
   88TCq2    C2 1341   1.438   1.882   0.759  0.2097 -0.2564  0.5944
   88TCq2    C3 1342   1.441   1.924   0.883  0.3094  0.3799 -0.2811
   88TCq2    C4 1343   1.511   1.854   0.978  0.1740  0.1762 -0.8783
   88TCq2    C5 1344   1.578   1.740   0.942 -0.3125  0.0379  0.6151
   88TCq2    C6 1345   1.580   1.704   0.806  0.5806  0.7753  0.2168
   88TCq2    C7 1346   1.510   1.776   0.708  0.3217 -0.0144 -0.3586
   88TCq2    C8 1347   1.688   1.622   0.758 -0.5360 -0.0247 -0.1043
   88TCq2    O4 1348   1.719   1.640   0.644  0.1012  0.0587  0.2100
   88TCq2    C9 1349   1.513   1.909   1.111 -0.3382 -0.0294 -0.0070
   88TCq2    O5 1350   1.419   1.986   1.131 -0.1823 -0.0247 -0.4449
   88TCq2    O6 1351   1.580   1.844   1.199 -0.2276 -0.1033  0.0550
   88TCq2    H2 1352   1.387   2.015   0.907  1.0929  0.7251  0.1553
   88TCq2    H3 1353   1.640   1.693   1.018  0.4448 -0.1623 -0.1334
   88TCq2    H4 1354   1.516   1.745   0.604  0.0659 -0.7458 -0.1576
   89MPD2     C 1355   2.861   0.446   1.819  0.1702 -0.0693  0.4619
   89MPD2    C1 1356   2.814   0.522   1.925 -0.4307 -0.0266 -0.5542
   89MPD2    C2 1357   2.894   0.617   1.981  0.2290  0.1716  0.0938
   89MPD2    C3 1358   3.006   0.651   1.919  0.5684  0.1899  0.0011
   89MPD2    C4 1359   3.055   0.574   1.818  0.3632  0.0747 -0.2794
   89MPD2    C5 1360   2.985   0.471   1.772  0.0434  0.3216  0.3741
   89MPD2     H 1361   2.846   0.670   2.063 -1.0990 -0.8003 -0.0637
   89MPD2    H1 1362   3.144   0.600   1.762 -0.6601  0.7296 -1.6009
   89MPD2    H2 1363   2.801   0.360   1.788 -0.7987  0.6154  0.4357
   89MPD2    H3 1364   3.032   0.415   1.692 -2.1620 -1.4117  0.2708
   89MPD2     N 1365   3.079   0.768   1.954  0.5871  0.7721  0.5280
   89MPD2    H5 1366   3.030   0.843   2.002 -0.1860 -0.2851  1.3765
   89MPD2    N1 1367   2.690   0.500   1.981  0.4799 -0.1686 -0.6052
   89MPD2    H7 1368   2.676   0.558   2.062  0.6047  1.0911 -1.4859
   90TCq2    C1 1369   3.210   0.787   1.919  0.5252 -0.1929 -0.2085
   90TCq2    O2 1370   3.296   0.698   1.903  0.3747  0.0171 -0.3323
   90TCq2    C2 1371   3.251   0.929   1.940 -0.4610  0.5444 -0.5879
   90TCq2    C3 1372   3.383   0.945   1.983  0.3081  0.0171 -0.1095
   90TCq2    C4 1373   3.437   1.066   1.977 -0.0741  0.3356 -0.5077
   90TCq2    C5 1374   3.375   1.175   1.922 -0.3224  0.0479  0.1841
   90TCq2    C6 1375   3.242   1.156   1.877 -0.0792  0.0820 -0.1061
   90TCq2    C7 1376   3.183   1.034   1.883 -0.2246 -0.5654  0.3658
   90TCq2    C8 1377   3.177   1.269   1.815 -0.3465 -0.9724  0.4632
   90TCq2    O4 1378   3.061   1.296   1.844  0.1696 -0.0416 -0.2594
   90TCq2    C9 1379   3.576   1.085   2.022  0.5916  0.7235 -0.0603
   90TCq2    O5 1380   3.621   0.978   2.075 -0.2273 -0.4879 -0.1869
   90TCq2    O6 1381   3.630   1.194   2.005  0.1151  0.0369 -0.6470
   90TCq2    H2 1382   3.429   0.856   2.024 -0.1964 -1.0617 -1.8781
   90TCq2    H3 1383   3.435   1.266   1.914 -0.9685  0.4937  0.4374
   90TCq2    H4 1384   3.078   1.018   1.858 -0.3288 -1.8993  1.6897
   91TMC2    C1 1385   4.435   0.427  16.295  0.2302 -0.7393 -0.6416
   91TMC2    C2 1386   4.487   0.433  16.423 -0.1796 -0.1285  0.5141
   91TMC2    C3 1387   4.426   0.531  16.509  0.6872 -0.2493 -0.1770
   91TMC2    C4 1388   4.319   0.493  16.256  0.4633  0.0456 -0.2044
   91TMC2    C5 1389   4.261   0.579  16.344  0.4330  0.0614  0.6614
   91TMC2    C6 1390   4.313   0.603  16.471 -0.1367  0.0456 -0.0744
   91TMC2     C 1391   4.480   0.318  16.208  1.0670 -0.1886  0.1043
   91TMC2     O 1392   4.427   0.304  16.101  0.8030  0.4830  1.1690
   91TMC2     H 1393   4.570   0.371  16.455 -0.5716 -1.1847 -0.4808
   91TMC2    H1 1394   4.293   0.474  16.153 -1.9127  0.8585  0.2451
   91TMC2    H2 1395   4.265   0.672  16.538  0.7074 -0.5524  1.1485
   91TMC2    C7 1396   4.144   0.657  16.308  0.5476 -0.3380 -0.1639
   91TMC2    C8 1397   4.489   0.561  16.633  0.5419 -0.0150 -0.5497
   91TMC2    O1 1398   4.103   0.745  16.382 -0.2239  0.4854  0.4786
   91TMC2    O2 1399   4.572   0.487  16.684  0.1621  0.0512  0.2303
   91TMC2    O5 1400   4.492   0.696  16.640  0.3235  0.6244  0.9254
   91TMC2    H5 1401   4.449   0.735  16.561  0.0252 -1.9695 -0.1746
   92MPD2     C 1402   4.588   0.057  16.120 -0.9105 -0.9363  0.0364
   92MPD2    C1 1403   4.663   0.148  16.187  0.0886 -0.4281  0.0696
   92MPD2    C2 1404   0.069   0.116  16.224  0.9235 -0.1642  0.1460
   92MPD2    C3 1405   0.133   0.000  16.181 -0.4071 -0.3501  0.1179
   92MPD2    C4 1406   0.059   4.641  16.105 -0.2217 -0.1438 -0.0163
   92MPD2    C5 1407   4.654   4.669  16.074 -0.7001 -0.1726 -0.2668
   92MPD2     H 1408   0.130   0.186  16.279  0.6112  1.1307 -1.1686
   92MPD2    H1 1409   0.086   4.544  16.065  1.8400  0.2763  0.3639
   92MPD2    H2 1410   4.483   0.079  16.102 -0.4862  0.0430 -1.2652
   92MPD2    H3 1411   4.599   4.595  16.017 -2.6339  1.8636 -1.0681
   92MPD2     N 1412   0.267   4.704  16.213 -0.3109 -0.0186 -0.4112
   92MPD2    H5 1413   0.305   0.056  16.272  2.1976 -1.8458  0.2657
   92MPD2    N1 1414   4.605   0.268  16.238  0.1616  0.1762 -0.0813
   92MPD2    H7 1415   4.657   0.322  16.305  1.4223  0.1047 -0.9938
   93MPD2     C 1416   2.018   0.064  14.291  0.0292 -0.2148  0.0238
   93MPD2    C1 1417   1.941   0.135  14.197 -0.6533  0.1614  0.6531
   93MPD2    C2 1418   1.813   0.104  14.173 -0.4156 -0.5068  0.5310
   93MPD2    C3 1419   1.752   4.721  14.244  0.8001  0.3295  0.6520
   93MPD2    C4 1420   1.830   4.638  14.320  0.0940  0.5376 -1.2050
   93MPD2    C5 1421   1.959   4.673  14.344  0.6691  0.1627  0.3481
   93MPD2     H 1422   1.755   0.164  14.103  0.8865 -0.3998 -0.4644
   93MPD2    H1 1423   1.786   4.555  14.375  0.2899  1.4188  0.3016
   93MPD2    H2 1424   2.117   0.096  14.322  0.1561 -0.9964  0.4327
   93MPD2    H3 1425   2.018   4.625  14.421  0.9407 -1.7740 -1.0387
   93MPD2     N 1426   1.616   4.687  14.207 -0.5637  0.1126  0.2019
   93MPD2    H5 1427   1.579   0.021  14.131  0.3417  0.9477  0.3814
   93MPD2    N1 1428   1.983   0.253  14.136 -0.5698  0.4532 -0.7367
   93MPD2    H7 1429   1.913   0.306  14.085  0.4742  0.6776 -1.9416
   94TCq2    C1 1430   2.108   0.303  14.141 -0.1216 -0.6869  0.3336
   94TCq2    O2 1431   2.207   0.256  14.189 -0.0016 -0.5756  0.2344
   94TCq2    C2 1432   2.134   0.410  14.047  0.1509 -0.4514  0.0254
   94TCq2    C3 1433   2.034   0.443  13.959  0.4250 -0.2223 -0.1622
   94TCq2    C4 1434   2.065   0.537  13.862  0.6947 -0.3013  0.0181
   94TCq2    C5 1435   2.193   0.578  13.843  0.2007 -0.3751  0.2758
   94TCq2    C6 1436   2.291   0.548  13.939  0.0325  0.4393  0.8673
   94TCq2    C7 1437   2.263   0.458  14.037 -0.3287 -0.6704  0.1400
   94TCq2    C8 1438   2.434   0.571  13.930  0.6345 -0.8989 -0.4616
   94TCq2    O4 1439   2.506   0.514  14.009 -0.3315 -0.5776  0.2918
   94TCq2    C9 1440   1.974   0.573  13.756 -0.1447  0.1562  0.1062
   94TCq2    O5 1441   1.863   0.517  13.760  0.0911  0.6387  0.1050
   94TCq2    O6 1442   2.009   0.637  13.658 -0.6944  0.5482  0.0894
   94TCq2    H2 1443   1.932   0.407  13.966  0.2066  0.2912 -0.6994
   94TCq2    H3 1444   2.206   0.659  13.773  2.2865 -0.4446  0.5750
   94TCq2    H4 1445   2.334   0.421  14.110  0.5091 -1.6017 -1.1526
   95TMC2    C1 1446   1.298   2.012  15.755  0.2396  0.7651  0.2186
   95TMC2    C2 1447   1.193   1.984  15.674  0.4564  0.3484  0.4761
   95TMC2    C3 1448   1.104   1.883  15.713 -0.8086 -0.0029 -0.6528
   95TMC2    C4 1449   1.319   1.939  15.866 -0.0586  0.6892 -0.0409
   95TMC2    C5 1450   1.231   1.843  15.900 -0.4962  0.3383 -0.3780
   95TMC2    C6 1451   1.124   1.812  15.821 -0.0958 -0.1566 -0.0171
   95TMC2     C 1452   1.395   2.108  15.716 -0.1599  0.2947  0.6353
   95TMC2     O 1453   1.416   2.121  15.592 -0.3545 -0.6509 -0.0049
   95TMC2     H 1454   1.173   2.040  15.583 -0.4803 -2.9279 -1.3043
   95TMC2    H1 1455   1.418   1.929  15.908 -0.5693 -1.8199  0.6069
   95TMC2    H2 1456   1.053   1.736  15.853 -2.2635  1.3344 -1.3268
   95TMC2    C7 1457   1.223   1.782  16.034  0.5688  0.3105 -0.2012
   95TMC2    C8 1458   0.978   1.864  15.639  0.0389  0.6236  0.6115
   95TMC2    O1 1459   1.157   1.682  16.044  0.5429 -0.6573  0.3281
   95TMC2    O2 1460   0.930   1.947  15.565 -0.1335  0.2367  0.3425
   95TMC2    O5 1461   0.924   1.741  15.655 -0.0099 -0.4003 -0.0165
   95TMC2    H5 1462   0.987   1.675  15.693  0.5115 -0.6731 -1.3617
   96MPD2     C 1463   1.705   2.502  15.828 -0.1827 -0.4260  0.7300
   96MPD2    C1 1464   1.680   2.443  15.708 -0.1306 -0.1497 -0.3187
   96MPD2    C2 1465   1.594   2.338  15.697  0.3680  0.1830  0.1386
   96MPD2    C3 1466   1.536   2.290  15.813 -0.3610  0.2393 -0.5657
   96MPD2    C4 1467   1.567   2.345  15.934  0.3311  0.7138 -0.1782
   96MPD2    C5 1468   1.656   2.446  15.943 -0.5784 -0.3743 -0.1508
   96MPD2     H 1469   1.575   2.295  15.599  0.4747 -0.0196  0.2058
   96MPD2    H1 1470   1.524   2.311  16.027 -1.6338  1.7514 -0.7082
   96MPD2    H2 1471   1.772   2.587  15.836  0.5276 -0.8862 -0.4184
   96MPD2    H3 1472   1.688   2.489  16.037 -1.0748 -4.8268  2.0472
   96MPD2     N 1473   1.451   2.171  15.822  0.1359  0.8551  0.2088
   96MPD2    H5 1474   1.414   2.148  15.914  2.7734 -0.6448  0.9051
   96MPD2    N1 1475   1.756   2.508  15.601  0.0378 -0.0395  0.0215
   96MPD2    H7 1476   1.830   2.572  15.629 -0.2823  0.2987  0.1019
   97MPD2     C 1477   3.319   4.198   0.658 -0.0117 -0.2783  0.1501
   97MPD2    C1 1478   3.301   4.332   0.689 -0.2313  0.6521 -0.3762
   97MPD2    C2 1479   3.372   4.422   0.607 -0.2826  0.6064 -0.1226
   97MPD2    C3 1480   3.461   4.378   0.507  0.1951 -0.7269 -0.2247
   97MPD2    C4 1481   3.479   4.243   0.489 -0.3023 -0.3578 -0.6269
   97MPD2    C5 1482   3.409   4.155   0.562  0.3290  0.1713  0.0186
   97MPD2     H 1483   3.375   4.528   0.628  1.7443  0.8833 -1.8551
   97MPD2    H1 1484   3.546   4.204   0.414  1.7986  0.1256  0.9805
   97MPD2    H2 1485   3.285   4.121   0.726  0.2195 -1.2207 -0.7883
   97MPD2    H3 1486   3.420   4.048   0.550 -0.3445  0.0772  0.2014
   97MPD2     N 1487   3.528   4.474   0.419 -0.3708  0.3319 -0.1287
   97MPD2    H5 1488   3.611   4.446   0.367  1.3317  0.1026  2.7037
   97MPD2    N1 1489   3.221   4.377   0.795  0.8542 -0.3996 -0.1791
   97MPD2    H7 1490   3.150   4.312   0.827 -2.6085  3.0961 -0.6901
   98TCq2    C1 1491   3.502   4.606   0.405  0.6687 -0.0933  0.7259
   98TCq2    O2 1492   3.413   4.666   0.462 -0.3764 -0.0113  0.2338
   98TCq2    C2 1493   3.600   4.675   0.323 -0.0244  0.2041 -0.1463
   98TCq2    C3 1494   3.691   4.605   0.243 -0.2781  0.0852  0.1991
   98TCq2    C4 1495   3.795   4.678   0.184  0.1542  0.3246 -0.7270
   98TCq2    C5 1496   3.807   0.091   0.205 -0.6653 -0.1968 -0.2923
   98TCq2    C6 1497   3.711   0.152   0.284 -0.7591  0.1381 -0.5010
   98TCq2    C7 1498   3.616   0.086   0.353 -0.4316 -0.1053  0.5808
   98TCq2    C8 1499   3.741   0.282   0.336  0.5693  0.3464 -0.2886
   98TCq2    O4 1500   3.645   0.351   0.370  0.2459 -0.4532 -0.4533
   98TCq2    C9 1501   3.884   4.606   0.098  0.0690 -0.6114  0.2112
   98TCq2    O5 1502   3.874   4.483   0.101 -0.5876 -0.0186  0.0430
   98TCq2    O6 1503   3.982   4.671   0.046 -0.0257  0.2142 -0.0412
   98TCq2    H2 1504   3.694   4.499   0.222 -1.2407  0.3378 -1.1951
   98TCq2    H3 1505   3.889   0.137   0.151 -1.2458  1.1001 -0.0840
   98TCq2    H4 1506   3.551   0.131   0.427 -0.2161 -0.2801  0.8784
   99MPD2     C 1507   2.163   1.639   2.241  0.2224  0.2492 -0.1492
   99MPD2    C1 1508   2.044   1.707   2.216  0.4347 -0.1143 -0.2500
   99MPD2    C2 1509   1.953   1.644   2.136 -0.4741  0.3447 -0.1258
   99MPD2    C3 1510   1.982   1.521   2.073 -0.5103 -1.0683 -0.3791
   99MPD2    C4 1511   2.106   1.458   2.094  0.2029 -0.1470 -0.3477
   99MPD2    C5 1512   2.196   1.515   2.185  0.2026  0.1516  0.7468
   99MPD2     H 1513   1.854   1.686   2.125 -0.4696  0.1574 -0.8328
   99MPD2    H1 1514   2.144   1.367   2.049 -2.6051 -0.3215 -2.3450
   99MPD2    H2 1515   2.236   1.686   2.306  0.8352 -1.9524  0.7605
   99MPD2    H3 1516   2.294   1.470   2.197 -0.4526 -1.7602 -1.1590
   99MPD2     N 1517   1.891   1.462   1.985  0.2050  0.3195  0.6739
   99MPD2    H5 1518   1.800   1.508   1.986  0.0679  0.0528  0.5890
   99MPD2    N1 1519   2.003   1.834   2.282 -0.1787  0.4497  0.0094
   99MPD2    H7 1520   1.905   1.860   2.273 -0.3402 -0.2998 -0.4157
  100TCq2    C1 1521   2.088   1.916   2.355 -0.5879  0.4256  1.0987
  100TCq2    O2 1522   2.212   1.908   2.369  0.2199  0.3958  0.4664
  100TCq2    C2 1523   2.028   2.040   2.405  0.5847 -0.6520  0.4367
  100TCq2    C3 1524   2.112   2.142   2.397 -0.2184 -0.2866 -0.2432
  100TCq2    C4 1525   2.049   2.269   2.417  0.0237 -0.6081  0.3610
  100TCq2    C5 1526   1.914   2.281   2.433  0.4123 -0.0454  0.5638
  100TCq2    C6 1527   1.839   2.166   2.432  0.2124 -0.4507  0.8528
  100TCq2    C7 1528   1.889   2.045   2.416 -0.5037 -0.1163 -0.3146
  100TCq2    C8 1529   1.700   2.169   2.477 -0.4454 -0.1092 -0.0071
  100TCq2    O4 1530   1.658   2.240   2.568 -0.3599 -0.7099 -0.0846
  100TCq2    C9 1531   2.129   2.390   2.426  0.7709  0.1933  0.1025
  100TCq2    O5 1532   2.076   2.493   2.475 -0.5578  0.0262 -0.2043
  100TCq2    O6 1533   2.238   2.388   2.369  0.0893 -0.2377  0.2247
  100TCq2    H2 1534   2.220   2.140   2.396 -0.2353 -0.6340 -1.0070
  100TCq2    H3 1535   1.862   2.376   2.434  0.8303  0.1902 -0.4920
  100TCq2    H4 1536   1.841   1.956   2.453  2.2478 -1.2706  0.4682
  101MPD2     C 1537   3.239   2.374  12.766 -0.0207  0.6615  0.3725
  101MPD2    C1 1538   3.198   2.466  12.854 -0.4391 -0.0978  0.2877
  101MPD2    C2 1539   3.171   2.424  12.987 -0.6599  0.2809 -0.9756
  101MPD2    C3 1540   3.198   2.294  13.033  0.0507  0.1551  0.5248
  101MPD2    C4 1541   3.238   2.204  12.932 -0.2818  0.5509 -0.1801
  101MPD2    C5 1542   3.256   2.245  12.801 -0.4893 -0.6540 -0.1824
  101MPD2     H 1543   3.133   2.494  13.060 -2.3253 -1.0160 -0.5814
  101MPD2    H1 1544   3.260   2.101  12.959  0.4108  0.9849  0.8881
  101MPD2    H2 1545   3.253   2.395  12.661 -0.5292 -1.5974 -0.1622
  101MPD2    H3 1546   3.286   2.176  12.723 -0.2942 -1.1390  0.3207
  101MPD2     N 1547   3.148   2.250  13.161  0.0045  0.7500  0.7414
  101MPD2    H5 1548   3.095   2.320  13.213  1.9116  2.4048  0.4361
  101MPD2    N1 1549   3.174   2.595  12.802  0.9052 -0.4490 -0.0190
  101MPD2    H7 1550   3.201   2.615  12.706 -0.4116 -0.5360 -0.4088
  102TCq2    C1 1551   3.263   2.976  12.513 -0.0492  0.3899 -0.2362
  102TCq2    O2 1552   3.352   2.894  12.498  0.5073 -0.5022  0.5788
  102TCq2    C2 1553   3.201   2.981  12.650 -0.1390 -0.6043 -0.0043
  102TCq2    C3 1554   3.090   3.065  12.677 -0.3212 -0.1372  0.0934
  102TCq2    C4 1555   3.010   3.036  12.791  0.7016  0.0643  0.4874
  102TCq2    C5 1556   3.023   2.925  12.862  0.5488  0.1900 -0.2789
  102TCq2    C6 1557   3.122   2.832  12.818  0.1545  0.1856  0.0866
  102TCq2    C7 1558   3.219   2.867  12.729 -0.7994 -0.0855  0.3423
  102TCq2    C8 1559   3.120   2.699  12.877 -0.0002 -0.0375  0.6748
  102TCq2    O4 1560   3.048   2.694  12.981 -0.6892  0.1040 -0.2768
  102TCq2    C9 1561   2.893   3.119  12.824 -0.0271  0.1138  0.1458
  102TCq2    O5 1562   2.877   3.229  12.764  0.0035 -0.7833 -0.0514
  102TCq2    O6 1563   2.806   3.069  12.904 -0.1913  0.0984  0.6268
  102TCq2    H2 1564   3.090   3.162  12.628  2.7499  0.5907  1.5123
  102TCq2    H3 1565   2.953   2.892  12.937 -0.4477 -1.0373 -1.7661
  102TCq2    H4 1566   3.315   2.816  12.721 -0.3795  0.4177  2.2536
  103TMC2    C1 1567   1.486   2.504  12.260 -0.6722 -0.1749  0.2388
  103TMC2    C2 1568   1.546   2.400  12.327 -0.1378  0.2514  0.0846
  103TMC2    C3 1569   1.572   2.419  12.457 -0.1989  0.0345  0.4126
  103TMC2    C4 1570   1.447   2.622  12.320 -0.0491 -0.4351 -0.3546
  103TMC2    C5 1571   1.489   2.636  12.452  0.0588  0.8929 -0.2572
  103TMC2    C6 1572   1.549   2.534  12.524 -0.8483 -0.0147 -0.3263
  103TMC2     C 1573   1.471   2.500  12.121 -0.2538  0.2579 -0.2141
  103TMC2     O 1574   1.378   2.562  12.075 -0.2654 -0.7346 -0.2437
  103TMC2     H 1575   1.574   2.309  12.276 -2.1254  0.5983 -1.5786
  103TMC2    H1 1576   1.422   2.708  12.259 -0.0686  0.3082  0.6976
  103TMC2    H2 1577   1.575   2.547  12.628 -0.2548  0.3784 -0.5184
  103TMC2    C7 1578   1.432   2.740  12.532  0.7129 -0.2400 -0.4572
  103TMC2    C8 1579   1.587   2.308  12.549 -0.3900 -0.3385 -0.0366
  103TMC2    O1 1580   1.495   2.787  12.623 -0.7581 -0.0057 -0.7734
  103TMC2    O2 1581   1.663   2.305  12.647 -0.3101 -0.5226 -0.3735
  103TMC2    O5 1582   1.463   2.245  12.540  0.3771 -0.3750  0.0485
  103TMC2    H5 1583   1.404   2.299  12.484  0.5338  0.6575  0.8801
  104MPD2     C 1584   1.588   2.220  11.909  0.4346 -0.3655 -0.2757
  104MPD2    C1 1585   1.500   2.311  11.956 -0.2951  0.2246  0.2466
  104MPD2    C2 1586   1.377   2.316  11.895  0.5303  0.7864 -0.8183
  104MPD2    C3 1587   1.340   2.219  11.808  0.4686  0.1235 -0.4671
  104MPD2    C4 1588   1.426   2.127  11.760  0.2830 -0.6159  0.4786
  104MPD2    C5 1589   1.553   2.132  11.813  0.2213 -0.0776  0.2046
  104MPD2     H 1590   1.299   2.386  11.922  1.7744  2.1616 -0.8216
  104MPD2    H1 1591   1.402   2.049  11.689  1.1232 -0.0760 -0.4049
  104MPD2    H2 1592   1.687   2.217  11.951  0.9025 -0.8021 -1.4170
  104MPD2    H3 1593   1.635   2.070  11.780  0.4202 -0.1878  0.9027
  104MPD2     N 1594   1.206   2.216  11.775  0.6344 -0.6459 -0.4109
  104MPD2    H5 1595   1.149   2.295  11.805  2.3793  0.2948  0.4049
  104MPD2    N1 1596   1.541   2.392  12.065 -0.1043 -0.2189  0.1096
  104MPD2    H7 1597   1.626   2.368  12.114  1.7663  0.0352 -3.0118
  105MPD2     C 1598   3.100   1.777   0.121  0.1673 -0.1630  0.2823
  105MPD2    C1 1599   2.991   1.821   0.050  0.2777 -0.3700  0.2595
  105MPD2    C2 1600   2.864   1.795   0.101  0.4782  0.5457 -0.1566
  105MPD2    C3 1601   2.850   1.718   0.214 -0.4990  0.9040 -0.1983
  105MPD2    C4 1602   2.954   1.672   0.282  0.2170  0.0037  0.6788
  105MPD2    C5 1603   3.076   1.707   0.239 -0.3181 -0.9967 -0.0831
  105MPD2     H 1604   2.772   1.836   0.061 -2.5700 -3.8269  2.3901
  105MPD2    H1 1605   2.941   1.605   0.366  1.1104  0.2309  1.0018
  105MPD2    H2 1606   3.199   1.783   0.078 -0.4781 -4.1723 -1.7455
  105MPD2    H3 1607   3.154   1.665   0.301  1.6163 -1.1796 -2.6337
  105MPD2     N 1608   2.715   1.690   0.250 -0.5586  0.1414  1.0502
  105MPD2    H5 1609   2.647   1.719   0.180  0.7746  2.9711  0.9362
  105MPD2    N1 1610   2.988   1.885  17.617 -0.1702  0.0517 -0.1172
  105MPD2    H7 1611   2.906   1.937  17.589 -0.3319 -0.4046 -0.4967
  106TCq2    C1 1612   2.676   1.618   0.359  0.0021 -0.1298  0.0915
  106TCq2    O2 1613   2.741   1.550   0.436  0.2049 -0.2522  0.1111
  106TCq2    C2 1614   2.527   1.614   0.367 -0.4954  0.5564 -0.3038
  106TCq2    C3 1615   2.448   1.675   0.275  0.2049 -0.2202  0.2022
  106TCq2    C4 1616   2.312   1.654   0.275 -0.6024  0.2082 -0.5699
  106TCq2    C5 1617   2.264   1.559   0.360  0.0673  0.5244 -0.2361
  106TCq2    C6 1618   2.341   1.501   0.452  0.4809  1.0080  0.0368
  106TCq2    C7 1619   2.476   1.521   0.455 -0.1347  0.8729  0.8751
  106TCq2    C8 1620   2.278   1.438   0.569 -0.3235 -0.3504  0.4082
  106TCq2    O4 1621   2.345   1.356   0.632 -0.1563  0.4158  0.2212
  106TCq2    C9 1622   2.231   1.697   0.167  0.2210 -0.4844  0.6432
  106TCq2    O5 1623   2.299   1.724   0.061  0.3571 -0.0099 -0.2296
  106TCq2    O6 1624   2.106   1.696   0.184 -0.4639 -0.6492  0.1026
  106TCq2    H2 1625   2.487   1.733   0.193  0.9435 -0.7112  0.2067
  106TCq2    H3 1626   2.159   1.539   0.341  0.0835  1.0336 -0.8632
  106TCq2    H4 1627   2.546   1.472   0.522  0.7125 -0.2225 -0.8056
  107TMC2    C1 1628   3.596   1.183  11.528 -0.1801 -0.6478 -0.3014
  107TMC2    C2 1629   3.718   1.248  11.489  0.6911  0.8511 -0.0073
  107TMC2    C3 1630   3.755   1.212  11.359  0.3563  0.3697 -0.6330
  107TMC2    C4 1631   3.530   1.096  11.441 -0.2186  0.7078 -0.6506
  107TMC2    C5 1632   3.576   1.070  11.315 -0.0509  0.3133 -0.4653
  107TMC2    C6 1633   3.692   1.133  11.264  0.9884  0.5743 -0.0279
  107TMC2     C 1634   3.513   1.258  11.615  0.0859 -0.1144  0.0909
  107TMC2     O 1635   3.423   1.192  11.672  0.2105  0.1677 -0.0271
  107TMC2     H 1636   3.778   1.305  11.558  1.0691  0.4522 -0.0043
  107TMC2    H1 1637   3.438   1.048  11.472  0.3236  0.6738  0.9225
  107TMC2    H2 1638   3.746   1.111  11.172  0.7383  2.8999 -0.7177
  107TMC2    C7 1639   3.496   0.994  11.219  0.0545  0.7234  0.4152
  107TMC2    C8 1640   3.898   1.218  11.356 -0.1107  0.6026 -0.1994
  107TMC2    O1 1641   3.388   0.942  11.249 -0.0018  0.4022  0.3014
  107TMC2    O2 1642   3.968   1.146  11.291 -0.1188 -0.5186 -0.1162
  107TMC2    O5 1643   3.933   1.344  11.370  0.2437 -0.4904  0.0448
  107TMC2    H5 1644   3.861   1.404  11.397  2.2402  2.2023 -0.6343
  108MPD2     C 1645   3.488   1.622  11.642 -0.2640  0.4944  1.1719
  108MPD2    C1 1646   3.462   1.493  11.668 -0.0883  0.5432 -0.3555
  108MPD2    C2 1647   3.365   1.458  11.766  0.9805  0.0280  0.7619
  108MPD2    C3 1648   3.284   1.557  11.813  0.2275 -0.3295 -0.3048
  108MPD2    C4 1649   3.304   1.690  11.786  0.1990  0.4313 -0.8508
  108MPD2    C5 1650   3.407   1.722  11.703  0.1189 -0.0526  0.2737
  108MPD2     H 1651   3.358   1.355  11.799  1.1062  0.6477  2.7260
  108MPD2    H1 1652   3.245   1.759  11.846  0.0258 -0.4060 -0.0556
  108MPD2    H2 1653   3.553   1.653  11.561  1.7338  0.2416  2.6828
  108MPD2    H3 1654   3.421   1.820  11.659 -1.0781  0.2851  0.6368
  108MPD2     N 1655   3.188   1.535  11.920  0.4129  0.2894 -0.9460
  108MPD2    H5 1656   3.131   1.614  11.949  1.6655  1.0234 -0.4835
  108MPD2    N1 1657   3.528   1.394  11.591 -0.5988  0.1816  0.0666
  108MPD2    H7 1658   3.590   1.424  11.517 -1.9899  2.5142 -0.1594
  109MPD2     C 1659   2.472   3.214   1.595  0.0260  0.6626  0.4102
  109MPD2    C1 1660   2.593   3.238   1.540 -0.3550  0.2421  0.3100
  109MPD2    C2 1661   2.680   3.338   1.598 -0.1824  0.4550  0.4209
  109MPD2    C3 1662   2.645   3.404   1.713 -0.8066 -0.1091  0.3406
  109MPD2    C4 1663   2.521   3.369   1.771 -1.3350 -0.1388 -0.0375
  109MPD2    C5 1664   2.437   3.280   1.708  0.0262  0.5125 -0.2961
  109MPD2     H 1665   2.770   3.369   1.547 -0.1991 -0.2074 -0.0158
  109MPD2    H1 1666   2.482   3.409   1.864 -0.6980 -1.1586  0.6709
  109MPD2    H2 1667   2.397   3.150   1.550 -0.3358  1.0683  0.4346
  109MPD2    H3 1668   2.344   3.246   1.752 -0.2781  2.0464  0.2451
  109MPD2     N 1669   2.721   3.518   1.756  0.8759 -0.2016  0.8812
  109MPD2    H5 1670   2.782   3.557   1.685 -1.9880  2.1056 -0.3687
  109MPD2    N1 1671   2.619   3.171   1.418 -0.1129 -0.6196 -0.1751
  109MPD2    H7 1672   2.545   3.111   1.385 -2.0683  0.2063  2.6992
  110TCq2    C1 1673   2.700   3.597   1.870  0.2731  0.3657 -0.9471
  110TCq2    O2 1674   2.628   3.577   1.969  0.0130 -0.1460 -0.6471
  110TCq2    C2 1675   2.774   3.727   1.861  1.2313  0.3595  0.1052
  110TCq2    C3 1676   2.748   3.805   1.970 -0.6084  0.2996  0.3890
  110TCq2    C4 1677   2.770   3.934   1.975 -0.1556 -0.5051  0.3985
  110TCq2    C5 1678   2.816   4.005   1.866 -0.0665  0.4073  0.3502
  110TCq2    C6 1679   2.835   3.924   1.755  0.2231  0.0773 -0.8270
  110TCq2    C7 1680   2.812   3.785   1.741 -0.3196 -0.1411  0.8116
  110TCq2    C8 1681   2.858   3.993   1.640 -1.2979 -0.1598 -0.1071
  110TCq2    O4 1682   2.862   4.116   1.647  0.7863  0.0930  0.5208
  110TCq2    C9 1683   2.760   3.998   2.105 -0.3284 -0.0613 -0.1425
  110TCq2    O5 1684   2.723   3.930   2.208  0.2413 -0.3021  0.3334
  110TCq2    O6 1685   2.777   4.126   2.102 -0.2483 -0.7092  0.3008
  110TCq2    H2 1686   2.720   3.760   2.065 -0.2952  2.4910  1.5180
  110TCq2    H3 1687   2.834   4.112   1.871  0.8246  0.3574 -1.5436
  110TCq2    H4 1688   2.849   3.717   1.666  0.2678  0.4271  0.5933
  111TMC2    C1 1689   3.933   3.131  10.963  0.2518  0.8111 -0.0404
  111TMC2    C2 1690   4.028   3.062  10.883 -0.4885 -0.7567  0.1743
  111TMC2    C3 1691   4.140   3.012  10.946 -0.1875 -0.3643 -1.0740
  111TMC2    C4 1692   3.946   3.147  11.096 -0.0487 -0.3445 -0.0302
  111TMC2    C5 1693   4.069   3.102  11.143 -0.0986 -0.3252  0.1627
  111TMC2    C6 1694   4.169   3.037  11.076  0.4398 -0.1424 -0.1116
  111TMC2     C 1695   3.797   3.137  10.915 -0.0695  0.5466 -1.0011
  111TMC2     O 1696   3.785   3.155  10.798 -0.6574  0.2127  0.3419
  111TMC2     H 1697   4.014   3.047  10.777  0.5507 -1.5123  0.1457
  111TMC2    H1 1698   3.876   3.198  11.160 -0.2460  0.7857 -1.1459
  111TMC2    H2 1699   4.243   2.980  11.131 -1.3585 -1.9602  0.4314
  111TMC2    C7 1700   4.091   3.119  11.282 -0.1409 -0.5277  0.1135
  111TMC2    C8 1701   4.242   2.941  10.868  0.0997 -0.1251  0.8117
  111TMC2    O1 1702   3.990   3.136  11.341  0.4492  0.2469 -0.0332
  111TMC2    O2 1703   4.355   2.937  10.911 -0.3476 -0.4068  0.0617
  111TMC2    O5 1704   4.176   2.835  10.826 -0.0232  0.3137 -0.4827
  111TMC2    H5 1705   4.078   2.841  10.834 -0.0674  0.3125 -0.9984
  112MPD2     C 1706   3.288   3.240  11.013 -0.1488 -0.5592 -0.0820
  112MPD2    C1 1707   3.360   3.253  10.896 -1.0183  0.7911 -0.1962
  112MPD2    C2 1708   3.490   3.196  10.888  0.4015  0.5232  0.0792
  112MPD2    C3 1709   3.562   3.170  11.003  0.0130 -0.4817 -0.3377
  112MPD2    C4 1710   3.493   3.177  11.122 -0.2629 -0.2753  0.5857
  112MPD2    C5 1711   3.350   3.193  11.123  0.4172  0.1017 -1.7456
  112MPD2     H 1712   3.538   3.180  10.792  1.4532  2.0434  0.3455
  112MPD2    H1 1713   3.540   3.152  11.216 -0.6465 -2.4818  0.1863
  112MPD2    H2 1714   3.181   3.260  11.022  0.1201  1.0795 -0.4866
  112MPD2    H3 1715   3.284   3.189  11.209  1.0671  0.8524 -1.2113
  112MPD2     N 1716   3.700   3.138  11.018  0.9081  0.5005 -0.2271
  112MPD2    H5 1717   3.729   3.102  11.109  3.3048 -0.0172 -1.1829
  112MPD2    N1 1718   3.295   3.303  10.776 -0.4881 -1.0738 -0.0852
  112MPD2    H7 1719   3.351   3.307  10.691 -1.2877 -0.6378 -0.5832
  113MPD2     C 1720   1.069   1.543   1.521 -0.4326 -0.5327 -0.3113
  113MPD2    C1 1721   0.968   1.634   1.493 -0.0852  0.3231  0.1443
  113MPD2    C2 1722   0.875   1.600   1.395 -0.2767  0.1561  0.4223
  113MPD2    C3 1723   0.874   1.473   1.332 -0.1668  1.0447  1.0411
  113MPD2    C4 1724   0.976   1.391   1.356  0.4839  0.4868  0.6278
  113MPD2    C5 1725   1.071   1.418   1.452  0.6817  0.3985  0.4549
  113MPD2     H 1726   0.807   1.677   1.358  0.9904  2.3008  2.5223
  113MPD2    H1 1727   0.979   1.300   1.297 -0.1265 -1.5114  3.6639
  113MPD2    H2 1728   1.152   1.565   1.588 -0.7679 -0.8973  0.2262
  113MPD2    H3 1729   1.148   1.343   1.463  1.0607  0.7849  0.4209
  113MPD2     N 1730   0.769   1.424   1.247 -0.4650  0.1994  0.3650
  113MPD2    H5 1731   0.776   1.327   1.217 -0.4392 -0.0591  1.1933
  113MPD2    N1 1732   0.965   1.756   1.560  0.3400 -0.4198 -0.2550
  113MPD2    H7 1733   0.885   1.815   1.539 -0.4948 -1.1940  0.7944
  114TCq2    C1 1734   0.652   1.490   1.227 -0.2295  0.6393 -0.3347
  114TCq2    O2 1735   0.615   1.601   1.261  0.3894 -0.6161 -0.4985
  114TCq2    C2 1736   0.566   1.416   1.133 -1.0461 -0.3813  0.4968
  114TCq2    C3 1737   0.431   1.445   1.131  0.3809 -0.3007 -0.2591
  114TCq2    C4 1738   0.345   1.364   1.064 -0.0160  0.3709  0.4548
  114TCq2    C5 1739   0.384   1.241   1.021  0.0124 -0.0679  0.1119
  114TCq2    C6 1740   0.517   1.217   1.015 -0.5922 -0.0020 -0.5060
  114TCq2    C7 1741   0.611   1.299   1.075 -0.6576 -0.4513  0.4335
  114TCq2    C8 1742   0.551   1.076   1.023 -0.1062  0.0456  0.2051
  114TCq2    O4 1743   0.659   1.049   0.976 -0.5917 -0.1284  0.4562
  114TCq2    C9 1744   0.201   1.398   1.048  0.1945  0.2114  0.6005
  114TCq2    O5 1745   0.171   1.519   1.044 -0.1392  0.0343  0.0814
  114TCq2    O6 1746   0.126   1.310   1.007  0.5306  0.0817 -0.2963
  114TCq2    H2 1747   0.392   1.540   1.164  0.8856  1.0064 -3.3998
  114TCq2    H3 1748   0.330   1.173   0.956  1.0612 -1.0377  0.2465
  114TCq2    H4 1749   0.714   1.271   1.057 -0.7244 -2.1600  2.6919
  115TMC2    C1 1750   2.251   3.897   0.196  0.8238  0.1897 -0.5669
  115TMC2    C2 1751   2.380   3.861   0.172 -0.7456  0.0421  0.2263
  115TMC2    C3 1752   2.485   3.953   0.194  0.3471  1.3581  0.2175
  115TMC2    C4 1753   2.225   4.027   0.237  0.4166 -0.2872 -0.0128
  115TMC2    C5 1754   2.329   4.120   0.251 -0.0165 -0.3340  0.2205
  115TMC2    C6 1755   2.459   4.082   0.237  0.5015  0.6767  0.1670
  115TMC2     C 1756   2.149   3.800   0.150  0.6696 -0.2547  0.5267
  115TMC2     O 1757   2.201   3.707   0.086 -0.3890 -0.6038 -0.1575
  115TMC2     H 1758   2.397   3.761   0.135 -3.3075 -0.0958 -0.5892
  115TMC2    H1 1759   2.121   4.050   0.254  0.2113 -0.9831 -0.3022
  115TMC2    H2 1760   2.543   4.147   0.260  0.6650  1.2103 -1.8930
  115TMC2    C7 1761   2.298   4.262   0.256 -0.4528  0.1796 -0.6692
  115TMC2    C8 1762   2.619   3.886   0.194  0.2005  0.3131  0.6683
  115TMC2    O1 1763   2.191   4.293   0.306  0.4885 -0.3360  0.3847
  115TMC2    O2 1764   2.642   3.776   0.148 -0.1638 -0.3327 -0.5350
  115TMC2    O5 1765   2.669   3.928   0.313  0.1722 -0.2523 -0.3861
  115TMC2    H5 1766   2.617   3.998   0.358  2.8159  1.7833 -0.5431
  116MPD2     C 1767   1.670   3.637   0.080  0.3531  0.0322 -0.5555
  116MPD2    C1 1768   1.796   3.601   0.021  0.1634  1.0978  0.0130
  116MPD2    C2 1769   1.907   3.680   0.043 -0.6469  0.4386  0.2462
  116MPD2    C3 1770   1.904   3.770   0.149 -0.2232  0.2654 -0.4527
  116MPD2    C4 1771   1.789   3.792   0.218 -0.2381  0.8644  0.2523
  116MPD2    C5 1772   1.671   3.725   0.180 -1.0503 -0.5413 -0.1639
  116MPD2     H 1773   1.998   3.665  17.677 -0.5237  0.9511  0.3105
  116MPD2    H1 1774   1.784   3.865   0.298  0.1776  0.6789  0.4485
  116MPD2    H2 1775   1.586   3.574   0.052  0.6398  0.0013 -1.3634
  116MPD2    H3 1776   1.585   3.746   0.242  0.5052  0.7150  1.5699
  116MPD2     N 1777   2.021   3.831   0.199  0.0178 -0.0673 -0.9146
  116MPD2    H5 1778   2.006   3.892   0.279  0.6327 -0.4418 -0.5123
  116MPD2    N1 1779   1.803   3.499  17.617 -0.1925 -0.0697  0.1791
  116MPD2    H7 1780   1.713   3.467  17.583  0.2696  0.1868 -1.2885
  117TMC2    C1 1781   0.736   0.484  13.819  0.0389  0.4372 -0.2475
  117TMC2    C2 1782   0.792   0.376  13.880 -0.5532  0.3054 -1.0145
  117TMC2    C3 1783   0.904   0.406  13.954 -0.2675 -1.1370 -0.3086
  117TMC2    C4 1784   0.773   0.621  13.830  0.2527  0.0974 -0.3076
  117TMC2    C5 1785   0.886   0.637  13.913 -0.5681 -0.3271 -0.1093
  117TMC2    C6 1786   0.956   0.532  13.966 -0.1021 -0.3436  0.6600
  117TMC2     C 1787   0.608   0.468  13.756  0.1737  0.4003 -0.4047
  117TMC2     O 1788   0.582   0.364  13.697 -0.2888  0.0778  0.2095
  117TMC2     H 1789   0.756   0.277  13.852 -1.2853  0.6682 -1.3714
  117TMC2    H1 1790   0.716   0.702  13.786 -0.9552  0.9976  2.9262
  117TMC2    H2 1791   1.054   0.551  14.008  0.7046 -0.6928 -1.0742
  117TMC2    C7 1792   0.932   0.771  13.921 -0.4343 -0.6686  0.3200
  117TMC2    C8 1793   0.968   0.296  14.022  0.6138 -0.4466  0.5158
  117TMC2    O1 1794   1.053   0.794  13.914  0.1938  0.3743 -0.3392
  117TMC2    O2 1795   1.069   0.317  14.091  0.2182  0.0702 -0.2675
  117TMC2    O5 1796   0.882   0.197  14.053 -0.4212 -0.1906 -0.1897
  117TMC2    H5 1797   0.797   0.185  14.006 -0.3780  1.4669 -0.7282
  118MPD2     C 1798   0.685   1.050  13.930 -0.3972 -0.3828  0.3114
  118MPD2    C1 1799   0.812   0.996  13.938 -0.3453 -0.2513 -0.5245
  118MPD2    C2 1800   0.921   1.079  13.910  0.5234  0.1547 -0.3725
  118MPD2    C3 1801   0.901   1.213  13.895  0.3406  0.1143  0.4499
  118MPD2    C4 1802   0.772   1.262  13.879 -0.1885 -0.1273 -0.3431
  118MPD2    C5 1803   0.664   1.183  13.900  0.0120 -0.4248 -0.1444
  118MPD2     H 1804   1.020   1.035  13.914  0.0375 -1.0710 -1.7314
  118MPD2    H1 1805   0.763   1.364  13.844  0.8204  0.6945  1.7713
  118MPD2    H2 1806   0.596   0.989  13.932  0.6385 -1.9300 -0.6937
  118MPD2    H3 1807   0.561   1.219  13.894  0.0677 -0.5064 -1.6103
  118MPD2     N 1808   1.007   1.305  13.890 -0.2460  0.2718  0.1666
  118MPD2    H5 1809   0.986   1.404  13.887 -0.1610  0.3251  1.7873
  118MPD2    N1 1810   0.823   0.852  13.949 -0.3232  0.3804  0.1588
  118MPD2    H7 1811   0.733   0.810  13.970 -0.2397  0.7302  1.2189
  119MPD2     C 1812   4.284   2.401  13.194  0.4028 -0.2082  0.3510
  119MPD2    C1 1813   4.191   2.336  13.273 -0.2388 -0.3018 -0.3351
  119MPD2    C2 1814   4.125   2.222  13.229  0.2452 -0.6196  0.1276
  119MPD2    C3 1815   4.158   2.168  13.105 -0.8598  0.3682  0.2150
  119MPD2    C4 1816   4.259   2.229  13.035 -0.8218 -1.3047  0.0018
  119MPD2    C5 1817   4.324   2.338  13.085 -0.4284 -0.2947 -0.1649
  119MPD2     H 1818   4.056   2.167  13.292 -1.5694  2.1762  0.5827
  119MPD2    H1 1819   4.293   2.188  12.941 -1.0215  0.1746 -0.7025
  119MPD2    H2 1820   4.333   2.491  13.228 -0.8371  0.7363 -0.3689
  119MPD2    H3 1821   4.399   2.383  13.021 -0.1185  1.6365  1.5663
  119MPD2     N 1822   4.114   2.041  13.058  0.1670 -0.2602  0.2802
  119MPD2    H5 1823   4.161   1.998  12.979  0.6876  1.9289 -0.6105
  119MPD2    N1 1824   4.167   2.389  13.406 -0.4702  0.4644 -0.0973
  119MPD2    H7 1825   4.238   2.441  13.456 -0.8458 -0.5234  1.4925
  120TCq2    C1 1826   4.017   1.963  13.114 -0.1374  0.4974  0.1678
  120TCq2    O2 1827   3.940   2.003  13.205  0.1464 -0.3298 -0.1212
  120TCq2    C2 1828   3.996   1.833  13.064 -0.4242 -0.4508 -0.2824
  120TCq2    C3 1829   4.042   1.795  12.936 -0.4715  0.0159 -0.0689
  120TCq2    C4 1830   4.038   1.667  12.894 -0.6671 -0.2790 -0.3382
  120TCq2    C5 1831   3.987   1.573  12.971  0.0072 -0.1653  0.3186
  120TCq2    C6 1832   3.936   1.613  13.093  0.3019  0.3864 -0.6477
  120TCq2    C7 1833   3.939   1.740  13.149 -0.5514 -0.0451 -0.5367
  120TCq2    C8 1834   3.888   1.506  13.179  0.0865 -0.0614 -0.0993
  120TCq2    O4 1835   3.907   1.387  13.148 -0.1537 -0.1574  0.0500
  120TCq2    C9 1836   4.100   1.633  12.764 -0.7513  0.0000  0.0353
  120TCq2    O5 1837   4.098   1.515  12.725 -0.5020 -0.0347  0.0620
  120TCq2    O6 1838   4.157   1.733  12.708 -0.7503  0.5112 -0.0639
  120TCq2    H2 1839   4.088   1.873  12.876  3.6279 -0.7084  2.1613
  120TCq2    H3 1840   3.963   1.474  12.933 -1.7064  0.2163  0.3861
  120TCq2    H4 1841   3.902   1.776  13.245 -1.2256  1.6459 -1.4330
  121TMC2    C1 1842   0.890   3.385  14.039  0.0988 -0.5153  0.1869
  121TMC2    C2 1843   0.998   3.350  13.966 -0.1898 -0.0320  0.1557
  121TMC2    C3 1844   0.983   3.234  13.892  0.8990 -0.1596  0.2624
  121TMC2    C4 1845   0.781   3.315  14.062  0.1762 -0.0265 -0.1363
  121TMC2    C5 1846   0.771   3.200  13.987  0.5222 -0.2622  0.9300
  121TMC2    C6 1847   0.868   3.161  13.899  0.5758  0.0438  0.5436
  121TMC2     C 1848   0.891   3.517  14.093  0.2482  0.1423 -0.5097
  121TMC2     O 1849   0.796   3.555  14.163  0.0008  0.4932 -0.2710
  121TMC2     H 1850   1.088   3.409  13.951 -0.6324  0.4914 -0.4791
  121TMC2    H1 1851   0.702   3.345  14.130  1.0938 -2.0132  1.8222
  121TMC2    H2 1852   0.847   3.075  13.836  1.8752  0.9360 -1.1072
  121TMC2    C7 1853   0.638   3.136  13.974 -0.0257 -0.5252 -0.9488
  121TMC2    C8 1854   1.102   3.195  13.807 -0.1006  0.1822 -0.1213
  121TMC2    O1 1855   0.640   3.026  13.930  0.4562 -0.4168 -0.0188
  121TMC2    O2 1856   1.205   3.262  13.814 -0.5123 -0.1939  0.0239
  121TMC2    O5 1857   1.098   3.065  13.767  0.5379 -0.1539 -0.0887
  121TMC2    H5 1858   1.007   3.049  13.735  0.3154 -0.2127  0.5768
  122MPD2     C 1859   0.907   3.823  14.133 -0.6829 -0.5714 -0.1675
  122MPD2    C1 1860   0.962   3.748  14.026  0.4916  0.4708 -0.2188
  122MPD2    C2 1861   1.003   3.815  13.914  0.3136 -0.1178  0.9364
  122MPD2    C3 1862   0.999   3.952  13.894 -0.7200 -0.2438  0.4388
  122MPD2    C4 1863   0.947   4.025  14.002  0.0912  0.5721  0.5836
  122MPD2    C5 1864   0.909   3.961  14.118  0.4820 -0.3123  0.3384
  122MPD2     H 1865   1.036   3.741  13.841 -1.3988  0.8830 -0.8597
  122MPD2    H1 1866   0.943   4.133  14.002 -1.6867  0.5042 -0.3571
  122MPD2    H2 1867   0.867   3.786  14.227 -1.6633 -0.1458 -0.4146
  122MPD2    H3 1868   0.861   4.015  14.199 -2.1444  0.4443 -1.7255
  122MPD2     N 1869   1.039   4.025  13.779  0.2444  0.1313  0.7957
  122MPD2    H5 1870   1.042   4.126  13.783  0.9723  0.0451  2.3661
  122MPD2    N1 1871   0.966   3.606  14.019  0.2380 -0.0076  0.5132
  122MPD2    H7 1872   0.992   3.566  13.929 -1.4910 -1.5423  0.6876
  123MPD2     C 1873   3.407   1.079  10.505  0.1401  0.1818  0.3267
  123MPD2    C1 1874   3.476   1.147  10.405 -0.4676  0.2342  0.1488
  123MPD2    C2 1875   3.580   1.235  10.441 -0.2308 -0.0395  0.0517
  123MPD2    C3 1876   3.616   1.245  10.573 -0.5728  0.1432  0.1345
  123MPD2    C4 1877   3.554   1.178  10.677 -0.0863 -0.0665  0.0298
  123MPD2    C5 1878   3.447   1.096  10.639  0.7774  0.1550 -0.4965
  123MPD2     H 1879   3.630   1.293  10.365  2.3303 -1.2175  0.8383
  123MPD2    H1 1880   3.582   1.178  10.781 -2.3837  0.5738  0.6602
  123MPD2    H2 1881   3.328   1.009  10.482 -0.2245  0.4552  0.7349
  123MPD2    H3 1882   3.388   1.044  10.713 -1.1700 -0.5476 -2.5572
  123MPD2     N 1883   3.728   1.326  10.596  0.3300  0.1420  0.0740
  123MPD2    H5 1884   3.766   1.357  10.507 -1.1388  1.4190 -0.1191
  123MPD2    N1 1885   3.430   1.133  10.274  0.0728 -0.0386 -0.5120
  123MPD2    H7 1886   3.351   1.071  10.260  1.0233 -0.9142 -1.9734
  124TCq2    C1 1887   3.770   1.382  10.720  0.1415 -0.3322 -0.1664
  124TCq2    O2 1888   3.723   1.368  10.825 -0.3409  0.2356  0.3034
  124TCq2    C2 1889   3.845   1.499  10.695  0.3519 -0.6919  0.8064
  124TCq2    C3 1890   3.823   1.608  10.771  0.0395 -0.1842 -0.5733
  124TCq2    C4 1891   3.855   1.734  10.727  0.1290  0.2372 -0.3287
  124TCq2    C5 1892   3.920   1.747  10.602 -0.1961 -0.5082 -0.6789
  124TCq2    C6 1893   3.963   1.630  10.533  0.3067 -0.5822  0.5016
  124TCq2    C7 1894   3.916   1.500  10.576  0.2504 -0.2099 -0.3239
  124TCq2    C8 1895   3.982   1.641  10.387  0.9055 -0.6014 -0.6772
  124TCq2    O4 1896   3.978   1.538  10.319 -0.3220 -0.4590  0.2641
  124TCq2    C9 1897   3.808   1.855  10.788  0.3582 -0.3922  0.2144
  124TCq2    O5 1898   3.737   1.849  10.895  0.4167  0.9263  0.1632
  124TCq2    O6 1899   3.866   1.963  10.747  0.2797 -0.0018 -0.3629
  124TCq2    H2 1900   3.751   1.600  10.851 -0.1650  0.6929 -0.6639
  124TCq2    H3 1901   3.950   1.843  10.563  1.5993 -0.9889 -0.5154
  124TCq2    H4 1902   3.930   1.417  10.507 -0.0670  0.4416 -1.1693
  125TMC2    C1 1903   0.242   3.691   8.746  0.5480 -0.0090  0.0783
  125TMC2    C2 1904   0.195   3.746   8.859 -0.1487  0.2587 -0.2817
  125TMC2    C3 1905   0.272   3.719   8.974  0.1954  0.2462 -1.3162
  125TMC2    C4 1906   0.341   3.598   8.731 -0.0884  0.4299  0.7710
  125TMC2    C5 1907   0.393   3.557   8.858  0.4483 -0.1692 -0.3093
  125TMC2    C6 1908   0.356   3.615   8.978 -0.7189  0.2954 -0.3548
  125TMC2     C 1909   0.196   3.752   8.629  0.5744  0.1550 -0.2334
  125TMC2     O 1910   0.190   3.871   8.644 -0.3896  0.3929  0.4005
  125TMC2     H 1911   0.107   3.810   8.861 -1.0431 -0.9785 -0.3870
  125TMC2    H1 1912   0.381   3.557   8.639  0.7751  1.5100  0.6569
  125TMC2    H2 1913   0.403   3.600   9.074  0.9297 -2.0660 -1.5577
  125TMC2    C7 1914   0.475   3.438   8.861 -0.3836 -0.0187  0.5146
  125TMC2    C8 1915   0.203   3.738   9.104 -0.6673  0.6204 -0.2487
  125TMC2    O1 1916   0.533   3.421   8.966  0.2175 -0.2071  0.0285
  125TMC2    O2 1917   0.220   3.658   9.196  0.8563 -0.3369 -0.2680
  125TMC2    O5 1918   0.116   3.838   9.104 -0.0482  0.1243 -0.1863
  125TMC2    H5 1919   0.132   3.894   9.025 -2.4149 -0.4232 -1.0521
  126MPD1     C 1920   0.027   3.757   8.143 -1.2366 -0.4998  0.5724
  126MPD1    C1 1921   0.074   3.634   8.172 -0.1133 -0.0430 -0.7544
  126MPD1    C2 1922   0.112   3.598   8.301  0.5552 -0.0987  0.0793
  126MPD1    C3 1923   0.107   3.695   8.397 -0.2716  0.3960  0.2100
  126MPD1    C4 1924   0.042   3.815   8.368 -0.1632 -0.3183  0.3119
  126MPD1    C5 1925   0.005   3.848   8.241  0.5702  0.8069 -0.0408
  126MPD1     H 1926   0.163   3.504   8.322  1.5253  0.4382  0.1498
  126MPD1    H1 1927   0.020   3.887   8.446 -0.1463 -0.7414  0.7024
  126MPD1    H2 1928   0.001   3.785   8.042  0.1579  1.0907  0.6482
  126MPD1    H3 1929   4.687   3.944   8.213 -1.3814  0.1698  0.5234
  126MPD1     N 1930   0.156   3.665   8.530  0.3911  0.6389  0.2367
  126MPD1    H5 1931   0.184   3.568   8.542  0.0699  0.5040 -0.1123
  126MPD1    N1 1932   0.101   3.538   8.073  0.8058 -1.2828  0.0397
  126MPD1    H6 1933   0.088   3.444   8.110  1.2450 -0.8596  1.3059
  126MPD1    H7 1934   0.039   3.547   7.994  1.7349  0.1082 -0.5388
  127MPD2     C 1935   1.079   1.809   9.686  0.3898 -0.2506  0.1884
  127MPD2    C1 1936   1.094   1.824   9.825 -0.1007  0.0652  0.7700
  127MPD2    C2 1937   1.166   1.931   9.869  0.6159  0.0722 -0.2227
  127MPD2    C3 1938   1.224   2.025   9.787  0.7179 -0.8010 -0.1840
  127MPD2    C4 1939   1.220   2.002   9.649  0.0449  0.0124 -0.5349
  127MPD2    C5 1940   1.133   1.899   9.599 -0.3568  0.2998  0.4875
  127MPD2     H 1941   1.189   1.929   9.975  0.9995  0.4087 -0.2989
  127MPD2    H1 1942   1.278   2.054   9.574  1.4307  2.0811  1.9762
  127MPD2    H2 1943   1.023   1.726   9.644  0.6693  0.1679 -1.0325
  127MPD2    H3 1944   1.116   1.889   9.493  0.8000  0.4933  0.2858
  127MPD2     N 1945   1.306   2.127   9.845  0.5336 -0.2194 -0.5975
  127MPD2    H5 1946   1.316   2.109   9.945 -0.8847 -2.2302 -0.8124
  127MPD2    N1 1947   1.042   1.720   9.907  0.4666  0.0099  0.1553
  127MPD2    H7 1948   0.976   1.655   9.866 -0.3121  0.0465  1.3641
  128TCq2    C1 1949   1.060   1.707  10.045  0.1775  0.3134  0.6535
  128TCq2    O2 1950   1.149   1.759  10.112  0.0266  0.0144  0.0462
  128TCq2    C2 1951   0.969   1.615  10.108  0.1475  0.4416 -0.0463
  128TCq2    C3 1952   1.010   1.555  10.224  0.2465 -0.5262 -1.0879
  128TCq2    C4 1953   0.929   1.463  10.285 -0.5972  0.1929 -0.4779
  128TCq2    C5 1954   0.809   1.427  10.229 -0.5010 -0.3560  0.3563
  128TCq2    C6 1955   0.770   1.490  10.108  0.1845  0.5816 -0.8873
  128TCq2    C7 1956   0.855   1.572  10.041 -0.0645 -0.3337  0.4557
  128TCq2    C8 1957   0.627   1.512  10.092 -0.1865  0.0578  0.0158
  128TCq2    O4 1958   0.593   1.612  10.025 -0.2274 -0.5401  0.0880
  128TCq2    C9 1959   0.963   1.424  10.417  0.6181  0.6161 -0.0012
  128TCq2    O5 1960   1.053   1.487  10.475 -0.4233  0.0965  0.3535
  128TCq2    O6 1961   0.878   1.359  10.480 -0.9360 -0.4805  0.2740
  128TCq2    H2 1962   1.105   1.578  10.271  0.7613 -0.9938 -1.9072
  128TCq2    H3 1963   0.747   1.354  10.279  0.2455 -0.2312  1.4851
  128TCq2    H4 1964   0.822   1.627   9.954  1.1744  1.0591  0.8659
  129MPD2     C 1965   3.311   3.971   1.049  0.5277  0.2947 -0.1892
  129MPD2    C1 1966   3.402   3.941   0.950  0.4572 -0.4306  0.5884
  129MPD2    C2 1967   3.491   4.036   0.898  0.0135  0.0867  0.5195
  129MPD2    C3 1968   3.492   4.166   0.947  0.9045  0.3015  0.0513
  129MPD2    C4 1969   3.388   4.195   1.038  0.2129  0.4666 -0.8762
  129MPD2    C5 1970   3.299   4.100   1.086 -0.1089 -0.3775 -0.2169
  129MPD2     H 1971   3.567   3.997   0.832  0.9261  0.8696  1.1046
  129MPD2    H1 1972   3.366   4.298   1.062 -0.6415  0.1219 -0.1927
  129MPD2    H2 1973   3.245   3.903   1.102  0.0220  1.1072  0.2259
  129MPD2    H3 1974   3.220   4.134   1.152  0.6644  1.2922 -0.1292
  129MPD2     N 1975   3.578   4.262   0.891  0.5307  0.1229  0.3850
  129MPD2    H5 1976   3.631   4.232   0.811 -0.9083 -1.2562 -0.0399
  129MPD2    N1 1977   3.418   3.810   0.922 -0.5000 -0.5759  0.3740
  129MPD2    H7 1978   3.503   3.785   0.872  0.3710  1.7328  0.6891
  130TCq2    C1 1979   3.335   3.705   0.949  0.2602 -0.4140 -0.0821
  130TCq2    O2 1980   3.221   3.706   0.989  0.5996 -0.0122 -0.3319
  130TCq2    C2 1981   3.408   3.583   0.966 -0.0644  0.3919 -0.4250
  130TCq2    C3 1982   3.541   3.586   0.997 -0.2021  0.2333  0.3133
  130TCq2    C4 1983   3.603   3.495   1.073  0.0114  0.1974 -0.6236
  130TCq2    C5 1984   3.529   3.399   1.132  0.3692  0.3738  0.3735
  130TCq2    C6 1985   3.394   3.389   1.099 -0.4208  0.3683 -0.5593
  130TCq2    C7 1986   3.336   3.479   1.018 -0.0265  0.2790 -0.4660
  130TCq2    C8 1987   3.303   3.346   1.210  0.2717  0.6613  0.2896
  130TCq2    O4 1988   3.187   3.323   1.183  0.0697 -0.1490  0.3521
  130TCq2    C9 1989   3.742   3.513   1.102  0.5201  0.4660  0.5572
  130TCq2    O5 1990   3.795   3.443   1.197  0.0345  0.1244  0.0587
  130TCq2    O6 1991   3.803   3.593   1.029 -0.2316 -0.0561 -0.7619
  130TCq2    H2 1992   3.599   3.671   0.962  0.7052 -1.1733 -1.5928
  130TCq2    H3 1993   3.589   3.329   1.189 -1.1283 -0.1201  1.3610
  130TCq2    H4 1994   3.241   3.461   0.969 -1.8487  0.1456  3.1233
  131MPD2     C 1995   3.547   1.827   9.651  0.8440  0.3495  0.5874
  131MPD2    C1 1996   3.536   1.814   9.794 -0.0351  0.0540 -0.0792
  131MPD2    C2 1997   3.470   1.702   9.833  1.0469  0.2124 -0.5445
  131MPD2    C3 1998   3.421   1.600   9.755  0.9883  0.5000 -0.2496
  131MPD2    C4 1999   3.432   1.614   9.616  0.1611  0.1764 -0.5935
  131MPD2    C5 2000   3.497   1.724   9.573 -0.0394  0.5251 -0.7956
  131MPD2     H 2001   3.449   1.693   9.939  1.4634  0.0823 -0.4743
  131MPD2    H1 2002   3.411   1.533   9.546  1.8765  1.0693 -2.1535
  131MPD2    H2 2003   3.596   1.913   9.607  1.3823 -1.0454 -1.4912
  131MPD2    H3 2004   3.506   1.723   9.465 -2.9436 -0.3859 -1.0282
  131MPD2     N 2005   3.356   1.492   9.820  0.6975 -0.0796  0.0313
  131MPD2    H5 2006   3.351   1.496   9.921 -1.1145 -2.4177  0.0360
  131MPD2    N1 2007   3.589   1.916   9.872 -0.0965  0.5423 -0.2513
  131MPD2    H7 2008   3.647   1.988   9.830  2.2405 -0.8461  0.6451
  132TCq2    C1 2009   3.870   2.299   9.909  0.0747 -0.5004 -0.6514
  132TCq2    O2 2010   3.875   2.251   9.796  0.2097 -0.1256 -0.1717
  132TCq2    C2 2011   3.785   2.239  10.007  0.5500 -0.2031 -0.6420
  132TCq2    C3 2012   3.816   2.248  10.140 -0.2614  0.6254  0.0491
  132TCq2    C4 2013   3.761   2.158  10.228 -0.3237 -0.3162 -0.1621
  132TCq2    C5 2014   3.678   2.058  10.186 -0.5789 -0.3888 -0.0142
  132TCq2    C6 2015   3.646   2.049  10.058 -0.0393 -0.2450 -0.2746
  132TCq2    C7 2016   3.699   2.140   9.968  0.3581  1.3751  0.4178
  132TCq2    C8 2017   3.569   1.932  10.008 -0.0708 -0.0979 -0.3827
  132TCq2    O4 2018   3.499   1.871  10.084  0.4694  0.3779  0.1026
  132TCq2    C9 2019   3.800   2.169  10.370 -0.1636  0.2638  0.5975
  132TCq2    O5 2020   3.783   2.062  10.434 -0.0819 -0.8230 -0.1714
  132TCq2    O6 2021   3.885   2.252  10.405  0.7332 -0.4169  0.4890
  132TCq2    H2 2022   3.888   2.319  10.179  0.5905 -0.6730  0.8451
  132TCq2    H3 2023   3.641   1.983  10.256  0.7429 -0.7941  0.2420
  132TCq2    H4 2024   3.663   2.140   9.865  1.7036 -1.9844 -0.0628
  133MPD2     C 2025   2.363   1.011   9.853  0.0010  0.1908 -0.1583
  133MPD2    C1 2026   2.266   1.109   9.838 -0.2066 -0.4737  0.5478
  133MPD2    C2 2027   2.306   1.243   9.815  0.4589 -0.0105 -0.7387
  133MPD2    C3 2028   2.434   1.275   9.805  0.3902 -0.2953 -0.4515
  133MPD2    C4 2029   2.525   1.179   9.825  0.0853  0.6854 -0.3581
  133MPD2    C5 2030   2.493   1.045   9.851  0.5044 -0.5173 -0.4602
  133MPD2     H 2031   2.228   1.318   9.802 -1.0408 -1.2190  1.2273
  133MPD2    H1 2032   2.630   1.199   9.807  0.5412  0.3656  1.9433
  133MPD2    H2 2033   2.340   0.906   9.866 -0.6010  0.4687  0.9639
  133MPD2    H3 2034   2.567   0.967   9.867  0.8737  0.2195  1.3819
  133MPD2     N 2035   2.475   1.406   9.774 -0.2310 -0.3451  0.1806
  133MPD2    H5 2036   2.575   1.418   9.786 -0.4781  1.0854  0.7884
  133MPD2    N1 2037   2.132   1.067   9.821  0.2217 -0.1510  0.3186
  133MPD2    H7 2038   2.118   0.974   9.858  0.5102 -0.7380 -1.0426
  134TCq2    C1 2039   2.025   1.130   9.762 -0.0907 -0.1947 -0.5724
  134TCq2    O2 2040   2.027   1.246   9.718 -1.2702  0.0646 -0.0955
  134TCq2    C2 2041   1.901   1.059   9.756 -0.0826 -0.0748 -0.6448
  134TCq2    C3 2042   1.886   0.922   9.768  0.0103  0.0204  0.0106
  134TCq2    C4 2043   1.759   0.872   9.758 -0.4498  0.1903 -0.6067
  134TCq2    C5 2044   1.643   0.949   9.753  0.2773 -0.0652  0.4793
  134TCq2    C6 2045   1.668   1.086   9.748  0.0215  0.1299  0.1139
  134TCq2    C7 2046   1.797   1.141   9.740 -0.0593  0.2451  0.7038
  134TCq2    C8 2047   1.553   1.177   9.699 -0.7295  0.2562 -0.1761
  134TCq2    O4 2048   1.596   1.271   9.635  0.6827 -0.2129  0.3704
  134TCq2    C9 2049   1.744   0.731   9.752  0.1795  0.0031 -0.7804
  134TCq2    O5 2050   1.845   0.669   9.712 -0.0859 -0.0046 -0.0832
  134TCq2    O6 2051   1.620   0.700   9.737 -0.2674  0.6247 -0.0610
  134TCq2    H2 2052   1.970   0.857   9.749 -0.1216 -0.2888  0.4950
  134TCq2    H3 2053   1.547   0.900   9.748 -0.8428  2.4339 -2.3203
  134TCq2    H4 2054   1.804   1.249   9.738  1.1841  0.1680  1.5623
  135MPD2     C 2055   0.576   3.905   8.893  0.5646 -0.6510  0.1892
  135MPD2    C1 2056   0.645   3.806   8.962  0.0827 -0.8457  0.2722
  135MPD2    C2 2057   0.696   3.706   8.888 -0.0794  0.2581 -0.5491
  135MPD2    C3 2058   0.695   3.697   8.751 -0.5262 -0.7935 -0.3739
  135MPD2    C4 2059   0.624   3.793   8.682  0.2131 -0.2750 -0.2816
  135MPD2    C5 2060   0.562   3.893   8.755 -0.8610  0.0879  0.8232
  135MPD2     H 2061   0.751   3.634   8.948 -0.8305 -1.2592 -1.7063
  135MPD2    H1 2062   0.616   3.781   8.575 -1.6803  2.0698 -0.3847
  135MPD2    H2 2063   0.521   3.986   8.941  0.5368 -0.7860  0.3852
  135MPD2    H3 2064   0.500   3.967   8.706 -0.4482  0.7733  1.3535
  135MPD2     N 2065   0.757   3.588   8.678  0.0085  0.2105 -0.2577
  135MPD2    H5 2066   0.719   3.570   8.586 -0.6699  0.7108 -0.0779
  135MPD2    N1 2067   0.650   3.800   9.109  0.0093  0.8229  0.1657
  135MPD2    H7 2068   0.676   3.715   9.158 -1.8654  1.4801  2.3045
  136TCq2    C1 2069   0.580   3.889   9.193  0.3678 -0.0680 -1.1926
  136TCq2    O2 2070   0.503   3.981   9.165 -0.3985  0.2340 -0.1056
  136TCq2    C2 2071   0.587   3.855   9.336 -0.5069  0.2880 -0.0033
  136TCq2    C3 2072   0.476   3.885   9.410  0.1568  0.3910 -0.6680
  136TCq2    C4 2073   0.460   3.815   9.528  0.0267  0.0477  0.3380
  136TCq2    C5 2074   0.549   3.727   9.578 -0.6910 -0.4715  0.1147
  136TCq2    C6 2075   0.652   3.695   9.490 -0.3057  0.5779  0.0313
  136TCq2    C7 2076   0.678   3.758   9.368  0.6648 -0.1859  0.0002
  136TCq2    C8 2077   0.749   3.601   9.543  0.3655 -0.3246  0.8266
  136TCq2    O4 2078   0.858   3.592   9.487 -0.3907 -0.0287  0.3404
  136TCq2    C9 2079   0.348   3.862   9.604  0.1194 -0.3225  0.1515
  136TCq2    O5 2080   0.319   3.799   9.706 -0.4872  0.2199 -0.3259
  136TCq2    O6 2081   0.309   3.980   9.570 -0.2746  0.1981 -0.2312
  136TCq2    H2 2082   0.393   3.946   9.377 -0.8864 -1.3880 -1.3048
  136TCq2    H3 2083   0.526   3.683   9.674 -1.2901  0.1312  0.2424
  136TCq2    H4 2084   0.777   3.739   9.327  1.0068 -0.0912  0.7914
  137MPD2     C 2085   0.592   3.174   9.343 -0.5595 -0.4563 -0.3358
  137MPD2    C1 2086   0.496   3.126   9.255 -0.3196  0.6719 -0.0988
  137MPD2    C2 2087   0.478   2.988   9.239  0.3967 -0.2487  0.2537
  137MPD2    C3 2088   0.557   2.900   9.310  0.2413  0.0363 -0.5637
  137MPD2    C4 2089   0.656   2.950   9.393 -0.1545  0.5308  0.0893
  137MPD2    C5 2090   0.669   3.091   9.412  0.9185 -0.2910 -0.6649
  137MPD2     H 2091   0.400   2.942   9.179  0.9614 -0.8409 -0.0288
  137MPD2    H1 2092   0.725   2.887   9.448 -2.8539 -0.1382  2.6971
  137MPD2    H2 2093   0.596   3.279   9.366 -1.2546  0.2968 -3.7069
  137MPD2    H3 2094   0.739   3.137   9.481 -0.5662  2.6959 -1.1367
  137MPD2     N 2095   0.534   2.767   9.287 -0.1382 -0.1959  0.0326
  137MPD2    H5 2096   0.450   2.748   9.234 -0.9853  2.9294  0.2470
  137MPD2    N1 2097   0.412   3.221   9.192 -0.5355  0.1427  0.0228
  137MPD2    H7 2098   0.409   3.313   9.235 -0.1708  0.6547 -1.0521
  138TCq2    C1 2099   0.322   3.199   9.087 -0.6314 -0.2398 -0.4211
  138TCq2    O2 2100   0.306   3.109   9.004 -0.1861  0.3505  0.5354
  138TCq2    C2 2101   0.221   3.298   9.089 -0.0134 -0.2899  0.4475
  138TCq2    C3 2102   0.160   3.322   8.968  0.5805  0.8499  0.5025
  138TCq2    C4 2103   0.033   3.376   8.977 -0.1715  0.2518 -0.8829
  138TCq2    C5 2104   4.694   3.406   9.093  0.5827  0.3400 -0.1279
  138TCq2    C6 2105   0.041   3.380   9.210  0.4489  0.3354  0.2443
  138TCq2    C7 2106   0.167   3.325   9.215 -0.2857 -1.1689 -1.2757
  138TCq2    C8 2107   4.693   3.376   9.332 -0.9852  0.3602 -0.0449
  138TCq2    O4 2108   0.002   3.289   9.411  0.2275  0.4021  0.7628
  138TCq2    C9 2109   4.675   3.387   8.861 -0.1349 -0.0867  0.1209
  138TCq2    O5 2110   4.569   3.456   8.870 -0.0498 -0.0121  0.2631
  138TCq2    O6 2111   4.718   3.349   8.753 -0.1501 -0.1247  0.4208
  138TCq2    H2 2112   0.196   3.281   8.874 -0.2821 -0.0555  0.5644
  138TCq2    H3 2113   4.593   3.443   9.102  0.1126 -0.7120 -1.1049
  138TCq2    H4 2114   0.209   3.311   9.314 -0.7739  0.5782 -0.8207
  139TMC2    C1 2115   0.741   1.422  13.429  0.5071  0.2730 -0.2721
  139TMC2    C2 2116   0.832   1.505  13.370 -0.2104  0.4281 -0.2014
  139TMC2    C3 2117   0.793   1.628  13.328  0.0181 -0.2106  0.3573
  139TMC2    C4 2118   0.610   1.462  13.425  0.6915 -0.3737 -0.0258
  139TMC2    C5 2119   0.579   1.583  13.371 -0.3740 -0.8539 -0.0589
  139TMC2    C6 2120   0.670   1.669  13.321 -0.5141 -0.1425 -0.7291
  139TMC2     C 2121   0.786   1.288  13.444  0.1300 -0.3295  0.8255
  139TMC2     O 2122   0.904   1.278  13.466  0.6505 -0.5621  0.7855
  139TMC2     H 2123   0.936   1.477  13.359 -0.5282 -0.3959 -1.1193
  139TMC2    H1 2124   0.536   1.413  13.487  1.0711 -2.3432 -1.1535
  139TMC2    H2 2125   0.643   1.761  13.270 -0.5049  1.3971  2.0450
  139TMC2    C7 2126   0.439   1.633  13.345  0.0226 -0.4676 -0.3785
  139TMC2    C8 2127   0.901   1.714  13.272  0.1272 -0.1474 -0.6210
  139TMC2    O1 2128   0.415   1.750  13.313  0.2274  0.1796 -0.6334
  139TMC2    O2 2129   0.871   1.799  13.188 -0.0645 -0.1458  0.0191
  139TMC2    O5 2130   0.997   1.730  13.359  0.4751 -0.5570  0.4571
  139TMC2    H5 2131   0.986   1.682  13.444 -1.6053 -1.4318 -0.3053
  140MPD2     C 2132   0.589   0.981  13.483 -0.1447  0.6405  0.0638
  140MPD2    C1 2133   0.706   1.053  13.479 -0.5609 -0.4180  0.4476
  140MPD2    C2 2134   0.828   0.993  13.489 -0.2776  0.2413  0.0238
  140MPD2    C3 2135   0.837   0.854  13.494 -0.0284 -0.7062 -0.1474
  140MPD2    C4 2136   0.723   0.784  13.500  0.2691 -0.1900  0.0121
  140MPD2    C5 2137   0.598   0.844  13.489 -0.5039 -0.3347 -0.2420
  140MPD2     H 2138   0.920   1.047  13.473 -0.5436 -0.0422 -2.6289
  140MPD2    H1 2139   0.725   0.676  13.499 -1.6248 -0.2369 -0.6932
  140MPD2    H2 2140   0.487   1.019  13.474 -1.4177 -2.5172  1.0484
  140MPD2    H3 2141   0.507   0.786  13.488  0.8569 -2.5013  1.2719
  140MPD2     N 2142   0.964   0.791  13.477 -0.3799  1.0071  0.0737
  140MPD2    H5 2143   1.038   0.841  13.429 -1.8276  1.9712 -1.1627
  140MPD2    N1 2144   0.684   1.190  13.459  0.4699 -0.4247 -0.3044
  140MPD2    H7 2145   0.585   1.205  13.445  0.5267  2.0431  1.8928
  141TCq2    C1 2146   1.396   2.846  13.993 -0.1687 -0.3493 -0.1961
  141TCq2    O2 2147   1.368   2.952  13.943  0.1459  0.7311  0.0903
  141TCq2    C2 2148   1.417   2.858  14.139  0.7705 -0.4412  1.3808
  141TCq2    C3 2149   1.425   2.742  14.213 -0.1834  0.2435 -0.3026
  141TCq2    C4 2150   1.435   2.755  14.348 -0.0592  0.2374 -0.2469
  141TCq2    C5 2151   1.444   2.878  14.410  0.3705 -0.8320 -0.3859
  141TCq2    C6 2152   1.431   2.984  14.330  0.1334  0.3615  0.7474
  141TCq2    C7 2153   1.421   2.981  14.196 -0.2345 -0.2478  0.0683
  141TCq2    C8 2154   1.445   3.122  14.390 -0.6143 -0.7619  0.0050
  141TCq2    O4 2155   1.390   3.216  14.331 -0.2001  0.3148  0.0897
  141TCq2    C9 2156   1.442   2.634  14.427  0.0865  0.6191 -0.1779
  141TCq2    O5 2157   1.463   2.642  14.548 -0.9166  0.4337 -0.5839
  141TCq2    O6 2158   1.421   2.523  14.373  0.3710 -0.3121  0.0515
  141TCq2    H2 2159   1.424   2.641  14.175 -1.6683  0.6895 -1.4543
  141TCq2    H3 2160   1.442   2.881  14.519 -1.7630  1.3854 -0.4846
  141TCq2    H4 2161   1.419   3.069  14.133 -0.1740  0.5414  1.1620
  142MPD2     C 2162   3.605   0.865   9.928  0.2996  0.2221  0.1673
  142MPD2    C1 2163   3.547   0.886   9.803 -0.5522 -0.4544 -0.4835
  142MPD2    C2 2164   3.605   0.992   9.731  0.2108 -0.0845 -0.3985
  142MPD2    C3 2165   3.698   1.076   9.785  0.0654 -0.6427  0.3308
  142MPD2    C4 2166   3.751   1.040   9.910 -0.0512  0.9497  0.8688
  142MPD2    C5 2167   3.709   0.932   9.978  0.3692 -0.1425  0.5565
  142MPD2     H 2168   3.561   1.028   9.638  0.7207  0.3590 -0.4650
  142MPD2    H1 2169   3.834   1.098   9.948  2.3666 -1.2251 -1.1439
  142MPD2    H2 2170   3.572   0.787   9.995 -2.3346  0.2751 -1.0541
  142MPD2    H3 2171   3.748   0.901  10.074 -0.3800 -1.1798  0.5286
  142MPD2     N 2172   3.749   1.191   9.726 -0.0534 -0.0487  0.5085
  142MPD2    H5 2173   3.819   1.236   9.785  0.6433  0.9603 -1.0966
  142MPD2    N1 2174   3.440   0.798   9.762 -0.0220  0.2226  0.4740
  142MPD2    H7 2175   3.415   0.733   9.836  0.2443  0.1597  0.5090
  143TCq2    C1 2176   3.709   1.258   9.611  0.3499 -0.1878 -0.8065
  143TCq2    O2 2177   3.639   1.214   9.522 -0.6001 -0.3848  0.4212
  143TCq2    C2 2178   3.756   1.396   9.613  0.1277 -0.1617  0.0670
  143TCq2    C3 2179   3.830   1.446   9.506  0.3103  0.6657 -0.6168
  143TCq2    C4 2180   3.882   1.569   9.523  0.5310 -0.3648  0.3584
  143TCq2    C5 2181   3.878   1.639   9.640  0.9539 -0.2400 -0.4142
  143TCq2    C6 2182   3.811   1.586   9.745  0.0487  0.5902  0.0412
  143TCq2    C7 2183   3.757   1.461   9.733 -0.9676 -0.2606 -0.4115
  143TCq2    C8 2184   3.838   1.632   9.881 -0.2510  0.1192  0.1062
  143TCq2    O4 2185   3.800   1.554   9.972 -0.3384 -0.3353  0.0982
  143TCq2    C9 2186   3.936   1.646   9.415  0.3176  0.0693  0.2602
  143TCq2    O5 2187   3.924   1.599   9.301  0.0179  0.2683 -0.7493
  143TCq2    O6 2188   4.011   1.743   9.452 -0.1740  0.5661 -0.5381
  143TCq2    H2 2189   3.838   1.396   9.410  2.2596 -0.1893 -0.0098
  143TCq2    H3 2190   3.920   1.738   9.654  0.1780  0.1876 -1.1633
  143TCq2    H4 2191   3.712   1.416   9.820 -0.9100  1.8591  0.7216
  144MPD2     C 2192   1.053   1.032   1.069 -0.4742 -1.0337  1.2492
  144MPD2    C1 2193   1.160   0.980   0.996  0.0308  0.4327 -0.1918
  144MPD2    C2 2194   1.284   0.947   1.058  0.2443  0.1986 -0.8257
  144MPD2    C3 2195   1.287   0.943   1.198  0.1081 -0.4949  0.3777
  144MPD2    C4 2196   1.183   0.996   1.268  0.2535 -0.0561  0.3813
  144MPD2    C5 2197   1.070   1.043   1.207 -0.0877 -0.2991  0.3504
  144MPD2     H 2198   1.365   0.915   0.994 -0.8089 -0.6763 -1.7240
  144MPD2    H1 2199   1.187   0.998   1.376  1.2084 -0.5739  0.3525
  144MPD2    H2 2200   0.961   1.070   1.027  0.8104  1.4997  0.6742
  144MPD2    H3 2201   0.996   1.087   1.272 -2.5110 -3.0630 -0.5395
  144MPD2     N 2202   1.411   0.913   1.265 -0.9949 -0.5901 -0.0175
  144MPD2    H5 2203   1.419   0.953   1.357  0.0674  0.1355 -0.4303
  144MPD2    N1 2204   1.159   0.962   0.851  0.2562  0.7237 -0.1395
  144MPD2    H7 2205   1.229   0.904   0.805  1.3577  0.2755  2.0974
  145TCq2    C1 2206   1.515   0.847   1.210 -0.9841  0.1659  0.0990
  145TCq2    O2 2207   1.531   0.802   1.093  0.3092 -0.3890 -0.3434
  145TCq2    C2 2208   1.630   0.833   1.306 -0.4631 -0.4087  0.0249
  145TCq2    C3 2209   1.754   0.793   1.259 -0.4103 -0.0598  0.0392
  145TCq2    C4 2210   1.868   0.794   1.335  0.4905  0.0975 -0.1327
  145TCq2    C5 2211   1.852   0.843   1.465  0.2757 -0.2770  0.1382
  145TCq2    C6 2212   1.736   0.892   1.507 -0.1784  1.2056  0.0855
  145TCq2    C7 2213   1.618   0.877   1.434  0.2820  0.0829  0.2360
  145TCq2    C8 2214   1.725   0.917   1.655 -0.0147 -0.8004 -0.2316
  145TCq2    O4 2215   1.823   0.894   1.724  0.0859 -0.1242 -0.1809
  145TCq2    C9 2216   1.995   0.761   1.279 -0.1953 -0.1674 -0.1183
  145TCq2    O5 2217   2.091   0.774   1.358 -0.2486  0.4156 -0.2787
  145TCq2    O6 2218   1.995   0.690   1.178  0.0812  0.8599 -0.1726
  145TCq2    H2 2219   1.763   0.783   1.151  1.8092  1.0336  0.1372
  145TCq2    H3 2220   1.943   0.859   1.522  0.0741  0.9027  0.1351
  145TCq2    H4 2221   1.527   0.886   1.492 -0.2961  1.3727 -0.8853
  146TMC2    C1 2222   3.315   4.205  12.503  0.0016  0.4294 -0.4351
  146TMC2    C2 2223   3.260   4.292  12.411 -0.3041  0.1258 -0.6370
  146TMC2    C3 2224   3.223   4.242  12.294  0.4887 -0.0911  0.5329
  146TMC2    C4 2225   3.340   4.072  12.483  0.1674  1.1558 -0.1049
  146TMC2    C5 2226   3.314   4.024  12.358 -0.7956 -0.1726 -0.1825
  146TMC2    C6 2227   3.252   4.104  12.264 -0.3587  0.8652 -0.1194
  146TMC2     C 2228   3.353   4.267  12.631 -0.6387  0.2195 -0.1832
  146TMC2     O 2229   3.369   4.386  12.636  0.2938  0.1617  0.3299
  146TMC2     H 2230   3.224   4.390  12.440  0.8085 -0.3009  2.1650
  146TMC2    H1 2231   3.388   4.013  12.560  2.3461  2.2127 -0.6522
  146TMC2    H2 2232   3.235   4.056  12.168  0.5955 -0.1940  0.2433
  146TMC2    C7 2233   3.374   3.898  12.302  0.2065  0.1432 -0.2139
  146TMC2    C8 2234   3.147   4.322  12.198 -0.8278 -0.2103  0.0282
  146TMC2    O1 2235   3.368   3.880  12.180 -0.3275  0.3734 -0.1544
  146TMC2    O2 2236   3.139   4.443  12.207 -0.3755 -0.4232  0.3266
  146TMC2    O5 2237   3.056   4.234  12.160 -0.2845 -0.3469  0.3001
  146TMC2    H5 2238   3.070   4.139  12.180  1.9056 -0.1921 -0.4112
  147MPD2     C 2239   3.458   3.394  12.347 -0.8434  0.1746 -0.0958
  147MPD2    C1 2240   3.496   3.457  12.465 -0.2242 -0.0452  0.7236
  147MPD2    C2 2241   3.489   3.597  12.482 -0.5908  0.1090 -0.3890
  147MPD2    C3 2242   3.442   3.672  12.377 -0.2761 -0.2559  0.4350
  147MPD2    C4 2243   3.421   3.605  12.253  0.3213  0.4893  0.5679
  147MPD2    C5 2244   3.431   3.473  12.242  0.5813 -0.9678 -0.5363
  147MPD2     H 2245   3.504   3.648  12.577 -2.0953  2.5782 -1.4817
  147MPD2    H1 2246   3.393   3.657  12.163  0.3690  0.9796  0.8362
  147MPD2    H2 2247   3.460   3.286  12.337 -0.9760 -0.1220  2.9009
  147MPD2    H3 2248   3.420   3.433  12.141  2.0692  1.3587 -1.6310
  147MPD2     N 2249   3.424   3.812  12.398 -0.7790  0.5743  0.5710
  147MPD2    H5 2250   3.421   3.849  12.493 -1.9789  1.1415  0.3040
  147MPD2    N1 2251   3.555   3.375  12.562 -0.4948 -0.5507  0.1653
  147MPD2    H7 2252   3.557   3.278  12.532  0.3060  0.3528 -2.6939
  148MPD2     C 2253   2.937   2.413  10.521 -0.1652 -0.2183 -0.3795
  148MPD2    C1 2254   2.978   2.292  10.578 -0.7393 -0.4060  0.2736
  148MPD2    C2 2255   2.879   2.189  10.593 -0.2510 -0.2348 -0.3889
  148MPD2    C3 2256   2.759   2.200  10.535  0.0533  0.5221 -0.3059
  148MPD2    C4 2257   2.727   2.320  10.467  0.4668  0.3012 -0.3321
  148MPD2    C5 2258   2.814   2.424  10.457 -0.2521 -0.0419 -0.4406
  148MPD2     H 2259   2.904   2.099  10.648  1.1643 -0.8410 -2.0222
  148MPD2    H1 2260   2.634   2.321  10.412  0.9705 -2.3287 -1.2161
  148MPD2    H2 2261   3.010   2.491  10.504 -0.1254  0.0757  1.1588
  148MPD2    H3 2262   2.782   2.524  10.429  0.5204 -0.5692 -3.1904
  148MPD2     N 2263   2.666   2.090  10.524  0.2972 -0.1459  0.0443
  148MPD2    H5 2264   2.585   2.099  10.464 -1.3471 -1.5564  2.0365
  148MPD2    N1 2265   3.101   2.265  10.631  0.3593 -0.6196 -0.0050
  148MPD2    H7 2266   3.120   2.172  10.668  2.8826 -0.5760 -1.1730
  149TCq2    C1 2267   3.214   2.343  10.620 -0.5946 -0.1743 -0.2328
  149TCq2    O2 2268   3.219   2.465  10.596 -0.5062 -0.1939 -0.8131
  149TCq2    C2 2269   3.330   2.266  10.653 -0.3091  0.2442  0.2400
  149TCq2    C3 2270   3.448   2.337  10.673 -0.1043 -0.5430 -0.1922
  149TCq2    C4 2271   3.568   2.269  10.693 -0.8666  0.1181  0.4465
  149TCq2    C5 2272   3.574   2.131  10.661 -0.0334 -0.6841 -0.2402
  149TCq2    C6 2273   3.458   2.070  10.635  0.5574 -0.4375  0.0984
  149TCq2    C7 2274   3.336   2.129  10.643 -0.2251 -0.0656 -0.4352
  149TCq2    C8 2275   3.454   1.930  10.613  0.0659 -0.0817  0.0377
  149TCq2    O4 2276   3.348   1.874  10.628 -0.7226 -0.5277 -0.4099
  149TCq2    C9 2277   3.694   2.338  10.692  0.6378  0.5212 -0.5724
  149TCq2    O5 2278   3.690   2.453  10.638 -0.4544  0.0117  0.0417
  149TCq2    O6 2279   3.791   2.273  10.720 -0.4244  0.0679 -0.1554
  149TCq2    H2 2280   3.445   2.445  10.678  0.6106 -0.5643  0.5462
  149TCq2    H3 2281   3.665   2.073  10.670  1.4141  1.6335 -0.0738
  149TCq2    H4 2282   3.243   2.076  10.626 -0.7887  0.7742  0.0138
  150MPD2     C 2283   0.504   1.319  11.930 -0.0219 -0.2750  0.4425
  150MPD2    C1 2284   0.441   1.431  11.882 -0.2229  0.4845 -0.0827
  150MPD2    C2 2285   0.487   1.561  11.912 -0.2720  0.0185 -0.1031
  150MPD2    C3 2286   0.603   1.571  11.987  0.5227  0.4090  0.4532
  150MPD2    C4 2287   0.665   1.454  12.038 -0.3194  0.8020  0.5387
  150MPD2    C5 2288   0.613   1.336  12.008 -0.4673  0.0288  0.0960
  150MPD2     H 2289   0.446   1.649  11.864  3.0186  1.9741  0.6960
  150MPD2    H1 2290   0.754   1.450  12.101  1.6873  1.2426 -2.2380
  150MPD2    H2 2291   0.463   1.222  11.904 -1.5574  1.1058 -2.3038
  150MPD2    H3 2292   0.677   1.254  12.037 -0.4392 -0.5303 -1.5865
  150MPD2     N 2293   0.648   1.705  12.014  0.3517 -0.0846 -0.2843
  150MPD2    H5 2294   0.597   1.783  11.974  0.4748 -1.0494 -2.2857
  150MPD2    N1 2295   0.321   1.401  11.815 -1.4578  0.0622  0.0955
  150MPD2    H7 2296   0.304   1.303  11.793  1.7217 -0.4298 -0.2633
  151TCq2    C1 2297   0.757   1.739  12.090 -0.1973  0.4816  0.8166
  151TCq2    O2 2298   0.850   1.667  12.112 -0.5797  0.1188  0.2743
  151TCq2    C2 2299   0.777   1.880  12.132  0.0872  0.0544 -0.5554
  151TCq2    C3 2300   0.678   1.970  12.136  0.0050  0.9526  0.0556
  151TCq2    C4 2301   0.705   2.103  12.136 -0.1698  0.0104 -0.2353
  151TCq2    C5 2302   0.835   2.147  12.130 -0.4228 -0.1001 -1.0585
  151TCq2    C6 2303   0.938   2.058  12.146  0.3803 -0.0161  0.1085
  151TCq2    C7 2304   0.905   1.925  12.138 -0.0138  0.4015 -0.7709
  151TCq2    C8 2305   1.083   2.094  12.153  1.5297 -0.1165 -0.0799
  151TCq2    O4 2306   1.107   2.205  12.112  0.0651  0.0826 -0.2172
  151TCq2    C9 2307   0.591   2.192  12.134 -0.2440 -0.8601  0.3624
  151TCq2    O5 2308   0.485   2.168  12.200  0.3063  0.3411  0.1007
  151TCq2    O6 2309   0.612   2.312  12.093 -0.9595 -0.0542 -0.5951
  151TCq2    H2 2310   0.574   1.942  12.132  0.1747  0.5645 -1.4063
  151TCq2    H3 2311   0.857   2.253  12.124 -0.0686 -0.0610  1.0956
  151TCq2    H4 2312   0.990   1.859  12.121 -0.2809 -0.0220 -0.4625
  152MPD2     C 2313   0.401   1.444  12.301 -0.0975  0.1538 -0.3031
  152MPD2    C1 2314   0.355   1.570  12.318 -1.0857  0.6145 -0.2226
  152MPD2    C2 2315   0.237   1.604  12.250 -0.4341 -0.4700 -0.6299
  152MPD2    C3 2316   0.169   1.513  12.177  0.3069  0.3594  0.3864
  152MPD2    C4 2317   0.205   1.374  12.172  0.4234 -0.4430 -0.2872
  152MPD2    C5 2318   0.326   1.348  12.237  0.1092 -0.1032  0.2424
  152MPD2     H 2319   0.198   1.705  12.256 -1.0277 -0.5746 -2.6787
  152MPD2    H1 2320   0.149   1.300  12.116  1.1541 -0.8774 -0.4522
  152MPD2    H2 2321   0.498   1.409  12.333 -1.3171 -0.8166  2.3348
  152MPD2    H3 2322   0.365   1.249  12.219  2.2756  0.3711  2.3070
  152MPD2     N 2323   0.059   1.550  12.101 -0.1412 -0.5208 -0.4795
  152MPD2    H5 2324   0.036   1.648  12.119 -1.6552 -1.0761  0.6521
  152MPD2    N1 2325   0.452   1.658  12.364 -0.7543  0.4630  0.6230
  152MPD2    H7 2326   0.533   1.618  12.410  1.5740  4.5906  0.0739
  153TCq2    C1 2327   0.446   1.796  12.376  0.1386  0.9856  0.2964
  153TCq2    O2 2328   0.352   1.874  12.359  0.2839  0.3732  0.0750
  153TCq2    C2 2329   0.572   1.849  12.427 -0.7410  0.2114  0.4205
  153TCq2    C3 2330   0.686   1.781  12.437 -0.1425  0.1534 -0.2590
  153TCq2    C4 2331   0.801   1.847  12.459 -0.2503 -0.2493 -0.1054
  153TCq2    C5 2332   0.805   1.984  12.470 -0.4391 -0.2668 -0.0878
  153TCq2    C6 2333   0.689   2.050  12.470 -0.0451  0.2694 -0.2504
  153TCq2    C7 2334   0.570   1.984  12.446  0.0911 -0.1019  0.6244
  153TCq2    C8 2335   0.681   2.196  12.509 -0.6062 -1.0187  0.6845
  153TCq2    O4 2336   0.586   2.257  12.467 -0.5965 -0.1507  0.6410
  153TCq2    C9 2337   0.921   1.772  12.467 -0.9516 -0.7776 -0.9364
  153TCq2    O5 2338   1.026   1.839  12.483  0.2221 -0.6239 -0.0307
  153TCq2    O6 2339   0.922   1.645  12.455  0.0712  0.3873 -0.0316
  153TCq2    H2 2340   0.688   1.673  12.437 -1.1162  0.1373 -2.1721
  153TCq2    H3 2341   0.898   2.034  12.494  0.4632 -1.0850 -1.8568
  153TCq2    H4 2342   0.480   2.044  12.448  0.0310 -0.1532 -1.1280
  154MPD2     C 2343   0.777   1.343   0.741  0.5262 -0.0052 -0.0885
  154MPD2    C1 2344   0.840   1.420   0.840 -0.1134 -0.3392 -0.8440
  154MPD2    C2 2345   0.770   1.533   0.885  0.6091 -0.5352 -0.3889
  154MPD2    C3 2346   0.644   1.564   0.836 -0.3260 -0.4256  0.0181
  154MPD2    C4 2347   0.586   1.482   0.747 -0.1472  0.4105  0.2422
  154MPD2    C5 2348   0.657   1.373   0.698  0.4181  0.4768 -0.0727
  154MPD2     H 2349   0.808   1.597   0.964  0.3168 -3.0581  1.7858
  154MPD2    H1 2350   0.478   1.483   0.736 -0.0320  0.3419 -0.9059
  154MPD2    H2 2351   0.822   1.255   0.697  1.8085  0.5793  0.0412
  154MPD2    H3 2352   0.603   1.301   0.637  0.3573  1.5937 -1.3336
  154MPD2     N 2353   0.565   1.669   0.887 -0.3094 -0.1391  0.2562
  154MPD2    H5 2354   0.603   1.735   0.955 -0.0792 -0.0672  0.0543
  154MPD2    N1 2355   0.966   1.379   0.884 -0.0289 -0.2593  0.0566
  154MPD2    H7 2356   0.991   1.283   0.863 -0.4795 -0.0894 -1.2202
  155TCq2    C1 2357   1.060   1.452   0.947  0.4902 -0.2909 -0.1868
  155TCq2    O2 2358   1.060   1.572   0.983 -0.0552 -0.0555  0.5752
  155TCq2    C2 2359   1.185   1.377   0.966 -0.0640 -0.3462  0.2001
  155TCq2    C3 2360   1.268   1.440   1.050  0.2009 -0.7346  0.8968
  155TCq2    C4 2361   1.406   1.426   1.035 -0.5065  0.0551  0.6834
  155TCq2    C5 2362   1.464   1.350   0.938 -0.6240 -0.7698 -0.2001
  155TCq2    C6 2363   1.379   1.301   0.841 -0.4639 -0.1588 -0.5043
  155TCq2    C7 2364   1.243   1.312   0.857 -0.2666  0.4416 -0.9275
  155TCq2    C8 2365   1.443   1.211   0.750 -0.0242  0.0730 -0.3004
  155TCq2    O4 2366   1.368   1.131   0.692  0.3510 -0.3602 -0.6286
  155TCq2    C9 2367   1.495   1.482   1.135 -0.3996 -0.6890 -0.0695
  155TCq2    O5 2368   1.612   1.483   1.101  0.0897  0.1540  0.3144
  155TCq2    O6 2369   1.452   1.527   1.244  0.1666  0.0659 -0.5713
  155TCq2    H2 2370   1.235   1.496   1.136  0.9788  0.4870  0.3932
  155TCq2    H3 2371   1.566   1.318   0.954 -0.7093 -1.3002 -0.7341
  155TCq2    H4 2372   1.183   1.273   0.776 -0.7834  0.9893 -0.8087
  156MPD2     C 2373   0.054   3.454  12.826  0.3342  0.3493  0.1595
  156MPD2    C1 2374   0.064   3.530  12.709  0.5889 -0.2770 -0.5017
  156MPD2    C2 2375   0.178   3.612  12.693 -0.1542  0.2447 -0.3879
  156MPD2    C3 2376   0.273   3.620  12.802 -0.5126  0.4327  0.0474
  156MPD2    C4 2377   0.256   3.548  12.921 -0.1037  0.0875  0.1023
  156MPD2    C5 2378   0.143   3.471  12.934 -0.5845  0.6790  0.4122
  156MPD2     H 2379   0.201   3.666  12.602 -0.7626  1.1735  0.0172
  156MPD2    H1 2380   0.331   3.528  12.996 -0.7408 -1.1315  0.4268
  156MPD2    H2 2381   4.694   3.385  12.843 -0.0380  0.9390  0.7504
  156MPD2    H3 2382   0.126   3.414  13.025 -0.1516 -2.8558 -1.6929
  156MPD2     N 2383   0.376   3.713  12.796 -0.3043  0.3412  0.4701
  156MPD2    H5 2384   0.382   3.776  12.716  0.1659 -0.3998 -0.0784
  156MPD2    N1 2385   4.687   3.531  12.617  0.1407  0.7209 -0.3196
  156MPD2    H7 2386   4.608   3.475  12.645  0.0582  0.0439 -1.9416
  157TCq2    C1 2387   4.684   3.605  12.502 -0.5815  0.9065  0.2043
  157TCq2    O2 2388   0.047   3.674  12.446 -0.3001  1.0015  0.1410
  157TCq2    C2 2389   4.559   3.597  12.430  0.3596 -0.1933  0.2943
  157TCq2    C3 2390   4.441   3.561  12.492  0.3534 -0.4912  0.3037
  157TCq2    C4 2391   4.329   3.551  12.414  0.3282  0.2166 -0.1624
  157TCq2    C5 2392   4.340   3.572  12.281  1.0079 -0.1918  0.3961
  157TCq2    C6 2393   4.451   3.613  12.217 -0.3547  0.0311 -0.1617
  157TCq2    C7 2394   4.568   3.625  12.297  0.7373  0.5317  0.4515
  157TCq2    C8 2395   4.454   3.641  12.076  0.1825 -0.7024 -0.3281
  157TCq2    O4 2396   4.561   3.654  12.017  0.9286 -0.2570 -0.3331
  157TCq2    C9 2397   4.200   3.529  12.476 -0.2940 -0.2272  0.1825
  157TCq2    O5 2398   4.099   3.548  12.404 -0.3652 -0.3584 -0.0708
  157TCq2    O6 2399   4.201   3.508  12.601  0.4336 -0.1641  0.5448
  157TCq2    H2 2400   4.438   3.564  12.600 -1.1222 -0.5727  0.2682
  157TCq2    H3 2401   4.248   3.569  12.224  0.0851 -1.6738  1.9530
  157TCq2    H4 2402   4.661   3.660  12.253  2.1333 -2.8716  0.7055
  158TMC2    C1 2403   0.650   2.814  13.230  0.2044  0.6473  0.1032
  158TMC2    C2 2404   0.690   2.868  13.107  0.1482  0.0657 -0.1830
  158TMC2    C3 2405   0.594   2.900  13.020  0.5410  0.0047 -0.4525
  158TMC2    C4 2406   0.518   2.798  13.265 -0.1359  0.2268  0.1216
  158TMC2    C5 2407   0.427   2.833  13.172  0.6110  0.4400 -0.3476
  158TMC2    C6 2408   0.464   2.881  13.051 -0.0943  0.7905 -0.4243
  158TMC2     C 2409   0.757   2.773  13.319 -0.0585  0.0362 -0.6292
  158TMC2     O 2410   0.872   2.818  13.320  0.4763  0.3242 -0.3882
  158TMC2     H 2411   0.795   2.886  13.086  0.4571 -1.5935 -0.0741
  158TMC2    H1 2412   0.485   2.765  13.363  0.3575 -0.4183  0.0690
  158TMC2    H2 2413   0.388   2.889  12.974  1.2790  1.8676 -1.6393
  158TMC2    C7 2414   0.289   2.826  13.202  0.6043 -0.3719  0.1806
  158TMC2    C8 2415   0.625   2.885  12.877 -0.2256 -0.2899  0.0285
  158TMC2    O1 2416   0.225   2.907  13.135  0.1016 -0.2334 -0.3391
  158TMC2    O2 2417   0.537   2.858  12.802 -0.5807  0.3117 -0.8664
  158TMC2    O5 2418   0.729   2.968  12.841 -0.0186 -0.0194  0.3566
  158TMC2    H5 2419   0.804   2.993  12.900 -0.9616 -0.9136  1.9463
  159MPD2     C 2420   0.951   2.504  13.708 -0.6845  0.5070  0.9210
  159MPD2    C1 2421   0.816   2.497  13.717 -0.0420  0.2368  0.4301
  159MPD2    C2 2422   0.744   2.558  13.615  0.6258  0.6840  0.3585
  159MPD2    C3 2423   0.803   2.638  13.521 -0.5638 -0.3534 -0.3451
  159MPD2    C4 2424   0.941   2.652  13.521 -0.0103  0.1661 -0.2201
  159MPD2    C5 2425   1.014   2.580  13.608  0.7654  1.0601  0.0489
  159MPD2     H 2426   0.636   2.556  13.617  0.5870  0.8899 -1.2547
  159MPD2    H1 2427   0.997   2.714  13.451 -2.5742 -0.5756 -2.9197
  159MPD2    H2 2428   1.012   2.442  13.773 -2.2187 -0.0851  1.7893
  159MPD2    H3 2429   1.122   2.581  13.598  0.8641  1.2664  1.1798
  159MPD2     N 2430   0.719   2.691  13.420  0.1807 -0.2069  0.2042
  159MPD2    H5 2431   0.626   2.650  13.414 -1.2216  3.2096 -0.9591
  159MPD2    N1 2432   0.755   2.407  13.809  0.3673 -0.2379 -1.0801
  159MPD2    H7 2433   0.820   2.362  13.872  0.2982 -0.8137 -1.4216
  160TMC2    C1 2434   0.923   1.323   2.145 -0.7143  0.0265  0.1093
  160TMC2    C2 2435   1.046   1.296   2.186  0.1727 -0.1591 -0.6316
  160TMC2    C3 2436   1.125   1.210   2.118  0.0427 -0.8349  0.4398
  160TMC2    C4 2437   0.875   1.288   2.021  0.2994  0.3290  0.2500
  160TMC2    C5 2438   0.961   1.207   1.951  0.4539  0.2204 -0.0403
  160TMC2    C6 2439   1.083   1.169   1.996  0.2691  0.0350  0.0655
  160TMC2     C 2440   0.841   1.410   2.233 -0.2373  0.2000  0.0017
  160TMC2     O 2441   0.888   1.495   2.308  0.1064 -0.6466  0.1884
  160TMC2     H 2442   1.087   1.330   2.280 -0.5623  1.0866 -0.7611
  160TMC2    H1 2443   0.777   1.316   1.984  0.1278  0.0880  0.5295
  160TMC2    H2 2444   1.146   1.103   1.936  1.0784 -1.7024  2.8342
  160TMC2    C7 2445   0.934   1.174   1.812  0.1039  0.3804 -0.0168
  160TMC2    C8 2446   1.238   1.140   2.191 -0.0871  0.3107 -0.0666
  160TMC2    O1 2447   0.987   1.074   1.771 -0.2122  0.0273 -0.3374
  160TMC2    O2 2448   1.262   1.172   2.307 -0.4028  0.0868 -0.3082
  160TMC2    O5 2449   1.287   1.041   2.106  0.2806 -0.3381 -0.1726
  160TMC2    H5 2450   1.366   0.997   2.142  0.3187 -1.1806 -1.2850
  161MPD2     C 2451   0.633   1.591   2.350 -0.4444  0.4755 -0.3963
  161MPD2    C1 2452   0.611   1.500   2.248 -0.5831 -0.2722  0.2750
  161MPD2    C2 2453   0.482   1.495   2.179  0.5882  0.4747  0.8724
  161MPD2    C3 2454   0.389   1.591   2.199  0.3669 -0.8788  0.6019
  161MPD2    C4 2455   0.406   1.685   2.297  0.6242 -0.8430 -0.0768
  161MPD2    C5 2456   0.527   1.683   2.368  0.0421 -0.0099 -0.6364
  161MPD2     H 2457   0.459   1.415   2.109 -2.5865  2.0906  0.0678
  161MPD2    H1 2458   0.338   1.770   2.296 -0.2040 -1.5265 -1.4330
  161MPD2    H2 2459   0.727   1.606   2.402 -0.5144  0.8674 -0.3838
  161MPD2    H3 2460   0.544   1.766   2.436 -1.4982 -0.3890  0.2314
  161MPD2     N 2461   0.269   1.601   2.132 -0.0497 -1.0796 -0.2954
  161MPD2    H5 2462   0.206   1.674   2.164  0.7241 -0.6871  0.3317
  161MPD2    N1 2463   0.711   1.409   2.198 -0.0480  0.0194  0.5201
  161MPD2    H7 2464   0.682   1.331   2.139 -2.0325  0.7207  0.5882
  162TMC2    C1 2465   3.128   2.836   0.615 -0.6126 -0.1981  0.7354
  162TMC2    C2 2466   3.103   2.935   0.528  0.3206 -0.1149  0.6868
  162TMC2    C3 2467   2.978   2.972   0.499 -0.5226 -0.3042 -0.3042
  162TMC2    C4 2468   3.020   2.762   0.669 -0.5331  0.4167 -0.1774
  162TMC2    C5 2469   2.892   2.802   0.641  0.1814 -0.0193  0.2748
  162TMC2    C6 2470   2.870   2.904   0.549  0.1073  0.4034 -0.2040
  162TMC2     C 2471   3.263   2.816   0.652  0.1113 -0.2529 -0.1337
  162TMC2     O 2472   3.352   2.852   0.570 -0.0609  0.4327 -0.7734
  162TMC2     H 2473   3.179   2.993   0.477 -0.4829  1.5508  1.3635
  162TMC2    H1 2474   3.044   2.676   0.729 -0.3127  0.1683 -0.6205
  162TMC2    H2 2475   2.766   2.931   0.536 -0.6538 -1.0984  2.6565
  162TMC2    C7 2476   2.783   2.757   0.718  0.4877  0.8271 -0.1010
  162TMC2    C8 2477   2.957   3.093   0.430  0.0373 -0.1420 -0.1636
  162TMC2    O1 2478   2.672   2.742   0.669  0.3726 -0.2138 -0.4270
  162TMC2    O2 2479   3.034   3.154   0.358  0.1311  0.1152 -0.2798
  162TMC2    O5 2480   2.875   3.159   0.508  0.1308  0.4011  0.3313
  162TMC2    H5 2481   2.811   3.102   0.556 -0.8969  0.7909 -0.5691
  163MPD2     C 2482   3.628   2.711   0.996 -0.0832  0.3012  0.4026
  163MPD2    C1 2483   3.635   2.765   0.868 -0.4374 -0.4339 -0.6443
  163MPD2    C2 2484   3.517   2.810   0.806  0.5257 -0.9780  0.2832
  163MPD2    C3 2485   3.402   2.757   0.851 -0.6139 -0.3717 -0.0332
  163MPD2    C4 2486   3.395   2.697   0.968 -0.0438  0.0536  0.1884
  163MPD2    C5 2487   3.505   2.672   1.048  0.2353  0.3091  0.2013
  163MPD2     H 2488   3.518   2.863   0.712 -0.8387  0.1216  0.8973
  163MPD2    H1 2489   3.299   2.669   1.009 -0.1744  0.8592  0.4431
  163MPD2    H2 2490   3.715   2.685   1.055 -0.4030 -0.5181  0.5031
  163MPD2    H3 2491   3.490   2.632   1.147  1.5077  0.3414  0.4034
  163MPD2     N 2492   3.281   2.770   0.785 -0.4694  0.4822 -0.0091
  163MPD2    H5 2493   3.196   2.740   0.833 -0.5326  1.9074  0.7703
  163MPD2    N1 2494   3.759   2.781   0.803  0.8022 -0.2329 -0.0804
  163MPD2    H7 2495   3.843   2.747   0.850  0.6147 -0.3160  0.1895
  164TCq2    C1 2496   3.611   2.667  11.297 -0.1797 -0.6823 -0.4316
  164TCq2    O2 2497   3.572   2.691  11.409  0.2413 -0.1671 -0.4667
  164TCq2    C2 2498   3.533   2.718  11.186  0.1603 -0.2410 -0.1051
  164TCq2    C3 2499   3.578   2.718  11.055  0.9865  0.8881 -0.2410
  164TCq2    C4 2500   3.504   2.773  10.957 -0.1555  0.9712  0.1623
  164TCq2    C5 2501   3.383   2.832  10.990 -0.5814  0.2541 -0.2060
  164TCq2    C6 2502   3.349   2.851  11.127 -0.1708 -0.0813 -0.1381
  164TCq2    C7 2503   3.415   2.788  11.225 -0.4021 -0.0401 -0.1599
  164TCq2    C8 2504   3.212   2.901  11.149 -0.2962 -0.5365  1.0334
  164TCq2    O4 2505   3.146   2.922  11.047 -0.0079 -0.0367 -0.0494
  164TCq2    C9 2506   3.551   2.756  10.820  0.0957  0.4849  0.2756
  164TCq2    O5 2507   3.666   2.710  10.800  0.2374 -0.1988 -0.4605
  164TCq2    O6 2508   3.468   2.778  10.724 -0.3579  0.3277  0.6344
  164TCq2    H2 2509   3.671   2.665  11.038  0.3350  0.0902 -1.3140
  164TCq2    H3 2510   3.312   2.869  10.917 -0.8162  2.2855  1.0642
  164TCq2    H4 2511   3.373   2.794  11.325  1.0298  1.1010  0.3702
  165MPD2     C 2512   4.070   0.568   1.445 -0.2914 -0.2472 -0.0210
  165MPD2    C1 2513   3.984   0.672   1.469 -0.5013  0.1862 -0.0681
  165MPD2    C2 2514   4.014   0.757   1.576  0.1155 -0.3032  0.7822
  165MPD2    C3 2515   4.118   0.739   1.663 -0.4184  0.3738 -0.2924
  165MPD2    C4 2516   4.200   0.635   1.639 -0.3999  0.3926 -0.1453
  165MPD2    C5 2517   4.175   0.550   1.530  0.0425  0.2918 -1.0134
  165MPD2     H 2518   3.959   0.850   1.586 -0.6635 -0.6672 -0.1349
  165MPD2    H1 2519   4.292   0.615   1.692  1.7430  0.9799 -3.6328
  165MPD2    H2 2520   4.058   0.488   1.373  0.1987 -1.9315  1.7771
  165MPD2    H3 2521   4.252   0.476   1.507 -0.8881 -0.9437 -0.1526
  165MPD2     N 2522   4.152   0.829   1.765  0.0268 -0.3543 -0.2686
  165MPD2    H5 2523   4.234   0.798   1.817 -0.1539 -0.3896 -0.0088
  165MPD2    N1 2524   3.870   0.685   1.387  0.2758 -0.2966 -0.5370
  165MPD2    H7 2525   3.873   0.629   1.303 -2.0787  1.0227 -1.4925
  166TCq2    C1 2526   4.065   0.921   1.819 -1.0801 -0.0895 -0.2342
  166TCq2    O2 2527   3.950   0.954   1.789  0.3693 -0.0766  0.0771
  166TCq2    C2 2528   4.122   1.013   1.924 -0.2819 -0.0637 -0.7613
  166TCq2    C3 2529   4.036   1.089   1.995  0.1005  0.2573 -0.1327
  166TCq2    C4 2530   4.091   1.168   2.090  0.1237  0.2061 -0.6940
  166TCq2    C5 2531   4.229   1.186   2.109 -0.2312  0.2231 -0.3712
  166TCq2    C6 2532   4.309   1.105   2.037 -0.0193  0.4628  0.5383
  166TCq2    C7 2533   4.261   1.011   1.946  0.1956  1.3272  0.8233
  166TCq2    C8 2534   4.457   1.112   2.048 -1.1037  0.9011  0.2425
  166TCq2    O4 2535   4.513   1.027   1.981 -0.1069 -0.2856  0.4457
  166TCq2    C9 2536   4.010   1.237   2.191 -0.3922 -0.3885  0.3508
  166TCq2    O5 2537   3.881   1.235   2.172 -0.1021  0.0237  0.0963
  166TCq2    O6 2538   4.061   1.331   2.262  0.2783  0.2467 -0.0210
  166TCq2    H2 2539   3.929   1.071   1.992  0.1955  0.4063 -3.4084
  166TCq2    H3 2540   4.273   1.246   2.188 -1.8389  0.6864  0.1923
  166TCq2    H4 2541   4.322   0.969   1.868  0.1236  1.1379  0.8695
  167TMC2    C1 2542   2.771   2.553  12.714 -0.6162  0.2682 -0.5641
  167TMC2    C2 2543   2.693   2.565  12.820 -0.7074  0.1142 -0.7170
  167TMC2    C3 2544   2.639   2.445  12.862 -0.2536  0.0419 -0.3155
  167TMC2    C4 2545   2.814   2.435  12.655 -0.1871  0.1589 -0.6195
  167TMC2    C5 2546   2.768   2.318  12.700 -0.5330 -0.0099 -0.0255
  167TMC2    C6 2547   2.676   2.322  12.807  0.3922  0.4542 -0.1413
  167TMC2     C 2548   2.797   2.685  12.644 -0.1894 -0.3843  0.6374
  167TMC2     O 2549   2.727   2.780  12.677  0.0402 -0.0186 -0.4997
  167TMC2     H 2550   2.666   2.658  12.868  2.6540  1.7014 -1.8594
  167TMC2    H1 2551   2.870   2.439  12.562  0.8401  0.1535  0.0070
  167TMC2    H2 2552   2.627   2.233  12.845 -0.2038  0.8798  0.0825
  167TMC2    C7 2553   2.782   2.188  12.630  0.8106  0.0532  0.1426
  167TMC2    C8 2554   2.515   2.462  12.940 -0.9635 -0.1186  0.0172
  167TMC2    O1 2555   2.694   2.106  12.653 -0.0544  0.4776 -0.3056
  167TMC2    O2 2556   2.480   2.567  12.996  0.3487  0.1470  1.3484
  167TMC2    O5 2557   2.442   2.352  12.933 -0.5966 -0.6550 -0.2610
  167TMC2    H5 2558   2.481   2.273  12.890  3.6526  2.1400 -1.5092
  168MPD2     C 2559   2.839   2.902  12.445  0.3785  0.1563 -0.1552
  168MPD2    C1 2560   2.890   2.775  12.441  0.5447 -0.1423  0.1490
  168MPD2    C2 2561   2.970   2.737  12.331  0.1181 -0.1331 -0.0028
  168MPD2    C3 2562   2.977   2.820  12.220  0.0854 -0.1929  0.5567
  168MPD2    C4 2563   2.912   2.944  12.222 -0.2979  0.1883 -0.2473
  168MPD2    C5 2564   2.854   2.979  12.338 -0.1200  0.2115 -0.2201
  168MPD2     H 2565   3.009   2.636  12.327  2.2920  0.8546 -3.4622
  168MPD2    H1 2566   2.926   3.012  12.140  0.7435  2.0582  1.4797
  168MPD2    H2 2567   2.782   2.943  12.527 -0.6068  0.6211 -1.0748
  168MPD2    H3 2568   2.807   3.077  12.341 -1.3699 -0.3828 -0.4629
  168MPD2     N 2569   3.064   2.778  12.114  0.1484  0.4856  0.7641
  168MPD2    H5 2570   3.128   2.701  12.128 -0.2627 -0.0405 -0.2830
  168MPD2    N1 2571   2.875   2.675  12.536  0.6848  0.1417 -0.4344
  168MPD2    H7 2572   2.926   2.589  12.516 -1.6337 -0.5163 -3.6663
  169MPD1     C 2573   4.331   1.930   9.930 -0.5023 -0.1089  0.2030
  169MPD1    C1 2574   4.435   1.955   9.839 -0.3093  0.0421  0.0751
  169MPD1    C2 2575   4.502   1.843   9.788  0.1905 -0.3963  0.3260
  169MPD1    C3 2576   4.498   1.721   9.861  0.3418 -0.9295 -0.4255
  169MPD1    C4 2577   4.394   1.703   9.957 -0.8928 -0.0228  0.6545
  169MPD1    C5 2578   4.304   1.805   9.979  0.3966 -0.1150 -0.1500
  169MPD1     H 2579   4.566   1.854   9.701  0.4559  1.0541  0.7209
  169MPD1    H1 2580   4.372   1.606  10.000  2.2922 -0.9795  0.1705
  169MPD1    H2 2581   4.271   2.014   9.962 -0.9985  0.0260 -1.0476
  169MPD1    H3 2582   4.232   1.793  10.059  0.8763  1.9433  0.5752
  169MPD1     N 2583   4.580   1.615   9.823 -0.6226  0.0028 -0.6970
  169MPD1    H5 2584   4.652   1.628   9.752  0.8959 -0.2043  0.8050
  169MPD1    N1 2585   4.455   2.076   9.772 -0.5242 -0.1437 -0.0848
  169MPD1    H6 2586   4.553   2.104   9.770 -0.3292 -0.7524  0.8801
  169MPD1    H7 2587   4.416   2.157   9.820  0.2894  0.2654 -0.1156
  170MPD1     C 2588   4.372   4.195  12.682 -0.1448 -0.1617 -0.1386
  170MPD1    C1 2589   4.439   4.177  12.803 -0.8771 -0.1364 -0.1741
  170MPD1    C2 2590   4.399   4.253  12.914  0.4829  0.2698  0.2443
  170MPD1    C3 2591   4.296   4.346  12.903  0.4448  0.0340  0.1182
  170MPD1    C4 2592   4.223   4.344  12.785  0.2170 -0.7189  0.7616
  170MPD1    C5 2593   4.262   4.269  12.673 -0.5361  0.4154  0.6156
  170MPD1     H 2594   4.455   4.254  13.007  2.5077  0.6089 -0.9858
  170MPD1    H1 2595   4.135   4.408  12.784  1.2159  0.6631  0.8441
  170MPD1    H2 2596   4.407   4.144  12.592 -4.0429 -1.9965 -0.6062
  170MPD1    H3 2597   4.203   4.255  12.583 -2.5814 -0.1760  2.0388
  170MPD1     N 2598   4.264   4.415  13.017  0.0043  0.5875 -0.4942
  170MPD1    H5 2599   4.326   4.403  13.097  2.0986  4.5387 -1.5597
  170MPD1    N1 2600   4.554   4.102  12.803  0.0303 -0.2659  0.5809
  170MPD1    H6 2601   4.554   4.016  12.748  1.0909 -0.8205  1.4648
  170MPD1    H7 2602   4.568   4.066  12.897  0.3148  0.9857  1.0179
  171MPD1     C 2603   3.031   1.445  15.443  0.0463 -0.1358 -0.2111
  171MPD1    C1 2604   3.037   1.337  15.355  0.3250 -0.6473  0.6608
  171MPD1    C2 2605   3.015   1.210  15.405  0.4795  0.6502  0.4136
  171MPD1    C3 2606   2.966   1.201  15.531 -0.4965  0.1112  0.1451
  171MPD1    C4 2607   2.944   1.313  15.609 -0.1403  0.8076 -0.4368
  171MPD1    C5 2608   2.974   1.434  15.566  0.0837  0.2654  0.1435
  171MPD1     H 2609   3.032   1.117  15.353 -1.5470  0.5549 -0.0845
  171MPD1    H1 2610   2.913   1.307  15.713  3.5424  0.2395  0.6121
  171MPD1    H2 2611   3.069   1.539  15.404 -1.0973 -0.2629 -1.6370
  171MPD1    H3 2612   2.944   1.520  15.624 -1.6453  0.8469 -1.6231
  171MPD1     N 2613   2.921   1.078  15.583  0.0900  0.4578  0.2302
  171MPD1    H5 2614   2.874   1.073  15.673 -1.8668  0.2794 -0.7955
  171MPD1    N1 2615   3.090   1.352  15.227  0.2406 -0.4916 -0.0433
  171MPD1    H6 2616   3.067   1.277  15.162 -1.1873 -1.3246  1.4285
  171MPD1    H7 2617   3.061   1.440  15.185  1.8809 -0.3092 -0.7792
  172MPD1     C 2618   1.659   0.487   0.492 -0.9060 -0.0133 -0.5893
  172MPD1    C1 2619   1.746   0.419   0.411 -0.1216  0.6789  0.1050
  172MPD1    C2 2620   1.876   0.473   0.390  0.2588 -0.1076 -0.1558
  172MPD1    C3 2621   1.901   0.603   0.432 -0.2398  0.2859  1.3646
  172MPD1    C4 2622   1.804   0.671   0.502 -0.1462 -0.4368 -0.2351
  172MPD1    C5 2623   1.689   0.614   0.533 -0.6402  0.3371 -0.2788
  172MPD1     H 2624   1.958   0.413   0.352  0.8272 -0.9943  2.4848
  172MPD1    H1 2625   1.827   0.775   0.521  4.2546 -1.3706 -0.2968
  172MPD1    H2 2626   1.569   0.446   0.537 -1.6252  2.7717  0.5091
  172MPD1    H3 2627   1.608   0.672   0.576 -1.9254 -1.6853  0.0327
  172MPD1     N 2628   2.027   0.664   0.401 -0.0557  0.5565 -0.0581
  172MPD1    H5 2629   2.028   0.762   0.429  0.2972  0.9391 -1.3828
  172MPD1    N1 2630   1.716   0.289   0.373  0.2301 -0.5758 -0.0747
  172MPD1    H6 2631   1.616   0.288   0.354 -0.0965 -1.1870  1.7102
  172MPD1    H7 2632   1.753   0.276   0.279  0.7621  3.5073 -0.4659
  173MPD1     C 2633   3.177   0.184  14.232  0.2982 -0.1697  0.0110
  173MPD1    C1 2634   3.192   0.046  14.213  0.2326  0.5508  0.1403
  173MPD1    C2 2635   3.146   4.680  14.314 -0.1942 -0.1769 -0.2300
  173MPD1    C3 2636   3.071   0.012  14.412  0.1544  0.1865 -0.5672
  173MPD1    C4 2637   3.048   0.152  14.428  0.7505 -0.1066 -0.3098
  173MPD1    C5 2638   3.110   0.236  14.337  0.4777 -0.9009 -0.4720
  173MPD1     H 2639   3.157   4.573  14.304  0.1722 -0.0362 -1.4247
  173MPD1    H1 2640   2.991   0.204  14.505  0.3489  1.8659 -1.9411
  173MPD1    H2 2641   3.218   0.259  14.165 -2.2785  0.3423 -0.9957
  173MPD1    H3 2642   3.101   0.344  14.343  4.2852 -0.5641 -0.7414
  173MPD1     N 2643   3.019   4.649  14.506 -0.1402  0.1590 -0.2363
  173MPD1    H5 2644   3.032   4.550  14.490  0.9129  0.2573  0.0105
  173MPD1    N1 2645   3.273   4.721  14.112  0.1072  0.1178 -0.2554
  173MPD1    H6 2646   3.269   0.050  14.024 -0.3951  0.6770  0.0974
  173MPD1    H7 2647   3.261   4.621  14.093  0.9562  0.3337 -1.8841
  174MPD1     C 2648   2.650   3.790  14.670  0.4442  0.2166 -0.2050
  174MPD1    C1 2649   2.753   3.835  14.594 -0.2965  0.2732  0.2951
  174MPD1    C2 2650   2.812   3.952  14.640  0.5818  0.1552 -0.1317
  174MPD1    C3 2651   2.761   4.025  14.745 -0.4336 -0.2396 -0.7925
  174MPD1    C4 2652   2.654   3.977  14.819  0.5309  0.4235  0.7114
  174MPD1    C5 2653   2.608   3.853  14.783 -0.5226 -0.3265 -0.2510
  174MPD1     H 2654   2.903   3.986  14.591  0.5491  0.4369  0.0051
  174MPD1    H1 2655   2.625   4.024  14.912 -1.3253 -0.3341  0.5180
  174MPD1    H2 2656   2.606   3.697  14.636 -0.0167  0.2074  0.4203
  174MPD1    H3 2657   2.526   3.803  14.833  0.3474 -1.3037  0.2052
  174MPD1     N 2658   2.798   4.155  14.783 -0.9689 -0.3693 -0.8730
  174MPD1    H5 2659   2.747   4.205  14.855  0.8192 -0.4320  0.4410
  174MPD1    N1 2660   2.823   3.752  14.500 -0.4508 -0.0549  1.0537
  174MPD1    H6 2661   2.850   3.806  14.418  0.8758  0.3140  1.7366
  174MPD1    H7 2662   2.757   3.681  14.467 -1.5211  1.0699  0.7980
  175MPD1     C 2663   2.037   1.817  15.560  0.3433 -0.3606  0.4823
  175MPD1    C1 2664   1.960   1.711  15.518 -0.0554  0.5795  0.2278
  175MPD1    C2 2665   1.909   1.630  15.614  0.4348 -0.3037  0.0682
  175MPD1    C3 2666   1.942   1.643  15.747 -0.3634 -0.6250  0.5930
  175MPD1    C4 2667   2.023   1.746  15.790  0.6749 -0.2398  0.0394
  175MPD1    C5 2668   2.076   1.829  15.689  1.0455  0.0679 -0.0259
  175MPD1     H 2669   1.839   1.552  15.585 -1.4630  0.8768  1.4637
  175MPD1    H1 2670   2.059   1.762  15.891 -0.4701  0.6582  0.2961
  175MPD1    H2 2671   2.078   1.898  15.499 -0.8742 -1.5003 -1.8491
  175MPD1    H3 2672   2.147   1.907  15.713  0.1267  0.3083  1.9243
  175MPD1     N 2673   1.916   1.542  15.841 -0.1669  0.2211 -0.3634
  175MPD1    H5 2674   1.963   1.549  15.931 -1.0110 -3.6184  0.3681
  175MPD1    N1 2675   1.930   1.698  15.379  0.2600 -0.2832  0.8893
  175MPD1    H6 2676   1.908   1.603  15.348 -0.8247  0.5153 -0.7933
  175MPD1    H7 2677   2.004   1.737  15.321 -0.5153 -0.3194 -0.1371
  176MPD1     C 2678   3.923   2.716  17.668  0.0111 -1.1133  0.0437
  176MPD1    C1 2679   3.847   2.617  17.616 -0.5407 -0.7004 -0.5438
  176MPD1    C2 2680   3.767   2.650  17.505  0.0439  0.1530  0.0279
  176MPD1    C3 2681   3.777   2.775  17.445  0.6610  0.0563  0.3704
  176MPD1    C4 2682   3.856   2.876  17.504 -0.6439  0.2712 -0.1003
  176MPD1    C5 2683   3.931   2.841  17.613  0.2607  0.6561 -0.0919
  176MPD1     H 2684   3.709   2.568  17.464 -2.4482  1.9426  0.0111
  176MPD1    H1 2685   3.857   2.978  17.466  2.3069  1.1738  2.3762
  176MPD1    H2 2686   3.975   2.699   0.071  2.8032  1.6568 -1.0366
  176MPD1    H3 2687   3.994   2.918  17.656  1.1878 -0.0070 -0.2422
  176MPD1     N 2688   3.700   2.798  17.330  0.4379  0.2535 -0.6708
  176MPD1    H5 2689   3.648   2.722  17.287  2.7349 -3.3219  2.9561
  176MPD1    N1 2690   3.817   2.500  17.686 -0.0123 -0.3773  0.5330
  176MPD1    H6 2691   3.774   2.426  17.631  0.2440 -0.5096  0.5097
  176MPD1    H7 2692   3.905   2.464   0.031  0.8480  0.0684 -1.1519
  177MPD1     C 2693   1.592   2.054  10.602 -0.1272 -0.4415 -0.1194
  177MPD1    C1 2694   1.558   1.970  10.499 -0.4032 -0.0620  0.4746
  177MPD1    C2 2695   1.540   2.031  10.382 -0.2554  0.5088 -0.2048
  177MPD1    C3 2696   1.562   2.172  10.373  0.5374  0.2778 -0.6097
  177MPD1    C4 2697   1.602   2.249  10.477 -0.0954 -0.9058 -0.3266
  177MPD1    C5 2698   1.619   2.182  10.596 -0.2204 -0.0770  0.1155
  177MPD1     H 2699   1.506   1.986  10.289 -0.8454  0.0322  0.2457
  177MPD1    H1 2700   1.607   2.357  10.474 -1.3609 -0.8131  1.3273
  177MPD1    H2 2701   1.604   2.009  10.700 -2.3835  0.2482  0.4901
  177MPD1    H3 2702   1.642   2.234  10.688 -0.3086  1.5643 -0.7960
  177MPD1     N 2703   1.546   2.236  10.246  0.6296  0.4793 -0.5072
  177MPD1    H5 2704   1.517   2.183  10.164 -0.7633  2.5328 -1.3354
  177MPD1    N1 2705   1.527   1.837  10.519 -0.1796 -0.3744 -0.1773
  177MPD1    H6 2706   1.553   1.798  10.429  1.5706 -2.0728  1.0749
  177MPD1    H7 2707   1.581   1.793  10.593  0.8109 -2.1101 -1.9501
  178MPD1     C 2708   4.085   4.315  17.594  0.1705 -0.3528  0.0473
  178MPD1    C1 2709   4.176   4.411  17.549  0.0634  0.4415 -0.8971
  178MPD1    C2 2710   4.286   4.352  17.480 -0.3042  0.3347 -0.6644
  178MPD1    C3 2711   4.300   4.214  17.466  0.1466 -0.4807  1.5637
  178MPD1    C4 2712   4.214   4.125  17.525  0.3095  0.5500 -0.0920
  178MPD1    C5 2713   4.112   4.182  17.593 -0.4114  0.3960 -0.3300
  178MPD1     H 2714   4.366   4.419  17.449 -1.6918  1.7712 -1.1233
  178MPD1    H1 2715   4.212   4.018  17.509 -0.7928  0.6062 -0.3224
  178MPD1    H2 2716   3.997   4.353  17.644  0.1780 -0.2419 -0.0239
  178MPD1    H3 2717   4.032   4.122  17.635 -2.0541  2.2725 -0.8157
  178MPD1     N 2718   4.403   4.160  17.379 -0.1901 -0.6744  0.2503
  178MPD1    H5 2719   4.398   4.060  17.364  2.2223 -0.5544 -1.3364
  178MPD1    N1 2720   4.136   4.539  17.535 -0.1365  0.4890 -0.6900
  178MPD1    H6 2721   4.217   4.599  17.544 -0.9362  0.8750  3.7382
  178MPD1    H7 2722   4.082   4.561  17.618 -1.3012  0.9584 -1.5700
  179MPD1     C 2723   3.286   2.068  16.317 -0.3576 -0.4412 -0.2964
  179MPD1    C1 2724   3.230   2.144  16.216 -0.4212  0.1438  0.3413
  179MPD1    C2 2725   3.268   2.110  16.086 -0.0013  0.6977  0.4177
  179MPD1    C3 2726   3.348   2.005  16.054 -0.2520 -0.0700  0.1298
  179MPD1    C4 2727   3.396   1.930  16.161  0.4560  0.3466 -0.4684
  179MPD1    C5 2728   3.353   1.958  16.282  0.1053  0.4410  0.4650
  179MPD1     H 2729   3.222   2.169  16.007  2.1465  0.4792 -0.9957
  179MPD1    H1 2730   3.473   1.855  16.154  0.2636 -0.0124  1.2076
  179MPD1    H2 2731   3.275   2.089  16.422 -1.0036 -0.6166 -0.3241
  179MPD1    H3 2732   3.392   1.892  16.359 -0.5369 -1.6737 -1.0098
  179MPD1     N 2733   3.402   1.980  15.928  0.1847 -0.3520  0.0407
  179MPD1    H5 2734   3.462   1.898  15.915  0.3957  0.1429 -2.2091
  179MPD1    N1 2735   3.176   2.272  16.241 -0.0078  0.5132 -0.5857
  179MPD1    H6 2736   3.132   2.285  16.332 -0.5272 -0.2326 -0.7288
  179MPD1    H7 2737   3.103   2.293  16.173 -0.3623 -1.0829 -0.7131
  180MPD1     C 2738   3.944   4.139  14.681  0.0304 -0.5720  0.2353
  180MPD1    C1 2739   3.951   4.132  14.543 -0.8639 -0.3807  0.3154
  180MPD1    C2 2740   3.891   4.025  14.489 -0.3910  0.5288 -0.2413
  180MPD1    C3 2741   3.823   3.926  14.557 -0.5056 -1.0656  0.3471
  180MPD1    C4 2742   3.815   3.936  14.688 -0.3353 -0.1997  0.2622
  180MPD1    C5 2743   3.869   4.043  14.742 -0.6848 -0.1033  0.1203
  180MPD1     H 2744   3.904   4.012  14.382 -3.9009 -0.1434 -0.5924
  180MPD1    H1 2745   3.752   3.877  14.753  0.2065 -0.1060  0.8756
  180MPD1    H2 2746   4.001   4.212  14.738  0.4356 -0.6582 -0.0591
  180MPD1    H3 2747   3.864   4.043  14.851  1.1707  1.4713  0.1916
  180MPD1     N 2748   3.749   3.827  14.482  0.3297  0.3942  0.3071
  180MPD1    H5 2749   3.738   3.849  14.384  1.5612 -0.6530 -0.0536
  180MPD1    N1 2750   4.011   4.233  14.470 -0.5127 -0.2159 -1.0892
  180MPD1    H6 2751   4.048   4.213  14.377  0.7975  2.1004 -1.0651
  180MPD1    H7 2752   4.082   4.274  14.530 -0.2075 -2.0117 -0.2011
  181MPD1     C 2753   4.524   3.910   9.791 -0.3244  0.3772  0.2593
  181MPD1    C1 2754   4.634   3.876   9.716  1.0844 -0.1501  0.0911
  181MPD1    C2 2755   0.028   3.944   9.740 -0.1217 -0.5215 -0.0396
  181MPD1    C3 2756   0.039   4.037   9.842  0.7739  0.3309  0.5413
  181MPD1    C4 2757   4.656   4.063   9.920  0.8998 -0.0545 -0.1174
  181MPD1    C5 2758   4.540   3.996   9.899  0.1790  0.4013  0.2212
  181MPD1     H 2759   0.112   3.920   9.676  1.1161  2.3167  0.5149
  181MPD1    H1 2760   4.655   4.128  10.007  1.1993  0.2233 -0.3227
  181MPD1    H2 2761   4.426   3.869   9.767  0.1623 -1.2523  1.0843
  181MPD1    H3 2762   4.448   4.013   9.954  0.4809  0.1464  0.8124
  181MPD1     N 2763   0.167   4.097   9.851 -0.5209  0.0164 -0.3907
  181MPD1    H5 2764   0.233   4.067   9.780  0.7216 -0.7878  1.1006
  181MPD1    N1 2765   4.625   3.817   9.591 -0.2834  0.4904  0.3096
  181MPD1    H6 2766   4.712   3.780   9.552 -0.4489  2.5999 -2.0731
  181MPD1    H7 2767   4.556   3.743   9.597 -1.8976  1.9072 -0.5819
  182MPD1     C 2768   1.374   0.052   1.943 -0.1273 -0.0773  0.7272
  182MPD1    C1 2769   1.470   4.716   1.860 -0.2025  0.2034 -0.7826
  182MPD1    C2 2770   1.418   4.679   1.733  0.0312  0.0620 -0.1467
  182MPD1    C3 2771   1.286   4.702   1.703 -0.3404  0.6603 -0.4597
  182MPD1    C4 2772   1.194   0.030   1.794  0.2132  0.1090 -0.1638
  182MPD1    C5 2773   1.240   0.067   1.915 -0.3297  0.2708  0.1381
  182MPD1     H 2774   1.485   4.630   1.664 -0.5548 -1.1448  0.1397
  182MPD1    H1 2775   1.088   0.041   1.776  0.3006 -0.7565 -1.1884
  182MPD1    H2 2776   1.391   0.081   2.046 -2.3512 -1.8170  1.5814
  182MPD1    H3 2777   1.165   0.099   1.986 -1.2042  1.0556 -1.1226
  182MPD1     N 2778   1.229   4.663   1.575  0.2324 -0.0627  0.0840
  182MPD1    H5 2779   1.130   4.677   1.557  0.1461 -0.3931  0.3116
  182MPD1    N1 2780   1.592   4.667   1.903  0.9761  0.0313  0.8152
  182MPD1    H6 2781   1.651   0.009   1.956  1.7578  1.1417 -1.4196
  182MPD1    H7 2782   1.651   4.642   1.824  0.9940  2.3164  0.1169
  183MPD1     C 2783   1.950   0.540  10.188  0.4889 -0.4513 -0.2297
  183MPD1    C1 2784   1.852   0.618  10.126 -0.4278  0.2830  0.2967
  183MPD1    C2 2785   1.759   0.551  10.048  0.0428  0.3707 -0.1991
  183MPD1    C3 2786   1.780   0.412  10.021  0.1944  0.6633 -0.6274
  183MPD1    C4 2787   1.885   0.343  10.079 -0.1997 -0.4137  0.1725
  183MPD1    C5 2788   1.966   0.408  10.164  0.0603 -0.4059  0.0876
  183MPD1     H 2789   1.679   0.609  10.003  1.2739  0.4722 -2.2530
  183MPD1    H1 2790   1.904   0.237  10.071  1.2832  0.0715 -2.7133
  183MPD1    H2 2791   2.000   0.582  10.275 -0.5275  1.0214 -0.3506
  183MPD1    H3 2792   2.050   0.356  10.208 -0.3027 -1.6053 -0.6176
  183MPD1     N 2793   1.698   0.349   9.922 -0.6311  0.2688  0.1008
  183MPD1    H5 2794   1.614   0.392   9.884  0.5119  2.3494 -0.0748
  183MPD1    N1 2795   1.834   0.756  10.146 -0.6827 -0.0579 -0.2583
  183MPD1    H6 2796   1.891   0.788  10.224 -1.1125 -2.1939  0.9273
  183MPD1    H7 2797   1.735   0.780  10.144 -0.7607 -0.4185 -1.0730
  184MPD1     C 2798   0.802   1.867  10.379 -0.2547  0.3779  0.2385
  184MPD1    C1 2799   0.712   1.864  10.275  0.5788 -0.6019 -0.5040
  184MPD1    C2 2800   0.738   1.937  10.163 -0.6879  0.2163  0.4895
  184MPD1    C3 2801   0.859   2.014  10.157  0.7393  0.2290  0.6357
  184MPD1    C4 2802   0.943   2.013  10.261 -0.2804  0.2315 -0.4972
  184MPD1    C5 2803   0.917   1.938  10.373 -1.0275 -0.3976 -1.3529
  184MPD1     H 2804   0.669   1.936  10.080 -0.8799  0.4087  0.6484
  184MPD1    H1 2805   1.035   2.070  10.263 -0.9221  1.1121  2.9474
  184MPD1    H2 2806   0.779   1.805  10.465 -0.8768 -0.7279 -0.7271
  184MPD1    H3 2807   0.996   1.931  10.447 -1.0561 -1.4505 -1.4129
  184MPD1     N 2808   0.904   2.080  10.038 -0.0569  0.2522 -0.7637
  184MPD1    H5 2809   0.993   2.128  10.049  0.1092  0.2008 -1.9238
  184MPD1    N1 2810   0.600   1.783  10.289  0.0925  0.7219  0.5318
  184MPD1    H6 2811   0.609   1.713  10.362 -0.0376  0.2627  0.1068
  184MPD1    H7 2812   0.562   1.746  10.202  0.8181 -0.7266  0.8245
  185MPD1     C 2813   0.813   1.901   9.042 -0.6152 -0.3794  0.5313
  185MPD1    C1 2814   0.919   1.984   9.075  0.4556  0.1013 -0.2642
  185MPD1    C2 2815   0.930   2.042   9.198 -0.1443 -0.4539 -0.8497
  185MPD1    C3 2816   0.832   2.021   9.294 -0.3779  0.3029  0.7113
  185MPD1    C4 2817   0.722   1.948   9.265  0.3308  0.2721  0.0891
  185MPD1    C5 2818   0.719   1.887   9.140  0.4611 -0.7484  0.0700
  185MPD1     H 2819   1.016   2.104   9.218 -1.2156  0.7707  0.0153
  185MPD1    H1 2820   0.639   1.933   9.332  0.0585  0.5375 -0.1878
  185MPD1    H2 2821   0.810   1.846   8.949  2.8831 -3.4565  2.2225
  185MPD1    H3 2822   0.624   1.843   9.113 -0.0889 -0.0103  0.8263
  185MPD1     N 2823   0.830   2.081   9.425 -0.4958 -0.2686 -0.3554
  185MPD1    H5 2824   0.758   2.048   9.488  0.2526 -1.2874 -0.0235
  185MPD1    N1 2825   1.013   2.010   8.979 -0.7637  0.2723  0.2785
  185MPD1    H6 2826   1.024   1.943   8.904  1.5799 -0.6189  1.3937
  185MPD1    H7 2827   1.111   2.007   9.009 -0.6314  2.4725  0.0685
  186MPD1     C 2828   3.971   2.585  15.507  0.0695  0.6865 -0.7827
  186MPD1    C1 2829   3.987   2.478  15.599  0.0537  0.8576 -0.2667
  186MPD1    C2 2830   4.061   2.507  15.711  0.2636 -0.7340 -0.1643
  186MPD1    C3 2831   4.085   2.638  15.759 -0.2259  0.6423 -0.3235
  186MPD1    C4 2832   4.035   2.740  15.675 -0.4173 -0.3823  0.2096
  186MPD1    C5 2833   3.989   2.714  15.546  0.3463 -0.2690  0.1136
  186MPD1     H 2834   4.092   2.424  15.774 -0.2583 -0.2540  0.7218
  186MPD1    H1 2835   4.037   2.845  15.705  0.5509 -0.6979  1.2541
  186MPD1    H2 2836   3.934   2.558  15.409 -0.0096  0.1770 -0.6122
  186MPD1    H3 2837   3.970   2.803  15.486  0.0657  0.1972  0.8998
  186MPD1     N 2838   4.157   2.676  15.881 -0.4045  0.7614 -0.3433
  186MPD1    H5 2839   4.178   2.772  15.904  0.9909  0.4541 -0.3253
  186MPD1    N1 2840   3.960   2.349  15.568 -0.3395 -0.1802 -0.0617
  186MPD1    H6 2841   3.960   2.298  15.656  0.3021  0.8142  0.5184
  186MPD1    H7 2842   3.893   2.327  15.495  0.6096  0.9813 -1.2775
  187MPD1     C 2843   4.029   3.977  17.248  0.2843  0.6428 -0.0828
  187MPD1    C1 2844   3.978   3.868  17.311 -0.2088 -0.1034 -0.0257
  187MPD1    C2 2845   3.855   3.883  17.377 -0.5017 -0.0964 -0.4257
  187MPD1    C3 2846   3.793   4.013  17.374 -0.5668  0.2315 -0.8312
  187MPD1    C4 2847   3.850   4.119  17.314 -0.2005  0.5757  0.2912
  187MPD1    C5 2848   3.967   4.103  17.251  0.2816  0.1917  0.0719
  187MPD1     H 2849   3.812   3.798  17.430 -0.5358  0.1277 -0.0972
  187MPD1    H1 2850   3.801   4.215  17.311  0.5944  0.8959 -2.2378
  187MPD1    H2 2851   4.127   3.977  17.203  0.8587 -3.2543  1.1985
  187MPD1    H3 2852   4.014   4.186  17.200  1.3498 -0.3613  0.1396
  187MPD1     N 2853   3.660   4.037  17.429 -0.7514 -0.1695  0.3184
  187MPD1    H5 2854   3.611   4.126  17.418 -0.6076  0.1631  2.5029
  187MPD1    N1 2855   4.063   3.753  17.321 -0.2906  0.5342  0.1742
  187MPD1    H6 2856   4.117   3.731  17.238 -1.6489 -1.9841 -0.0518
  187MPD1    H7 2857   4.011   3.672  17.354  1.4719 -1.0304 -0.9249
  188MPD1     C 2858   3.837   3.053   9.320 -0.4909 -0.3102 -0.3198
  188MPD1    C1 2859   3.855   3.058   9.460  1.3032  0.0104 -0.0969
  188MPD1    C2 2860   3.761   2.995   9.540 -0.4313  0.7882 -0.0673
  188MPD1    C3 2861   3.680   2.902   9.481  0.2326 -0.9366  0.3048
  188MPD1    C4 2862   3.691   2.869   9.353 -0.1398 -0.1808 -0.3914
  188MPD1    C5 2863   3.774   2.945   9.276 -0.1055 -1.1061  0.0499
  188MPD1     H 2864   3.778   3.008   9.647 -1.3887  0.6042  0.1104
  188MPD1    H1 2865   3.624   2.794   9.312 -0.9526  1.3636 -1.9187
  188MPD1    H2 2866   3.909   3.096   9.251 -3.4098  1.2121 -2.4248
  188MPD1    H3 2867   3.772   2.917   9.171 -1.5942  2.3989 -0.8400
  188MPD1     N 2868   3.575   2.834   9.552 -0.1674  1.2533 -0.3293
  188MPD1    H5 2869   3.516   2.768   9.502  0.4686  1.5069 -1.4185
  188MPD1    N1 2870   3.956   3.141   9.504 -0.5107 -0.6361 -0.0980
  188MPD1    H6 2871   3.996   3.116   9.594  1.5157 -1.6478 -1.2874
  188MPD1    H7 2872   4.029   3.151   9.434  0.1937 -2.5310  0.3838
  189MPD1     C 2873   0.257   4.693   0.097 -0.0934 -0.4177  0.4168
  189MPD1    C1 2874   0.140   4.689   0.171  0.3158 -0.4865  1.0244
  189MPD1    C2 2875   0.056   0.081   0.179  0.1822 -0.2839  1.1188
  189MPD1    C3 2876   0.084   0.195   0.105 -0.7827 -0.0248 -0.3373
  189MPD1    C4 2877   0.200   0.197   0.026 -0.0694 -0.0469 -0.2501
  189MPD1    C5 2878   0.281   0.087   0.024  0.2560  0.5793  0.7371
  189MPD1     H 2879   4.692   0.083   0.244  1.0958 -1.7118  2.4014
  189MPD1    H1 2880   0.235   0.279  17.656  1.1667  0.9495  1.7928
  189MPD1    H2 2881   0.326   4.610   0.087  1.6826  1.0908  0.1705
  189MPD1    H3 2882   0.363   0.087  17.645 -0.0391  2.4626  0.3827
  189MPD1     N 2883   0.005   0.311   0.116  0.0169 -0.2685  0.2209
  189MPD1    H5 2884   4.640   0.298   0.167 -0.9660  0.2939 -1.3310
  189MPD1    N1 2885   0.118   4.584   0.260 -0.4826 -0.5807  0.3773
  189MPD1    H6 2886   0.155   4.495   0.225  0.3455 -0.7423  1.6805
  189MPD1    H7 2887   0.021   4.563   0.283 -0.6231 -0.2128  0.1234
  190MPD1     C 2888   3.297   3.632  15.660 -0.4630 -0.4825 -0.5225
  190MPD1    C1 2889   3.328   3.508  15.715  0.0053  0.4953 -0.6361
  190MPD1    C2 2890   3.465   3.475  15.714  0.1497 -0.4015 -0.4053
  190MPD1    C3 2891   3.563   3.550  15.650  0.3138 -0.1506  0.6088
  190MPD1    C4 2892   3.522   3.650  15.563  0.4640  0.4165 -0.1104
  190MPD1    C5 2893   3.394   3.694  15.576  0.5455 -0.4628  0.4089
  190MPD1     H 2894   3.490   3.391  15.778 -2.1241 -0.2581  0.6845
  190MPD1    H1 2895   3.586   3.701  15.492 -3.0649  1.5458 -2.4770
  190MPD1    H2 2896   3.199   3.675  15.677 -0.6419 -1.5993  1.3080
  190MPD1    H3 2897   3.363   3.778  15.516  1.8500  0.0446  0.4516
  190MPD1     N 2898   3.691   3.499  15.662 -0.3259 -0.1668 -0.2159
  190MPD1    H5 2899   3.709   3.423  15.726 -0.8477  0.0317  0.1636
  190MPD1    N1 2900   3.241   3.442  15.798  0.3735 -0.1989  0.1048
  190MPD1    H6 2901   3.261   3.343  15.800 -0.4285 -0.3118  1.9111
  190MPD1    H7 2902   3.148   3.462  15.761 -0.6132  0.0328  2.7078
  191MPD1     C 2903   2.872   0.517  13.249 -0.1458  0.7580  1.8422
  191MPD1    C1 2904   2.751   0.575  13.231 -0.0318 -0.1390 -0.2236
  191MPD1    C2 2905   2.737   0.667  13.125  0.5953  0.0696  0.6094
  191MPD1    C3 2906   2.849   0.709  13.055  0.4227  0.0973 -0.3753
  191MPD1    C4 2907   2.970   0.646  13.074 -0.4083  0.1471  0.4160
  191MPD1    C5 2908   2.980   0.557  13.177 -0.0270 -0.1192  0.7999
  191MPD1     H 2909   2.639   0.708  13.106  0.1651 -1.5730 -0.6574
  191MPD1    H1 2910   3.055   0.668  13.011 -1.6719  1.1269 -0.9345
  191MPD1    H2 2911   2.879   0.435  13.319 -0.1155  1.2287  2.3961
  191MPD1    H3 2912   3.069   0.497  13.193  1.6906  2.0833 -0.4996
  191MPD1     N 2913   2.826   0.795  12.948  0.1446  0.6648  0.6635
  191MPD1    H5 2914   2.729   0.803  12.919 -0.0239 -0.0262  1.0369
  191MPD1    N1 2915   2.638   0.522  13.298 -0.1689 -0.8668 -0.0038
  191MPD1    H6 2916   2.560   0.587  13.310 -0.7060 -1.9449  2.3947
  191MPD1    H7 2917   2.671   0.484  13.386 -1.3689 -1.7761  0.0644
  192MPD1     C 2918   2.390   0.508  12.120  0.0192 -0.3134  0.2598
  192MPD1    C1 2919   2.449   0.439  12.226 -0.0308  0.5951 -0.1094
  192MPD1    C2 2920   2.542   0.519  12.295  0.4091 -0.4203  0.1583
  192MPD1    C3 2921   2.573   0.650  12.261 -0.2018  0.0740 -0.8500
  192MPD1    C4 2922   2.506   0.709  12.156 -0.2377  0.1518  0.5351
  192MPD1    C5 2923   2.423   0.634  12.077 -0.4646 -0.5023 -0.2431
  192MPD1     H 2924   2.581   0.483  12.389  1.5448  0.6733  0.1181
  192MPD1    H1 2925   2.530   0.811  12.128 -2.6725  0.6293  0.1650
  192MPD1    H2 2926   2.301   0.468  12.072 -1.2052  1.1050  1.3289
  192MPD1    H3 2927   2.361   0.680  12.001  0.7224  0.8549 -0.3825
  192MPD1     N 2928   2.662   0.734  12.330 -0.0291 -0.8278  0.2636
  192MPD1    H5 2929   2.692   0.817  12.279  1.4451 -2.0938 -0.9084
  192MPD1    N1 2930   2.402   0.312  12.272 -0.3074  0.4646 -0.0968
  192MPD1    H6 2931   2.472   0.240  12.287 -0.6491  0.0386 -0.5509
  192MPD1    H7 2932   2.339   0.274  12.201  1.1677 -3.0489  0.4859
  193MPD1     C 2933   2.484   0.994  16.682  0.2745 -0.4406 -0.1350
  193MPD1    C1 2934   2.550   1.056  16.582  0.1086 -0.3674 -0.7639
  193MPD1    C2 2935   2.675   1.109  16.621 -0.0548 -0.4615  0.9779
  193MPD1    C3 2936   2.734   1.095  16.744 -0.7060 -0.5510  0.4502
  193MPD1    C4 2937   2.656   1.033  16.837  0.4702 -0.3426  0.1621
  193MPD1    C5 2938   2.538   0.977  16.807  0.7005 -0.0877 -0.8316
  193MPD1     H 2939   2.730   1.178  16.558  0.2975  1.5858  3.5127
  193MPD1    H1 2940   2.704   1.018  16.933  1.8199  1.7868 -0.1664
  193MPD1    H2 2941   2.383   0.959  16.663 -0.0427  1.8615 -2.6343
  193MPD1    H3 2942   2.481   0.918  16.877 -0.7867 -0.1792 -2.1071
  193MPD1     N 2943   2.852   1.152  16.788 -0.9845  0.0902 -0.3616
  193MPD1    H5 2944   2.873   1.135  16.886 -0.3819 -1.6679 -0.8070
  193MPD1    N1 2945   2.497   1.095  16.456 -0.0693 -0.4289 -0.5128
  193MPD1    H6 2946   2.416   1.045  16.419  0.7584 -2.2391  0.1317
  193MPD1    H7 2947   2.563   1.115  16.381  2.1430 -3.0236  0.7901
  194MPD1     C 2948   0.447   2.416  17.517  0.2317  0.1191 -0.2924
  194MPD1    C1 2949   0.492   2.398  17.389  0.3773  0.6998  0.4937
  194MPD1    C2 2950   0.456   2.289  17.311  0.3199  0.0286  0.5602
  194MPD1    C3 2951   0.382   2.194  17.373 -0.1783  0.7068 -0.4930
  194MPD1    C4 2952   0.332   2.216  17.496 -0.4532  0.1552  0.0251
  194MPD1    C5 2953   0.362   2.327  17.568 -0.5222 -0.4101  0.1542
  194MPD1     H 2954   0.505   2.267  17.217  0.9933  0.8312  0.7222
  194MPD1    H1 2955   0.272   2.137  17.539  1.8792 -1.3447  0.5266
  194MPD1    H2 2956   0.458   2.513  17.564  1.4218 -0.5799  0.8566
  194MPD1    H3 2957   0.322   2.346  17.667  1.2170 -0.3580  0.8396
  194MPD1     N 2958   0.357   2.066  17.306 -0.1903  0.1457 -0.2498
  194MPD1    H5 2959   0.326   1.982  17.353 -1.7088  0.3758 -0.8235
  194MPD1    N1 2960   0.588   2.490  17.334  0.2961  0.3289  0.2511
  194MPD1    H6 2961   0.588   2.488  17.233  1.5289  1.1821  0.2429
  194MPD1    H7 2962   0.577   2.585  17.368 -0.0641  0.1860  0.5394
  195MPD1     C 2963   3.267   4.071   0.245 -0.3806  0.1972  0.4265
  195MPD1    C1 2964   3.318   3.955   0.206  0.0220 -0.2111  0.2100
  195MPD1    C2 2965   3.233   3.853   0.192  0.6753 -0.6742 -0.4084
  195MPD1    C3 2966   3.092   3.865   0.218 -0.4294 -1.1879  0.0718
  195MPD1    C4 2967   3.039   3.991   0.240  0.6460 -0.3244 -0.6335
  195MPD1    C5 2968   3.131   4.092   0.265  0.3693 -0.6283 -0.7281
  195MPD1     H 2969   3.276   3.759   0.160 -0.9414 -1.8205  0.7663
  195MPD1    H1 2970   2.932   4.000   0.248  0.7885 -0.2729  1.1181
  195MPD1    H2 2971   3.330   4.159   0.254 -0.5497  0.3736 -0.1237
  195MPD1    H3 2972   3.081   4.182   0.298  0.8966  0.1760 -2.1336
  195MPD1     N 2973   2.997   3.760   0.204 -0.3086 -0.9608 -0.0744
  195MPD1    H5 2974   2.899   3.782   0.218 -0.4351  0.1880 -2.6119
  195MPD1    N1 2975   3.460   3.923   0.197  0.0509  0.3226  0.2523
  195MPD1    H6 2976   3.503   4.008   0.161  2.3570  0.1855  2.6938
  195MPD1    H7 2977   3.471   3.855   0.122  1.3052  0.2873  0.4602
  196MPD1     C 2978   2.949   4.635   0.601 -0.2631  0.1644  0.3133
  196MPD1    C1 2979   2.924   4.496   0.597  0.3691  0.1572 -0.5115
  196MPD1    C2 2980   2.850   4.446   0.703  0.1136  0.3540  0.2492
  196MPD1    C3 2981   2.818   4.519   0.816  0.5218 -0.3260 -0.4170
  196MPD1    C4 2982   2.838   4.658   0.813  0.2873  0.2768 -0.0860
  196MPD1    C5 2983   2.902   4.713   0.704 -0.4567  0.1696  0.2866
  196MPD1     H 2984   2.816   4.343   0.710 -1.8881  1.2334  3.8213
  196MPD1    H1 2985   2.812   0.008   0.890 -1.5444  0.4173 -0.8415
  196MPD1    H2 2986   3.005   4.685   0.523 -1.5274 -0.4717 -0.9913
  196MPD1    H3 2987   2.924   0.097   0.694  1.7122 -0.1323  1.6677
  196MPD1     N 2988   2.734   4.471   0.920  0.5392  0.0961 -0.4264
  196MPD1    H5 2989   2.699   4.543   0.982  0.7433  0.3219 -0.5696
  196MPD1    N1 2990   2.952   4.424   0.475 -0.3642 -0.2211 -0.0512
  196MPD1    H6 2991   3.035   4.461   0.429  0.2403 -0.2544  1.0112
  196MPD1    H7 2992   2.963   4.326   0.501 -0.1643  0.4885  2.5869
  197MPD1     C 2993   0.901   1.404  16.949 -0.3570  0.5468  0.5122
  197MPD1    C1 2994   0.999   1.340  17.016  0.4139 -0.3711 -0.3330
  197MPD1    C2 2995   1.109   1.302  16.941  0.0483 -0.6061  0.5715
  197MPD1    C3 2996   1.116   1.311  16.805 -0.7258  0.4049  0.8312
  197MPD1    C4 2997   1.009   1.362  16.743 -0.3989 -0.2111  0.1536
  197MPD1    C5 2998   0.905   1.411  16.809 -0.6281 -0.4028 -0.2931
  197MPD1     H 2999   1.190   1.261  17.000 -0.4780 -1.8121  0.4574
  197MPD1    H1 3000   1.012   1.370  16.635  1.0929 -1.0788  0.1386
  197MPD1    H2 3001   0.810   1.425  17.004 -0.4389  0.1356  0.5280
  197MPD1    H3 3002   0.824   1.454  16.751 -0.5362  1.8895  1.2475
  197MPD1     N 3003   1.223   1.273  16.719  0.5581 -0.5295 -0.1858
  197MPD1    H5 3004   1.206   1.290  16.620 -2.6361  2.3877  0.8797
  197MPD1    N1 3005   1.008   1.356  17.153 -0.2456 -0.1666  0.4008
  197MPD1    H6 3006   0.917   1.364  17.198 -0.4067  0.4005 -0.0271
  197MPD1    H7 3007   1.060   1.281  17.197  1.3626  0.4568 -0.4523
  198MPD1     C 3008   3.025   0.078  15.509  0.3926  0.6532 -0.1465
  198MPD1    C1 3009   3.101   0.101  15.623  0.0531 -0.2880  0.0289
  198MPD1    C2 3010   3.208   0.189  15.614 -0.1210  0.3535 -1.0345
  198MPD1    C3 3011   3.258   0.244  15.491  0.3025  1.0468  0.5593
  198MPD1    C4 3012   3.192   0.205  15.378  0.1208 -0.5487  0.1616
  198MPD1    C5 3013   3.072   0.129  15.381 -0.8678 -0.5350  0.1564
  198MPD1     H 3014   3.259   0.219  15.705 -0.3093 -2.1402 -0.1033
  198MPD1    H1 3015   3.237   0.229  15.283  0.0797 -1.0383  0.0133
  198MPD1    H2 3016   2.925   0.037  15.519  0.9422 -0.0026  2.5441
  198MPD1    H3 3017   3.015   0.105  15.292  0.0845  1.4468 -1.0008
  198MPD1     N 3018   3.369   0.329  15.495 -0.4967 -0.5905  0.1344
  198MPD1    H5 3019   3.390   0.363  15.588  3.7260  1.4970 -1.5844
  198MPD1    N1 3020   3.063   0.073  15.755 -0.1372  0.4481  0.1977
  198MPD1    H6 3021   3.002   4.714  15.761 -0.2009  0.4201 -0.9163
  198MPD1    H7 3022   3.140   0.068  15.822  0.2599 -2.4104 -0.4817
  199MPD1     C 3023   1.427   0.402  10.202  0.0251 -0.0331 -0.1344
  199MPD1    C1 3024   1.338   0.498  10.238  0.3763 -0.1295 -0.3275
  199MPD1    C2 3025   1.221   0.496  10.167 -0.9880 -0.2662  0.2416
  199MPD1    C3 3026   1.191   0.401  10.070  0.0636 -0.1150 -0.0087
  199MPD1    C4 3027   1.282   0.306  10.037 -0.0977  1.0520  0.4534
  199MPD1    C5 3028   1.404   0.307  10.101  0.2156  0.8267  0.0286
  199MPD1     H 3029   1.152   0.577  10.185 -0.3894 -0.2006  2.2241
  199MPD1    H1 3030   1.270   0.241   9.951  0.9819  1.1001  0.2642
  199MPD1    H2 3031   1.525   0.386  10.246  1.1792  2.6316 -1.7408
  199MPD1    H3 3032   1.476   0.229  10.079 -0.9939  0.0125 -1.0136
  199MPD1     N 3033   1.077   0.402   9.986 -0.0406 -0.4904  0.6118
  199MPD1    H5 3034   1.075   0.334   9.911 -1.5139  2.0420 -1.6566
  199MPD1    N1 3035   1.371   0.608  10.326  0.1892 -0.0458 -0.0779
  199MPD1    H6 3036   1.427   0.575  10.404 -3.2188 -1.7631  1.6391
  199MPD1    H7 3037   1.283   0.649  10.359  0.1111 -0.6705  0.4816
  200MPD1     C 3038   4.277   1.251  15.227  1.1955 -0.2335  0.2150
  200MPD1    C1 3039   4.227   1.161  15.136 -0.6373  0.0939  0.3948
  200MPD1    C2 3040   4.282   1.152  15.014 -0.5474 -0.3780  0.3738
  200MPD1    C3 3041   4.403   1.211  14.983  0.1049  0.5943 -0.7678
  200MPD1    C4 3042   4.470   1.285  15.088  0.2351 -0.3156  0.4938
  200MPD1    C5 3043   4.405   1.302  15.209  0.0502 -0.0526  0.0363
  200MPD1     H 3044   4.234   1.089  14.939 -0.3920 -0.0577  0.0057
  200MPD1    H1 3045   4.566   1.335  15.078 -0.9658  1.6043 -1.3082
  200MPD1    H2 3046   4.227   1.270  15.321  1.0662 -0.3709  0.1743
  200MPD1    H3 3047   4.460   1.358  15.284 -1.3670  0.3847  0.7451
  200MPD1     N 3048   4.462   1.174  14.860  0.5196  0.0412  0.2773
  200MPD1    H5 3049   4.408   1.107  14.806 -0.9484  1.2349  0.2728
  200MPD1    N1 3050   4.098   1.111  15.158  0.4022  0.0109 -0.5728
  200MPD1    H6 3051   4.080   1.021  15.114 -0.2714 -0.3791  0.5310
  200MPD1    H7 3052   4.072   1.094  15.254  1.6009 -0.9016 -0.4050
  201MPD1     C 3053   1.747   4.669  13.818 -0.2720  0.3395  0.0161
  201MPD1    C1 3054   1.769   4.561  13.739 -0.3421 -0.2109 -0.1906
  201MPD1    C2 3055   1.897   4.552  13.677  0.0199  0.7515  0.0508
  201MPD1    C3 3056   1.997   4.645  13.697 -0.3809 -0.5650 -0.1474
  201MPD1    C4 3057   1.971   0.029  13.780  1.1101  0.0238 -0.1338
  201MPD1    C5 3058   1.844   0.040  13.829 -0.5477 -0.6809  0.1036
  201MPD1     H 3059   1.912   4.479  13.598 -2.1816 -0.0318  0.3314
  201MPD1    H1 3060   2.041   0.112  13.795  1.9926 -1.3186  3.1383
  201MPD1    H2 3061   1.653   4.694  13.867 -1.1159  0.0631 -1.4631
  201MPD1    H3 3062   1.824   0.135  13.876 -2.0961  0.0495 -2.0258
  201MPD1     N 3063   2.111   4.634  13.612 -0.0107  0.0648  0.0105
  201MPD1    H5 3064   2.119   4.556  13.548  1.3372 -0.0472  0.3165
  201MPD1    N1 3065   1.659   4.485  13.691  0.0309 -0.7769  0.7037
  201MPD1    H6 3066   1.601   4.444  13.765  0.4732 -2.5260  0.0782
  201MPD1    H7 3067   1.694   4.406  13.637  0.8743  1.7281 -2.4212
  202MPD1     C 3068   2.605   4.101   9.916 -0.1426  0.6022  0.2121
  202MPD1    C1 3069   2.500   4.155   9.984 -0.1387 -0.1636  0.3577
  202MPD1    C2 3070   2.378   4.119   9.931  0.0403 -0.1631 -0.4983
  202MPD1    C3 3071   2.367   3.991   9.869 -0.7449 -0.1481  0.2869
  202MPD1    C4 3072   2.479   3.916   9.834 -0.2405  0.1026  0.4570
  202MPD1    C5 3073   2.597   3.981   9.855  0.1374  0.0393  0.1808
  202MPD1     H 3074   2.292   4.185   9.941 -0.0664 -0.9906  4.1892
  202MPD1    H1 3075   2.480   3.832   9.766  3.0788  1.0645 -0.6673
  202MPD1    H2 3076   2.704   4.142   9.934  1.2182 -1.8600 -1.6528
  202MPD1    H3 3077   2.685   3.943   9.805  0.5118  1.3248 -0.1246
  202MPD1     N 3078   2.245   3.932   9.835 -0.2154 -0.3201 -0.1552
  202MPD1    H5 3079   2.257   3.850   9.776  0.7732 -1.7797  2.0842
  202MPD1    N1 3080   2.522   4.281  10.038 -0.0318 -0.3852  0.3484
  202MPD1    H6 3081   2.607   4.280  10.095 -0.2237 -0.4954  0.6320
  202MPD1    H7 3082   2.449   4.305  10.105 -0.1689 -0.1179  0.1038
  203MPD1     C 3083   0.771   0.339  13.343  0.0030  0.1823 -0.3062
  203MPD1    C1 3084   0.821   0.232  13.417 -0.4977 -0.0572  0.2728
  203MPD1    C2 3085   0.884   0.134  13.342  0.2144 -0.3707  0.0273
  203MPD1    C3 3086   0.867   0.125  13.202 -0.1935 -0.7410 -0.0434
  203MPD1    C4 3087   0.798   0.221  13.142  0.0141  0.1772 -0.1878
  203MPD1    C5 3088   0.754   0.334  13.210 -0.2213 -0.4560  0.0433
  203MPD1     H 3089   0.943   0.060  13.394 -1.3972 -2.2899 -0.9041
  203MPD1    H1 3090   0.777   0.221  13.035  0.0769  0.8401 -0.2005
  203MPD1    H2 3091   0.740   0.428  13.396 -0.0965  0.1389 -0.2922
  203MPD1    H3 3092   0.720   0.417  13.149  2.8090  0.2095 -0.7276
  203MPD1     N 3093   0.936   0.018  13.142  0.2350 -0.3480 -0.2160
  203MPD1    H5 3094   0.963   4.671  13.211  1.8933  1.6182  1.1092
  203MPD1    N1 3095   0.826   0.244  13.557  0.2419 -0.2225 -0.8562
  203MPD1    H6 3096   0.743   0.290  13.595  0.5604 -0.9145  0.6987
  203MPD1    H7 3097   0.828   0.158  13.612 -0.5567 -0.2299 -0.8326
  204MPD1     C 3098   0.072   0.598   0.501  0.6032  0.3542 -0.4694
  204MPD1    C1 3099   0.101   0.476   0.443 -0.1667 -0.6013 -0.1108
  204MPD1    C2 3100   0.212   0.450   0.366 -0.3722 -0.6103  0.1091
  204MPD1    C3 3101   0.305   0.554   0.349  0.3042 -0.2437  0.5861
  204MPD1    C4 3102   0.278   0.669   0.415  0.4299  0.4381 -0.1682
  204MPD1    C5 3103   0.160   0.697   0.490 -0.1997  0.5415 -0.6436
  204MPD1     H 3104   0.232   0.352   0.324  0.5545 -1.2004  1.9558
  204MPD1    H1 3105   0.352   0.748   0.421  0.2878  0.4613  1.3119
  204MPD1    H2 3106   4.703   0.611   0.558  0.8427  0.7317 -0.1792
  204MPD1    H3 3107   0.158   0.791   0.543 -1.4513 -0.5127  1.2055
  204MPD1     N 3108   0.416   0.541   0.259 -0.3997 -0.0349 -0.8615
  204MPD1    H5 3109   0.434   0.446   0.227 -0.8103 -0.8317  1.3080
  204MPD1    N1 3110   0.014   0.368   0.459  0.1926 -0.2092 -0.5622
  204MPD1    H6 3111   0.067   0.282   0.458  0.5993  0.0335  0.7962
  204MPD1    H7 3112   4.668   0.379   0.534  0.9605  0.7580 -0.0040
  205MPD1     C 3113   1.149   0.145  16.498  0.4470 -0.5316 -1.0927
  205MPD1    C1 3114   1.018   0.128  16.536 -0.5085 -0.2485 -0.2258
  205MPD1    C2 3115   1.005   0.068  16.662  0.4461 -0.1380  0.8314
  205MPD1    C3 3116   1.114   0.044  16.747  0.2019  0.2799  0.0404
  205MPD1    C4 3117   1.243   0.069  16.705  0.1643 -0.1696  0.3554
  205MPD1    C5 3118   1.259   0.122  16.580  0.3224 -0.2235 -0.2184
  205MPD1     H 3119   0.904   0.034  16.680  1.1749 -0.2898  4.5323
  205MPD1    H1 3120   1.335   0.037  16.753 -1.0354 -0.7297  2.2777
  205MPD1    H2 3121   1.171   0.196  16.406 -1.1196 -0.2224 -1.2955
  205MPD1    H3 3122   1.362   0.128  16.549 -0.0258  2.2047 -0.8586
  205MPD1     N 3123   1.101   4.693  16.874  0.0655  0.1887 -0.4469
  205MPD1    H5 3124   1.178   4.684  16.939  0.2802  1.7366 -0.4896
  205MPD1    N1 3125   0.911   0.145  16.444  0.8671 -0.0438  0.2026
  205MPD1    H6 3126   0.838   0.191  16.497 -0.3489  0.9296 -2.2827
  205MPD1    H7 3127   0.937   0.211  16.371  1.2074 -1.2315 -0.7529
  206MPD1     C 3128   1.345   3.368  16.681  0.1042 -0.1575 -0.0681
  206MPD1    C1 3129   1.350   3.238  16.634 -0.2012  0.0354  0.1200
  206MPD1    C2 3130   1.264   3.206  16.532 -0.8555 -0.2067  0.5608
  206MPD1    C3 3131   1.157   3.290  16.489  0.5426  0.3111  0.1853
  206MPD1    C4 3132   1.150   3.417  16.548 -0.8617  0.7732 -0.2249
  206MPD1    C5 3133   1.248   3.449  16.644 -0.4598 -0.4552 -0.6797
  206MPD1     H 3134   1.269   3.109  16.484  0.8225  0.1912 -0.0645
  206MPD1    H1 3135   1.084   3.493  16.509  0.0804  0.1209 -3.0400
  206MPD1    H2 3136   1.410   3.405  16.759 -0.3343 -1.1408  0.7659
  206MPD1    H3 3137   1.245   3.551  16.681 -0.4915 -0.7185  0.0278
  206MPD1     N 3138   1.071   3.257  16.384 -0.0703 -0.3856  0.0108
  206MPD1    H5 3139   1.008   3.332  16.357 -0.3867 -0.4096  0.6794
  206MPD1    N1 3140   1.469   3.168  16.663  0.3371  0.1369 -0.0298
  206MPD1    H6 3141   1.457   3.067  16.663 -1.2375  0.3164 -3.6170
  206MPD1    H7 3142   1.501   3.204  16.753  0.3946  1.0927 -0.4311
  207MPD1     C 3143   2.604   0.539   9.093 -0.8204  0.8859  0.4611
  207MPD1    C1 3144   2.691   0.640   9.080  0.6687 -0.0878 -0.1461
  207MPD1    C2 3145   2.768   0.671   9.194 -0.6368 -0.1105  0.6609
  207MPD1    C3 3146   2.768   0.582   9.299  0.2836 -0.5617 -0.8548
  207MPD1    C4 3147   2.684   0.480   9.301  0.1341 -0.1324 -1.0907
  207MPD1    C5 3148   2.592   0.460   9.200 -0.9011 -0.2291 -0.3603
  207MPD1     H 3149   2.850   0.739   9.173 -0.0596 -1.7040 -2.2361
  207MPD1    H1 3150   2.683   0.411   9.385  1.0444  1.3691  0.1478
  207MPD1    H2 3151   2.530   0.528   9.015 -0.2733  1.3405 -0.1236
  207MPD1    H3 3152   2.521   0.378   9.203  0.6579 -1.6394 -1.9974
  207MPD1     N 3153   2.860   0.584   9.406  0.4662  0.1351  0.6432
  207MPD1    H5 3154   2.855   0.522   9.486  0.0621  0.3325  0.7742
  207MPD1    N1 3155   2.688   0.730   8.972 -0.0440 -0.2682 -0.7222
  207MPD1    H6 3156   2.781   0.769   8.957  0.8225 -1.9521  0.2267
  207MPD1    H7 3157   2.650   0.683   8.891 -0.1483  0.7202 -1.2450
  208MPD1     C 3158   2.239   0.315   0.781  0.0600  0.2839 -0.3292
  208MPD1    C1 3159   2.122   0.381   0.752 -0.3321 -0.1743 -0.1264
  208MPD1    C2 3160   2.035   0.325   0.664  0.2068 -0.3516 -0.2021
  208MPD1    C3 3161   2.048   0.191   0.628 -0.0222 -0.0427  0.4322
  208MPD1    C4 3162   2.162   0.119   0.661 -0.4058  0.0598 -0.2453
  208MPD1    C5 3163   2.263   0.189   0.735  0.2782  0.6261 -0.2072
  208MPD1     H 3164   1.948   0.378   0.626  0.1465 -1.0673 -1.0453
  208MPD1    H1 3165   2.164   0.012   0.650 -1.3589 -0.2236  2.2454
  208MPD1    H2 3166   2.315   0.378   0.826 -0.6829  1.0407 -0.1335
  208MPD1    H3 3167   2.359   0.144   0.759 -0.8218 -0.6451  1.8254
  208MPD1     N 3168   1.942   0.137   0.551  0.3657  0.3910 -0.2391
  208MPD1    H5 3169   1.854   0.185   0.534 -1.1846 -2.3267  0.1484
  208MPD1    N1 3170   2.120   0.521   0.771 -0.9891 -0.6877 -0.5147
  208MPD1    H6 3171   2.028   0.563   0.755 -1.2298 -0.9430  0.2090
  208MPD1    H7 3172   2.156   0.544   0.863 -1.3739 -3.0374  0.2118
  209MPD1     C 3173   3.391   4.114  10.518  0.6342 -0.5327  0.4469
  209MPD1    C1 3174   3.436   4.213  10.434 -0.0958  0.1745  0.4455
  209MPD1    C2 3175   3.393   4.338  10.449  0.1618 -0.3344 -0.4326
  209MPD1    C3 3176   3.300   4.369  10.547 -0.5793 -0.3119 -0.8045
  209MPD1    C4 3177   3.260   4.269  10.632 -0.2950 -0.1034  0.0777
  209MPD1    C5 3178   3.312   4.143  10.620 -0.4503  0.6375 -0.5332
  209MPD1     H 3179   3.427   4.417  10.383  2.2892  0.5717  1.7430
  209MPD1    H1 3180   3.179   4.281  10.703 -0.5348  0.2390 -0.2547
  209MPD1    H2 3181   3.422   4.010  10.508  2.4555 -0.0252  0.8946
  209MPD1    H3 3182   3.286   4.068  10.694  0.8891  0.9400  0.2442
  209MPD1     N 3183   3.272   4.508  10.562 -0.4449 -0.0118  0.6575
  209MPD1    H5 3184   3.326   4.570  10.502  1.7588 -1.4059  1.2207
  209MPD1    N1 3185   3.542   4.182  10.349  0.2134 -0.0633  0.1573
  209MPD1    H6 3186   3.526   4.094  10.300  1.2730  0.0153 -0.3246
  209MPD1    H7 3187   3.549   4.258  10.282  1.6314 -0.8416 -0.5921
  210MPD1     C 3188   3.505   0.539  11.118 -0.1880  0.1488  0.6809
  210MPD1    C1 3189   3.379   0.578  11.089 -0.1383  0.8920  0.5259
  210MPD1    C2 3190   3.309   0.494  10.999  0.0218  0.1809  0.3290
  210MPD1    C3 3191   3.376   0.397  10.926  0.2602 -0.8094 -0.1448
  210MPD1    C4 3192   3.509   0.375  10.942 -0.3987  0.0035  0.0120
  210MPD1    C5 3193   3.567   0.436  11.047  1.0622  0.5409  0.7779
  210MPD1     H 3194   3.204   0.511  10.977 -0.4564 -0.8222  1.8871
  210MPD1    H1 3195   3.560   0.295  10.889  0.3390 -0.4124  1.3420
  210MPD1    H2 3196   3.552   0.586  11.204 -2.1046  0.9633  1.2714
  210MPD1    H3 3197   3.662   0.393  11.076  0.5629 -2.3066 -1.8949
  210MPD1     N 3198   3.309   0.309  10.835  0.0892 -0.5737  0.3858
  210MPD1    H5 3199   3.367   0.229  10.813 -1.9005 -1.9440  0.1001
  210MPD1    N1 3200   3.305   0.662  11.174  0.2043 -0.6911 -0.3035
  210MPD1    H6 3201   3.219   0.700  11.134  0.3310  0.2080  0.2779
  210MPD1    H7 3202   3.366   0.742  11.192  0.5058 -0.1682 -3.5999
  211MPD1     C 3203   1.301   4.500  16.133  1.0926  0.1517  0.5675
  211MPD1    C1 3204   1.278   4.568  16.253 -0.1181  0.6603  0.2692
  211MPD1    C2 3205   1.146   4.584  16.292  0.1478  0.0762 -1.0706
  211MPD1    C3 3206   1.046   4.545  16.209  0.1760 -0.1601 -0.4800
  211MPD1    C4 3207   1.074   4.493  16.089 -0.3397 -0.7739 -0.0918
  211MPD1    C5 3208   1.199   4.470  16.049  0.0054 -0.9250 -0.1240
  211MPD1     H 3209   1.121   4.622  16.391  1.0185  0.3195 -0.9477
  211MPD1    H1 3210   0.998   4.482  16.013 -0.4609 -0.4231 -0.0196
  211MPD1    H2 3211   1.400   4.477  16.097  0.2094 -1.4437 -0.8611
  211MPD1    H3 3212   1.229   4.430  15.952  1.0538  1.6605 -0.8621
  211MPD1     N 3213   0.917   4.578  16.255  0.2536  0.3884 -0.3081
  211MPD1    H5 3214   0.914   4.635  16.339  2.1279  2.2601 -1.4918
  211MPD1    N1 3215   1.385   4.590  16.347 -0.1980 -0.4350 -0.4173
  211MPD1    H6 3216   1.379   4.661  16.419 -2.7294 -1.2983  0.2351
  211MPD1    H7 3217   1.469   4.615  16.295 -0.6063  3.1677  0.6862
  212MPD1     C 3218   0.633   3.285  16.380  0.2574 -0.0862  0.2561
  212MPD1    C1 3219   0.663   3.283  16.514  0.3707 -0.4668  0.8614
  212MPD1    C2 3220   0.590   3.205  16.593 -0.4006  0.5805 -0.6931
  212MPD1    C3 3221   0.483   3.125  16.543  0.1688  0.2654 -0.2229
  212MPD1    C4 3222   0.471   3.104  16.410 -0.0189  0.4508 -0.1251
  212MPD1    C5 3223   0.538   3.194  16.334 -0.2527 -0.1532 -0.0975
  212MPD1     H 3224   0.601   3.208  16.701  0.5728 -0.4179 -0.7627
  212MPD1    H1 3225   0.394   3.038  16.372  1.2173 -0.2725 -1.3616
  212MPD1    H2 3226   0.703   3.336  16.316 -0.7628 -1.2792 -1.8059
  212MPD1    H3 3227   0.530   3.185  16.226  0.2157  1.2325 -0.2531
  212MPD1     N 3228   0.404   3.051  16.630 -0.3807 -0.3891 -0.7173
  212MPD1    H5 3229   0.339   2.987  16.585 -0.3223 -0.1069 -1.2067
  212MPD1    N1 3230   0.780   3.348  16.553  0.4363  0.8382  0.4679
  212MPD1    H6 3231   0.815   3.418  16.488 -2.4795 -0.3203 -2.3240
  212MPD1    H7 3232   0.765   3.389  16.644  2.4089 -1.1251  1.6890
  213MPD1     C 3233   4.312   3.889  15.387 -0.1426 -0.1107  1.0020
  213MPD1    C1 3234   4.247   3.825  15.492 -0.2516 -0.0144  0.7157
  213MPD1    C2 3235   4.113   3.842  15.494 -0.6288 -0.3319  0.4071
  213MPD1    C3 3236   4.053   3.949  15.427 -0.1701  0.0677  0.0798
  213MPD1    C4 3237   4.130   4.026  15.337 -0.2299 -0.0852  0.0788
  213MPD1    C5 3238   4.262   3.992  15.316 -0.4245 -0.3311 -0.5752
  213MPD1     H 3239   4.047   3.791  15.563 -0.5127 -0.2479  0.5812
  213MPD1    H1 3240   4.089   4.118  15.297 -0.1069  0.9796  2.3904
  213MPD1    H2 3241   4.418   3.870  15.377 -0.3090 -0.6708  0.3080
  213MPD1    H3 3242   4.327   4.058  15.261  0.3664  0.7043  1.5734
  213MPD1     N 3243   3.921   3.987  15.465 -0.6580 -0.5418 -0.2926
  213MPD1    H5 3244   3.887   3.942  15.549 -0.0865 -0.0329  0.2113
  213MPD1    N1 3245   4.286   3.694  15.524  0.4194  0.1381  0.1018
  213MPD1    H6 3246   4.254   3.658  15.614 -0.5245 -1.5689 -0.9133
  213MPD1    H7 3247   4.386   3.681  15.529  0.3015 -0.1096  1.9974
  214MPD1     C 3248   3.261   3.833  16.117  0.4734 -0.7984 -0.0087
  214MPD1    C1 3249   3.388   3.881  16.126  0.3384  0.5561 -0.3278
  214MPD1    C2 3250   3.433   3.953  16.014 -0.4479 -0.7660  0.4308
  214MPD1    C3 3251   3.363   3.961  15.893 -0.0078  0.2486 -0.0952
  214MPD1    C4 3252   3.241   3.906  15.892  0.3173  0.1165  0.3452
  214MPD1    C5 3253   3.189   3.844  16.002  0.3783 -0.3286  0.4855
  214MPD1     H 3254   3.536   3.989  16.018 -1.1772  1.4902 -1.5023
  214MPD1    H1 3255   3.181   3.911  15.802  0.9826  2.3101  0.0075
  214MPD1    H2 3256   3.202   3.787  16.195  0.6327  0.1635  0.6826
  214MPD1    H3 3257   3.087   3.808  15.994 -0.5175  2.3975 -0.1982
  214MPD1     N 3258   3.400   4.029  15.774 -0.9269 -0.3444 -0.4044
  214MPD1    H5 3259   3.339   4.017  15.694 -1.5834 -3.0951  0.4865
  214MPD1    N1 3260   3.437   3.882  16.253  0.2555 -0.8631  0.4839
  214MPD1    H6 3261   3.414   3.794  16.299 -0.3416 -1.0677 -0.2215
  214MPD1    H7 3262   3.534   3.912  16.266 -0.1100  0.7415 -0.5647
  215MPD1     C 3263   3.273   3.638  10.240 -0.1482 -0.3784  0.4591
  215MPD1    C1 3264   3.303   3.658  10.371 -0.0298 -0.1600 -0.0670
  215MPD1    C2 3265   3.226   3.758  10.434  0.9815  0.3780 -0.0401
  215MPD1    C3 3266   3.116   3.813  10.380  0.3165 -0.2422  0.5477
  215MPD1    C4 3267   3.081   3.777  10.254  0.3038  0.3779  0.0961
  215MPD1    C5 3268   3.156   3.687  10.184 -0.5225  0.0475 -0.4210
  215MPD1     H 3269   3.253   3.775  10.538 -1.6830 -2.7387  1.1661
  215MPD1    H1 3270   2.990   3.803  10.200  0.5719  0.3955 -0.3467
  215MPD1    H2 3271   3.338   3.571  10.185  0.0940  1.4297 -1.4548
  215MPD1    H3 3272   3.125   3.667  10.082 -1.4178  1.0937 -0.3616
  215MPD1     N 3273   3.045   3.901  10.465  0.1636  0.6223  0.4791
  215MPD1    H5 3274   3.071   3.913  10.562  2.0743 -2.3311  0.2976
  215MPD1    N1 3275   3.420   3.610  10.426  0.0174  0.7573 -0.3349
  215MPD1    H6 3276   3.445   3.518  10.391 -0.1890  0.8877 -0.8292
  215MPD1    H7 3277   3.422   3.609  10.527  0.7570 -0.1967 -0.3563
  216MPD1     C 3278   0.604   2.906  17.002 -0.6107 -0.2024 -0.2847
  216MPD1    C1 3279   0.575   2.788  16.932 -0.7817  0.0878  0.7082
  216MPD1    C2 3280   0.487   2.693  16.987  0.1367  0.0447 -0.4809
  216MPD1    C3 3281   0.422   2.715  17.101  0.0690  0.2995  0.0629
  216MPD1    C4 3282   0.454   2.835  17.165  0.4719 -0.0918  0.3351
  216MPD1    C5 3283   0.538   2.935  17.116 -0.0924  0.3377 -0.0264
  216MPD1     H 3284   0.460   2.604  16.931 -2.5044  0.2325  0.4865
  216MPD1    H1 3285   0.393   2.861  17.252 -0.3203 -2.4576  0.4809
  216MPD1    H2 3286   0.680   2.977  16.972 -3.1124  1.6205 -2.4029
  216MPD1    H3 3287   0.563   3.020  17.178  2.4571 -1.9527  2.1215
  216MPD1     N 3288   0.327   2.623  17.147 -0.1073 -0.4580 -0.0687
  216MPD1    H5 3289   0.305   2.539  17.093  0.7555 -1.0987  0.5810
  216MPD1    N1 3290   0.656   2.750  16.822  0.0806  0.2502  0.9203
  216MPD1    H6 3291   0.685   2.826  16.761 -0.8192  1.1556  1.6371
  216MPD1    H7 3292   0.631   2.669  16.765 -1.2975  0.3634  1.3808
  217MPD1     C 3293   0.601   3.151   7.915 -0.3972 -0.3376  0.6237
  217MPD1    C1 3294   0.616   3.051   8.008 -0.1752  0.2977  0.0785
  217MPD1    C2 3295   0.667   3.080   8.132 -0.0927  0.2547 -0.6140
  217MPD1    C3 3296   0.696   3.212   8.163 -0.3035 -0.5850 -0.1548
  217MPD1    C4 3297   0.687   3.308   8.066 -0.0508  0.2436 -0.5325
  217MPD1    C5 3298   0.624   3.278   7.951 -0.6609  0.1593  0.2974
  217MPD1     H 3299   0.670   3.000   8.204  0.2727  1.3128  0.5551
  217MPD1    H1 3300   0.721   3.409   8.087 -1.0216  0.8290 -1.8108
  217MPD1    H2 3301   0.573   3.124   7.814  0.2979  1.2944  0.0035
  217MPD1    H3 3302   0.615   3.359   7.880  0.9016  0.3848  0.3442
  217MPD1     N 3303   0.759   3.250   8.282  0.6433  0.4520 -0.1198
  217MPD1    H5 3304   0.784   3.346   8.304 -0.3939  0.6043  0.4208
  217MPD1    N1 3305   0.561   2.926   7.972  0.0932  0.2219 -0.1396
  217MPD1    H6 3306   0.618   2.844   7.993  0.3549  0.1025 -1.3089
  217MPD1    H7 3307   0.549   2.917   7.872  0.1370 -1.7775  0.0289
  218MPD1     C 3308   2.398   0.117  12.669  0.2647  0.1528 -0.7943
  218MPD1    C1 3309   2.395   0.241  12.609  0.2535  0.3989  0.1194
  218MPD1    C2 3310   2.501   0.330  12.625 -0.1319 -0.6465 -0.3607
  218MPD1    C3 3311   2.609   0.291  12.707 -0.5047 -0.5778  0.1728
  218MPD1    C4 3312   2.606   0.167  12.766 -0.1524  0.9692 -0.2827
  218MPD1    C5 3313   2.505   0.076  12.748  0.3398  0.4862 -0.6378
  218MPD1     H 3314   2.507   0.426  12.575 -1.7384  0.7561  2.1642
  218MPD1    H1 3315   2.687   0.128  12.827 -0.3168  2.6975  1.0457
  218MPD1    H2 3316   2.330   0.034  12.654  1.4805 -0.7476 -1.3040
  218MPD1    H3 3317   2.495   4.707  12.806  1.6177 -0.6184 -2.1685
  218MPD1     N 3318   2.718   0.377  12.701  0.2677 -0.1007  0.2245
  218MPD1    H5 3319   2.711   0.458  12.641 -0.1971 -0.6765 -0.5037
  218MPD1    N1 3320   2.279   0.280  12.535  0.6174  0.9307  0.2765
  218MPD1    H6 3321   2.227   0.194  12.517 -1.1025  1.6027  2.0006
  218MPD1    H7 3322   2.293   0.325  12.445  0.6381  0.6365  0.1321
  219MPD1     C 3323   3.151   0.900  12.006 -0.0680 -0.0633 -0.0099
  219MPD1    C1 3324   3.052   0.808  12.032  0.2154 -0.5280 -0.1693
  219MPD1    C2 3325   3.040   0.738  12.152 -1.0175 -0.3714  0.0180
  219MPD1    C3 3326   3.140   0.746  12.239 -0.9056 -0.8162  0.3393
  219MPD1    C4 3327   3.244   0.839  12.226 -0.2496  0.0828  0.1830
  219MPD1    C5 3328   3.241   0.911  12.106  0.2909  0.2219 -0.0949
  219MPD1     H 3329   2.963   0.664  12.171 -0.1561 -1.4606 -0.7112
  219MPD1    H1 3330   3.317   0.858  12.304 -1.1185  1.8237  0.5575
  219MPD1    H2 3331   3.170   0.970  11.925 -3.0304  0.9216  0.1484
  219MPD1    H3 3332   3.316   0.987  12.090 -1.9824  2.3980 -0.4293
  219MPD1     N 3333   3.135   0.676  12.358  0.1094 -0.4125 -0.2797
  219MPD1    H5 3334   3.215   0.689  12.419 -0.7199  1.5840  0.3827
  219MPD1    N1 3335   2.960   0.789  11.930 -0.5327  0.1327 -0.2750
  219MPD1    H6 3336   2.937   0.690  11.931  0.4897 -0.1228 -1.7111
  219MPD1    H7 3337   3.013   0.807  11.845 -1.2732  0.1674 -0.7307
  220MPD1     C 3338   2.261   3.421  10.146  0.6716  0.1360  0.0017
  220MPD1    C1 3339   2.287   3.507  10.250  0.4717 -0.2121 -0.3174
  220MPD1    C2 3340   2.206   3.626  10.270 -0.0735  0.1334  0.2006
  220MPD1    C3 3341   2.098   3.649  10.186 -0.5488 -0.2329  0.2363
  220MPD1    C4 3342   2.069   3.551  10.095  0.6383 -0.2793  0.2934
  220MPD1    C5 3343   2.146   3.439  10.074  0.2197  0.3904  0.3664
  220MPD1     H 3344   2.224   3.694  10.353  0.4723 -0.4769  0.5838
  220MPD1    H1 3345   1.982   3.550  10.030 -1.1853  0.7428  2.7240
  220MPD1    H2 3346   2.322   3.334  10.122  0.2899  0.2849 -1.5130
  220MPD1    H3 3347   2.123   3.377   9.987 -0.5139  2.8852 -1.2161
  220MPD1     N 3348   2.012   3.760  10.204 -0.1901  0.3271 -0.0895
  220MPD1    H5 3349   2.042   3.830  10.271  2.7341 -0.6944 -0.3712
  220MPD1    N1 3350   2.408   3.504  10.323 -0.6841 -0.0591  1.3246
  220MPD1    H6 3351   2.432   3.406  10.336  1.1450  0.4529  1.7641
  220MPD1    H7 3352   2.396   3.553  10.411 -3.3123 -0.6447  1.2996
  221MPD1     C 3353   0.505   4.224  16.348  0.0177  0.3082  0.2451
  221MPD1    C1 3354   0.613   4.267  16.423 -0.2172  0.1367  0.1889
  221MPD1    C2 3355   0.739   4.224  16.370 -0.7329  0.6483  0.7932
  221MPD1    C3 3356   0.748   4.170  16.247  0.3645 -0.1711  0.1589
  221MPD1    C4 3357   0.637   4.146  16.172 -0.2129  0.3732 -0.5960
  221MPD1    C5 3358   0.518   4.165  16.226 -0.0178 -0.1771 -0.5892
  221MPD1     H 3359   0.831   4.238  16.425 -0.7513  0.4375  0.8763
  221MPD1    H1 3360   0.653   4.100  16.076  3.2698  1.3558 -0.5046
  221MPD1    H2 3361   0.403   4.245  16.378 -0.5271 -1.8630 -0.0752
  221MPD1    H3 3362   0.430   4.133  16.171 -0.5010 -0.1583  0.1747
  221MPD1     N 3363   0.867   4.134  16.179  0.4781 -0.3922  0.1588
  221MPD1    H5 3364   0.861   4.093  16.087  0.8858 -0.4337  0.1489
  221MPD1    N1 3365   0.603   4.302  16.556 -0.3544 -0.2316  0.6152
  221MPD1    H6 3366   0.677   4.353  16.603  1.6443 -0.8704 -1.8421
  221MPD1    H7 3367   0.519   4.358  16.567 -0.1393  0.7031 -2.5118
  222MPD1     C 3368   1.172   3.801  16.784 -0.7153 -0.3777  0.6211
  222MPD1    C1 3369   1.161   3.851  16.912 -0.3137 -0.0291  0.0314
  222MPD1    C2 3370   1.043   3.825  16.979  0.3166 -0.4740  0.2676
  222MPD1    C3 3371   0.938   3.763  16.921  0.3301  0.4116  0.2436
  222MPD1    C4 3372   0.955   3.701  16.790 -0.2279 -0.1131 -0.0390
  222MPD1    C5 3373   1.070   3.727  16.722 -0.3182 -0.2108  0.4100
  222MPD1     H 3374   1.030   3.871  17.077 -0.4369 -2.2755  1.0050
  222MPD1    H1 3375   0.888   3.630  16.743  1.4460 -0.3069 -2.1330
  222MPD1    H2 3376   1.265   3.819  16.732 -2.0951 -0.7639 -2.0040
  222MPD1    H3 3377   1.085   3.686  16.623  1.6182  3.5542 -0.8547
  222MPD1     N 3378   0.817   3.743  16.981 -0.5633  0.1961 -0.0684
  222MPD1    H5 3379   0.754   3.678  16.935 -1.6739 -0.0019  1.7610
  222MPD1    N1 3380   1.275   3.906  16.973  0.2265  0.5102 -0.5414
  222MPD1    H6 3381   1.254   3.989  17.028  0.3270 -1.2011  2.1251
  222MPD1    H7 3382   1.343   3.936  16.904 -1.4932 -0.0945 -2.4838
  223MPD1     C 3383   0.261   3.099  17.469  0.7809 -0.5341  0.3536
  223MPD1    C1 3384   0.311   3.183  17.562 -0.3334 -0.1251  0.5627
  223MPD1    C2 3385   0.340   3.310  17.510 -0.3674 -0.1889  0.1808
  223MPD1    C3 3386   0.341   3.346  17.379  0.2425 -0.2372 -0.7044
  223MPD1    C4 3387   0.286   3.257  17.288  0.0063 -0.0981  0.2053
  223MPD1    C5 3388   0.252   3.138  17.340 -0.1222  0.4937 -0.0245
  223MPD1     H 3389   0.383   3.377  17.583 -1.1274  0.6505 -0.1493
  223MPD1    H1 3390   0.275   3.281  17.183 -1.8282  4.1347  1.3625
  223MPD1    H2 3391   0.201   3.014  17.498  1.3456 -1.5053 -1.3519
  223MPD1    H3 3392   0.215   3.066  17.267  0.6147  1.3834 -1.2654
  223MPD1     N 3393   0.401   3.469  17.351  0.2721 -0.3103  0.0128
  223MPD1    H5 3394   0.428   3.533  17.425  0.0047  1.2873 -1.2683
  223MPD1    N1 3395   0.299   3.175   0.008  0.4561  0.3388 -0.2001
  223MPD1    H6 3396   0.300   3.080   0.045 -0.1235  0.0353 -0.9678
  223MPD1    H7 3397   0.377   3.228   0.046  2.1247 -1.3553 -1.2714
  224MPD1     C 3398   1.685   0.043   9.430  0.1860 -0.2324 -0.7265
  224MPD1    C1 3399   1.736   4.647   9.471 -0.4365 -0.3500 -0.3015
  224MPD1    C2 3400   1.657   4.532   9.460  0.1633 -0.1024 -0.4426
  224MPD1    C3 3401   1.538   4.527   9.388 -0.9907  0.7380 -0.2446
  224MPD1    C4 3402   1.488   4.646   9.338 -0.9733 -0.0033 -0.6546
  224MPD1    C5 3403   1.557   0.042   9.364  0.6486 -0.1290  0.6707
  224MPD1     H 3404   1.703   4.438   9.489 -0.6490  0.0165  1.2042
  224MPD1    H1 3405   1.398   4.655   9.279 -1.0318 -0.9741 -0.7141
  224MPD1    H2 3406   1.748   0.132   9.430  2.3117 -1.7626  2.9473
  224MPD1    H3 3407   1.516   0.128   9.313 -0.5814  0.1071  2.0664
  224MPD1     N 3408   1.467   4.402   9.367  0.8024  0.2133  0.0968
  224MPD1    H5 3409   1.376   4.400   9.322  1.4829 -1.0864 -1.2207
  224MPD1    N1 3410   1.842   4.641   9.563  0.4345  0.9064 -0.4474
  224MPD1    H6 3411   1.906   4.564   9.544  0.5136  0.4555  1.6250
  224MPD1    H7 3412   1.906   4.720   9.563 -1.0586  2.1179  0.8029
  225MPD1     C 3413   2.736   1.220  12.550 -0.4643 -0.0251  0.3990
  225MPD1    C1 3414   2.658   1.130  12.625  0.2542 -0.3401 -0.0113
  225MPD1    C2 3415   2.556   1.060  12.566 -0.4410  0.4133 -0.3885
  225MPD1    C3 3416   2.532   1.078  12.430  0.1329 -0.4014  1.6670
  225MPD1    C4 3417   2.609   1.166  12.353 -0.8917 -0.1479 -0.6224
  225MPD1    C5 3418   2.709   1.232  12.414  0.2935  0.6926 -0.3073
  225MPD1     H 3419   2.489   0.997  12.623  1.2469  0.3449  1.5264
  225MPD1    H1 3420   2.573   1.188  12.253 -2.1238  2.0825  0.3073
  225MPD1    H2 3421   2.804   1.290  12.598  1.8048 -1.3696 -0.8558
  225MPD1    H3 3422   2.775   1.289  12.349 -1.7217  2.3226 -0.9256
  225MPD1     N 3423   2.426   1.012  12.360  0.2359  0.0078  0.2540
  225MPD1    H5 3424   2.417   1.031  12.260 -0.6034 -0.2562  0.2838
  225MPD1    N1 3425   2.662   1.138  12.767  0.5108 -0.7891 -0.3645
  225MPD1    H6 3426   2.644   1.046  12.805  0.2188 -1.1043 -1.2454
  225MPD1    H7 3427   2.752   1.171  12.800 -0.5970  1.1059  0.7403
  226MPD1     C 3428   4.568   4.624   9.270 -0.4503 -0.4303 -0.6716
  226MPD1    C1 3429   4.663   4.552   9.205 -0.3739  0.4427 -0.7067
  226MPD1    C2 3430   0.061   4.615   9.190  0.3579 -0.2738  0.8567
  226MPD1    C3 3431   0.097   0.004   9.263  0.8510 -0.6179 -0.3105
  226MPD1    C4 3432   0.000   0.067   9.336 -0.6417  0.0097  0.6928
  226MPD1    C5 3433   4.597   0.015   9.339 -0.2741 -0.7238 -0.9451
  226MPD1     H 3434   0.142   4.563   9.141  0.0278  0.4693 -0.4881
  226MPD1    H1 3435   0.021   0.150   9.403 -1.0473  1.0895 -0.5012
  226MPD1    H2 3436   4.465   4.589   9.273 -0.7894  0.7546  0.9109
  226MPD1    H3 3437   4.529   0.068   9.405  0.4826  0.7898 -1.3713
  226MPD1     N 3438   0.235   0.034   9.265  0.2680 -0.2245  0.0302
  226MPD1    H5 3439   0.294   4.692   9.213 -1.1953 -0.3169 -1.5347
  226MPD1    N1 3440   4.633   4.436   9.134 -0.2578  0.0214 -0.2620
  226MPD1    H6 3441   4.548   4.389   9.165 -0.2922 -0.8267 -1.6349
  226MPD1    H7 3442   4.709   4.369   9.146 -0.3069  0.2106  1.0778
  227MPD1     C 3443   0.774   4.195   9.095 -0.5133  0.4080  0.6160
  227MPD1    C1 3444   0.871   4.271   9.161  0.1810 -0.3094 -0.4585
  227MPD1    C2 3445   0.835   4.407   9.168  0.1814 -0.9506 -0.2872
  227MPD1    C3 3446   0.711   4.461   9.133 -0.0995  0.2849  0.2285
  227MPD1    C4 3447   0.622   4.373   9.075  0.2473 -0.0859 -0.6757
  227MPD1    C5 3448   0.659   4.245   9.051  0.1931  0.4332 -0.3653
  227MPD1     H 3449   0.903   4.478   9.214  0.5656 -0.4296 -1.6509
  227MPD1    H1 3450   0.522   4.403   9.045 -0.6064  0.7777  3.1021
  227MPD1    H2 3451   0.774   4.086   9.092  1.8910  0.4590 -0.7570
  227MPD1    H3 3452   0.581   4.190   9.000 -2.1730  1.5214  2.0487
  227MPD1     N 3453   0.674   4.594   9.141 -0.2040 -0.2742  0.2362
  227MPD1    H5 3454   0.582   4.615   9.103  0.0987 -1.8735 -1.3838
  227MPD1    N1 3455   0.997   4.214   9.197  0.4490 -0.4519 -0.2464
  227MPD1    H6 3456   0.976   4.118   9.225  2.8285 -1.0704 -0.5765
  227MPD1    H7 3457   1.016   4.274   9.277  0.9162  0.2410 -0.8766
  228MPD1     C 3458   4.314   3.428  13.227  0.3916  0.0230  0.4191
  228MPD1    C1 3459   4.326   3.416  13.093  0.3572 -0.6686 -0.0088
  228MPD1    C2 3460   4.206   3.397  13.024  0.1429  0.4638  0.1273
  228MPD1    C3 3461   4.083   3.370  13.087  0.0588  0.4135  0.2502
  228MPD1    C4 3462   4.086   3.375  13.225 -0.2882  0.1756  0.4531
  228MPD1    C5 3463   4.198   3.410  13.292  0.0649  0.0338 -0.5836
  228MPD1     H 3464   4.214   3.391  12.916 -0.1645  0.8524  0.0822
  228MPD1    H1 3465   4.003   3.351  13.290 -0.0646  1.3343  1.1467
  228MPD1    H2 3466   4.389   3.467  13.294 -0.4751  1.3554  0.6240
  228MPD1    H3 3467   4.190   3.433  13.398 -0.5941  1.1265 -0.8615
  228MPD1     N 3468   3.967   3.336  13.013 -0.5348  0.4886 -0.5820
  228MPD1    H5 3469   3.968   3.362  12.915 -0.7990  1.4524 -0.3341
  228MPD1    N1 3470   4.444   3.464  13.027  0.3800 -0.2992 -0.6226
  228MPD1    H6 3471   4.534   3.456  13.073 -0.2138  0.4356  0.6428
  228MPD1    H7 3472   4.453   3.418  12.936  0.5637 -2.3627  0.4297
  229MPD1     C 3473   3.686   2.705  14.712 -1.4060 -0.5030  0.1858
  229MPD1    C1 3474   3.648   2.585  14.647 -0.1132 -0.0163 -0.4821
  229MPD1    C2 3475   3.730   2.477  14.653 -0.1200  0.0230  0.2760
  229MPD1    C3 3476   3.852   2.483  14.720 -0.0294 -0.3604 -0.1092
  229MPD1    C4 3477   3.874   2.598  14.794 -0.5886  0.0028 -0.4905
  229MPD1    C5 3478   3.801   2.717  14.781 -0.4678  0.3653  0.9368
  229MPD1     H 3479   3.704   2.391  14.593 -0.1966  0.0612  0.2544
  229MPD1    H1 3480   3.973   2.605  14.838  0.0615  1.2255 -2.1705
  229MPD1    H2 3481   3.631   2.798  14.712  0.9862  0.9080 -0.0341
  229MPD1    H3 3482   3.822   2.814  14.825 -1.5205  1.0371 -0.0459
  229MPD1     N 3483   3.945   2.376  14.737 -0.0505 -0.0983  0.1783
  229MPD1    H5 3484   4.031   2.396  14.788  2.1289 -0.0707 -3.4624
  229MPD1    N1 3485   3.538   2.585  14.559  0.0204 -0.3983  0.7390
  229MPD1    H6 3486   3.507   2.489  14.548 -1.9148  0.2033  0.9194
  229MPD1    H7 3487   3.455   2.635  14.591 -0.9576 -1.9243  0.5921
  230MPD1     C 3488   4.265   1.913  15.497 -1.0857  0.1570 -0.4543
  230MPD1    C1 3489   4.365   1.877  15.418  0.7891  0.2942 -0.5605
  230MPD1    C2 3490   4.347   1.898  15.281  0.0773  0.0179  0.1527
  230MPD1    C3 3491   4.237   1.965  15.232 -0.0743 -0.6079 -0.4461
  230MPD1    C4 3492   4.144   2.005  15.319 -0.3065  0.2513 -0.7347
  230MPD1    C5 3493   4.155   1.968  15.448  0.9168  0.0996  0.7595
  230MPD1     H 3494   4.430   1.872  15.217 -1.1933 -0.2828 -1.3857
  230MPD1    H1 3495   4.046   2.037  15.286 -0.6125 -0.7309 -0.8054
  230MPD1    H2 3496   4.258   1.891  15.603  1.3052 -2.0912 -0.7709
  230MPD1    H3 3497   4.077   2.003  15.515  0.5759 -0.9451  0.9067
  230MPD1     N 3498   4.219   1.982  15.090  0.9610 -0.0752  0.3449
  230MPD1    H5 3499   4.294   1.938  15.036  1.9744  0.9106  0.9574
  230MPD1    N1 3500   4.466   1.797  15.470  1.0744  0.5087 -0.0446
  230MPD1    H6 3501   4.560   1.812  15.433  1.5239  0.3760  1.0512
  230MPD1    H7 3502   4.486   1.816  15.568 -1.0812  2.2427  0.0511
  231MPD1     C 3503   1.922   3.903  16.370 -0.5395 -0.1188  0.6950
  231MPD1    C1 3504   1.957   3.791  16.289  0.5898 -0.1041 -0.4603
  231MPD1    C2 3505   2.002   3.817  16.163 -0.2055 -0.6665  0.4764
  231MPD1    C3 3506   2.040   3.942  16.120  0.3642 -0.3305  0.1080
  231MPD1    C4 3507   2.011   4.049  16.204 -0.7345  0.3404 -0.2027
  231MPD1    C5 3508   1.950   4.022  16.321  0.3804  0.0678 -0.3219
  231MPD1     H 3509   2.010   3.732  16.096 -1.7589 -0.7464  0.4024
  231MPD1    H1 3510   2.002   4.151  16.170  1.6977  1.6725  3.1345
  231MPD1    H2 3511   1.863   3.903  16.461 -2.3745 -1.2536 -0.5176
  231MPD1    H3 3512   1.924   4.108  16.383  0.5104 -0.2841  0.2218
  231MPD1     N 3513   2.091   3.963  15.986  0.4235 -0.0046 -0.4428
  231MPD1    H5 3514   2.068   3.893  15.916  0.5040 -0.2033 -0.2709
  231MPD1    N1 3515   1.915   3.663  16.333 -0.4300  0.0929 -0.4091
  231MPD1    H6 3516   1.969   3.592  16.282 -2.0555 -0.5520 -1.2200
  231MPD1    H7 3517   1.909   3.649  16.434 -1.7796  0.2974 -0.4646
  232MPD1     C 3518   3.251   2.895   0.192 -0.4091  0.0155 -0.2635
  232MPD1    C1 3519   3.356   2.804   0.200 -1.0185 -0.9984 -0.1451
  232MPD1    C2 3520   3.327   2.669   0.185 -0.1244 -0.1632 -0.6968
  232MPD1    C3 3521   3.198   2.618   0.179  0.3056  0.0707  0.4161
  232MPD1    C4 3522   3.099   2.707   0.176  0.2165 -0.6261  0.4067
  232MPD1    C5 3523   3.124   2.844   0.173  0.0981  0.4019  0.0191
  232MPD1     H 3524   3.413   2.604   0.179 -0.0307 -0.0396 -0.6621
  232MPD1    H1 3525   2.995   2.678   0.165  0.6626 -2.1353  0.2494
  232MPD1    H2 3526   3.265   3.002   0.198 -0.5528  0.0680 -0.9020
  232MPD1    H3 3527   3.040   2.910   0.154  0.2454  0.5301 -0.1845
  232MPD1     N 3528   3.177   2.483   0.173 -0.4702  0.0143 -0.1852
  232MPD1    H5 3529   3.263   2.428   0.172 -0.0579  0.6986 -2.6479
  232MPD1    N1 3530   3.488   2.845   0.202 -0.3907 -0.3871  0.7455
  232MPD1    H6 3531   3.497   2.918   0.272 -1.9282  1.2436 -0.7885
  232MPD1    H7 3532   3.548   2.767   0.228  1.9545  1.5155  0.9780
  233MPD1     C 3533   0.018   0.809   1.875 -0.2106  0.4329  0.3570
  233MPD1    C1 3534   0.011   0.739   2.000 -0.5002  1.0419  0.6615
  233MPD1    C2 3535   0.083   0.619   2.027 -0.3198  0.7563  0.3462
  233MPD1    C3 3536   0.154   0.574   1.920  0.2141  0.6816 -0.0734
  233MPD1    C4 3537   0.157   0.635   1.796  0.3952 -0.1025  0.3631
  233MPD1    C5 3538   0.096   0.757   1.777 -0.5963  0.6384 -0.2841
  233MPD1     H 3539   0.066   0.563   2.118 -0.1096 -2.6530 -1.7292
  233MPD1    H1 3540   0.217   0.591   1.717 -0.2539  2.7131 -1.6913
  233MPD1    H2 3541   4.674   0.894   1.861 -0.3257  0.5974  1.8341
  233MPD1    H3 3542   0.088   0.794   1.675  2.7024 -1.2761 -1.2115
  233MPD1     N 3543   0.247   0.468   1.935  0.0402  0.1600  0.3977
  233MPD1    H5 3544   0.284   0.429   1.849 -0.6568  1.8495 -0.6775
  233MPD1    N1 3545   4.633   0.773   2.091  0.5624  0.1436 -0.3335
  233MPD1    H6 3546   4.674   0.771   2.184  0.3344  0.5846 -0.2207
  233MPD1    H7 3547   4.598   0.867   2.069 -1.2775  0.0121  2.1132
  234MPD1     C 3548   1.673   2.227   9.611  0.4477  0.2955 -0.1896
  234MPD1    C1 3549   1.569   2.262   9.527 -0.1741 -0.2825  0.0168
  234MPD1    C2 3550   1.562   2.392   9.480  0.6392 -0.8044  0.0379
  234MPD1    C3 3551   1.657   2.486   9.510 -0.1414  0.9863  0.3763
  234MPD1    C4 3552   1.746   2.452   9.605  0.0758  0.7254 -0.7870
  234MPD1    C5 3553   1.761   2.330   9.646  0.1108 -0.3989  0.4441
  234MPD1     H 3554   1.487   2.417   9.407  0.9460 -1.1730 -0.4078
  234MPD1    H1 3555   1.829   2.514   9.637  0.2465 -0.1885  0.5749
  234MPD1    H2 3556   1.688   2.125   9.642 -3.3187  0.3253  1.6863
  234MPD1    H3 3557   1.843   2.320   9.717 -0.8863  1.1128  1.8149
  234MPD1     N 3558   1.649   2.609   9.446  0.1420  0.0249  0.1881
  234MPD1    H5 3559   1.576   2.624   9.377  0.0773  0.4403  0.3417
  234MPD1    N1 3560   1.493   2.163   9.467  0.3436 -0.2860 -0.0177
  234MPD1    H6 3561   1.393   2.181   9.468  0.6312  1.3740  0.1992
  234MPD1    H7 3562   1.500   2.075   9.517  1.7847  0.1659  0.5677
  235MPD1     C 3563   2.715   0.691   9.722 -0.2746  0.3877  0.8279
  235MPD1    C1 3564   2.776   0.681   9.850 -0.2923  0.0892  0.3067
  235MPD1    C2 3565   2.886   0.769   9.874 -0.1027 -0.4616 -0.4429
  235MPD1    C3 3566   2.921   0.878   9.796  0.4095  0.0115  0.4014
  235MPD1    C4 3567   2.842   0.899   9.684 -0.4733 -0.6093 -0.3983
  235MPD1    C5 3568   2.747   0.808   9.649  0.3699  0.0664 -0.2674
  235MPD1     H 3569   2.944   0.731   9.958  0.0402  1.3116  0.2595
  235MPD1    H1 3570   2.860   0.985   9.621 -1.5335 -0.6302 -0.7194
  235MPD1    H2 3571   2.635   0.630   9.682  1.5778 -0.7191 -1.2348
  235MPD1    H3 3572   2.697   0.830   9.556  1.5128  1.4578 -0.5391
  235MPD1     N 3573   3.027   0.970   9.819  0.4103  0.0591  0.3219
  235MPD1    H5 3574   3.047   1.037   9.746 -0.1329 -1.5615 -1.3071
  235MPD1    N1 3575   2.756   0.565   9.923 -0.2131 -0.4803 -0.5433
  235MPD1    H6 3576   2.789   0.566  10.019  1.2044 -1.0171 -1.0343
  235MPD1    H7 3577   2.666   0.520   9.904  0.3166 -1.3706 -0.9777
  236MPD1     C 3578   2.085   1.789   9.864 -0.6982 -0.4722  0.3397
  236MPD1    C1 3579   2.132   1.903   9.939  0.2162 -0.5167 -0.4938
  236MPD1    C2 3580   2.205   1.878  10.054 -0.6252 -0.2091 -0.4363
  236MPD1    C3 3581   2.234   1.748  10.095 -0.1738 -0.6433  0.4667
  236MPD1    C4 3582   2.188   1.643  10.022 -0.3050  0.1133 -0.4467
  236MPD1    C5 3583   2.118   1.666   9.910  0.4798  1.1047 -0.3134
  236MPD1     H 3584   2.249   1.968  10.095 -0.2607  0.4515 -2.2715
  236MPD1    H1 3585   2.205   1.540  10.052  1.5020  0.5585  0.0595
  236MPD1    H2 3586   2.019   1.788   9.778 -0.2847  0.9853  0.0030
  236MPD1    H3 3587   2.081   1.577   9.861  0.3205  0.3449  1.2054
  236MPD1     N 3588   2.296   1.728  10.219 -0.9541 -0.2153  0.5445
  236MPD1    H5 3589   2.326   1.633  10.239  1.3455 -0.0550 -2.2365
  236MPD1    N1 3590   2.086   2.033   9.909  0.5986  0.3990  0.5711
  236MPD1    H6 3591   2.153   2.098   9.951  0.0594  0.3069  1.5890
  236MPD1    H7 3592   2.080   2.052   9.810  1.8653 -0.7221  0.2798
  237MPD1     C 3593   2.680   1.001  15.253 -0.1810  0.5708 -1.1202
  237MPD1    C1 3594   2.609   1.039  15.366 -0.6815  0.5848 -0.9508
  237MPD1    C2 3595   2.486   0.986  15.400  0.9199 -0.4207 -0.2955
  237MPD1    C3 3596   2.450   0.874  15.329  0.0944  0.0714 -0.4071
  237MPD1    C4 3597   2.523   0.821  15.224 -0.3228  0.7283 -1.1165
  237MPD1    C5 3598   2.642   0.882  15.191 -0.2398  0.4517  0.8707
  237MPD1     H 3599   2.423   1.021  15.482 -0.0884  0.2292 -1.3455
  237MPD1    H1 3600   2.490   0.743  15.156  1.1984 -1.3510  0.5376
  237MPD1    H2 3601   2.766   1.051  15.210  0.6655  2.3052  2.5520
  237MPD1    H3 3602   2.687   0.841  15.101 -0.4586 -1.0726  1.4538
  237MPD1     N 3603   2.336   0.803  15.362 -0.4088 -0.2567 -0.3119
  237MPD1    H5 3604   2.298   0.732  15.300  0.1766 -0.9868  0.1778
  237MPD1    N1 3605   2.634   1.162  15.423 -0.2270  0.5127  0.1726
  237MPD1    H6 3606   2.730   1.194  15.433 -0.7890  1.8943  1.1708
  237MPD1    H7 3607   2.589   1.168  15.514 -1.4024  3.6951 -0.6041
  238MPD1     C 3608   3.796   0.150  14.761  0.5719 -0.1013  0.6781
  238MPD1    C1 3609   3.818   0.065  14.864  0.0475 -0.8431 -0.1447
  238MPD1    C2 3610   3.790   4.656  14.848  0.1108  0.4805  0.2328
  238MPD1    C3 3611   3.719   4.612  14.742 -0.4143 -0.1913  0.3703
  238MPD1    C4 3612   3.706   4.702  14.631  0.0446 -0.3261 -0.0487
  238MPD1    C5 3613   3.746   0.108  14.643  0.3359  0.9093 -1.3786
  238MPD1     H 3614   3.811   4.597  14.937  0.7392  0.4968  0.0920
  238MPD1    H1 3615   3.663   4.670  14.537 -0.9092 -0.7927  0.5400
  238MPD1    H2 3616   3.811   0.258  14.769 -0.7751  0.0421  1.3399
  238MPD1    H3 3617   3.741   0.184  14.566  0.8356  1.4447 -0.8872
  238MPD1     N 3618   3.671   4.482  14.721 -0.0730  0.0746 -1.0116
  238MPD1    H5 3619   3.615   4.473  14.637  0.9079 -1.2163 -1.5139
  238MPD1    N1 3620   3.826   0.126  14.992 -0.2200  0.0366  0.6092
  238MPD1    H6 3621   3.836   0.227  14.995 -1.3727  0.1783 -0.5766
  238MPD1    H7 3622   3.870   0.073  15.068  1.4393  1.0132  0.3217
  239MPD1     C 3623   4.277   4.412  14.698 -0.5202 -0.1650  0.2662
  239MPD1    C1 3624   4.182   4.513  14.701  0.2498 -0.3194  0.3722
  239MPD1    C2 3625   4.149   4.568  14.579 -0.4090  0.0830 -0.5590
  239MPD1    C3 3626   4.197   4.524  14.456 -0.1949  0.0879 -0.1517
  239MPD1    C4 3627   4.281   4.418  14.453 -0.3306 -0.2531 -0.2996
  239MPD1    C5 3628   4.314   4.366  14.577 -1.0185 -0.1815  0.3084
  239MPD1     H 3629   4.092   4.660  14.589  2.5361  1.9680 -0.9491
  239MPD1    H1 3630   4.321   4.364  14.368  2.1856 -0.4027  0.9739
  239MPD1    H2 3631   4.323   4.358  14.780 -0.5196  1.1791  1.1542
  239MPD1    H3 3632   4.380   4.281  14.584  0.6750  1.1606  0.4412
  239MPD1     N 3633   4.168   4.586  14.332  0.6061 -0.3426  0.3695
  239MPD1    H5 3634   4.226   4.580  14.249 -2.1377 -0.0593 -1.5454
  239MPD1    N1 3635   4.132   4.568  14.821  0.5966  0.0739  0.6680
  239MPD1    H6 3636   4.159   4.507  14.898 -0.2040  0.5744  1.3486
  239MPD1    H7 3637   4.033   4.587  14.822  0.8957  1.6406 -0.5342
  240MPD1     C 3638   3.287   0.322  13.300 -0.7501  0.2138  0.2273
  240MPD1    C1 3639   3.210   0.231  13.372 -1.0611  0.4758 -0.1717
  240MPD1    C2 3640   3.267   0.173  13.481 -0.1456  0.8454 -0.0933
  240MPD1    C3 3641   3.403   0.182  13.497 -0.1932  0.8600  0.2462
  240MPD1    C4 3642   3.482   0.258  13.420  0.1740  0.0008 -0.1745
  240MPD1    C5 3643   3.427   0.331  13.323  0.2020 -1.1425  0.6460
  240MPD1     H 3644   3.212   0.112  13.552  0.7354 -1.7326 -1.6410
  240MPD1    H1 3645   3.588   0.275  13.432  0.2943  0.9164 -2.5355
  240MPD1    H2 3646   3.240   0.373  13.217  0.6621 -1.1885 -1.4348
  240MPD1    H3 3647   3.488   0.402  13.268 -0.3319  0.9851  2.7943
  240MPD1     N 3648   3.452   0.102  13.602 -0.3795 -0.3927 -0.1980
  240MPD1    H5 3649   3.388   0.051  13.662  0.0696  2.1194  2.4798
  240MPD1    N1 3650   3.070   0.225  13.344  0.5224 -0.0554  0.0740
  240MPD1    H6 3651   3.023   0.143  13.380  0.3632 -0.4440 -1.0030
  240MPD1    H7 3652   3.045   0.229  13.245  0.0645 -1.2336  0.1483
  241MPD1     C 3653   4.408   4.574  13.896  0.2921  0.0213 -0.3714
  241MPD1    C1 3654   4.326   4.520  13.996  0.2951 -0.1668 -0.4881
  241MPD1    C2 3655   4.189   4.512  13.974  0.4697 -0.1605  0.2161
  241MPD1    C3 3656   4.132   4.571  13.859  0.6273  1.0624 -0.2754
  241MPD1    C4 3657   4.216   4.624  13.761  0.1651 -0.1508 -0.1873
  241MPD1    C5 3658   4.351   4.629  13.786 -0.5259  0.3038  0.4132
  241MPD1     H 3659   4.127   4.466  14.050  1.5279 -0.6087  0.7906
  241MPD1    H1 3660   4.177   4.676  13.674  0.0838 -2.6220 -1.6449
  241MPD1    H2 3661   4.514   4.592  13.913 -0.0112 -0.5563  2.1424
  241MPD1    H3 3662   4.416   4.670  13.709 -2.5317  0.0553 -1.4029
  241MPD1     N 3663   3.992   4.590  13.841 -0.0653  0.6799 -0.2894
  241MPD1    H5 3664   3.967   4.633  13.752 -0.8501 -0.6170 -0.6957
  241MPD1    N1 3665   4.379   4.475  14.115 -0.7611  0.1593  0.4547
  241MPD1    H6 3666   4.473   4.511  14.129 -1.7735  2.6981  0.6602
  241MPD1    H7 3667   4.401   4.376  14.108 -3.3889 -0.2549 -1.9851
  242MPD1     C 3668   3.310   3.137  15.903  0.1472  0.5843 -0.2408
  242MPD1    C1 3669   3.208   3.078  15.831  0.1966  0.1709  0.0727
  242MPD1    C2 3670   3.229   3.024  15.707  0.0666 -0.3216 -0.1273
  242MPD1    C3 3671   3.351   3.041  15.645  0.0602 -0.2283 -0.3079
  242MPD1    C4 3672   3.450   3.104  15.714 -0.1162  0.1190  0.4394
  242MPD1    C5 3673   3.435   3.149  15.842  0.2395 -0.4370 -0.2146
  242MPD1     H 3674   3.152   2.973  15.651  1.1200 -0.7050 -1.2167
  242MPD1    H1 3675   3.537   3.127  15.654 -0.0443  1.2171  0.9676
  242MPD1    H2 3676   3.300   3.191  15.997  0.3444  2.1351 -1.1122
  242MPD1    H3 3677   3.512   3.194  15.903 -0.5282  1.3359 -0.5555
  242MPD1     N 3678   3.400   2.990  15.522  0.0828  0.2074  0.2362
  242MPD1    H5 3679   3.495   3.022  15.504  0.2687  0.4175  1.5910
  242MPD1    N1 3680   3.087   3.049  15.896  0.1696 -0.0540  0.3482
  242MPD1    H6 3681   3.071   3.125  15.961  1.0271  1.7642 -1.5370
  242MPD1    H7 3682   3.013   3.053  15.826 -0.9044 -3.4921  1.2921
  243MPD1     C 3683   0.345   1.180  17.489  0.0181 -0.2331 -0.0802
  243MPD1    C1 3684   0.353   1.042  17.478  0.2696 -0.9952 -0.4747
  243MPD1    C2 3685   0.385   0.982  17.354 -0.4096 -0.2605 -0.2094
  243MPD1    C3 3686   0.394   1.056  17.243  0.1348  0.1789 -0.2594
  243MPD1    C4 3687   0.376   1.192  17.250 -0.2304 -0.2459 -0.4678
  243MPD1    C5 3688   0.352   1.256  17.373 -0.2778  0.0419 -0.6933
  243MPD1     H 3689   0.405   0.876  17.348  0.2944 -0.0833 -0.8373
  243MPD1    H1 3690   0.380   1.251  17.159  1.0393  1.4864  0.7003
  243MPD1    H2 3691   0.326   1.237  17.579 -0.9582  1.2194 -1.2100
  243MPD1    H3 3692   0.350   1.365  17.376 -1.3565  0.0243 -0.8500
  243MPD1     N 3693   0.431   0.992  17.122  0.3875  0.4334  0.5909
  243MPD1    H5 3694   0.446   0.892  17.124  2.0766  0.6848  1.1017
  243MPD1    N1 3695   0.376   0.965  17.594 -0.6952 -0.7670  0.7977
  243MPD1    H6 3696   0.330   1.004  17.676  1.8120 -0.2708  1.9682
  243MPD1    H7 3697   0.347   0.868  17.585  1.6271 -1.4701  0.7941
  244MPD1     C 3698   0.775   0.216  17.101 -0.6118 -0.1697  0.3662
  244MPD1    C1 3699   0.757   0.321  17.191 -0.1712  0.5131 -0.0687
  244MPD1    C2 3700   0.702   0.437  17.141 -0.0685  0.0272  0.1775
  244MPD1    C3 3701   0.656   0.447  17.005 -0.6504  0.4122 -0.6405
  244MPD1    C4 3702   0.677   0.341  16.920 -0.7723  0.7840  0.8324
  244MPD1    C5 3703   0.729   0.223  16.971 -0.1317 -0.0699  0.1765
  244MPD1     H 3704   0.686   0.520  17.209 -0.4470 -0.2919  0.4718
  244MPD1    H1 3705   0.633   0.332  16.821 -1.6063 -1.8876  1.4463
  244MPD1    H2 3706   0.815   0.118  17.126 -1.1183 -0.9286 -1.7578
  244MPD1    H3 3707   0.746   0.135  16.910 -0.3248  0.3007 -0.4106
  244MPD1     N 3708   0.584   0.560  16.967 -0.7530  0.2093 -0.6033
  244MPD1    H5 3709   0.552   0.622  17.041 -0.0333  0.4880 -0.5208
  244MPD1    N1 3710   0.816   0.310  17.319 -0.2971  0.8012 -0.6831
  244MPD1    H6 3711   0.778   0.367  17.396 -3.0899  0.3318 -1.7064
  244MPD1    H7 3712   0.823   0.215  17.354  1.3241  0.6559 -1.4334
  245MPD1     C 3713   2.702   2.040  13.017 -0.1559  0.0122 -0.5146
  245MPD1    C1 3714   2.813   2.119  13.029 -0.4497 -0.0451  0.1704
  245MPD1    C2 3715   2.802   2.241  13.094 -0.2190 -0.6335  0.3273
  245MPD1    C3 3716   2.692   2.260  13.173 -0.4471  0.4079 -0.0259
  245MPD1    C4 3717   2.585   2.176  13.169  0.2862  0.0800 -0.2977
  245MPD1    C5 3718   2.591   2.065  13.087 -0.3099  0.5730  0.4020
  245MPD1     H 3719   2.879   2.316  13.108  1.2890 -1.8853 -1.1653
  245MPD1    H1 3720   2.500   2.186  13.236  1.9222  0.5391  1.7217
  245MPD1    H2 3721   2.709   1.952  12.954  2.9222  0.6140 -1.0297
  245MPD1    H3 3722   2.501   2.005  13.079  1.4971 -2.1148  0.4538
  245MPD1     N 3723   2.699   2.376  13.250 -0.4712  0.4833  0.0805
  245MPD1    H5 3724   2.786   2.422  13.272 -0.8175  1.0979  0.1840
  245MPD1    N1 3725   2.911   2.104  12.936 -0.7142 -0.1062 -0.1255
  245MPD1    H6 3726   2.931   2.005  12.924  1.2484  0.4184 -1.1113
  245MPD1    H7 3727   2.992   2.160  12.961 -1.9938  1.9703 -0.5677
  246MPD1     C 3728   1.083   1.209   9.502 -0.4368 -0.2011  0.4467
  246MPD1    C1 3729   1.093   1.090   9.560 -0.0864  0.8944  0.1039
  246MPD1    C2 3730   1.202   1.068   9.645  0.0088  0.1768 -1.3304
  246MPD1    C3 3731   1.310   1.144   9.637  0.6792  0.7419 -0.2533
  246MPD1    C4 3732   1.300   1.268   9.564 -0.6794  0.5292 -0.1598
  246MPD1    C5 3733   1.180   1.301   9.506  0.6101 -0.4178 -0.5373
  246MPD1     H 3734   1.215   0.974   9.698 -0.9504 -0.2083 -1.7708
  246MPD1    H1 3735   1.384   1.336   9.571 -0.2619  0.1440 -1.4833
  246MPD1    H2 3736   1.000   1.238   9.438 -1.1195  2.5472  2.5887
  246MPD1    H3 3737   1.175   1.398   9.457  0.5962 -1.0478 -1.7853
  246MPD1     N 3738   1.428   1.107   9.713 -0.4929  0.1252 -1.0230
  246MPD1    H5 3739   1.419   1.021   9.767  3.4171  0.2979 -0.1517
  246MPD1    N1 3740   0.975   1.016   9.565 -0.4848  0.0093  0.6776
  246MPD1    H6 3741   0.994   0.917   9.551 -0.9596  0.2358 -1.5852
  246MPD1    H7 3742   0.911   1.042   9.491  2.7130  3.5459 -0.8627
  247MPD1     C 3743   1.384   1.747  16.524  0.9382  0.6828 -0.0593
  247MPD1    C1 3744   1.295   1.666  16.452  0.1509 -0.2352  0.9642
  247MPD1    C2 3745   1.259   1.700  16.322 -0.9996  0.0880  0.3055
  247MPD1    C3 3746   1.335   1.800  16.259 -0.3749  0.2287  0.7900
  247MPD1    C4 3747   1.434   1.870  16.329 -0.0431  0.3831  0.5466
  247MPD1    C5 3748   1.461   1.842  16.459  0.1190  0.4843 -0.3564
  247MPD1     H 3749   1.182   1.647  16.268 -1.0628 -0.9732  1.4368
  247MPD1    H1 3750   1.489   1.955  16.292 -1.2098  0.0170 -1.9945
  247MPD1    H2 3751   1.396   1.723  16.629 -1.3495  4.0339  0.9769
  247MPD1    H3 3752   1.534   1.897  16.516 -0.1987  0.9159 -0.3613
  247MPD1     N 3753   1.312   1.848  16.124 -0.2794  0.2196  0.3716
  247MPD1    H5 3754   1.350   1.936  16.090  0.3347  0.7216  2.3289
  247MPD1    N1 3755   1.227   1.569  16.533 -0.4108  0.3302 -0.3805
  247MPD1    H6 3756   1.201   1.483  16.486  1.5241 -0.7852  0.5999
  247MPD1    H7 3757   1.269   1.544  16.623 -1.3037  2.2198  0.5764
  248MPD1     C 3758   1.805   1.094   0.410 -0.6860 -0.6206 -0.8098
  248MPD1    C1 3759   1.835   1.219   0.460 -0.4600 -0.3991 -0.2728
  248MPD1    C2 3760   1.760   1.263   0.573 -0.3380  0.0682 -0.0862
  248MPD1    C3 3761   1.648   1.195   0.614  0.4918  0.5167 -0.2457
  248MPD1    C4 3762   1.611   1.084   0.538  0.1249  0.5441  0.2630
  248MPD1    C5 3763   1.695   1.025   0.449 -0.0625  0.4653 -0.7290
  248MPD1     H 3764   1.795   1.352   0.624 -0.6495  0.3636 -0.3863
  248MPD1    H1 3765   1.522   1.023   0.555  0.1901 -0.2712 -2.1866
  248MPD1    H2 3766   1.867   1.041   0.339 -0.4958 -1.5105  0.0176
  248MPD1    H3 3767   1.661   0.930   0.409 -0.1163  0.0854  0.2214
  248MPD1     N 3768   1.571   1.246   0.720  0.4577 -0.0878  0.2874
  248MPD1    H5 3769   1.608   1.325   0.771  2.0429 -0.5198 -0.2053
  248MPD1    N1 3770   1.958   1.282   0.424 -0.0117  0.5320  0.2568
  248MPD1    H6 3771   1.954   1.381   0.447 -1.2826  0.4209  0.5154
  248MPD1    H7 3772   1.975   1.273   0.324 -1.1670 -0.1256  0.1167
  249MPD1     C 3773   3.190   4.132  10.190  0.3179  0.2972  0.5912
  249MPD1    C1 3774   3.221   4.103  10.061 -0.5452  0.0213  0.2395
  249MPD1    C2 3775   3.217   4.196   9.963  0.4568  0.2737  0.1920
  249MPD1    C3 3776   3.202   4.331  10.001 -0.0192 -0.8978  0.0494
  249MPD1    C4 3777   3.187   4.357  10.130  0.2320 -0.8343 -0.3191
  249MPD1    C5 3778   3.181   4.263  10.226 -0.0426  1.0483 -0.2553
  249MPD1     H 3779   3.231   4.168   9.859  1.4645 -0.3999  0.5155
  249MPD1    H1 3780   3.172   4.459  10.164  0.5906 -0.9447  0.1604
  249MPD1    H2 3781   3.178   4.056  10.267  0.3887 -1.0731 -0.7681
  249MPD1    H3 3782   3.169   4.299  10.327 -0.3699  1.3676 -0.4086
  249MPD1     N 3783   3.196   4.424   9.900  0.7548 -0.2902 -0.4114
  249MPD1    H5 3784   3.211   4.396   9.804  2.5066 -0.2518 -0.1518
  249MPD1    N1 3785   3.247   3.966  10.038 -0.0306 -0.1189 -0.2082
  249MPD1    H6 3786   3.298   3.936   9.955  0.1162 -1.1332  0.2469
  249MPD1    H7 3787   3.260   3.906  10.119  0.0285 -0.6126 -0.5782
  250MPD2     C 3788   0.746   0.415  12.697 -0.2396  0.4351  0.5422
  250MPD2    C1 3789   0.633   0.482  12.743 -0.6396  0.1926  0.5720
  250MPD2    C2 3790   0.509   0.429  12.728  0.1702  0.0292  0.2422
  250MPD2    C3 3791   0.484   0.307  12.668  0.2310 -0.1872 -0.7299
  250MPD2    C4 3792   0.599   0.239  12.624  0.2587  0.1433 -0.2673
  250MPD2    C5 3793   0.734   0.286  12.652 -0.2898 -0.6097 -0.9025
  250MPD2     H 3794   0.433   0.499  12.762  0.5806  0.5866  0.0106
  250MPD2    H1 3795   0.591   0.141  12.576  1.6933 -0.7262  1.2887
  250MPD2    H2 3796   0.844   0.461  12.710  0.3598 -1.5082  3.0230
  250MPD2    H3 3797   0.818   0.228  12.617  1.5020  0.1225  2.1830
  250MPD2     N 3798   0.357   0.254  12.639 -0.3603  1.1781 -0.7844
  250MPD2    H5 3799   0.360   0.160  12.600 -3.5802  0.3622  0.9941
  250MPD2    N1 3800   0.665   0.595  12.826 -0.2604 -0.2377  0.1843
  250MPD2    H7 3801   0.763   0.622  12.831 -0.4286  0.6548 -1.5801
  251TMC3    C1 3802   0.641   0.801  12.937  0.6448  0.2297 -0.1435
  251TMC3    C2 3803   0.559   0.907  12.957 -0.0157 -0.7351  0.3298
  251TMC3    C3 3804   0.613   1.003  13.042  0.0084 -0.0190  0.4232
  251TMC3    C4 3805   0.772   0.791  12.985 -0.0914  0.0506 -0.2942
  251TMC3    C5 3806   0.814   0.892  13.061 -0.7910 -0.3697 -0.3770
  251TMC3    C6 3807   0.738   0.997  13.099  0.3337 -0.0762  0.0992
  251TMC3     C 3808   0.580   0.695  12.858 -0.3216 -0.3220  0.7306
  251TMC3     O 3809   0.463   0.709  12.847 -0.0807 -0.0072 -0.2194
  251TMC3     H 3810   0.474   0.929  12.893  0.2841 -1.5213 -0.3464
  251TMC3    H1 3811   0.849   0.725  12.947  0.4550 -0.3121  1.4239
  251TMC3    H2 3812   0.777   1.077  13.162  1.0792 -0.3601 -0.0043
  251TMC3    C7 3813   0.950   0.890  13.107  0.0333  0.3300  0.5137
  251TMC3    C8 3814   0.540   1.126  13.022  0.1796  0.1069  0.0058
  251TMC3    O1 3815   0.995   0.774  13.114  0.3582 -0.0482 -0.5129
  251TMC3    O2 3816   0.423   1.122  12.993 -0.5390 -0.2147 -0.1164
  252TMC3    C1 3817   4.677   1.399   9.821  0.6559  0.1994  0.6704
  252TMC3    C2 3818   0.051   1.446   9.734 -0.7009 -0.0737 -0.3424
  252TMC3    C3 3819   0.155   1.358   9.707 -0.9647 -0.8272 -0.5309
  252TMC3    C4 3820   4.690   1.273   9.873  0.5482  0.2565 -0.2667
  252TMC3    C5 3821   0.066   1.194   9.840 -0.8372  0.5039 -0.4972
  252TMC3    C6 3822   0.155   1.227   9.744 -0.1803 -0.0084 -0.0781
  252TMC3     C 3823   4.586   1.490   9.886  0.0716  0.3762  0.6268
  252TMC3     O 3824   4.535   1.457   9.991  0.2678  0.1723  0.0431
  252TMC3     H 3825   0.055   1.553   9.713 -0.0256  0.2731  1.5722
  252TMC3    H1 3826   4.621   1.242   9.950  0.3687 -0.5661 -0.7610
  252TMC3    H2 3827   0.242   1.172   9.712  0.1214  0.9886 -0.9459
  252TMC3    C7 3828   0.054   1.055   9.892  0.5778 -0.0579  0.4798
  252TMC3    C8 3829   0.273   1.425   9.653  0.0494  0.3130  0.0681
  252TMC3    O1 3830   4.687   1.035   9.973 -0.2524 -0.4936 -0.0671
  252TMC3    O2 3831   0.249   1.529   9.589 -0.0649  0.4073  0.1823
  253MPD2     C 3832   2.069   1.176  15.633 -0.2318  0.4025  0.2790
  253MPD2    C1 3833   1.940   1.134  15.627  0.3141  0.3016  0.1198
  253MPD2    C2 3834   1.893   1.043  15.720  0.0121 -0.6982 -0.3884
  253MPD2    C3 3835   1.972   0.999  15.822 -0.7016  0.4487  0.6806
  253MPD2    C4 3836   2.095   1.050  15.832  0.1843  1.0834 -0.3846
  253MPD2    C5 3837   2.145   1.135  15.738  0.5764 -0.0103  0.0445
  253MPD2     H 3838   1.798   0.998  15.694 -1.1241 -0.3646  3.1730
  253MPD2    H1 3839   2.158   1.011  15.911 -1.1799 -2.6139 -1.1069
  253MPD2    H2 3840   2.112   1.237  15.554  1.1497 -1.4715 -0.3926
  253MPD2    H3 3841   2.246   1.174  15.744 -0.1629  1.5404  2.3114
  253MPD2     N 3842   1.941   0.919  15.932 -0.0998  0.3988  0.0080
  253MPD2    H5 3843   2.016   0.883  15.989 -0.8734 -0.3489  0.5642
  253MPD2    N1 3844   1.847   1.179  15.530  0.0965 -0.4825  0.7619
  253MPD2    H7 3845   1.754   1.138  15.536  0.4379 -1.9668 -3.9562
  254TMC3    C1 3846   1.791   0.794  16.077 -0.5090 -0.4320  0.6800
  254TMC3    C2 3847   1.661   0.749  16.102  0.4977  0.4632 -0.4624
  254TMC3    C3 3848   1.631   0.695  16.222  0.4942  0.2782  0.0952
  254TMC3    C4 3849   1.882   0.807  16.183 -0.0282  0.4978 -0.2630
  254TMC3    C5 3850   1.850   0.747  16.296  0.1567 -0.1442  0.5503
  254TMC3    C6 3851   1.730   0.685  16.322  0.5733  0.2943  0.3264
  254TMC3     C 3852   1.811   0.861  15.950  0.3964 -0.2303 -0.1181
  254TMC3     O 3853   1.717   0.859  15.879  1.0225  0.3922  0.0347
  254TMC3     H 3854   1.589   0.781  16.028  0.5924 -0.3093 -0.8904
  254TMC3    H1 3855   1.973   0.862  16.164  2.2222 -2.9370  0.6079
  254TMC3    H2 3856   1.707   0.646  16.420 -2.2759  1.3798  0.1014
  254TMC3    C7 3857   1.946   0.762  16.404  0.8109  0.2349  0.0487
  254TMC3    C8 3858   1.494   0.657  16.265  0.8862  0.3545 -0.0492
  254TMC3    O1 3859   1.896   0.765  16.518 -0.7075 -0.5622  0.6072
  254TMC3    O2 3860   1.482   0.623  16.378  0.3618 -0.0507  0.2325
  255MPD2     C 3861   0.002   2.442   9.789  0.2417  0.0945  0.6301
  255MPD2    C1 3862   0.110   2.506   9.735 -0.3540 -0.5201 -0.1576
  255MPD2    C2 3863   0.129   2.490   9.600  0.1971  0.4329 -0.3907
  255MPD2    C3 3864   0.054   2.401   9.530 -0.0080 -0.2685 -0.8825
  255MPD2    C4 3865   4.670   2.336   9.584  0.8594  1.2270 -0.1267
  255MPD2    C5 3866   4.639   2.369   9.713  0.4741 -0.0069  0.1809
  255MPD2     H 3867   0.180   2.568   9.544  0.8448  0.1859 -0.1454
  255MPD2    H1 3868   4.599   2.284   9.521  0.5248  0.7474  0.6596
  255MPD2    H2 3869   4.710   2.443   9.897  1.1368  0.5940  0.7398
  255MPD2    H3 3870   4.546   2.336   9.758  1.0732  0.0329  1.4516
  255MPD2     N 3871   0.063   2.386   9.386  0.0586  0.6951 -0.2518
  255MPD2    H5 3872   4.704   2.351   9.336  0.5022  1.7699 -1.7283
  255MPD2    N1 3873   0.188   2.584   9.817 -0.0704 -0.1543  0.4694
  255MPD2    H7 3874   0.169   2.581   9.917 -3.2527  0.2469 -0.1530
  256TMC3    C1 3875   0.352   2.731   9.900 -0.8405  0.2217  0.0019
  256TMC3    C2 3876   0.476   2.783   9.892  0.2783  0.0130  0.4349
  256TMC3    C3 3877   0.492   2.911   9.935  0.4845  0.4893 -0.5473
  256TMC3    C4 3878   0.242   2.800   9.966 -0.7691 -0.7728  0.3589
  256TMC3    C5 3879   0.271   2.930  10.015 -0.5066 -0.1980  0.1160
  256TMC3    C6 3880   0.398   2.983  10.001  0.1394  0.4758 -0.2604
  256TMC3     C 3881   0.306   2.655   9.790 -0.3901 -0.0642 -0.7347
  256TMC3     O 3882   0.376   2.646   9.689 -0.1681  0.2172  0.2317
  256TMC3     H 3883   0.552   2.735   9.831  1.1322  1.7093  0.1433
  256TMC3    H1 3884   0.140   2.765   9.965 -0.1334 -2.6740  2.3066
  256TMC3    H2 3885   0.423   3.077  10.050  3.0821  0.0061 -0.8641
  256TMC3    C7 3886   0.153   3.008  10.069  0.2738  1.2124  0.4369
  256TMC3    C8 3887   0.618   2.978   9.903  0.5842  0.5171 -0.5124
  256TMC3    O1 3888   0.054   2.940  10.098  0.3113  0.2417 -1.0259
  256TMC3    O2 3889   0.714   2.900   9.881 -0.1410  0.4994 -0.6323
  257MPD2     C 3890   3.838   0.631  13.166 -0.1626 -0.3043  0.2195
  257MPD2    C1 3891   3.926   0.607  13.061 -0.2699  0.4477 -0.5981
  257MPD2    C2 3892   4.008   0.492  13.079 -0.5070  0.6192 -0.7423
  257MPD2    C3 3893   4.007   0.406  13.183 -0.5891 -0.7456 -0.4344
  257MPD2    C4 3894   3.918   0.438  13.284  0.4414  0.1551  0.3924
  257MPD2    C5 3895   3.832   0.548  13.272  0.5786  0.6827  0.4563
  257MPD2     H 3896   4.073   0.456  13.000 -1.0420 -0.6073 -0.6211
  257MPD2    H1 3897   3.914   0.383  13.377  1.5013 -1.8542 -0.7503
  257MPD2    H2 3898   3.764   0.710  13.162 -0.7117 -0.8602 -0.6466
  257MPD2    H3 3899   3.762   0.561  13.354  0.7966 -0.9048  0.9119
  257MPD2     N 3900   4.099   0.293  13.189 -0.2172 -0.4960 -0.2351
  257MPD2    H5 3901   4.146   0.272  13.101  1.8034  0.7072  0.5720
  257MPD2    N1 3902   3.931   0.696  12.948 -0.1521  1.1622  0.0160
  257MPD2    H7 3903   3.866   0.775  12.944 -1.2661  0.4518  3.6068
  258TMC3    C1 3904   4.191   0.080  13.255 -0.3510  0.1944  0.3293
  258TMC3    C2 3905   4.140   4.722  13.159  0.0602 -0.0820  1.1923
  258TMC3    C3 3906   4.167   4.584  13.163  0.6986 -0.3876  0.2241
  258TMC3    C4 3907   4.272   0.037  13.360 -0.2282  0.3273 -0.3865
  258TMC3    C5 3908   4.322   4.629  13.345  0.1070  0.2379 -0.2656
  258TMC3    C6 3909   4.265   4.544  13.253  0.2033 -0.1588 -0.5266
  258TMC3     C 3910   4.112   0.198  13.292 -0.7041  0.2177 -0.2349
  258TMC3     O 3911   4.077   0.203  13.409 -0.0301  0.2471  0.6972
  258TMC3     H 3912   4.062   0.032  13.091  0.0663 -0.1433  1.1555
  258TMC3    H1 3913   4.314   0.100  13.438 -1.4135  1.4142 -0.6287
  258TMC3    H2 3914   4.311   4.447  13.248  0.6118 -0.0856  2.2676
  258TMC3    C7 3915   4.450   4.600  13.404 -0.2403 -0.8001 -0.0278
  258TMC3    C8 3916   4.177   4.526  13.029  0.4142 -0.5875 -0.0476
  258TMC3    O1 3917   4.470   4.485  13.436 -0.1910 -0.1961 -0.5602
  258TMC3    O2 3918   4.118   4.585  12.942  0.1481  0.3754  0.3720
  259MPD2     C 3919   2.041   1.615   1.536  0.0790  0.0933  0.2444
  259MPD2    C1 3920   2.072   1.733   1.471 -0.3070  0.6878 -0.8032
  259MPD2    C2 3921   2.138   1.729   1.347  0.6389  0.7527  0.6360
  259MPD2    C3 3922   2.153   1.603   1.282 -0.5281 -0.2164  0.8241
  259MPD2    C4 3923   2.102   1.489   1.344 -0.2538  0.1206 -0.0654
  259MPD2    C5 3924   2.050   1.497   1.467 -0.4010  0.8327  0.2928
  259MPD2     H 3925   2.175   1.819   1.300 -1.5046  0.7454 -1.0831
  259MPD2    H1 3926   2.107   1.393   1.295 -0.2661 -0.4834  1.1216
  259MPD2    H2 3927   2.002   1.611   1.637 -1.6174 -2.9029 -0.5244
  259MPD2    H3 3928   2.028   1.400   1.511  3.0632 -0.4471 -0.8352
  259MPD2     N 3929   2.216   1.590   1.157 -0.4644 -0.6394  0.8815
  259MPD2    H5 3930   2.242   1.674   1.107  1.5139 -0.2102  2.6479
  259MPD2    N1 3931   2.043   1.853   1.544 -0.2539  0.3778  0.2034
  259MPD2    H7 3932   1.998   1.831   1.632 -0.7784  0.3289 -0.0777
  260TMC3    C1 3933   2.382   1.518   1.003 -0.0598 -0.2817  0.1362
  260TMC3    C2 3934   2.346   1.611   0.909 -0.5640  0.2818 -0.1142
  260TMC3    C3 3935   2.441   1.664   0.831  0.2672  0.5463  0.2072
  260TMC3    C4 3936   2.510   1.475   1.022 -0.4195 -0.2704  0.1893
  260TMC3    C5 3937   2.601   1.519   0.932 -0.1247  0.1533  0.0627
  260TMC3    C6 3938   2.572   1.621   0.844 -0.3238  0.2540  0.3923
  260TMC3     C 3939   2.283   1.480   1.111  0.4782 -0.0655 -0.0740
  260TMC3     O 3940   2.306   1.371   1.159 -0.5822 -0.8146  0.2377
  260TMC3     H 3941   2.243   1.642   0.898 -0.2230  1.5520  0.2944
  260TMC3    H1 3942   2.530   1.417   1.112  1.5095  0.1801  0.0617
  260TMC3    H2 3943   2.638   1.652   0.764 -0.5473  0.1963  0.1884
  260TMC3    C7 3944   2.741   1.506   0.956  0.9584 -0.1202  0.2076
  260TMC3    C8 3945   2.403   1.768   0.736 -0.1501 -0.3817  0.6456
  260TMC3    O1 3946   2.826   1.527   0.867 -0.7450  0.1439 -0.0117
  260TMC3    O2 3947   2.288   1.783   0.700  0.2476 -0.0250  0.1778
  261MPD2     C 3948   4.279   0.179  12.444 -0.0909 -0.3038  0.4511
  261MPD2    C1 3949   4.399   0.249  12.412  0.0452 -0.5527  0.2727
  261MPD2    C2 3950   4.412   0.295  12.279 -0.2556 -0.6302  1.1132
  261MPD2    C3 3951   4.328   0.255  12.179 -0.3508 -1.2378  0.6743
  261MPD2    C4 3952   4.208   0.183  12.210  0.0138  0.5041 -1.6962
  261MPD2    C5 3953   4.184   0.146  12.343  0.3671  0.1809 -0.3998
  261MPD2     H 3954   4.508   0.343  12.267 -1.4245  1.1376 -1.1298
  261MPD2    H1 3955   4.133   0.148  12.141 -0.7609 -1.1056 -0.0236
  261MPD2    H2 3956   4.258   0.144  12.545 -4.3158 -0.0915 -0.3227
  261MPD2    H3 3957   4.101   0.082  12.373 -1.0221  1.3395 -1.7502
  261MPD2     N 3958   4.368   0.306  12.056  1.0183 -0.5749 -0.1759
  261MPD2    H5 3959   4.457   0.355  12.062  0.3313  0.5742  0.7582
  261MPD2    N1 3960   4.503   0.276  12.503  0.3478 -0.1141  0.5290
  261MPD2    H7 3961   4.594   0.288  12.459 -0.8978 -1.3579 -2.3754
  262TMC3    C1 3962   4.400   0.300  11.820  0.9345  0.8190 -0.9335
  262TMC3    C2 3963   4.453   0.431  11.809 -0.0132 -0.1637  0.0778
  262TMC3    C3 3964   4.503   0.467  11.688  0.9918  1.0423 -0.0260
  262TMC3    C4 3965   4.387   0.212  11.727  0.0302  0.0939 -0.3446
  262TMC3    C5 3966   4.449   0.252  11.605  0.0907 -0.2978  0.4104
  262TMC3    C6 3967   4.502   0.376  11.583 -0.5010 -0.5888  1.0014
  262TMC3     C 3968   4.306   0.280  11.931  0.1989 -0.2586 -0.3768
  262TMC3     O 3969   4.211   0.207  11.914  0.1932  0.0251  0.1275
  262TMC3     H 3970   4.460   0.504  11.889 -0.9473 -0.1043  0.0995
  262TMC3    H1 3971   4.342   0.115  11.743  1.2328 -0.1881  1.3838
  262TMC3    H2 3972   4.545   0.398  11.486 -0.1641 -0.4112  1.1910
  262TMC3    C7 3973   4.433   0.161  11.493 -0.5946 -0.2732 -0.2894
  262TMC3    C8 3974   4.506   0.617  11.667  0.0951  0.1232 -0.3239
  262TMC3    O1 3975   4.349   0.071  11.499  0.1769  0.3727 -0.2476
  262TMC3    O2 3976   4.537   0.678  11.768  0.2417  0.4390 -0.7499
  263MPD2     C 3977   0.654   4.229  11.904  0.1326 -0.2861  0.0715
  263MPD2    C1 3978   0.743   4.287  11.820 -0.0770  0.0608 -0.2282
  263MPD2    C2 3979   0.693   4.314  11.693  0.0486  0.0490 -0.0402
  263MPD2    C3 3980   0.569   4.275  11.641 -0.1860 -0.3541 -0.0297
  263MPD2    C4 3981   0.488   4.219  11.727 -0.0488  0.1688  0.0982
  263MPD2    C5 3982   0.530   4.200  11.853  0.6271 -0.4757 -0.6728
  263MPD2     H 3983   0.759   4.355  11.617  1.0168 -2.4261 -0.5130
  263MPD2    H1 3984   0.385   4.192  11.708  0.1390  0.4529 -1.3285
  263MPD2    H2 3985   0.677   4.203  12.007 -1.7690 -0.4323  0.4555
  263MPD2    H3 3986   0.459   4.157  11.923  1.6874  1.2358  1.4273
  263MPD2     N 3987   0.535   4.308  11.508  0.4010  0.1973 -0.8868
  263MPD2    H5 3988   0.603   4.360  11.453  0.3463  0.4047 -0.7589
  263MPD2    N1 3989   0.879   4.304  11.865  0.0559  0.5402 -0.3372
  263MPD2    H7 3990   0.891   4.288  11.964 -1.6577 -3.1340 -0.6997
  264TMC3    C1 3991   0.434   4.282  11.303 -0.4485  0.2741  0.2876
  264TMC3    C2 3992   0.430   4.416  11.274 -0.1427 -0.0174  0.8803
  264TMC3    C3 3993   0.450   4.464  11.143  0.0518  0.1551  0.8134
  264TMC3    C4 3994   0.437   4.193  11.198 -0.0821 -0.2153  0.2167
  264TMC3    C5 3995   0.462   4.240  11.070 -0.2211  0.0454  0.7377
  264TMC3    C6 3996   0.449   4.370  11.041 -0.0691  0.2680  0.0121
  264TMC3     C 3997   0.434   4.248  11.439  0.0156  0.9226 -0.7510
  264TMC3     O 3998   0.351   4.169  11.484  0.1888  0.7653  0.4631
  264TMC3     H 3999   0.439   4.482  11.359  2.1617 -1.0748  1.4676
  264TMC3    H1 4000   0.437   4.089  11.229 -3.6718 -0.5972 -1.0118
  264TMC3    H2 4001   0.456   4.402  10.938  3.0703  2.0776  0.7789
  264TMC3    C7 4002   0.483   4.145  10.962  0.6310  0.3176 -0.1710
  264TMC3    C8 4003   0.547   4.570  11.122  1.2766  0.0672 -0.4711
  264TMC3    O1 4004   0.522   4.181  10.854 -0.3503 -0.4736 -0.6114
  264TMC3    O2 4005   0.632   4.562  11.034 -0.0039  0.3651 -0.3810
  265MPD2     C 4006   2.676   0.306  15.335 -0.0036 -0.1764 -0.9302
  265MPD2    C1 4007   2.776   0.406  15.325  0.3068 -0.5302  0.2436
  265MPD2    C2 4008   2.878   0.404  15.230 -0.8378  0.6202 -0.5085
  265MPD2    C3 4009   2.881   0.293  15.143 -0.3721 -0.5680  0.9642
  265MPD2    C4 4010   2.786   0.193  15.152  0.2687  0.0147 -0.0252
  265MPD2    C5 4011   2.682   0.192  15.251  0.5699 -0.3345 -0.2158
  265MPD2     H 4012   2.946   0.489  15.225 -0.4587  0.3995  0.8739
  265MPD2    H1 4013   2.792   0.108  15.084  0.6088  0.7364 -0.8939
  265MPD2    H2 4014   2.597   0.304  15.408  0.0745  1.7750 -0.7958
  265MPD2    H3 4015   2.613   0.108  15.260 -0.1856  0.5857  2.3437
  265MPD2     N 4016   2.987   0.264  15.060  0.9531  0.2959  0.2044
  265MPD2    H5 4017   2.981   0.181  15.001 -1.8062 -0.3255  1.3478
  265MPD2    N1 4018   2.765   0.522  15.408 -0.3188  0.2631 -0.7085
  265MPD2    H7 4019   2.823   0.601  15.383 -0.5751  0.0817 -1.8643
  266TMC3    C1 4020   2.695   0.671  15.582  1.3373 -0.5822 -1.4068
  266TMC3    C2 4021   2.686   0.668  15.715  0.1936 -0.1904  0.1546
  266TMC3    C3 4022   2.747   0.768  15.787  1.1898 -0.0300  0.0753
  266TMC3    C4 4023   2.776   0.762  15.514  1.0153 -0.3248  0.8579
  266TMC3    C5 4024   2.839   0.855  15.588  0.2523 -0.5371 -0.0946
  266TMC3    C6 4025   2.821   0.867  15.723 -0.1295 -0.3643 -0.0273
  266TMC3     C 4026   2.671   0.547  15.511  0.2097 -0.7745 -0.4640
  266TMC3     O 4027   2.597   0.463  15.566  0.0993  0.5337 -0.2458
  266TMC3     H 4028   2.652   0.577  15.764  1.4991 -1.1237 -0.6939
  266TMC3    H1 4029   2.790   0.766  15.407 -1.5856  2.2894  0.6335
  266TMC3    H2 4030   2.893   0.933  15.770  0.0248  1.6896 -3.1606
  266TMC3    C7 4031   2.919   0.957  15.522 -0.2223  0.1722  0.9787
  266TMC3    C8 4032   2.739   0.767  15.930 -0.6287  0.6902 -0.0789
  266TMC3    O1 4033   2.972   0.916  15.416 -0.3359 -0.3214  0.3782
  266TMC3    O2 4034   2.703   0.663  15.983 -0.8139  0.1988 -0.1292
  267MPD2     C 4035   0.063   2.382   0.380  0.4367  0.6676  0.2548
  267MPD2    C1 4036   0.040   2.267   0.299  0.4438  0.1997  0.2806
  267MPD2    C2 4037   0.029   2.295   0.162 -0.0578 -0.5362 -0.2994
  267MPD2    C3 4038   0.035   2.428   0.112 -1.2085 -0.4899  0.6616
  267MPD2    C4 4039   0.053   2.535   0.195 -0.3261 -0.5026 -0.1950
  267MPD2    C5 4040   0.062   2.510   0.330 -0.0511  0.3377 -0.4413
  267MPD2     H 4041   0.016   2.209   0.097  3.4864 -0.2875 -1.3052
  267MPD2    H1 4042   0.053   2.633   0.149 -0.5694 -0.3144  0.2054
  267MPD2    H2 4043   0.091   2.360   0.482 -1.0397  1.2589  0.7934
  267MPD2    H3 4044   0.066   2.596   0.396  1.7915 -0.5560  0.5904
  267MPD2     N 4045   0.031   2.454  17.664 -0.2396 -0.7358  0.0970
  267MPD2    H5 4046   0.039   2.553  17.645  1.3857 -0.3191  3.0106
  267MPD2    N1 4047   0.023   2.139   0.348 -0.4181  1.1987  0.2900
  267MPD2    H7 4048   0.042   2.129   0.447  1.8128  0.0859 -0.2536
  268TMC3    C1 4049   4.712   1.899   0.367  0.0006  0.0493 -0.0771
  268TMC3    C2 4050   4.689   1.781   0.303  0.3241 -0.3406 -0.2871
  268TMC3    C3 4051   0.012   1.664   0.342 -0.3035 -0.3209  0.1280
  268TMC3    C4 4052   0.051   1.889   0.494 -0.7207  0.6156  0.3597
  268TMC3    C5 4053   0.085   1.761   0.543  0.2892  0.2877  0.2114
  268TMC3    C6 4054   0.065   1.648   0.464 -0.3252  0.1954 -0.0316
  268TMC3     C 4055   4.708   2.022   0.280  0.4422  0.5004  0.1133
  268TMC3     O 4056   4.670   2.003   0.164  0.0553  0.4167  0.1110
  268TMC3     H 4057   4.636   1.782   0.208  0.2670  2.1255 -0.2184
  268TMC3    H1 4058   0.077   1.977   0.552 -2.2100  0.9370  0.5494
  268TMC3    H2 4059   0.110   1.554   0.495 -1.1441 -0.4266 -0.7167
  268TMC3    C7 4060   0.062   1.747   0.689  0.5439  0.6229 -0.7369
  268TMC3    C8 4061   0.025   1.562   0.245 -0.0804 -0.0829 -0.3260
  268TMC3    O1 4062   0.084   1.641   0.745 -0.6958 -0.0914 -0.3809
  268TMC3    O2 4063   4.717   1.448   0.282 -0.4040 -0.3829  0.0831
  269MPD2     C 4064   0.892   0.875  15.647 -0.9339  0.2262 -0.6615
  269MPD2    C1 4065   0.811   0.958  15.721 -0.4881 -0.7633 -0.3748
  269MPD2    C2 4066   0.829   1.090  15.698 -0.1135  0.0109  0.0413
  269MPD2    C3 4067   0.896   1.141  15.589  0.0530  0.0197  0.8051
  269MPD2    C4 4068   0.978   1.059  15.513  0.0294  0.1581  0.0139
  269MPD2    C5 4069   0.979   0.923  15.553 -0.4316  0.3723 -0.4462
  269MPD2     H 4070   0.781   1.165  15.760  0.1449 -1.3893  1.9250
  269MPD2    H1 4071   1.034   1.089  15.425 -1.2983  1.2673 -0.4434
  269MPD2    H2 4072   0.878   0.768  15.645 -1.4796  0.3001 -1.1592
  269MPD2    H3 4073   1.041   0.854  15.498 -1.4403  1.8962 -3.5684
  269MPD2     N 4074   0.875   1.274  15.558 -0.0625 -0.0345  0.3767
  269MPD2    H5 4075   0.833   1.326  15.635  2.0883  0.6227  1.0982
  269MPD2    N1 4076   0.725   0.902  15.820 -0.0175  0.2881 -0.3102
  269MPD2    H7 4077   0.705   0.803  15.824  1.2322  0.0451 -0.1056
  270TMC3    C1 4078   0.548   0.901  15.962  0.3357  0.6157 -0.2478
  270TMC3    C2 4079   0.417   0.897  15.915 -0.0499 -0.7384 -0.2497
  270TMC3    C3 4080   0.350   0.776  15.906 -0.1430  0.3916 -0.3477
  270TMC3    C4 4081   0.616   0.782  15.999 -0.0221  0.3000 -0.1879
  270TMC3    C5 4082   0.543   0.674  16.005 -1.2025  0.3996 -0.3375
  270TMC3    C6 4083   0.409   0.660  15.961 -0.0688 -0.1299 -0.3030
  270TMC3     C 4084   0.630   0.980  15.886 -0.6516  0.5659 -0.4739
  270TMC3     O 4085   0.597   1.098  15.878  0.0355  0.3086  0.2708
  270TMC3     H 4086   0.361   0.989  15.897  0.2808 -0.3709  0.6294
  270TMC3    H1 4087   0.718   0.780  16.036 -0.1250  2.4315  0.2147
  270TMC3    H2 4088   0.356   0.566  15.954 -0.6454  0.2421 -0.9710
  270TMC3    C7 4089   0.613   0.553  16.036  0.3351 -0.4098  0.4061
  270TMC3    C8 4090   0.251   0.778  15.801  0.0681  0.2163  0.2016
  270TMC3    O1 4091   0.737   0.555  16.029  0.5324 -0.4159 -0.0420
  270TMC3    O2 4092   0.177   0.876  15.796  0.1076  0.2872  0.0507
  271MPD2     C 4093   4.459   0.494  14.116  0.0550 -0.3544 -0.3673
  271MPD2    C1 4094   4.375   0.493  14.230  0.1759 -0.6182  0.0517
  271MPD2    C2 4095   4.240   0.516  14.216 -0.1904 -0.5638 -0.0086
  271MPD2    C3 4096   4.185   0.550  14.094 -0.4601 -0.7264 -0.5942
  271MPD2    C4 4097   4.267   0.543  13.985 -0.3989 -0.6377  0.2432
  271MPD2    C5 4098   4.405   0.522  13.999  0.4106  0.5061  0.2473
  271MPD2     H 4099   4.184   0.514  14.309 -2.5082  0.8468 -1.3821
  271MPD2    H1 4100   4.234   0.566  13.884 -2.8098 -0.0950  1.1775
  271MPD2    H2 4101   4.566   0.476  14.117  0.0134 -0.6547 -1.4789
  271MPD2    H3 4102   4.472   0.514  13.915 -0.9970 -1.5909 -0.6865
  271MPD2     N 4103   4.049   0.582  14.078  0.1714  0.5774  0.3624
  271MPD2    H5 4104   4.016   0.609  13.986 -0.2230  0.0891  0.3601
  271MPD2    N1 4105   4.428   0.465  14.362  0.3574 -0.7298 -0.3421
  271MPD2    H7 4106   4.356   0.457  14.433 -1.6197 -3.0269 -2.5893
  272TMC3    C1 4107   4.598   0.403  14.523  0.2075  0.4099  0.2738
  272TMC3    C2 4108   4.717   0.337  14.542  0.5466 -0.0058 -0.0806
  272TMC3    C3 4109   0.063   0.356  14.659 -0.0472  0.7467 -0.1478
  272TMC3    C4 4110   4.551   0.488  14.615  0.2554  0.3281  0.3050
  272TMC3    C5 4111   4.620   0.504  14.732  0.3999 -0.5538  0.0773
  272TMC3    C6 4112   0.019   0.439  14.750 -0.0369 -0.7561  0.0433
  272TMC3     C 4113   4.555   0.425  14.385  1.1183 -0.0815  0.0069
  272TMC3     O 4114   4.643   0.397  14.304  0.0884  0.6726  0.0863
  272TMC3     H 4115   0.044   0.277  14.467 -0.6417 -1.7138  0.4960
  272TMC3    H1 4116   4.472   0.558  14.593  1.0266  0.7226 -1.1809
  272TMC3    H2 4117   0.063   0.440  14.850  1.2241 -1.0401 -0.5043
  272TMC3    C7 4118   4.597   0.621  14.811 -0.5555  0.2695 -0.2057
  272TMC3    C8 4119   0.208   0.322  14.647 -0.1624 -0.5730 -1.0759
  272TMC3    O1 4120   4.484   0.661  14.812 -0.2219  0.4460 -0.0324
  272TMC3    O2 4121   0.258   0.359  14.543  0.3509 -0.6413  0.0564
  273MPD2     C 4122   1.745   3.401  12.135 -0.6319  0.8083 -0.2873
  273MPD2    C1 4123   1.806   3.505  12.065 -0.7290  0.3395  1.1326
  273MPD2    C2 4124   1.788   3.518  11.928 -0.4080  0.1329 -1.4748
  273MPD2    C3 4125   1.719   3.414  11.856 -0.0092 -0.1704  0.5111
  273MPD2    C4 4126   1.659   3.308  11.923  0.2974 -0.9849 -0.3001
  273MPD2    C5 4127   1.678   3.299  12.062 -0.0635 -0.3159 -1.4836
  273MPD2     H 4128   1.821   3.608  11.876 -0.4611  1.9732  1.7041
  273MPD2    H1 4129   1.614   3.223  11.874  0.6979 -2.0011  1.0902
  273MPD2    H2 4130   1.750   3.379  12.241  1.1590  4.3886  0.3565
  273MPD2    H3 4131   1.646   3.214  12.121 -0.5887  0.6504 -0.3716
  273MPD2     N 4132   1.700   3.434  11.716 -0.8347 -0.2979 -0.4672
  273MPD2    H5 4133   1.742   3.520  11.682  2.2582 -1.8297 -0.6096
  273MPD2    N1 4134   1.874   3.602  12.138 -0.0136  0.2709 -0.1620
  273MPD2    H7 4135   1.858   3.607  12.238  0.2959 -0.7278 -0.0633
  274TMC3    C1 4136   1.598   3.429  11.502  0.3038 -0.2368  0.0999
  274TMC3    C2 4137   1.507   3.374  11.419 -0.1276 -0.3209  0.0422
  274TMC3    C3 4138   1.487   3.413  11.286  0.3876 -0.1308 -0.0300
  274TMC3    C4 4139   1.666   3.539  11.453  0.3065  0.0531 -0.6316
  274TMC3    C5 4140   1.625   3.591  11.332  0.0764  0.4723  0.3179
  274TMC3    C6 4141   1.558   3.520  11.243  0.2523  0.6650 -0.3548
  274TMC3     C 4142   1.602   3.375  11.640  0.2351  0.1589  0.2842
  274TMC3     O 4143   1.520   3.291  11.668 -1.0429 -0.5686 -0.3545
  274TMC3     H 4144   1.467   3.280  11.454 -0.4166 -0.5423 -0.8751
  274TMC3    H1 4145   1.738   3.597  11.508 -0.5122 -0.3903  0.9012
  274TMC3    H2 4146   1.506   3.578  11.168  1.2755 -0.3291 -1.8404
  274TMC3    C7 4147   1.656   3.724  11.298  0.4943  1.1564 -0.5917
  274TMC3    C8 4148   1.363   3.366  11.219 -0.7819  0.7157  0.0102
  274TMC3    O1 4149   1.677   3.748  11.179  0.1409  0.2129  0.0704
  274TMC3    O2 4150   1.277   3.318  11.286  0.4595  0.9622  0.4273
  275MPD2     C 4151   1.386   1.449  14.306 -0.2040  0.7574 -0.0151
  275MPD2    C1 4152   1.282   1.541  14.327  0.0658  0.1886  0.0190
  275MPD2    C2 4153   1.148   1.513  14.298 -0.1774 -0.9779  0.8039
  275MPD2    C3 4154   1.112   1.387  14.271  0.2257  0.4892 -0.3462
  275MPD2    C4 4155   1.213   1.293  14.252 -0.0158  0.2732 -0.0943
  275MPD2    C5 4156   1.343   1.327  14.265  0.2209  0.6243  0.1815
  275MPD2     H 4157   1.080   1.597  14.287  0.7337 -0.1898  1.1212
  275MPD2    H1 4158   1.195   1.189  14.230 -0.8834  0.0319  1.7810
  275MPD2    H2 4159   1.489   1.481  14.315 -0.3039  0.8153  0.9406
  275MPD2    H3 4160   1.414   1.248  14.242 -0.9397 -0.4787  0.3676
  275MPD2     N 4161   0.976   1.347  14.259  0.0597  0.2608 -0.8670
  275MPD2    H5 4162   0.967   1.248  14.239 -3.6590  1.3105 -4.2853
  275MPD2    N1 4163   1.307   1.677  14.359 -0.7965 -0.3889  0.0373
  275MPD2    H7 4164   1.224   1.736  14.355  0.7408  1.9302  2.2806
  276TMC3    C1 4165   1.388   1.852  14.491  0.7139  0.3241 -0.0325
  276TMC3    C2 4166   1.266   1.855  14.551  0.2133  0.8151  0.0891
  276TMC3    C3 4167   1.250   1.916  14.670  0.2554 -0.4990 -0.2923
  276TMC3    C4 4168   1.492   1.907  14.559 -0.3744  0.5430  0.1331
  276TMC3    C5 4169   1.476   1.969  14.678 -0.1826 -0.2269  0.9819
  276TMC3    C6 4170   1.351   1.970  14.743  0.2026  0.1154  0.6862
  276TMC3     C 4171   1.420   1.738  14.406 -0.5878 -0.1547 -0.1042
  276TMC3     O 4172   1.533   1.695  14.406  0.8745  0.6626 -0.1127
  276TMC3     H 4173   1.184   1.804  14.504 -0.1600 -0.6663  2.3231
  276TMC3    H1 4174   1.593   1.888  14.523 -0.3417 -1.1287  1.1268
  276TMC3    H2 4175   1.345   2.029  14.834  2.7653 -0.9951  1.5984
  276TMC3    C7 4176   1.582   2.042  14.744  0.3698 -0.3845  0.7414
  276TMC3    C8 4177   1.163   1.843  14.752 -0.0992  0.5889 -0.3494
  276TMC3    O1 4178   1.576   2.047  14.868  0.0327 -0.8378  0.1581
  276TMC3    O2 4179   1.069   1.787  14.701  0.4744 -0.5392  0.2593
  277MPD2     C 4180   3.322   0.750  13.201 -0.6920  0.2960 -0.2073
  277MPD2    C1 4181   3.238   0.798  13.290 -0.1243 -0.2848 -0.2281
  277MPD2    C2 4182   3.248   0.763  13.422  0.0420  0.2066 -0.0282
  277MPD2    C3 4183   3.352   0.686  13.466 -0.0258 -0.5293  0.5930
  277MPD2    C4 4184   3.449   0.649  13.376  0.8369  0.2732 -0.0145
  277MPD2    C5 4185   3.429   0.677  13.246  0.1087 -0.3150  0.4447
  277MPD2     H 4186   3.172   0.802  13.489  0.7806 -0.1041  0.9877
  277MPD2    H1 4187   3.537   0.594  13.407  1.6113  2.8563  2.4029
  277MPD2    H2 4188   3.308   0.765  13.094  0.7532 -0.4939 -0.5154
  277MPD2    H3 4189   3.496   0.635  13.172 -0.3066 -0.4592  0.1504
  277MPD2     N 4190   3.349   0.637  13.598  0.6100 -0.5173  0.1594
  277MPD2    H5 4191   3.270   0.668  13.653  1.5268  2.3352 -0.1209
  277MPD2    N1 4192   3.140   0.892  13.245 -0.2579  0.1023  0.0299
  277MPD2    H7 4193   3.144   0.922  13.148 -0.2606 -2.6436 -0.8166
  278TMC3    C1 4194   3.397   0.543  13.793 -0.3434  0.0056  0.3974
  278TMC3    C2 4195   3.379   0.412  13.822  0.0471 -0.3016 -0.1110
  278TMC3    C3 4196   3.265   0.369  13.882 -0.1092 -0.5426 -0.4412
  278TMC3    C4 4197   3.308   0.636  13.842  0.1368 -0.1293 -0.1331
  278TMC3    C5 4198   3.184   0.589  13.894  0.5794  1.0834  0.3006
  278TMC3    C6 4199   3.157   0.454  13.900 -0.4243  0.0179 -0.0279
  278TMC3     C 4200   3.442   0.563  13.660 -0.6609  0.0423  0.4682
  278TMC3     O 4201   3.538   0.509  13.613 -0.3305  0.0069 -0.5387
  278TMC3     H 4202   3.440   0.343  13.765 -0.4584 -0.4016 -0.5239
  278TMC3    H1 4203   3.332   0.741  13.838  0.4321 -0.2233 -0.7031
  278TMC3    H2 4204   3.059   0.419  13.931 -0.9824  0.3005 -1.4519
  278TMC3    C7 4205   3.082   0.654  13.808 -0.6569  0.6308 -0.3343
  278TMC3    C8 4206   3.226   0.234  13.847  0.1902 -0.1430 -0.5185
  278TMC3    O1 4207   3.131   0.739  13.735 -0.4123  0.6235  0.4816
  278TMC3    O2 4208   3.316   0.146  13.854  0.0141  0.2707  0.5019
  279MPD2     C 4209   2.773   0.544   0.096  0.0938  0.6253 -0.2318
  279MPD2    C1 4210   2.751   0.659   0.173  0.6190 -0.2301  0.6001
  279MPD2    C2 4211   2.844   0.766   0.170  0.2304  0.5817 -0.8796
  279MPD2    C3 4212   2.965   0.748   0.102  0.1038  0.2079  0.3508
  279MPD2    C4 4213   2.996   0.628   0.040 -0.1848  0.3876 -0.8340
  279MPD2    C5 4214   2.898   0.532   0.038 -0.0705  0.5388 -0.5718
  279MPD2     H 4215   2.807   0.863   0.200  1.1862 -0.1801  2.8306
  279MPD2    H1 4216   3.086   0.615  17.673 -1.7743 -1.6142 -2.8508
  279MPD2    H2 4217   2.705   0.460   0.090 -1.2452  1.6917 -0.1198
  279MPD2    H3 4218   2.928   0.444  17.674 -1.4454 -0.7980  0.8225
  279MPD2     N 4219   3.048   0.860   0.090 -0.3298 -0.4327  0.0077
  279MPD2    H5 4220   3.006   0.942   0.133  1.4102  1.4686 -1.9594
  279MPD2    N1 4221   2.620   0.679   0.232  0.0409  0.3303 -0.3884
  279MPD2    H7 4222   2.549   0.610   0.209 -1.3418  1.0260  1.7762
  280TMC3    C1 4223   2.443   0.796   0.335  0.9544 -0.4430 -0.7017
  280TMC3    C2 4224   2.361   0.684   0.311  0.1853 -0.6962  0.5487
  280TMC3    C3 4225   2.229   0.714   0.298 -0.2302  0.0361 -0.3326
  280TMC3    C4 4226   2.398   0.924   0.354 -0.5558  0.4108  0.5393
  280TMC3    C5 4227   2.266   0.947   0.338  0.1293 -0.1792 -0.6429
  280TMC3    C6 4228   2.181   0.844   0.297  0.4398 -0.5091  0.7551
  280TMC3     C 4229   2.590   0.778   0.323  0.7019 -0.0020 -0.8427
  280TMC3     O 4230   2.666   0.857   0.372  0.1053 -0.1033 -0.1332
  280TMC3     H 4231   2.396   0.581   0.314  0.7569 -0.5001  0.5851
  280TMC3    H1 4232   2.457   1.013   0.374 -0.2385  0.2208  0.4459
  280TMC3    H2 4233   2.078   0.870   0.278  0.2551 -0.4736  1.8427
  280TMC3    C7 4234   2.244   1.080   0.279 -0.2743 -0.2753  0.2531
  280TMC3    C8 4235   2.134   0.608   0.331  0.0970 -0.2457 -0.3329
  280TMC3    O1 4236   2.313   1.177   0.313  0.1336  0.1581  0.6146
  280TMC3    O2 4237   2.152   0.495   0.287 -0.1663 -0.0203  0.6643
  281TMC3    C1 4238   1.102   0.612  13.433  0.7419 -0.3533 -0.0520
  281TMC3    C2 4239   1.212   0.698  13.412 -0.0045  0.1918  0.3202
  281TMC3    C3 4240   1.300   0.664  13.314  0.3644 -0.2478 -0.3231
  281TMC3    C4 4241   1.097   0.482  13.380 -0.1464  0.3993 -0.6126
  281TMC3    C5 4242   1.203   0.438  13.315 -0.6444  0.2848 -0.0205
  281TMC3    C6 4243   1.295   0.529  13.263 -0.0004  0.0391 -0.2936
  281TMC3     C 4244   0.986   0.661  13.498 -0.0230 -0.3011 -0.0738
  281TMC3     O 4245   0.923   0.579  13.557 -0.4103 -0.1552 -0.6672
  281TMC3     H 4246   1.224   0.802  13.442 -0.4425  0.4829 -0.4826
  281TMC3    H1 4247   1.012   0.418  13.398  0.0050 -0.4422 -2.9728
  281TMC3    H2 4248   1.381   0.483  13.216 -0.8102  0.7252 -2.4337
  281TMC3    C7 4249   1.251   0.306  13.337 -0.5081  0.3397  0.2499
  281TMC3    C8 4250   1.431   0.714  13.328 -0.0671  0.3676  0.0957
  281TMC3    O1 4251   1.350   0.272  13.271  0.1596 -0.5580  0.0300
  281TMC3    O2 4252   1.524   0.633  13.328 -0.4785 -0.0708 -0.1951
  282MPD2     C 4253   2.808   2.181  15.038 -0.1337  0.7102  0.1937
  282MPD2    C1 4254   2.746   2.298  14.996 -0.0975  0.1374 -0.5705
  282MPD2    C2 4255   2.713   2.314  14.861  0.0673 -0.2242 -0.1950
  282MPD2    C3 4256   2.737   2.221  14.764  0.9440 -0.1592 -0.5530
  282MPD2    C4 4257   2.798   2.095  14.802  0.1220 -0.0924  0.0907
  282MPD2    C5 4258   2.830   2.086  14.936  0.8230 -0.0331 -0.5843
  282MPD2     H 4259   2.667   2.408  14.833  1.4086  0.1366 -1.2152
  282MPD2    H1 4260   2.819   2.006  14.744 -0.3499 -1.1608  1.5797
  282MPD2    H2 4261   2.831   2.146  15.138 -1.8693  1.9709  1.0385
  282MPD2    H3 4262   2.892   2.000  14.957  1.6616  0.7917  0.3189
  282MPD2     N 4263   2.697   2.265  14.631 -0.4296 -0.1623  0.0162
  282MPD2    H5 4264   2.665   2.360  14.614  2.8030  1.3044  1.9907
  282MPD2    N1 4265   2.712   2.399  15.091 -0.1956  0.1659  0.1232
  282MPD2    H7 4266   2.650   2.472  15.059  1.2024  0.7554 -1.2596
  283TMC3    C1 4267   2.675   2.486  15.313  1.0777 -0.2204  0.3234
  283TMC3    C2 4268   2.734   2.551  15.419 -0.1496  0.1798  0.1442
  283TMC3    C3 4269   2.649   2.590  15.521  0.2692 -0.6086  0.5757
  283TMC3    C4 4270   2.542   2.458  15.308 -0.0799 -0.7034 -0.5154
  283TMC3    C5 4271   2.465   2.496  15.413  0.0730  0.3709 -0.6395
  283TMC3    C6 4272   2.521   2.564  15.525 -0.3718 -0.1241  0.2397
  283TMC3     C 4273   2.764   2.413  15.215  0.0302  0.5370 -0.2918
  283TMC3     O 4274   2.866   2.362  15.263 -0.2628  0.2530 -0.8759
  283TMC3     H 4275   2.841   2.545  15.434 -0.4084  0.4751  2.1740
  283TMC3    H1 4276   2.502   2.409  15.220 -2.2857 -0.8378  0.5531
  283TMC3    H2 4277   2.458   2.600  15.604  0.9010  0.3351  1.0448
  283TMC3    C7 4278   2.335   2.432  15.434  0.0174  0.2631 -0.1834
  283TMC3    C8 4279   2.689   2.683  15.621  0.3769 -0.4884 -0.4935
  283TMC3    O1 4280   2.272   2.454  15.537  0.5417 -0.7432  0.1205
  283TMC3    O2 4281   2.655   2.659  15.737 -0.5998  0.7510 -0.2650
  284MPD2     C 4282   1.047   1.365  11.857  0.2026  0.5844  0.2595
  284MPD2    C1 4283   1.051   1.254  11.770  0.0192 -0.1936  0.1033
  284MPD2    C2 4284   1.003   1.133  11.821 -0.0440 -0.4148 -0.2000
  284MPD2    C3 4285   0.949   1.128  11.950  0.0405  0.0706  0.0043
  284MPD2    C4 4286   0.946   1.239  12.032  0.2430  0.0963 -0.4099
  284MPD2    C5 4287   0.998   1.352  11.982 -0.1786  0.6250 -0.6992
  284MPD2     H 4288   1.009   1.046  11.757 -0.5328  0.9469 -2.1306
  284MPD2    H1 4289   0.903   1.239  12.131  0.4620  2.2814 -0.3197
  284MPD2    H2 4290   1.078   1.465  11.827 -1.6854  0.3319 -2.4810
  284MPD2    H3 4291   0.994   1.442  12.041  2.1309 -1.1828  2.1792
  284MPD2     N 4292   0.901   1.000  11.984  0.2377 -0.0875 -0.9592
  284MPD2    H5 4293   0.931   0.928  11.918  1.9131 -0.4236  0.1519
  284MPD2    N1 4294   1.101   1.258  11.634 -0.5266  0.0215  0.3044
  284MPD2    H7 4295   1.088   1.167  11.590  0.4736 -0.6122  1.3112
  285TMC3    C1 4296   1.238   1.330  11.445  0.3837 -0.4061 -0.4114
  285TMC3    C2 4297   1.245   1.197  11.407  0.7266  0.1987 -0.1461
  285TMC3    C3 4298   1.348   1.153  11.326 -0.2182 -0.2002 -0.2814
  285TMC3    C4 4299   1.315   1.420  11.387 -0.4994  0.5298 -0.0126
  285TMC3    C5 4300   1.422   1.374  11.305  0.2720 -0.7386 -0.1510
  285TMC3    C6 4301   1.445   1.240  11.283 -0.0609  0.4672 -0.2169
  285TMC3     C 4302   1.181   1.359  11.578  0.4634 -0.3783 -0.7346
  285TMC3     O 4303   1.222   1.458  11.631  0.3248 -0.4435  0.3872
  285TMC3     H 4304   1.192   1.117  11.457 -0.4505  1.0768 -0.0010
  285TMC3    H1 4305   1.319   1.526  11.409 -0.5762 -0.0846  3.0126
  285TMC3    H2 4306   1.518   1.213  11.207 -2.3246 -0.5702 -2.0379
  285TMC3    C7 4307   1.538   1.465  11.304  0.0499  0.5387 -0.0832
  285TMC3    C8 4308   1.371   1.014  11.308  0.1500  0.0001 -0.2002
  285TMC3    O1 4309   1.526   1.585  11.297 -0.3984 -0.1311 -0.6274
  285TMC3    O2 4310   1.273   0.947  11.272  0.3814  0.1889  0.7987
  286MPD2     C 4311   0.844   0.433   2.129  0.2630  0.0581 -0.3228
  286MPD2    C1 4312   0.833   0.476   1.995  0.3975  0.8969 -0.1566
  286MPD2    C2 4313   0.939   0.451   1.907  0.3312 -0.4812  0.9870
  286MPD2    C3 4314   1.053   0.385   1.949 -0.0507 -0.1708  0.9754
  286MPD2    C4 4315   1.060   0.341   2.077 -0.0478 -0.4891 -0.0517
  286MPD2    C5 4316   0.958   0.366   2.167  0.3382 -0.3074 -0.3190
  286MPD2     H 4317   0.936   0.490   1.806  2.6364 -0.1070  1.0517
  286MPD2    H1 4318   1.152   0.295   2.110  0.2298 -0.2819 -0.5262
  286MPD2    H2 4319   0.776   0.447   2.212  2.6293  2.3396  1.2245
  286MPD2    H3 4320   0.964   0.351   2.275  0.1167 -1.2281 -0.4288
  286MPD2     N 4321   1.164   0.357   1.861 -0.2639  0.3232 -0.0242
  286MPD2    H5 4322   1.239   0.302   1.902 -0.5251  0.2733  0.3834
  286MPD2    N1 4323   0.723   0.547   1.950 -0.4021 -0.8883 -0.8179
  286MPD2    H7 4324   0.723   0.568   1.851  1.4303 -1.7658 -1.0014
  287TMC3    C1 4325   1.289   0.308   1.665 -0.4459 -0.5929 -0.3692
  287TMC3    C2 4326   1.278   0.280   1.528 -0.3564 -0.1571 -0.1458
  287TMC3    C3 4327   1.399   0.252   1.466 -0.5609 -0.4600  0.5562
  287TMC3    C4 4328   1.404   0.314   1.736  0.7776 -0.5686 -0.5170
  287TMC3    C5 4329   1.517   0.276   1.665 -0.1883  1.1041 -0.8743
  287TMC3    C6 4330   1.514   0.252   1.530 -0.3963 -0.2879  0.3597
  287TMC3     C 4331   1.170   0.377   1.726  0.3522  0.0820 -1.0497
  287TMC3     O 4332   1.087   0.425   1.651 -0.1594  0.3559  0.2164
  287TMC3     H 4333   1.189   0.301   1.470  1.3825  0.0211 -2.7655
  287TMC3    H1 4334   1.410   0.365   1.831  2.8034  0.7350 -1.3375
  287TMC3    H2 4335   1.605   0.218   1.481  1.6664  3.3251  1.6942
  287TMC3    C7 4336   1.636   0.264   1.743  0.3506 -0.2030 -0.6911
  287TMC3    C8 4337   1.403   0.230   1.322 -0.5256 -0.4238 -0.2467
  287TMC3    O1 4338   1.646   0.341   1.838 -0.2899 -0.0017  0.2314
  287TMC3    O2 4339   1.316   0.166   1.268  0.5753  0.4888 -0.0487
  288TMC3    C1 4340   2.868   4.370  14.759 -0.6709 -0.9168 -0.0160
  288TMC3    C2 4341   2.839   4.399  14.886  1.1631 -0.7793 -0.3699
  288TMC3    C3 4342   2.852   4.525  14.929  0.8618  0.4742  0.2530
  288TMC3    C4 4343   2.922   4.460  14.675  0.2281  0.3046 -0.2120
  288TMC3    C5 4344   2.926   4.588  14.718  1.1249  0.4208  0.3961
  288TMC3    C6 4345   2.897   4.622  14.843  0.2809  0.0217  0.2368
  288TMC3     C 4346   2.888   4.231  14.720 -0.6213 -0.1302 -0.6579
  288TMC3     O 4347   2.972   4.203  14.637 -0.0338  0.1617  0.4827
  288TMC3     H 4348   2.826   4.328  14.967  0.0879  0.3176  0.4011
  288TMC3    H1 4349   2.968   4.433  14.580  0.1034  0.0270 -0.1931
  288TMC3    H2 4350   2.883   4.722  14.882 -2.4903  0.1232 -1.0807
  288TMC3    C7 4351   2.978   4.695  14.630 -0.7904  0.0933  0.1257
  288TMC3    C8 4352   2.838   4.557  15.064 -0.9353  0.1558 -0.1130
  288TMC3    O1 4353   2.986   0.080  14.684  0.4596 -0.1730  0.2068
  288TMC3    O2 4354   2.914   4.650  15.099 -0.5718  0.4692 -0.0550
  289MPD2     C 4355   3.336   4.358  14.253  0.3192  0.0117 -0.4409
  289MPD2    C1 4356   3.324   4.355  14.115 -0.0484  0.3284 -0.4600
  289MPD2    C2 4357   3.209   4.303  14.056 -0.5677 -0.5158 -0.3240
  289MPD2    C3 4358   3.103   4.257  14.142 -0.2545  0.2916 -0.2100
  289MPD2    C4 4359   3.122   4.252  14.278  0.0161 -0.7553 -0.8208
  289MPD2    C5 4360   3.237   4.304  14.328 -0.5383 -0.0001  0.5074
  289MPD2     H 4361   3.210   4.289  13.948  1.0798 -1.6425 -0.1661
  289MPD2    H1 4362   3.037   4.222  14.338  0.3970 -1.3669 -0.5845
  289MPD2    H2 4363   3.426   4.394  14.301 -0.6294  1.1521  0.4655
  289MPD2    H3 4364   3.258   4.293  14.433 -1.5905 -3.6483  0.3512
  289MPD2     N 4365   2.983   4.207  14.090 -0.8802  0.8650  0.3470
  289MPD2    H5 4366   2.915   4.168  14.155 -0.3239  0.6272  0.7886
  289MPD2    N1 4367   3.428   4.418  14.045 -0.2397 -0.0018 -0.5301
  289MPD2    H7 4368   3.508   4.456  14.094 -1.3934  0.5188  0.9394
  290TMC3    C1 4369   2.814   4.163  13.938  0.0776 -0.3355  0.1074
  290TMC3    C2 4370   2.728   4.229  13.860 -0.0242  0.0799  0.4160
  290TMC3    C3 4371   2.595   4.183  13.862 -0.5442 -0.1960 -0.0432
  290TMC3    C4 4372   2.788   4.037  13.992 -0.1240 -0.0396 -0.1285
  290TMC3    C5 4373   2.661   3.990  13.978  0.5162 -0.1842  0.4712
  290TMC3    C6 4374   2.562   4.064  13.918 -0.5318  0.2397  0.1225
  290TMC3     C 4375   2.941   4.218  13.959 -0.0337  0.0935 -1.3155
  290TMC3     O 4376   2.987   4.281  13.867  0.0784 -0.5911  0.3560
  290TMC3     H 4377   2.750   4.324  13.811  0.9175 -0.7053 -0.6924
  290TMC3    H1 4378   2.871   3.990  14.045 -0.7607 -0.7533  0.2380
  290TMC3    H2 4379   2.455   4.044  13.917 -0.9094  2.1996  1.9950
  290TMC3    C7 4380   2.620   3.859  14.017  0.4933  0.3241  0.2993
  290TMC3    C8 4381   2.490   4.280  13.853  0.3710  0.2162 -0.1565
  290TMC3    O1 4382   2.508   3.819  14.004 -0.0611 -0.0601 -0.2119
  290TMC3    O2 4383   2.376   4.241  13.836 -0.4669 -0.1573  0.3302
  291MPD2     C 4384   2.201   3.740   0.522  0.2900 -0.2353 -0.0206
  291MPD2    C1 4385   2.218   3.627   0.450 -0.1950  0.7763  0.9268
  291MPD2    C2 4386   2.344   3.574   0.420 -0.2078  0.1360  0.8604
  291MPD2    C3 4387   2.456   3.643   0.461  0.0597  0.6510 -0.7740
  291MPD2    C4 4388   2.437   3.765   0.517 -0.6224 -0.0038  0.2632
  291MPD2    C5 4389   2.313   3.810   0.557 -0.0110 -0.2461  0.7240
  291MPD2     H 4390   2.350   3.480   0.365  1.9331  1.2255 -0.7946
  291MPD2    H1 4391   2.520   3.818   0.562  0.4933 -1.1056 -0.4694
  291MPD2    H2 4392   2.104   3.779   0.550  0.7348  0.0946  1.0728
  291MPD2    H3 4393   2.305   3.904   0.610  0.8947 -0.0969  0.6095
  291MPD2     N 4394   2.586   3.605   0.422  0.5222  0.2694  0.2789
  291MPD2    H5 4395   2.656   3.679   0.417  0.0331  0.7058 -0.2267
  291MPD2    N1 4396   2.109   3.547   0.416  1.0034  0.2665 -0.1122
  291MPD2    H7 4397   2.131   3.465   0.362  0.8326  0.2614 -0.1737
  292TMC3    C1 4398   1.882   3.478   0.386 -0.1597 -0.2210 -0.3142
  292TMC3    C2 4399   1.749   3.492   0.420  0.1700 -0.1280  0.0566
  292TMC3    C3 4400   1.657   3.392   0.379  0.3506 -0.3225  0.2078
  292TMC3    C4 4401   1.915   3.375   0.296  0.5028  0.1824  0.1581
  292TMC3    C5 4402   1.822   3.283   0.264  0.4897  0.1204  0.0334
  292TMC3    C6 4403   1.695   3.283   0.311  0.0576 -0.4402 -0.0046
  292TMC3     C 4404   1.976   3.567   0.449 -0.3497 -0.5715  0.3164
  292TMC3     O 4405   1.925   3.629   0.541 -0.2902  0.1017  0.1175
  292TMC3     H 4406   1.710   3.571   0.483  2.0324 -0.0350  1.1025
  292TMC3    H1 4407   2.012   3.370   0.249  1.2621 -0.7004  1.8035
  292TMC3    H2 4408   1.631   3.202   0.279  0.5081 -0.1907 -1.5225
  292TMC3    C7 4409   1.848   3.196   0.146  0.0337 -0.3493 -0.8970
  292TMC3    C8 4410   1.520   3.393   0.437 -0.1921 -0.3513 -0.0964
  292TMC3    O1 4411   1.960   3.149   0.130  0.5354  0.6836 -0.4677
  292TMC3    O2 4412   1.480   3.493   0.496 -0.1905 -0.7060  0.1636
  293MPD2     C 4413   4.463   0.637  12.353 -0.2135 -0.6043  0.5412
  293MPD2    C1 4414   4.337   0.614  12.398  0.1119  0.3980 -0.4951
  293MPD2    C2 4415   4.313   0.606  12.535 -0.1635 -0.6253  0.9720
  293MPD2    C3 4416   4.420   0.627  12.624 -0.4318 -0.3546  0.8620
  293MPD2    C4 4417   4.549   0.630  12.579 -0.2129 -0.2687 -0.3129
  293MPD2    C5 4418   4.570   0.635  12.441  0.2770 -0.0077  0.3792
  293MPD2     H 4419   4.214   0.588  12.574 -0.4999 -1.3254 -0.2095
  293MPD2    H1 4420   4.631   0.636  12.649  0.7011  0.9359 -1.4818
  293MPD2    H2 4421   4.490   0.643  12.249  0.1941  1.7141  0.7869
  293MPD2    H3 4422   4.672   0.631  12.404  0.1484 -2.6770  0.2793
  293MPD2     N 4423   4.379   0.627  12.764 -0.3269 -0.6489  1.0600
  293MPD2    H5 4424   4.281   0.641  12.785 -0.7912 -0.6208 -1.1045
  293MPD2    N1 4425   4.237   0.605  12.301  0.0331  0.3374 -0.0088
  293MPD2    H7 4426   4.270   0.623  12.207  1.7608  0.8505  0.7123
  294TMC3    C1 4427   4.014   0.600  12.211  0.9561  1.5662  0.2804
  294TMC3    C2 4428   3.880   0.599  12.243 -0.3524 -0.2139 -0.1219
  294TMC3    C3 4429   3.789   0.566  12.147 -0.1928 -0.2762  0.1689
  294TMC3    C4 4430   4.056   0.551  12.090  0.4078  0.4353 -1.0584
  294TMC3    C5 4431   3.960   0.514  11.986  0.2811  0.9142  0.8649
  294TMC3    C6 4432   3.825   0.515  12.022  0.2020 -0.6354  0.0943
  294TMC3     C 4433   4.102   0.610  12.326  0.2148 -0.0200 -0.1293
  294TMC3     O 4434   4.039   0.601  12.428 -0.4730  0.2840  0.3807
  294TMC3     H 4435   3.851   0.661  12.326  0.1043 -1.2334  0.7974
  294TMC3    H1 4436   4.160   0.532  12.067  0.4318 -3.2051  2.0632
  294TMC3    H2 4437   3.750   0.492  11.947 -0.1712 -1.1979  0.6402
  294TMC3    C7 4438   3.994   0.497  11.846 -0.1944  0.7790 -0.5109
  294TMC3    C8 4439   3.657   0.572  12.199  0.1749 -0.3980  0.2093
  294TMC3    O1 4440   4.109   0.533  11.816  0.1570  0.2566  0.0443
  294TMC3    O2 4441   3.632   0.642  12.298  0.2145 -0.4132  0.0017
  295MPD2     C 4442   4.306   4.185   0.472 -1.0722  0.1615  0.4183
  295MPD2    C1 4443   4.283   4.316   0.436 -0.0182 -0.2937 -0.6958
  295MPD2    C2 4444   4.179   4.385   0.485  0.0050 -0.2284  0.4931
  295MPD2    C3 4445   4.087   4.315   0.564  0.3512  0.3031 -0.4829
  295MPD2    C4 4446   4.105   4.181   0.597 -0.1116 -0.0007 -0.1713
  295MPD2    C5 4447   4.220   4.118   0.554  0.1243  0.6898 -0.0549
  295MPD2     H 4448   4.163   4.481   0.438 -4.1435 -0.7206  0.8606
  295MPD2    H1 4449   4.039   4.119   0.656 -0.2823 -1.9603 -2.4200
  295MPD2    H2 4450   4.388   4.126   0.434 -3.6425 -2.6606 -0.7480
  295MPD2    H3 4451   4.237   4.019   0.594  2.3737  0.6382 -1.1180
  295MPD2     N 4452   3.977   4.379   0.621  0.5814 -0.7643  0.0482
  295MPD2    H5 4453   3.924   4.330   0.692  0.2302 -0.1181  0.2310
  295MPD2    N1 4454   4.367   4.373   0.342 -0.5257 -0.3917 -0.3175
  295MPD2    H7 4455   4.331   4.455   0.294 -0.5840 -0.3521 -0.2045
  296TMC3    C1 4456   3.830   4.551   0.689 -0.0521 -1.1118  0.0707
  296TMC3    C2 4457   3.776   4.670   0.656 -0.3547  0.4792  0.5229
  296TMC3    C3 4458   3.650   4.689   0.702 -0.4717  0.4755  0.4099
  296TMC3    C4 4459   3.756   4.459   0.759 -0.5801  0.1592 -0.4965
  296TMC3    C5 4460   3.632   4.477   0.802 -0.2235 -0.3030 -0.4799
  296TMC3    C6 4461   3.588   4.604   0.791  0.2322 -0.0002 -0.2836
  296TMC3     C 4462   3.949   4.515   0.619 -0.7619 -0.7939 -1.0219
  296TMC3     O 4463   4.016   4.602   0.562 -0.0342 -0.2923 -0.2590
  296TMC3     H 4464   3.840   0.021   0.609  0.6799  0.7573  2.3556
  296TMC3    H1 4465   3.791   4.363   0.796 -1.5102 -0.2162 -0.5947
  296TMC3    H2 4466   3.500   4.634   0.845  0.7960 -1.0172  1.2016
  296TMC3    C7 4467   3.574   4.399   0.916 -0.7494  0.0525  0.3853
  296TMC3    C8 4468   3.608   0.105   0.711 -0.3285  0.1013  0.0413
  296TMC3    O1 4469   3.506   4.458   0.995 -0.4656 -0.7961 -0.0856
  296TMC3    O2 4470   3.688   0.196   0.718 -0.1492  0.4109  0.2255
  297MPD2     C 4471   2.348   1.113  16.130 -0.2513 -0.9068 -0.4448
  297MPD2    C1 4472   2.296   1.242  16.132 -0.2801 -0.1296  0.1118
  297MPD2    C2 4473   2.380   1.348  16.099 -0.3225  0.3173 -0.0579
  297MPD2    C3 4474   2.516   1.335  16.081 -0.8769  0.7176  0.5915
  297MPD2    C4 4475   2.568   1.209  16.084 -0.6814 -0.2863 -0.8154
  297MPD2    C5 4476   2.482   1.099  16.102 -0.1191  0.3817  0.0661
  297MPD2     H 4477   2.341   1.449  16.096 -0.8986  0.1345  1.1866
  297MPD2    H1 4478   2.674   1.188  16.079 -0.1394  2.7888 -1.8170
  297MPD2    H2 4479   2.284   1.027  16.143 -1.7641  0.1094 -1.2717
  297MPD2    H3 4480   2.515   0.996  16.105 -2.2583 -0.3245 -0.4897
  297MPD2     N 4481   2.602   1.444  16.060 -0.0756 -0.4526 -0.5780
  297MPD2    H5 4482   2.556   1.534  16.057  0.2352 -0.2652  0.3200
  297MPD2    N1 4483   2.163   1.278  16.139  0.1971 -0.0097  0.2443
  297MPD2    H7 4484   2.145   1.377  16.124 -3.5658 -0.5860  0.9798
  298TMC3    C1 4485   1.932   1.257  16.112  0.5853 -0.0497 -0.3604
  298TMC3    C2 4486   1.935   1.343  16.003  0.5662 -0.2078 -0.1433
  298TMC3    C3 4487   1.829   1.345  15.922 -0.1819 -0.9813  0.3507
  298TMC3    C4 4488   1.825   1.181  16.138  0.2875  0.6697 -0.4917
  298TMC3    C5 4489   1.717   1.198  16.057 -0.0950 -0.9374 -0.0983
  298TMC3    C6 4490   1.719   1.270  15.946 -0.1774 -0.0218 -0.2275
  298TMC3     C 4491   2.058   1.196  16.140  0.0150 -0.7054  0.6992
  298TMC3     O 4492   2.055   1.081  16.181  0.6014  0.1700 -0.1777
  298TMC3     H 4493   2.031   1.364  15.958  1.2097  0.6288  1.6096
  298TMC3    H1 4494   1.834   1.106  16.217 -0.0851 -0.1171 -1.1978
  298TMC3    H2 4495   1.631   1.286  15.884 -0.2521 -0.3408 -0.2037
  298TMC3    C7 4496   1.606   1.105  16.085  0.5344  0.2354 -0.1360
  298TMC3    C8 4497   1.820   1.448  15.825 -0.4916 -0.1370 -1.0146
  298TMC3    O1 4498   1.602   1.041  16.188 -0.5275  0.2598 -0.0891
  298TMC3    O2 4499   1.735   1.436  15.736  0.2260  0.8807  0.2714
  299MPD2     C 4500   2.513   0.012  11.341 -0.0029 -0.0329 -0.0572
  299MPD2    C1 4501   2.561   0.075  11.229 -0.5646  0.2005 -0.0398
  299MPD2    C2 4502   2.520   0.038  11.107  0.4374 -0.7471 -0.2773
  299MPD2    C3 4503   2.407   4.672  11.091 -0.8333  0.2719 -0.1441
  299MPD2    C4 4504   2.351   4.615  11.206 -0.7197  0.3888 -1.0784
  299MPD2    C5 4505   2.401   4.657  11.325  0.5159 -0.1767 -0.0664
  299MPD2     H 4506   2.571   0.082  11.022 -3.5794  1.8495 -1.3364
  299MPD2    H1 4507   2.277   4.536  11.206  1.4962 -1.6439 -0.1008
  299MPD2    H2 4508   2.555   0.029  11.439 -0.1553 -0.2002  0.0374
  299MPD2    H3 4509   2.362   4.600  11.408 -2.0231 -0.5951 -1.5545
  299MPD2     N 4510   2.347   4.635  10.973  0.1999  0.2913  0.0632
  299MPD2    H5 4511   2.265   4.577  10.986 -1.4540  2.9493  1.5103
  299MPD2    N1 4512   2.662   0.171  11.264 -0.7770  0.2518  0.4427
  299MPD2    H7 4513   2.689   0.162  11.362  2.1150 -3.1417 -0.7035
  300TMC3    C1 4514   2.310   4.628  10.736 -0.0392  0.0869  0.1518
  300TMC3    C2 4515   2.313   0.006  10.649 -0.0822 -0.0397  0.3010
  300TMC3    C3 4516   2.194   0.038  10.585  0.2131  0.2011  0.6705
  300TMC3    C4 4517   2.204   4.538  10.756 -0.6003 -0.0839  0.3269
  300TMC3    C5 4518   2.093   4.559  10.673  0.4635  0.4645 -0.2267
  300TMC3    C6 4519   2.088   4.672  10.593  0.4181 -0.1602  0.6589
  300TMC3     C 4520   2.397   4.662  10.846  0.1955  0.2829 -0.1906
  300TMC3     O 4521   2.492   0.006  10.819 -0.1667 -0.3187  0.6093
  300TMC3     H 4522   2.387   0.085  10.663  0.6266 -0.3306 -1.6627
  300TMC3    H1 4523   2.218   4.463  10.832  1.0515 -0.5702 -0.4644
  300TMC3    H2 4524   1.992   4.698  10.550  0.1017 -0.1850  1.3414
  300TMC3    C7 4525   1.966   4.491  10.685  0.0247 -0.2471  0.1069
  300TMC3    C8 4526   2.156   0.177  10.564  0.5738 -0.9365 -0.7490
  300TMC3    O1 4527   1.966   4.386  10.622  0.4736 -0.4476  0.8191
  300TMC3    O2 4528   2.240   0.265  10.579 -0.0223 -0.6582  0.8858
  301MPD2     C 4529   4.407   2.250   2.109 -0.9761 -1.1468  0.0201
  301MPD2    C1 4530   4.397   2.202   1.983 -0.0014  0.2112  0.4672
  301MPD2    C2 4531   4.477   2.099   1.938 -0.0394 -0.7318  0.0320
  301MPD2    C3 4532   4.551   2.032   2.031  0.0074  0.5224 -0.5626
  301MPD2    C4 4533   4.555   2.071   2.162 -0.7051  0.3012 -0.3764
  301MPD2    C5 4534   4.485   2.182   2.199  0.3037 -0.1322 -0.2518
  301MPD2     H 4535   4.481   2.059   1.838  0.5780 -2.2869  0.6854
  301MPD2    H1 4536   4.624   2.024   2.231 -0.1005  0.3379 -0.9546
  301MPD2    H2 4537   4.352   2.340   2.136  2.3332  0.7275  0.5343
  301MPD2    H3 4538   4.483   2.222   2.300 -1.5691 -0.0627 -0.3018
  301MPD2     N 4539   4.625   1.912   1.997 -0.1042 -0.2526  0.2447
  301MPD2    H5 4540   4.690   1.878   2.067 -0.1488 -0.0943  0.3635
  301MPD2    N1 4541   4.313   2.255   1.890 -0.2938  0.3087 -0.1040
  301MPD2    H7 4542   4.313   2.213   1.797  1.1194  0.6688 -0.2717
  302TMC3    C1 4543   4.683   1.714   1.873  0.2857 -0.0684  0.1543
  302TMC3    C2 4544   0.061   1.692   1.964 -0.4129 -0.4693 -0.0214
  302TMC3    C3 4545   0.105   1.564   1.964 -0.0949  0.0508 -0.5963
  302TMC3    C4 4546   4.632   1.631   1.780  1.0405  0.1838 -0.8987
  302TMC3    C5 4547   4.686   1.502   1.777  0.3289 -0.0681 -0.7059
  302TMC3    C6 4548   0.063   1.474   1.867  0.4082 -0.1742 -0.1945
  302TMC3     C 4549   4.609   1.841   1.880  0.3363 -0.0415 -0.9429
  302TMC3     O 4550   4.520   1.857   1.797  0.0726 -0.0497  0.3122
  302TMC3     H 4551   0.114   1.773   2.011  0.3184 -0.2597 -1.2022
  302TMC3    H1 4552   4.562   1.662   1.703 -0.2848 -2.5153 -0.7648
  302TMC3    H2 4553   0.111   1.378   1.857 -2.2973 -1.7243  1.7927
  302TMC3    C7 4554   4.680   1.408   1.657 -0.1070  0.1544 -0.6326
  302TMC3    C8 4555   0.234   1.529   2.018  0.4210  0.0582  0.4814
  302TMC3    O1 4556   0.032   1.310   1.658  0.5432  0.5933  0.1426
  302TMC3    O2 4557   0.302   1.447   1.957  0.3325  0.0768  0.1638
  303MPD2     C 4558   4.514   0.320  10.071  0.2918 -0.1826  0.3144
  303MPD2    C1 4559   4.401   0.266  10.013 -0.3626  0.5139 -0.1664
  303MPD2    C2 4560   4.417   0.168   9.915  0.5795  1.0730 -0.4996
  303MPD2    C3 4561   4.542   0.119   9.882 -0.5295  0.7195  0.3895
  303MPD2    C4 4562   4.652   0.189   9.933 -0.3655  0.1363  0.8219
  303MPD2    C5 4563   4.635   0.284  10.024  0.1929  0.8711  0.5062
  303MPD2     H 4564   4.339   0.117   9.859  0.6863 -0.3901  0.6905
  303MPD2    H1 4565   0.031   0.162   9.906  0.5662  2.7648  1.6786
  303MPD2    H2 4566   4.514   0.395  10.149 -1.6386 -0.5584  0.6734
  303MPD2    H3 4567   4.718   0.333  10.075  1.3725 -2.8629  2.1920
  303MPD2     N 4568   4.568   0.005   9.797 -0.2359 -0.1588  0.1589
  303MPD2    H5 4569   4.667   4.707   9.787 -0.4767 -0.9704 -0.6113
  303MPD2    N1 4570   4.273   0.318  10.050 -0.2200  0.7778 -0.1522
  303MPD2    H7 4571   4.264   0.388  10.122 -1.2289 -0.2830  0.7564
  304TMC3    C1 4572   4.039   0.288  10.073 -0.2527  0.3936 -0.3290
  304TMC3    C2 4573   3.923   0.285  10.003 -0.1027 -0.3893 -0.7653
  304TMC3    C3 4574   3.819   0.218  10.053 -0.3167 -0.0737 -0.5286
  304TMC3    C4 4575   4.055   0.241  10.198  0.0688 -0.1113 -0.3956
  304TMC3    C5 4576   3.942   0.171  10.248  0.1511  0.1725 -0.1146
  304TMC3    C6 4577   3.826   0.170  10.180 -0.3226 -0.5332 -0.5196
  304TMC3     C 4578   4.152   0.270   9.990  0.1776  0.2278 -0.5724
  304TMC3     O 4579   4.125   0.207   9.890 -0.5923 -0.0934 -0.7108
  304TMC3     H 4580   3.923   0.311   9.898 -0.2517  1.3644 -0.3283
  304TMC3    H1 4581   4.137   0.273  10.261  0.6650 -1.2745 -0.5935
  304TMC3    H2 4582   3.738   0.120  10.220 -0.4736  1.1049  1.1756
  304TMC3    C7 4583   3.969   0.047  10.319  0.1843 -0.2116 -0.3459
  304TMC3    C8 4584   3.760   0.122   9.971 -0.6339  0.2348 -0.5105
  304TMC3    O1 4585   4.056   0.037  10.401 -0.1018 -0.0942 -0.1974
  304TMC3    O2 4586   3.750   0.008  10.018 -0.1634 -0.0165  0.2188
  305MPD2     C 4587   2.570   2.519  13.885 -0.3738  0.1952 -0.4010
  305MPD2    C1 4588   2.698   2.480  13.910  0.3612 -0.1470  0.1020
  305MPD2    C2 4589   2.770   2.401  13.824  0.4580  0.0193  0.2124
  305MPD2    C3 4590   2.701   2.340  13.722  0.4157 -0.2300  0.1920
  305MPD2    C4 4591   2.566   2.366  13.707 -0.2325 -0.7456 -0.2932
  305MPD2    C5 4592   2.502   2.459  13.781  0.0556  0.4164  0.3338
  305MPD2     H 4593   2.876   2.394  13.841  0.1766 -1.5433  1.3327
  305MPD2    H1 4594   2.520   2.319  13.621  2.6756 -0.1751 -2.1409
  305MPD2    H2 4595   2.517   2.588  13.950  2.1026  3.1623 -1.5676
  305MPD2    H3 4596   2.399   2.490  13.762 -0.0619  0.3325  0.8372
  305MPD2     N 4597   2.757   2.244  13.633 -0.4516  0.3055  0.5293
  305MPD2    H5 4598   2.695   2.179  13.587 -0.7467  1.4885 -0.7565
  305MPD2    N1 4599   2.758   2.524  14.031 -0.7138  0.5327 -0.4597
  305MPD2    H7 4600   2.716   2.603  14.079 -1.2545 -0.1651  0.2096
  306TMC3    C1 4601   2.929   2.507  14.202  0.1907 -0.0082  0.4832
  306TMC3    C2 4602   2.997   2.415  14.277 -0.4131  0.0762  0.7665
  306TMC3    C3 4603   3.059   2.462  14.389 -0.4150  0.1173  0.0476
  306TMC3    C4 4604   2.891   2.632  14.249  0.4849 -0.1420 -0.7991
  306TMC3    C5 4605   2.950   2.671  14.368  0.1294  0.6798 -0.3973
  306TMC3    C6 4606   3.039   2.587  14.439 -0.4514 -1.0818 -0.0374
  306TMC3     C 4607   2.861   2.449  14.092 -0.3747 -0.1384  0.1298
  306TMC3     O 4608   2.910   2.346  14.060 -0.3594  0.0513  0.0615
  306TMC3     H 4609   3.020   2.312  14.250  1.1301  0.2708  1.3139
  306TMC3    H1 4610   2.826   2.702  14.196  1.0198  0.9899  0.0333
  306TMC3    H2 4611   3.087   2.616  14.532 -2.7572  2.2596  0.0856
  306TMC3    C7 4612   2.917   2.799  14.436  0.1289  0.1174  0.3512
  306TMC3    C8 4613   3.161   2.380  14.454 -0.3525  0.0221 -0.2557
  306TMC3    O1 4614   2.851   2.886  14.380 -0.1374 -0.1728  0.2923
  306TMC3    O2 4615   3.235   2.316  14.382 -0.2799 -0.3426  0.4890
  307MPD2     C 4616   0.650   4.352   0.481 -0.2539  0.5368 -0.0302
  307MPD2    C1 4617   0.709   4.464   0.538  0.1844  0.7740  0.4950
  307MPD2    C2 4618   0.643   4.506   0.654  0.4643 -0.4057  0.7624
  307MPD2    C3 4619   0.521   4.454   0.697 -0.5385 -0.3953  0.3294
  307MPD2    C4 4620   0.474   4.339   0.639  0.0748 -0.1724  0.4739
  307MPD2    C5 4621   0.544   4.285   0.535 -0.0064 -0.8449  1.0592
  307MPD2     H 4622   0.673   4.596   0.707  1.4139  0.1915 -0.8061
  307MPD2    H1 4623   0.388   4.290   0.684 -0.7503 -0.5986 -1.5931
  307MPD2    H2 4624   0.693   4.300   0.396  3.1415 -0.4750  2.3054
  307MPD2    H3 4625   0.503   4.201   0.480 -0.7450  0.3635 -0.2244
  307MPD2     N 4626   0.462   4.515   0.806 -0.0410  0.1509  0.1301
  307MPD2    H5 4627   0.504   4.605   0.829 -1.6310  0.8374  0.3709
  307MPD2    N1 4628   0.815   4.552   0.500 -0.9806  0.1837 -0.1018
  307MPD2    H7 4629   0.841   4.641   0.542  2.5751 -2.1244  2.5343
  308TMC3    C1 4630   0.138   0.079   0.857  0.3563 -0.2408 -0.2583
  308TMC3    C2 4631   0.222   0.170   0.906 -0.8447  0.5587  0.5270
  308TMC3    C3 4632   0.331   0.118   0.968 -0.5055  0.6026 -0.1335
  308TMC3    C4 4633   0.171   4.669   0.842 -0.6349 -0.0259  0.0127
  308TMC3    C5 4634   0.285   4.621   0.902  0.5196 -1.0194  0.4267
  308TMC3    C6 4635   0.368   4.710   0.973  0.6413  0.2411 -0.3342
  308TMC3     C 4636   4.721   0.106   0.818 -1.1357 -0.0701 -0.4059
  308TMC3     O 4637   4.655   0.026   0.758  0.0811 -0.2206 -0.0758
  308TMC3     H 4638   0.191   0.273   0.918 -2.1488  0.1632  0.5967
  308TMC3    H1 4639   0.106   4.602   0.787 -0.2960 -0.6492  0.3641
  308TMC3    H2 4640   0.456   4.672   1.023 -0.4747  2.3184  3.2123
  308TMC3    C7 4641   0.333   4.492   0.848 -0.0244  0.1179  0.2062
  308TMC3    C8 4642   0.429   0.211   1.029 -0.3835  0.1354 -0.0839
  308TMC3    O1 4643   0.251   4.408   0.813  0.1059 -0.2564  0.0239
  308TMC3    O2 4644   0.495   0.160   1.122 -0.1697  0.5685 -0.4997
  309MPD2     C 4645   0.049   0.935  17.284  0.0357  0.4917 -0.1987
  309MPD2    C1 4646   4.701   0.993  17.181 -0.0407 -0.8963 -0.0944
  309MPD2    C2 4647   4.592   1.075  17.202 -0.3785 -0.1909 -0.0746
  309MPD2    C3 4648   4.556   1.096  17.332 -0.4917 -0.4780 -0.4135
  309MPD2    C4 4649   4.631   1.048  17.436 -0.4986 -0.1498  0.4000
  309MPD2    C5 4650   0.012   0.965  17.409  0.0744  0.0072  0.2614
  309MPD2     H 4651   4.541   1.125  17.120  0.9500 -1.0293 -1.4010
  309MPD2    H1 4652   4.607   1.076  17.537  1.1597 -1.3404  1.1309
  309MPD2    H2 4653   0.134   0.870  17.267 -1.2169 -0.4360 -2.8799
  309MPD2    H3 4654   0.066   0.922  17.493  0.2337  0.1330  0.2247
  309MPD2     N 4655   4.451   1.180  17.373 -0.3045  0.1738  1.0545
  309MPD2    H5 4656   4.442   1.198  17.472 -1.3472  1.1749  0.7817
  309MPD2    N1 4657   4.716   0.950  17.048  0.1084 -0.0727 -0.2053
  309MPD2    H7 4658   4.647   0.984  16.982  2.2833  0.1062 -2.3906
  310TMC3    C1 4659   0.084   0.808  16.875 -0.0350 -0.1003 -0.5136
  310TMC3    C2 4660   0.074   0.898  16.773 -0.9946  0.0929  0.7906
  310TMC3    C3 4661   0.111   0.860  16.646  0.2566 -0.3741  0.2491
  310TMC3    C4 4662   0.129   0.677  16.857  0.4173  0.2264 -0.0177
  310TMC3    C5 4663   0.164   0.652  16.722 -0.1229  0.1232 -0.3855
  310TMC3    C6 4664   0.157   0.742  16.618 -0.3087 -0.3043 -0.0394
  310TMC3     C 4665   0.087   0.856  17.007  0.8084 -0.4540 -0.2964
  310TMC3     O 4666   0.158   0.782  17.071 -0.1887 -0.0980  0.7203
  310TMC3     H 4667   0.052   1.002  16.794 -0.0036  0.3016  0.7782
  310TMC3    H1 4668   0.099   0.607  16.934  0.0488  0.9098  0.4515
  310TMC3    H2 4669   0.215   0.727  16.528 -1.0649 -0.4744 -0.4973
  310TMC3    C7 4670   0.208   0.521  16.694 -0.0575  0.6460 -0.3810
  310TMC3    C8 4671   0.058   0.938  16.541  0.1899  0.5662 -0.9008
  310TMC3    O1 4672   0.245   0.501  16.577 -0.6075  0.2003 -0.3174
  310TMC3    O2 4673   0.100   0.909  16.430 -0.6515 -0.0201  0.2958
  311MPD2     C 4674   2.152   2.316  12.831  0.2685  0.3254  0.0098
  311MPD2    C1 4675   2.126   2.441  12.797 -0.6067  0.1207 -0.3525
  311MPD2    C2 4676   1.997   2.492  12.829 -0.1682  0.8248  0.8185
  311MPD2    C3 4677   1.901   2.412  12.881 -0.2265 -0.2391  0.8504
  311MPD2    C4 4678   1.931   2.286  12.917 -0.1243 -0.0191 -0.1246
  311MPD2    C5 4679   2.062   2.243  12.900  0.3409  0.2177  0.4688
  311MPD2     H 4680   1.974   2.595  12.804  2.6953  1.2913  0.1416
  311MPD2    H1 4681   1.857   2.215  12.955  0.2545 -0.7153 -0.6895
  311MPD2    H2 4682   2.249   2.272  12.808 -0.9350 -1.4487 -1.6968
  311MPD2    H3 4683   2.090   2.140  12.921 -4.2084 -0.8520  1.2732
  311MPD2     N 4684   1.772   2.467  12.906  0.2607  0.1414 -0.1252
  311MPD2    H5 4685   1.760   2.563  12.874 -1.2167  0.1022  0.3145
  311MPD2    N1 4686   2.214   2.519  12.720 -0.0796 -0.6710 -0.0836
  311MPD2    H7 4687   2.189   2.615  12.701  1.8028 -0.3150 -0.6976
  312TMC3    C1 4688   1.544   2.494  12.949  0.7395  0.3330  0.3952
  312TMC3    C2 4689   1.428   2.446  12.902 -0.0027 -0.0099  1.1210
  312TMC3    C3 4690   1.322   2.526  12.898 -0.4300 -0.2374 -0.7230
  312TMC3    C4 4691   1.571   2.624  12.976 -0.4680 -0.4651 -0.6892
  312TMC3    C5 4692   1.456   2.696  12.988 -0.5349  0.1793  0.2392
  312TMC3    C6 4693   1.332   2.654  12.941 -0.0735  0.5314  0.4244
  312TMC3     C 4694   1.661   2.406  12.945 -0.1596 -0.7508 -0.0088
  312TMC3     O 4695   1.642   2.290  12.965 -0.2048  0.0388 -0.6662
  312TMC3     H 4696   1.421   2.345  12.862  0.7226  0.1574  0.5737
  312TMC3    H1 4697   1.664   2.638  13.029  0.0555 -0.0234 -1.7318
  312TMC3    H2 4698   1.249   2.723  12.950 -1.7588 -1.4119 -0.3834
  312TMC3    C7 4699   1.469   2.828  13.044  0.2331 -0.0633 -0.3387
  312TMC3    C8 4700   1.202   2.473  12.830  0.1058  0.3393  0.3119
  312TMC3    O1 4701   1.403   2.919  12.994 -0.2556  0.1112  0.7150
  312TMC3    O2 4702   1.221   2.375  12.756 -0.0415  0.2178 -0.3498
  313MPD2     C 4703   1.660   0.439  10.869 -0.7083  0.1848  0.7761
  313MPD2    C1 4704   1.555   0.511  10.829  0.2586  0.1417 -0.1587
  313MPD2    C2 4705   1.464   0.446  10.750 -0.0702  0.7620  0.5336
  313MPD2    C3 4706   1.471   0.315  10.710 -0.0778 -0.3107 -0.4506
  313MPD2    C4 4707   1.586   0.249  10.751  0.4149 -0.0278  0.2674
  313MPD2    C5 4708   1.674   0.308  10.825  0.3336  0.8388  0.4925
  313MPD2     H 4709   1.372   0.495  10.721  0.0734 -0.2981 -1.7862
  313MPD2    H1 4710   1.602   0.143  10.735  1.7298 -0.0133  1.5195
  313MPD2    H2 4711   1.742   0.479  10.928  0.3499  1.3650 -1.5037
  313MPD2    H3 4712   1.761   0.263  10.871  0.2820  0.7011  0.4542
  313MPD2     N 4713   1.361   0.255  10.645 -0.2177 -0.0635 -0.0632
  313MPD2    H5 4714   1.280   0.314  10.629 -1.4005 -1.1453  1.8623
  313MPD2    N1 4715   1.521   0.640  10.868 -0.4298 -0.3310 -0.4273
  313MPD2    H7 4716   1.439   0.684  10.827  0.0414 -0.4392 -1.4927
  314TMC3    C1 4717   1.541   0.857  10.965  0.6818 -0.6429  0.0500
  314TMC3    C2 4718   1.632   0.961  10.968 -0.4503 -0.1982 -0.1500
  314TMC3    C3 4719   1.581   1.086  10.960  0.0138  0.3797  1.1488
  314TMC3    C4 4720   1.410   0.873  10.970 -0.1586 -0.0114  0.5093
  314TMC3    C5 4721   1.365   1.004  10.958  0.0524  0.4335  0.0078
  314TMC3    C6 4722   1.445   1.110  10.950 -0.3885  0.6937  0.0334
  314TMC3     C 4723   1.602   0.727  10.943 -0.2553 -0.3538 -0.2209
  314TMC3     O 4724   1.713   0.713  10.991  0.2054 -0.7563  0.2888
  314TMC3     H 4725   1.738   0.939  10.965 -0.3814  0.2157 -0.6504
  314TMC3    H1 4726   1.342   0.789  10.969 -0.2597  0.0789 -0.1820
  314TMC3    H2 4727   1.412   1.212  10.934 -0.0700  0.5452 -1.5103
  314TMC3    C7 4728   1.231   1.010  10.908 -0.9091 -0.8486  0.0379
  314TMC3    C8 4729   1.668   1.201  10.975 -0.5519  0.1977  0.3516
  314TMC3    O1 4730   1.157   0.923  10.954 -0.6771 -0.1234 -0.1149
  314TMC3    O2 4731   1.603   1.313  10.972  0.0301 -0.0644 -0.3065
  315MPD2     C 4732   1.009   1.315   0.056 -0.3976 -0.1966 -0.5446
  315MPD2    C1 4733   1.133   1.270   0.112 -0.3853 -0.3197  0.1263
  315MPD2    C2 4734   1.240   1.262   0.029  0.0811  0.4071 -0.7697
  315MPD2    C3 4735   1.223   1.267  17.582  0.0083  0.3677 -0.0088
  315MPD2    C4 4736   1.107   1.326  17.527  0.9305  0.2011 -0.3202
  315MPD2    C5 4737   1.004   1.348  17.614  0.2829 -0.6740 -0.1477
  315MPD2     H 4738   1.338   1.234   0.067 -0.3370  3.7222  2.7423
  315MPD2    H1 4739   1.102   1.348  17.421 -1.1785 -0.1625 -0.3023
  315MPD2    H2 4740   0.925   1.328   0.123 -1.1789  0.3789 -1.6539
  315MPD2    H3 4741   0.917   1.390  17.565 -0.0947 -0.6775  0.5166
  315MPD2     N 4742   1.341   1.234  17.502 -0.5221  0.2679 -0.4170
  315MPD2    H5 4743   1.418   1.197  17.557 -1.9866 -0.6063  1.0438
  315MPD2    N1 4744   1.158   1.241   0.242  0.1289  0.3758 -0.0418
  315MPD2    H7 4745   1.249   1.200   0.264 -0.4565 -0.2785  1.1717
  316TMC3    C1 4746   1.483   1.166  17.335 -0.1263 -0.1601  0.4347
  316TMC3    C2 4747   1.592   1.190  17.407 -0.2198  0.2333 -0.1471
  316TMC3    C3 4748   1.684   1.096  17.394  0.0914 -0.1427  0.1578
  316TMC3    C4 4749   1.475   1.067  17.238  0.3176 -0.1752  0.3515
  316TMC3    C5 4750   1.568   0.973  17.222 -0.4902  0.6430  0.8106
  316TMC3    C6 4751   1.681   0.992  17.298 -0.1577 -0.5926 -0.0214
  316TMC3     C 4752   1.358   1.236  17.366 -0.2195  0.3404  0.7334
  316TMC3     O 4753   1.281   1.256  17.276 -0.1227 -0.4641  0.4053
  316TMC3     H 4754   1.606   1.267  17.482  2.4931 -0.1087 -0.2881
  316TMC3    H1 4755   1.387   1.073  17.175  0.1091  0.2736  0.6814
  316TMC3    H2 4756   1.761   0.920  17.287  1.6642  1.5587 -0.9253
  316TMC3    C7 4757   1.582   0.884  17.110  0.2234  0.6584  0.2602
  316TMC3    C8 4758   1.784   1.093  17.499 -0.2091  0.3525 -0.0437
  316TMC3    O1 4759   1.681   0.808  17.096  0.1848 -0.2950 -0.6157
  316TMC3    O2 4760   1.784   0.991  17.571  0.9338  1.1138  0.1385
  317MPD2     C 4761   3.428   4.332  12.915  1.2432 -0.1116 -0.0420
  317MPD2    C1 4762   3.382   4.214  12.872 -0.0168 -0.1892 -0.0032
  317MPD2    C2 4763   3.378   4.111  12.962 -0.3172  0.3338 -0.5386
  317MPD2    C3 4764   3.415   4.124  13.097 -0.0827 -1.1187  0.4316
  317MPD2    C4 4765   3.451   4.248  13.134 -0.3222  0.5318  0.4808
  317MPD2    C5 4766   3.466   4.351  13.043  0.2314 -0.4073 -0.0120
  317MPD2     H 4767   3.336   4.018  12.924  0.3654 -0.4377  0.5904
  317MPD2    H1 4768   3.479   4.274  13.235 -0.9666  2.7712  0.0806
  317MPD2    H2 4769   3.427   4.422  12.854 -0.3421  1.3487  2.1272
  317MPD2    H3 4770   3.494   4.453  13.067 -0.5078 -0.6892  2.0863
  317MPD2     N 4771   3.408   4.015  13.188 -0.0576  0.1634  0.2068
  317MPD2    H5 4772   3.366   3.930  13.151  0.4847 -0.4734  1.0481
  317MPD2    N1 4773   3.348   4.181  12.742 -0.2219  0.1495 -0.0174
  317MPD2    H7 4774   3.311   4.087  12.734  1.0253 -0.2081 -1.7275
  318TMC3    C1 4775   3.441   3.880  13.386 -0.5448 -0.7986  0.1506
  318TMC3    C2 4776   3.345   3.787  13.349 -1.0952 -0.4064  0.1933
  318TMC3    C3 4777   3.358   3.661  13.401  0.4384  0.3289  0.4588
  318TMC3    C4 4778   3.538   3.857  13.468 -0.1417  0.2189 -0.3898
  318TMC3    C5 4779   3.548   3.725  13.515  0.0575 -0.2006  0.9794
  318TMC3    C6 4780   3.467   3.624  13.470 -0.4522  0.3847 -0.2355
  318TMC3     C 4781   3.451   4.010  13.322  0.2141 -0.3869 -0.8230
  318TMC3     O 4782   3.530   4.085  13.372  0.5090 -0.3592 -0.1733
  318TMC3     H 4783   3.269   3.828  13.283  0.6695 -0.2071 -1.6981
  318TMC3    H1 4784   3.605   3.936  13.501 -0.1335 -0.0374  0.2184
  318TMC3    H2 4785   3.481   3.527  13.516 -0.6198 -0.1098 -1.2322
  318TMC3    C7 4786   3.650   3.708  13.614 -0.2706 -0.2147 -0.2437
  318TMC3    C8 4787   3.271   3.548  13.364  0.2983 -0.2150  0.3355
  318TMC3    O1 4788   3.674   3.805  13.681 -0.0456  0.5548  0.3454
  318TMC3    O2 4789   3.310   3.434  13.391 -0.6588  0.0233 -0.1207
  319MPD2     C 4790   3.318   1.046  16.495 -0.3682  0.0605 -0.0739
  319MPD2    C1 4791   3.234   0.959  16.570  0.2682  0.1716 -0.2693
  319MPD2    C2 4792   3.160   0.863  16.506  0.1699  0.3842  0.1017
  319MPD2    C3 4793   3.160   0.855  16.368 -0.4129  0.3217  0.7029
  319MPD2    C4 4794   3.232   0.952  16.296  0.0465 -0.0124  0.3182
  319MPD2    C5 4795   3.307   1.040  16.366  0.3429 -0.0048 -0.4379
  319MPD2     H 4796   3.108   0.789  16.566  0.1181  1.4270  1.3579
  319MPD2    H1 4797   3.231   0.957  16.188 -1.2044 -1.8930  0.2349
  319MPD2    H2 4798   3.393   1.110  16.540 -1.4684  0.9383  0.5099
  319MPD2    H3 4799   3.355   1.113  16.302  2.0427  0.1372  1.0073
  319MPD2     N 4800   3.103   0.753  16.290  0.1321 -0.1372 -0.6363
  319MPD2    H5 4801   3.099   0.765  16.189  0.8658  1.9807 -0.4134
  319MPD2    N1 4802   3.243   0.952  16.718 -0.1975  0.5165 -0.3022
  319MPD2    H7 4803   3.178   0.884  16.757 -0.2347  0.8987  0.2941
  320TMC3    C1 4804   3.022   0.538  16.242  0.1956  0.4469 -0.1615
  320TMC3    C2 4805   2.991   0.600  16.122  0.1429 -0.1243 -0.7195
  320TMC3    C3 4806   3.033   0.548  16.002 -0.2421 -0.0008  0.0604
  320TMC3    C4 4807   3.098   0.429  16.254  0.5841  0.3272  0.6625
  320TMC3    C5 4808   3.142   0.378  16.134 -0.8387 -0.0401 -0.8839
  320TMC3    C6 4809   3.102   0.428  16.011 -1.0754  0.5486  0.0577
  320TMC3     C 4810   3.049   0.640  16.342 -0.0545  0.2414  0.0759
  320TMC3     O 4811   3.056   0.597  16.460 -0.6513  0.1574  0.3438
  320TMC3     H 4812   2.942   0.697  16.122  0.4138  0.0108 -1.5071
  320TMC3    H1 4813   3.131   0.397  16.352 -0.2523  1.4713  1.3201
  320TMC3    H2 4814   3.134   0.386  15.916 -0.6757  0.8883  0.0424
  320TMC3    C7 4815   3.254   0.290  16.122 -0.1677 -0.5062 -0.0173
  320TMC3    C8 4816   3.075   0.641  15.903  0.6531 -0.0703  0.2844
  320TMC3    O1 4817   3.270   0.243  16.011 -0.0852  0.0158 -0.3966
  320TMC3    O2 4818   3.103   0.756  15.941  0.0838 -0.1822  0.4643
  321TMC3    C1 4819   3.307   0.998  16.941  0.0272  0.2087  0.3022
  321TMC3    C2 4820   3.263   0.875  16.985 -0.2594  0.6333  1.0551
  321TMC3    C3 4821   3.250   0.868  17.122 -0.8569 -0.7581 -0.4704
  321TMC3    C4 4822   3.304   1.109  17.020  0.4536  0.2926  0.1966
  321TMC3    C5 4823   3.275   1.105  17.150  0.6200 -0.3487 -0.3797
  321TMC3    C6 4824   3.238   0.983  17.200  0.1850  0.3784 -0.3664
  321TMC3     C 4825   3.322   1.024  16.800  0.1664  0.6818  0.0924
  321TMC3     O 4826   3.389   1.121  16.766 -0.2687  0.4475 -0.2451
  321TMC3     H 4827   3.286   0.789  16.924 -2.4401  0.0188  1.0843
  321TMC3    H1 4828   3.326   1.204  16.973 -2.1837  0.0142 -1.5902
  321TMC3    H2 4829   3.203   0.973  17.302 -1.5438 -2.8808 -1.2871
  321TMC3    C7 4830   3.368   1.179  17.235 -0.4971  0.0379  0.1654
  321TMC3    C8 4831   3.315   0.761  17.197 -0.5922 -0.1620  0.1147
  321TMC3    O1 4832   3.396   1.295  17.216  1.1254 -0.6931 -0.7051
  321TMC3    O2 4833   3.348   0.797  17.309 -0.8820 -0.5207  0.1577
  322MPD2     C 4834   3.275   2.005  13.609 -0.2837 -0.7965 -0.7070
  322MPD2    C1 4835   3.204   1.909  13.681  0.0351 -0.0667  0.3800
  322MPD2    C2 4836   3.158   1.799  13.614 -0.6781  1.1253  0.1553
  322MPD2    C3 4837   3.181   1.782  13.483  1.0429  0.3617  0.7470
  322MPD2    C4 4838   3.263   1.867  13.411  0.0035  0.1380  0.4548
  322MPD2    C5 4839   3.308   1.976  13.477 -0.4801 -1.5032  0.1087
  322MPD2     H 4840   3.106   1.725  13.673 -0.2100 -0.8359 -1.9049
  322MPD2    H1 4841   3.281   1.859  13.304 -2.3228  0.0249  0.0743
  322MPD2    H2 4842   3.317   2.091  13.660 -0.9965 -2.0412  1.9930
  322MPD2    H3 4843   3.370   2.048  13.425 -1.9945  0.3654  0.8675
  322MPD2     N 4844   3.114   1.665  13.434 -0.3429 -0.6044 -0.3185
  322MPD2    H5 4845   3.058   1.614  13.502 -1.7314  1.1353 -0.1541
  322MPD2    N1 4846   3.177   1.937  13.814 -0.2553 -0.3327 -0.2813
  322MPD2    H7 4847   3.210   2.028  13.843  1.2173 -1.0167  0.1813
  323TMC3    C1 4848   3.078   1.937  14.023 -0.3890  0.3486 -0.5895
  323TMC3    C2 4849   3.125   2.066  14.021 -0.1995  0.4746 -0.0158
  323TMC3    C3 4850   3.203   2.109  14.119 -0.4828 -0.2029  0.2147
  323TMC3    C4 4851   3.106   1.859  14.128  0.5692  0.1202 -0.9111
  323TMC3    C5 4852   3.200   1.899  14.223 -0.5841 -0.1621 -0.0671
  323TMC3    C6 4853   3.256   2.026  14.225 -0.1724 -0.6993  0.4744
  323TMC3     C 4854   3.087   1.868  13.896 -0.1546 -0.0946  0.2022
  323TMC3     O 4855   3.036   1.758  13.894  0.8934  0.1503  0.6831
  323TMC3     H 4856   3.095   2.141  13.948 -0.4049  0.1628 -0.2533
  323TMC3    H1 4857   3.067   1.759  14.138 -0.8703  0.8909  1.2252
  323TMC3    H2 4858   3.347   2.050  14.279 -1.8825  3.6271  1.4166
  323TMC3    C7 4859   3.223   1.800  14.325 -0.3923  0.2362  0.1648
  323TMC3    C8 4860   3.307   2.184  14.057 -0.1537 -0.1634 -0.2015
  323TMC3    O1 4861   3.196   1.688  14.294 -0.0022 -0.1902 -0.0012
  323TMC3    O2 4862   3.322   2.153  13.939  0.0590  0.3853 -0.4447
  324MPD2     C 4863   4.467   2.761  13.943 -0.4239  0.3632  0.4168
  324MPD2    C1 4864   4.428   2.882  14.001 -0.8764 -0.6973 -0.7651
  324MPD2    C2 4865   4.296   2.928  13.974  0.3191 -1.0020 -0.3226
  324MPD2    C3 4866   4.209   2.843  13.907 -0.2793  0.5139  0.3127
  324MPD2    C4 4867   4.252   2.732  13.840 -0.0964 -0.4301  0.5954
  324MPD2    C5 4868   4.375   2.687  13.871 -0.0760 -1.3719 -0.1646
  324MPD2     H 4869   4.261   3.023  14.012  2.7204 -0.4026  0.3668
  324MPD2    H1 4870   4.191   2.678  13.769 -0.0577  1.1580 -0.6356
  324MPD2    H2 4871   4.559   2.704  13.951 -0.7765 -0.2037  0.4282
  324MPD2    H3 4872   4.416   2.595  13.833  0.9474  0.4768 -3.5679
  324MPD2     N 4873   4.074   2.876  13.872 -0.3651 -0.2004  0.2327
  324MPD2    H5 4874   4.026   2.794  13.837  0.0598 -0.2916 -0.1380
  324MPD2    N1 4875   4.507   2.944  14.097  0.9532 -0.3259  0.0348
  324MPD2    H7 4876   4.467   3.029  14.136  0.3565 -0.4285 -0.3465
  325TMC3    C1 4877   3.868   2.968  13.840 -0.7402 -0.4632  0.3848
  325TMC3    C2 4878   3.828   2.838  13.816 -0.3522  0.1998 -0.2893
  325TMC3    C3 4879   3.705   2.821  13.766  0.1108  0.0834 -0.4500
  325TMC3    C4 4880   3.797   3.079  13.795 -0.6406  0.5625  0.3009
  325TMC3    C5 4881   3.676   3.047  13.743 -0.2193  0.1601  0.1654
  325TMC3    C6 4882   3.631   2.926  13.722 -0.5166  0.0891 -0.3039
  325TMC3     C 4883   4.001   2.990  13.897  0.2174 -0.2235 -0.0040
  325TMC3     O 4884   4.024   3.104  13.935  0.0158  0.3693 -0.5188
  325TMC3     H 4885   3.878   2.750  13.855  0.2673  1.1238  0.9789
  325TMC3    H1 4886   3.830   3.179  13.822  1.0017  0.4874 -1.4367
  325TMC3    H2 4887   3.541   2.910  13.665 -2.9281  2.7458  2.8071
  325TMC3    C7 4888   3.577   3.155  13.712  0.7564 -0.9705 -0.3097
  325TMC3    C8 4889   3.694   2.701  13.683  0.4295  0.6110  0.5224
  325TMC3    O1 4890   3.481   3.135  13.641 -0.5218  0.0058 -0.2879
  325TMC3    O2 4891   3.799   2.644  13.657 -0.0641  0.4956  0.5641
  326MPD2     C 4892   0.572   3.637  11.340  1.4720  0.2739  0.0300
  326MPD2    C1 4893   0.608   3.612  11.207  0.0553  0.0316 -0.4430
  326MPD2    C2 4894   0.683   3.706  11.135  0.1723  0.9471  0.0815
  326MPD2    C3 4895   0.718   3.827  11.192 -0.5679  0.1490 -0.2768
  326MPD2    C4 4896   0.683   3.855  11.324  0.1636 -0.1448  0.1477
  326MPD2    C5 4897   0.609   3.758  11.395  0.2060  0.5675  0.4427
  326MPD2     H 4898   0.704   3.684  11.031 -1.3389 -1.3220  0.2720
  326MPD2    H1 4899   0.720   3.943  11.375 -0.9935  0.8145 -0.6741
  326MPD2    H2 4900   0.515   3.570  11.403 -0.6296  0.8355 -1.2872
  326MPD2    H3 4901   0.587   3.779  11.499 -0.5413 -0.1351  0.4265
  326MPD2     N 4902   0.802   3.926  11.120 -0.0777 -0.1232  0.2926
  326MPD2    H5 4903   0.809   4.019  11.160 -0.1843 -0.7628  1.8199
  326MPD2    N1 4904   0.611   3.482  11.150  0.2472 -0.4937  0.1150
  326MPD2    H7 4905   0.668   3.463  11.069  1.5440 -1.3898  1.2393
  327TMC3    C1 4906   0.568   3.264  11.089 -0.1013 -0.2287 -0.4495
  327TMC3    C2 4907   0.475   3.171  11.063 -0.3603 -0.2055 -0.3032
  327TMC3    C3 4908   0.503   3.076  10.968  0.1781  0.0703  0.0330
  327TMC3    C4 4909   0.694   3.249  11.035 -0.1642 -0.1629  0.2649
  327TMC3    C5 4910   0.724   3.150  10.953 -0.0056  0.2022  0.3958
  327TMC3    C6 4911   0.628   3.063  10.911  0.4554  0.4582  0.3750
  327TMC3     C 4912   0.531   3.378  11.176 -0.5147  0.0072  0.2404
  327TMC3     O 4913   0.427   3.377  11.241 -0.3560  0.4722 -0.0827
  327TMC3     H 4914   0.377   3.190  11.105  0.6259  0.6879  1.6304
  327TMC3    H1 4915   0.768   3.327  11.050  1.5023 -1.7578  0.3163
  327TMC3    H2 4916   0.644   2.997  10.826 -0.5775 -0.6845  1.0647
  327TMC3    C7 4917   0.853   3.159  10.884  0.3997 -0.0481 -0.5015
  327TMC3    C8 4918   0.398   3.066  10.867 -0.6292 -0.3231 -0.7229
  327TMC3    O1 4919   0.871   3.114  10.774 -0.0706 -0.0322  0.1326
  327TMC3    O2 4920   0.419   3.070  10.747 -0.7681  0.0957  0.0681
  328MPD2     C 4921   3.797   3.480  17.078 -0.8559  0.1586  0.7059
  328MPD2    C1 4922   3.674   3.439  17.059 -0.7672 -0.1750 -0.5469
  328MPD2    C2 4923   3.571   3.542  17.054 -0.6506 -0.4013 -1.0656
  328MPD2    C3 4924   3.601   3.674  17.059 -0.3374  0.0315  0.0606
  328MPD2    C4 4925   3.732   3.708  17.088  0.5423 -0.2114  0.8071
  328MPD2    C5 4926   3.830   3.613  17.093 -0.7155  0.5317 -0.6884
  328MPD2     H 4927   3.466   3.516  17.061 -0.1120 -2.3736 -0.2950
  328MPD2    H1 4928   3.762   3.811  17.096 -0.8356  0.1206  1.7018
  328MPD2    H2 4929   3.877   3.408  17.090 -1.5248 -0.4255  1.7540
  328MPD2    H3 4930   3.935   3.641  17.095 -0.4099 -0.6408 -0.3957
  328MPD2     N 4931   3.504   3.774  17.057 -0.9097  0.7488  0.1623
  328MPD2    H5 4932   3.527   3.870  17.082 -0.5183  0.7076 -0.0523
  328MPD2    N1 4933   3.648   3.303  17.039  0.4215  0.4963 -0.0937
  328MPD2    H7 4934   3.725   3.238  17.042  0.2414  0.2559 -0.6904
  329TMC3    C1 4935   3.513   3.105  17.031  0.4808 -0.4147  0.3994
  329TMC3    C2 4936   3.384   3.067  17.066  1.5173  0.5300  0.1961
  329TMC3    C3 4937   3.374   2.947  17.130  0.2040 -0.0464 -0.4708
  329TMC3    C4 4938   3.624   3.028  17.068 -0.7926 -0.4736 -0.4628
  329TMC3    C5 4939   3.606   2.917  17.146  0.9478 -0.2538 -0.7374
  329TMC3    C6 4940   3.483   2.870  17.171  0.3042  0.7888  0.4209
  329TMC3     C 4941   3.527   3.246  17.013  0.4977 -0.0374  0.6408
  329TMC3     O 4942   3.420   3.300  16.995  0.1907  0.0943  0.5512
  329TMC3     H 4943   3.297   3.129  17.047 -0.1414 -1.7653  0.3725
  329TMC3    H1 4944   3.726   3.063  17.063 -0.5224 -0.9778  1.6794
  329TMC3    H2 4945   3.456   2.781  17.226  0.7680  0.7016  0.5037
  329TMC3    C7 4946   3.697   2.916  17.259  0.2061  0.3357 -0.0281
  329TMC3    C8 4947   3.254   2.922  17.197 -0.2711  0.3025 -0.0782
  329TMC3    O1 4948   3.773   3.012  17.267 -0.3111 -0.0182 -0.4596
  329TMC3    O2 4949   3.242   2.801  17.213 -0.1798 -0.9262  0.3451
  330TMC3    C1 4950   1.491   2.553   9.907  0.9234  0.9276 -0.0699
  330TMC3    C2 4951   1.447   2.449   9.822  0.1786  0.6565  0.2501
  330TMC3    C3 4952   1.425   2.332   9.870  0.0512 -0.6635 -0.2467
  330TMC3    C4 4953   1.529   2.522  10.040  0.3546  0.0333  0.4694
  330TMC3    C5 4954   1.513   2.393  10.080  0.4662  0.2120 -0.1437
  330TMC3    C6 4955   1.457   2.295   9.998 -0.4883 -0.0304 -0.4163
  330TMC3     C 4956   1.541   2.680   9.852 -0.5862  0.2118  0.3749
  330TMC3     O 4957   1.609   2.761   9.915 -0.0098 -0.6796  0.1281
  330TMC3     H 4958   1.425   2.463   9.716 -1.4225 -3.3201  0.0673
  330TMC3    H1 4959   1.601   2.587  10.087  0.4753  0.8476 -0.8168
  330TMC3    H2 4960   1.440   2.194  10.034  0.2080 -0.6605 -1.8819
  330TMC3    C7 4961   1.563   2.367  10.218 -0.4401 -0.7674 -0.3684
  330TMC3    C8 4962   1.339   2.250   9.790  0.4398  0.1203  0.4885
  330TMC3    O1 4963   1.601   2.460  10.293 -0.1114  0.5058 -0.4517
  330TMC3    O2 4964   1.306   2.294   9.681  1.1520  0.0853  0.1510
  331MPD2     C 4965   3.834   1.763  12.206 -0.9151 -0.0528 -0.3479
  331MPD2    C1 4966   3.893   1.863  12.138  0.0638  0.0539  0.1489
  331MPD2    C2 4967   3.992   1.823  12.052 -0.4345  0.8639  0.3493
  331MPD2    C3 4968   4.031   1.697  12.037  0.1478 -0.4867 -0.1419
  331MPD2    C4 4969   3.974   1.603  12.110 -0.3528 -0.6058 -0.1466
  331MPD2    C5 4970   3.883   1.639  12.196  0.1135  0.1207  0.1692
  331MPD2     H 4971   4.056   1.892  11.998 -2.1346  1.3548 -1.0060
  331MPD2    H1 4972   4.002   1.499  12.095  0.3614  0.1511 -4.0192
  331MPD2    H2 4973   3.758   1.790  12.279  0.6953  0.7915  1.0200
  331MPD2    H3 4974   3.831   1.559  12.247  1.1470  0.0669  1.1343
  331MPD2     N 4975   4.154   1.677  11.970  0.5718  0.9720 -0.6801
  331MPD2    H5 4976   4.197   1.762  11.935  2.1348  1.3684  2.1984
  331MPD2    N1 4977   3.863   1.996  12.176 -0.7056  0.3773  0.5500
  331MPD2    H7 4978   3.805   2.018  12.256 -1.7274  2.9133 -0.8699
  332TMC3    C1 4979   4.359   1.570  11.903  0.4475 -0.0312  0.6917
  332TMC3    C2 4980   4.389   1.690  11.847 -0.6045 -0.3434  0.4559
  332TMC3    C3 4981   4.520   1.732  11.835  0.1739 -0.8715  0.0260
  332TMC3    C4 4982   4.451   1.499  11.966 -0.0480  0.7895  0.3884
  332TMC3    C5 4983   4.570   1.556  11.979 -0.3798 -0.1929 -1.1310
  332TMC3    C6 4984   4.613   1.666  11.907 -0.9293  0.4314  0.2846
  332TMC3     C 4985   4.220   1.553  11.949  0.7995  0.0585  0.3582
  332TMC3     O 4986   4.201   1.445  12.000  0.3766  0.4962  0.1619
  332TMC3     H 4987   4.305   1.737  11.797  0.2372  2.7801  1.9321
  332TMC3    H1 4988   4.420   1.407  12.014  2.0565 -0.6032 -0.9320
  332TMC3    H2 4989   4.718   1.693  11.902 -0.8789 -0.0629 -1.2745
  332TMC3    C7 4990   4.681   1.473  12.045  0.3195 -0.3150 -0.1883
  332TMC3    C8 4991   4.548   1.869  11.823  0.1480 -0.8685  0.2233
  332TMC3    O1 4992   4.666   1.352  12.045 -0.2241 -0.0253  0.6649
  332TMC3    O2 4993   4.648   1.909  11.881  0.7250 -0.0914  0.2470
  333MPD2     C 4994   4.620   2.018  11.167  0.3265 -0.1918 -0.7251
  333MPD2    C1 4995   4.551   1.953  11.069  0.6414 -0.3983 -0.3719
  333MPD2    C2 4996   4.464   1.859  11.116  0.8635  0.2139 -0.0641
  333MPD2    C3 4997   4.430   1.835  11.254  0.4558 -0.2972 -0.1922
  333MPD2    C4 4998   4.496   1.915  11.346  0.0696 -0.2395 -0.3182
  333MPD2    C5 4999   4.589   2.002  11.298  0.2967 -0.1244  1.0738
  333MPD2     H 5000   4.408   1.797  11.046 -0.0253  1.5116 -0.5046
  333MPD2    H1 5001   4.472   1.915  11.452  1.9938 -0.5598  0.1262
  333MPD2    H2 5002   4.686   2.101  11.146 -0.2220  0.7863  1.4090
  333MPD2    H3 5003   4.631   2.077  11.364  0.9600  2.7000 -2.5466
  333MPD2     N 5004   4.346   1.725  11.288 -0.1946  0.1255  0.3169
  333MPD2    H5 5005   4.303   1.671  11.213 -0.0444 -1.6450  1.5113
  333MPD2    N1 5006   4.580   1.985  10.935  0.1339 -0.3134  0.0243
  333MPD2    H7 5007   4.659   2.048  10.920 -0.9110  0.5561 -1.8700
  334TMC3    C1 5008   4.581   1.953  10.703 -0.4780 -0.7221  0.0596
  334TMC3    C2 5009   4.718   1.942  10.709 -0.2942  0.6816 -0.4442
  334TMC3    C3 5010   0.049   1.887  10.595  0.1935  0.5571  0.2459
  334TMC3    C4 5011   4.505   1.928  10.599  0.4130  0.6099  0.0221
  334TMC3    C5 5012   4.564   1.892  10.482 -0.5911 -0.2751 -0.5558
  334TMC3    C6 5013   4.698   1.853  10.481  0.2701  0.8422 -0.2892
  334TMC3     C 5014   4.515   1.931  10.824  1.0386 -0.6467  0.5746
  334TMC3     O 5015   4.414   1.858  10.822 -0.3475  0.1410 -0.5584
  334TMC3     H 5016   0.037   1.954  10.808  0.2725 -1.4003 -0.4154
  334TMC3    H1 5017   4.396   1.929  10.606  0.2812  0.3132 -1.9547
  334TMC3    H2 5018   0.020   1.843  10.383  1.4826  3.0859  0.0429
  334TMC3    C7 5019   4.533   1.990  10.378 -0.6508 -0.2871  0.2037
  334TMC3    C8 5020   0.191   1.868  10.610 -0.0969 -0.4589  0.2147
  334TMC3    O1 5021   4.456   2.082  10.407  0.2361  0.2668 -0.4198
  334TMC3    O2 5022   0.243   1.946  10.690 -0.4503  0.0630  0.2075
  335TMC3    C1 5023   4.580   4.131  17.250  0.5744  0.8058  0.1124
  335TMC3    C2 5024   4.504   4.037  17.175  1.0572 -0.3849  0.2551
  335TMC3    C3 5025   4.562   3.959  17.082  0.1671  0.1881 -0.0599
  335TMC3    C4 5026   4.716   4.143  17.231  0.1632  0.1035 -0.0815
  335TMC3    C5 5027   0.050   4.063  17.134 -0.5925  0.1127  0.2443
  335TMC3    C6 5028   4.696   3.968  17.066 -0.6197 -0.9731  0.1532
  335TMC3     C 5029   4.510   4.224  17.328  0.0043 -0.5900 -0.2798
  335TMC3     O 5030   4.575   4.316  17.375  0.3350  0.2544  0.2688
  335TMC3     H 5031   4.396   4.043  17.171  1.0165 -1.4127 -0.2138
  335TMC3    H1 5032   0.048   4.217  17.288 -1.7440  1.3185  0.1588
  335TMC3    H2 5033   0.026   3.913  16.989  1.6175  1.5674 -0.1505
  335TMC3    C7 5034   0.187   4.079  17.082 -0.0337  0.0553 -0.2521
  335TMC3    C8 5035   4.480   3.880  16.996 -0.1318  0.4177 -0.1868
  335TMC3    O1 5036   0.238   3.979  17.033 -0.1345  0.3427  0.3704
  335TMC3    O2 5037   4.512   3.866  16.875  0.3900  0.1755  0.3107
  336MPD2     C 5038   3.995   1.724  15.675  0.9299 -0.0770 -0.3564
  336MPD2    C1 5039   3.880   1.684  15.741 -0.2623  0.3007 -0.0429
  336MPD2    C2 5040   3.884   1.593  15.841  0.1614 -0.3463  0.5716
  336MPD2    C3 5041   4.003   1.538  15.872  0.3040  0.2211 -0.2759
  336MPD2    C4 5042   4.116   1.566  15.797  0.0512  0.6580  0.5974
  336MPD2    C5 5043   4.114   1.671  15.709 -1.0285  0.5321 -0.1784
  336MPD2     H 5044   3.791   1.570  15.893 -0.8415  0.2318 -0.9873
  336MPD2    H1 5045   4.212   1.515  15.804  0.7851  2.0919  0.9441
  336MPD2    H2 5046   3.998   1.802  15.600  0.3130  2.5197  2.3623
  336MPD2    H3 5047   4.203   1.695  15.653 -0.5513  0.9328  0.7499
  336MPD2     N 5048   4.022   1.440  15.963  0.0621  0.3411  0.3714
  336MPD2    H5 5049   4.110   1.393  15.945 -0.3857 -0.3277 -0.0904
  336MPD2    N1 5050   3.754   1.732  15.706  0.1959  0.2076 -0.4580
  336MPD2    H7 5051   3.682   1.724  15.777 -0.5837  3.4145 -0.8731
  337TMC3    C1 5052   3.613   1.885  15.583 -0.7445 -0.0761  0.2734
  337TMC3    C2 5053   3.575   1.940  15.459 -0.1531 -0.5006  0.5547
  337TMC3    C3 5054   3.476   2.036  15.468  0.3030  0.2077 -0.0227
  337TMC3    C4 5055   3.555   1.927  15.696 -0.1117 -0.2721 -0.3941
  337TMC3    C5 5056   3.446   2.015  15.696  0.0081 -0.0074  0.2842
  337TMC3    C6 5057   3.411   2.074  15.581  0.1264 -0.0536 -0.5981
  337TMC3     C 5058   3.730   1.795  15.584 -0.1356 -0.1018 -0.2318
  337TMC3     O 5059   3.789   1.783  15.478 -0.1693  0.0199 -0.7441
  337TMC3     H 5060   3.607   1.913  15.359 -2.1189 -1.8832  0.2938
  337TMC3    H1 5061   3.601   1.900  15.790 -0.7499  0.7174  0.2106
  337TMC3    H2 5062   3.338   2.154  15.580  1.1029  0.8551  0.9206
  337TMC3    C7 5063   3.385   2.061  15.819 -0.9570 -0.2072  0.5279
  337TMC3    C8 5064   3.408   2.081  15.347 -0.3744  0.1189 -0.3622
  337TMC3    O1 5065   3.325   2.167  15.809  0.3842 -0.5736  0.0656
  337TMC3    O2 5066   3.346   2.191  15.356  0.4214  0.2662  0.0863
  338MPD2     C 5067   4.247   1.265   1.168  0.6724 -0.2999 -0.6917
  338MPD2    C1 5068   4.196   1.276   1.043  0.0291  0.6946 -0.5441
  338MPD2    C2 5069   4.073   1.343   1.027  0.6264 -0.2094 -0.4502
  338MPD2    C3 5070   4.014   1.409   1.130 -0.0459 -0.3561 -0.5275
  338MPD2    C4 5071   4.078   1.410   1.258  0.3936 -0.1368  0.6382
  338MPD2    C5 5072   4.193   1.332   1.280  0.3313 -0.6409 -0.6260
  338MPD2     H 5073   4.036   1.342   0.926  0.5283  0.0160 -0.4165
  338MPD2    H1 5074   4.035   1.455   1.347 -2.0358 -0.9744 -0.1031
  338MPD2    H2 5075   4.339   1.213   1.192  0.7476 -0.6884 -1.8111
  338MPD2    H3 5076   4.235   1.327   1.380 -0.2056  1.4733 -0.3104
  338MPD2     N 5077   3.895   1.473   1.105  0.4834  0.2681 -0.1756
  338MPD2    H5 5078   3.848   1.469   1.015  1.8660 -3.2103 -0.7163
  338MPD2    N1 5079   4.259   1.216   0.931  0.2986 -0.0238 -0.0637
  338MPD2    H7 5080   4.215   1.230   0.841  1.0846 -0.8701 -0.5882
  339TMC3    C1 5081   3.702   1.608   1.134 -0.3556 -0.6805 -0.4711
  339TMC3    C2 5082   3.610   1.664   1.218 -0.1074 -0.3060  0.0188
  339TMC3    C3 5083   3.483   1.697   1.169  0.3758 -0.3731  0.2966
  339TMC3    C4 5084   3.676   1.617   0.996  0.6073 -0.1196  0.2838
  339TMC3    C5 5085   3.561   1.676   0.957 -0.0987  0.0445  0.0729
  339TMC3    C6 5086   3.458   1.708   1.035  0.0206 -0.2575  0.1025
  339TMC3     C 5087   3.826   1.558   1.187  0.6018  0.2756  0.7294
  339TMC3     O 5088   3.854   1.603   1.300 -0.7185  0.2375  0.2418
  339TMC3     H 5089   3.630   1.662   1.325 -1.1064  1.5770  0.2450
  339TMC3    H1 5090   3.750   1.586   0.924  0.3748  0.7435 -0.3204
  339TMC3    H2 5091   3.356   1.721   1.000  0.0519 -1.4135 -0.4134
  339TMC3    C7 5092   3.540   1.718   0.814 -0.2523  0.3725  0.1723
  339TMC3    C8 5093   3.373   1.709   1.262 -0.1631  0.2185  0.3228
  339TMC3    O1 5094   3.422   1.726   0.781  0.0679 -0.3792  0.4841
  339TMC3    O2 5095   3.297   1.800   1.247 -0.1212  0.2349  0.0850
  340MPD2     C 5096   4.656   3.450  10.231  0.4143 -0.1464 -0.2570
  340MPD2    C1 5097   4.601   3.327  10.207  0.3549  0.4004  0.3648
  340MPD2    C2 5098   4.679   3.220  10.170  0.2591 -0.7117 -0.4647
  340MPD2    C3 5099   0.088   3.244  10.119  0.0599 -0.3759 -0.7571
  340MPD2    C4 5100   0.140   3.375  10.139 -0.3371 -0.2548 -0.0625
  340MPD2    C5 5101   0.062   3.468  10.196 -0.5400  0.3234 -0.1267
  340MPD2     H 5102   4.635   3.121  10.167 -2.5799  0.5214  0.6382
  340MPD2    H1 5103   0.240   3.402  10.104 -0.2541 -0.6071 -0.0948
  340MPD2    H2 5104   4.590   3.532  10.259 -0.6556 -1.2586  0.5059
  340MPD2    H3 5105   0.085   3.573  10.210  2.1990 -0.3007  0.0007
  340MPD2     N 5106   0.174   3.145  10.069  0.6490  0.0538  0.5849
  340MPD2    H5 5107   0.267   3.172  10.038  0.5310  2.2351  2.1438
  340MPD2    N1 5108   4.466   3.321  10.248 -0.0672 -0.1150  0.3657
  340MPD2    H7 5109   4.439   3.398  10.308 -1.4000  0.9906 -1.6324
  341TMC3    C1 5110   4.397   3.139  10.110  0.0114  0.0738 -0.8214
  341TMC3    C2 5111   4.360   3.010  10.121  0.4769  0.1694  0.3655
  341TMC3    C3 5112   4.355   2.944  10.007 -0.0515 -0.2062 -0.1181
  341TMC3    C4 5113   4.426   3.200   9.994  0.0898 -0.1523  0.6839
  341TMC3    C5 5114   4.418   3.127   9.884 -0.4276  0.1135  0.2455
  341TMC3    C6 5115   4.382   2.994   9.882  0.4152  0.5886  0.1422
  341TMC3     C 5116   4.370   3.219  10.226  0.4850 -0.4516  0.5537
  341TMC3     O 5117   4.267   3.203  10.284 -0.0288 -0.0441  0.1868
  341TMC3     H 5118   4.322   2.971  10.215 -0.4556 -2.6766 -1.1939
  341TMC3    H1 5119   4.447   3.306   9.987  0.3188 -0.2083  0.5098
  341TMC3    H2 5120   4.376   2.945   9.785 -2.5285  1.6059 -0.2005
  341TMC3    C7 5121   4.422   3.189   9.758  0.2104  0.4878  0.0126
  341TMC3    C8 5122   4.280   2.822  10.012  0.2413  0.0616  0.0137
  341TMC3    O1 5123   4.464   3.122   9.665 -0.3933 -0.6016  0.4571
  341TMC3    O2 5124   4.199   2.817  10.101  0.3254 -0.3335  0.2089
  342MPD2     C 5125   1.891   1.826  17.177 -0.1770 -0.1818 -0.5585
  342MPD2    C1 5126   1.986   1.849  17.273  0.3516 -0.4841 -0.3952
  342MPD2    C2 5127   2.010   1.972  17.320  0.0698  0.7481  0.2702
  342MPD2    C3 5128   1.948   2.079  17.255  0.3692 -1.1298 -0.0881
  342MPD2    C4 5129   1.856   2.059  17.150  0.2676  0.8103  0.6772
  342MPD2    C5 5130   1.825   1.929  17.117  0.7692 -0.0025 -0.1453
  342MPD2     H 5131   2.081   1.975  17.402  1.2048 -1.0128 -0.6295
  342MPD2    H1 5132   1.816   2.141  17.092 -0.2451 -0.9829 -1.5027
  342MPD2    H2 5133   1.867   1.724  17.149 -0.8794  0.0662 -0.8760
  342MPD2    H3 5134   1.760   1.914  17.031 -0.6801  0.5493  0.8755
  342MPD2     N 5135   1.973   2.214  17.296  0.7280  0.0585 -0.5408
  342MPD2    H5 5136   1.922   2.284  17.242 -0.5430 -1.5887 -1.4544
  342MPD2    N1 5137   2.056   1.734  17.321  0.3835  0.0199 -0.2737
  342MPD2    H7 5138   2.136   1.759  17.378 -2.0739  0.7674  2.8737
  343TMC3    C1 5139   2.149   1.523  17.333 -0.0497  0.3428  0.2542
  343TMC3    C2 5140   2.274   1.582  17.340 -0.9292  0.6415  0.0523
  343TMC3    C3 5141   2.373   1.500  17.380  0.2361  0.1648 -0.3006
  343TMC3    C4 5142   2.132   1.387  17.344 -0.2369  0.2693 -0.3391
  343TMC3    C5 5143   2.234   1.308  17.380 -0.3312  0.7414 -0.1641
  343TMC3    C6 5144   2.357   1.364  17.413 -0.1057  0.1160  0.4501
  343TMC3     C 5145   2.032   1.599  17.292 -0.4956  0.3029 -0.4455
  343TMC3     O 5146   1.924   1.540  17.277 -0.2568  0.1201  0.6640
  343TMC3     H 5147   2.301   1.687  17.339  1.2815  0.0921  2.0446
  343TMC3    H1 5148   2.031   1.348  17.351 -0.7553  1.7245  0.3173
  343TMC3    H2 5149   2.446   1.302  17.414  0.7178  1.2619 -0.4919
  343TMC3    C7 5150   2.209   1.167  17.405 -0.2659  0.4808 -0.7406
  343TMC3    C8 5151   2.506   1.550  17.339  0.4377  0.0266 -0.4389
  343TMC3    O1 5152   2.111   1.121  17.351  0.2900  0.0908 -0.2403
  343TMC3    O2 5153   2.502   1.624  17.242 -0.4567 -0.1265  0.1194
  344MPD2     C 5154   2.907   1.006  11.190 -0.5612  0.7789  0.5461
  344MPD2    C1 5155   2.919   0.907  11.094 -0.1498 -0.6887  0.0190
  344MPD2    C2 5156   2.946   0.949  10.962  0.4425 -0.0247  0.1800
  344MPD2    C3 5157   2.966   1.075  10.932 -0.0092  0.0587 -0.3740
  344MPD2    C4 5158   2.959   1.168  11.032 -0.4079 -0.4649 -0.3614
  344MPD2    C5 5159   2.934   1.136  11.161  0.5174  0.3832 -0.6242
  344MPD2     H 5160   2.957   0.872  10.887  0.3646  0.0077  0.1360
  344MPD2    H1 5161   2.968   1.274  11.008 -0.3508 -0.8807 -2.1471
  344MPD2    H2 5162   2.874   0.987  11.291  0.7257 -0.7754  0.6869
  344MPD2    H3 5163   2.922   1.216  11.233 -1.9033 -3.0134  2.7689
  344MPD2     N 5164   2.994   1.130  10.808  0.5682 -0.9250  0.2051
  344MPD2    H5 5165   3.019   1.229  10.805  1.3344 -1.1202  0.1586
  344MPD2    N1 5166   2.906   0.765  11.128  0.2232 -0.2693  0.3369
  344MPD2    H7 5167   2.901   0.698  11.051  1.6965 -1.1386  0.9948
  345TMC3    C1 5168   3.030   1.155  10.581  0.1717  0.5365 -0.7689
  345TMC3    C2 5169   3.123   1.248  10.608 -0.4185 -0.1260 -0.0863
  345TMC3    C3 5170   3.181   1.313  10.502  0.8684 -0.3223  0.3433
  345TMC3    C4 5171   3.000   1.127  10.448 -0.9214  0.3485 -0.0640
  345TMC3    C5 5172   3.062   1.196  10.343 -0.1989  0.1062  0.2529
  345TMC3    C6 5173   3.152   1.287  10.374  0.1234  0.3477 -0.0010
  345TMC3     C 5174   2.976   1.070  10.684  0.4826 -0.1587 -0.2289
  345TMC3     O 5175   2.923   0.963  10.653  0.1690 -0.4418 -0.0738
  345TMC3     H 5176   3.150   1.275  10.710 -2.8767 -0.8218  0.7536
  345TMC3    H1 5177   2.945   1.039  10.418  0.1924 -0.0246 -1.0285
  345TMC3    H2 5178   3.180   1.357  10.297 -1.1268  1.5102  0.6062
  345TMC3    C7 5179   2.992   1.225  10.221  0.0120 -0.1234  0.3891
  345TMC3    C8 5180   3.268   1.424  10.530 -0.3437 -0.5552 -0.2391
  345TMC3    O1 5181   3.047   1.289  10.133 -0.5405  0.0149  0.1607
  345TMC3    O2 5182   3.277   1.466  10.645 -0.5204 -0.1308  0.3774
  346MPD2     C 5183   3.442   2.920  14.033 -0.1439 -0.2258 -0.1778
  346MPD2    C1 5184   3.359   3.018  13.988  0.0393  0.7957  0.0238
  346MPD2    C2 5185   3.340   3.135  14.064 -0.0249 -0.3114 -0.7358
  346MPD2    C3 5186   3.411   3.156  14.186  0.5211 -0.6128 -0.9885
  346MPD2    C4 5187   3.502   3.058  14.227 -0.7193 -0.3384  0.1578
  346MPD2    C5 5188   3.513   2.947  14.151 -0.0104  0.2807 -0.4029
  346MPD2     H 5189   3.292   3.220  14.017 -1.0451 -1.0121 -0.9599
  346MPD2    H1 5190   3.571   3.071  14.310 -2.2994 -1.9161  1.7315
  346MPD2    H2 5191   3.471   2.834  13.975  1.7815 -0.6575  1.4279
  346MPD2    H3 5192   3.586   2.873  14.182  0.8589  2.3915  2.5356
  346MPD2     N 5193   3.389   3.281  14.256  0.0646 -0.2312 -0.0908
  346MPD2    H5 5194   3.326   3.348  14.216  2.3044  2.3081  0.6256
  346MPD2    N1 5195   3.286   3.016  13.871  0.0204 -0.4144  0.1994
  346MPD2    H7 5196   3.238   3.100  13.840 -1.2878 -1.1406  0.2817
  347TMC3    C1 5197   3.466   3.479  14.372 -0.4270 -0.0906  0.3172
  347TMC3    C2 5198   3.430   3.546  14.255  0.5647  0.2321 -0.3691
  347TMC3    C3 5199   3.484   3.668  14.238  0.3218 -0.6520  0.2490
  347TMC3    C4 5200   3.557   3.526  14.461  0.0022  0.1343 -0.3826
  347TMC3    C5 5201   3.611   3.650  14.438  0.2289 -0.3654 -0.1522
  347TMC3    C6 5202   3.575   3.723  14.326  0.4641 -0.5587 -0.0892
  347TMC3     C 5203   3.466   3.334  14.360 -0.1784  0.8533  0.2696
  347TMC3     O 5204   3.541   3.276  14.436  0.4056  0.0637  0.6010
  347TMC3     H 5205   3.360   3.510  14.179 -2.3009  1.2176  1.7842
  347TMC3    H1 5206   3.582   3.477  14.554  1.4220 -0.1438 -0.9137
  347TMC3    H2 5207   3.608   3.822  14.297 -0.2433 -0.7160 -1.4732
  347TMC3    C7 5208   3.683   3.723  14.540  0.1538 -0.1901  0.0297
  347TMC3    C8 5209   3.536   3.667  14.103  0.3454 -0.5730 -0.0440
  347TMC3    O1 5210   3.704   3.671  14.652 -0.1103  0.4979 -0.8737
  347TMC3    O2 5211   3.658   3.650  14.098 -0.3026  0.6155 -0.3204
  348MPD2     C 5212   1.751   2.740  12.318 -0.0997  1.0221  0.8691
  348MPD2    C1 5213   1.814   2.645  12.244 -0.0661 -0.1713  0.4273
  348MPD2    C2 5214   1.815   2.656  12.103 -0.2234  0.3319 -0.1910
  348MPD2    C3 5215   1.753   2.759  12.040  0.2934 -0.1785 -0.7627
  348MPD2    C4 5216   1.675   2.846  12.114 -0.3770 -0.1165 -0.1020
  348MPD2    C5 5217   1.671   2.835  12.255  0.4555  0.0812 -0.1667
  348MPD2     H 5218   1.871   2.584  12.045  0.5371  1.8772 -1.3651
  348MPD2    H1 5219   1.608   2.913  12.062 -0.7529 -0.5091 -0.1317
  348MPD2    H2 5220   1.742   2.733  12.426 -1.2489 -1.3568  0.6167
  348MPD2    H3 5221   1.616   2.898  12.324 -0.1700 -0.5687 -0.0703
  348MPD2     N 5222   1.773   2.781  11.903 -0.2134 -0.1727 -0.2775
  348MPD2    H5 5223   1.847   2.725  11.861 -0.0718 -0.8291  0.8397
  348MPD2    N1 5224   1.894   2.536  12.302 -0.4866  0.4528 -0.6255
  348MPD2    H7 5225   1.939   2.467  12.242 -0.2125 -0.9669  1.2285
  349TMC3    C1 5226   2.004   2.402  12.457 -0.6511 -0.3497 -0.2607
  349TMC3    C2 5227   1.961   2.310  12.545  0.2886  0.5804 -0.3239
  349TMC3    C3 5228   2.016   2.184  12.532 -0.0110 -0.2163 -0.4080
  349TMC3    C4 5229   2.083   2.379  12.351  0.2298 -0.5394 -0.2462
  349TMC3    C5 5230   2.148   2.255  12.350 -0.4783  0.4874 -0.0633
  349TMC3    C6 5231   2.108   2.154  12.435 -0.1726  0.0290 -0.5320
  349TMC3     C 5232   1.915   2.512  12.434 -0.1958 -0.0408 -0.0568
  349TMC3     O 5233   1.859   2.556  12.533  0.5252  0.2403 -0.5938
  349TMC3     H 5234   1.899   2.342  12.628  0.4035  0.0107 -0.0133
  349TMC3    H1 5235   2.115   2.464  12.291 -1.3172  0.6173  0.5565
  349TMC3    H2 5236   2.131   2.049  12.420 -0.0748 -0.0288  0.0152
  349TMC3    C7 5237   2.207   2.218  12.227  0.3753  0.1965 -0.0846
  349TMC3    C8 5238   1.966   2.076  12.613 -1.0836  0.1213 -1.1271
  349TMC3    O1 5239   2.204   2.304  12.136 -0.1621 -0.2265 -0.4928
  349TMC3    O2 5240   2.013   1.964  12.595  0.7814  0.3741  0.1276
  350MPD2     C 5241   0.564   0.127  10.050 -0.2598 -0.4906  0.1719
  350MPD2    C1 5242   0.641   0.019  10.035  0.4812 -0.5250  0.1024
  350MPD2    C2 5243   0.773   0.012  10.089  0.0913 -0.6319 -0.0329
  350MPD2    C3 5244   0.818   0.123  10.157 -0.1161 -0.2854  0.5067
  350MPD2    C4 5245   0.735   0.233  10.176  0.1182  0.3093  0.8336
  350MPD2    C5 5246   0.607   0.236  10.126 -0.1507  1.0583 -0.9527
  350MPD2     H 5247   0.838   4.649  10.076 -1.5632 -2.1446  1.5598
  350MPD2    H1 5248   0.766   0.327  10.221 -1.5304  0.9205  0.7113
  350MPD2    H2 5249   0.464   0.127  10.007 -0.5580 -1.1929  0.8671
  350MPD2    H3 5250   0.559   0.331  10.147 -1.4498  0.2036 -0.0548
  350MPD2     N 5251   0.952   0.121  10.197 -0.0738 -0.3550  0.7750
  350MPD2    H5 5252   0.995   0.030  10.188  4.2220  1.8149 -0.2947
  350MPD2    N1 5253   0.601   4.626   9.969 -0.6023  0.0884  0.3928
  350MPD2    H7 5254   0.677   4.562   9.949 -0.4282  1.0523 -2.0131
  351TMC3    C1 5255   0.456   4.466   9.881  0.3756 -0.5219  0.3502
  351TMC3    C2 5256   0.542   4.402   9.796 -0.4764 -0.4779 -0.8553
  351TMC3    C3 5257   0.528   4.267   9.769  0.5174 -0.3007  0.2770
  351TMC3    C4 5258   0.335   4.405   9.914  0.3135  0.6282  0.2071
  351TMC3    C5 5259   0.318   4.268   9.874 -0.9132 -0.2766  0.6189
  351TMC3    C6 5260   0.415   4.204   9.804 -0.0530 -0.1341  0.7118
  351TMC3     C 5261   0.469   4.595   9.935 -0.1017 -0.3337 -0.4836
  351TMC3     O 5262   0.373   4.656   9.974 -0.4143 -0.2864  0.3749
  351TMC3     H 5263   0.633   4.454   9.769  0.8515 -1.9496  0.8231
  351TMC3    H1 5264   0.253   4.462   9.958  0.8062  0.6759  1.0693
  351TMC3    H2 5265   0.404   4.097   9.793  0.2448 -0.1191  0.2607
  351TMC3    C7 5266   0.201   4.204   9.924 -0.5404 -0.1031 -0.4232
  351TMC3    C8 5267   0.644   4.202   9.714 -0.0657  0.2145 -0.0227
  351TMC3    O1 5268   0.131   4.266  10.008 -0.1112  0.2343  0.0987
  351TMC3    O2 5269   0.727   4.272   9.660  0.7636 -0.4810  0.4712
  352MPD2     C 5270   4.006   3.150   1.567 -0.4474 -0.0103 -0.1546
  352MPD2    C1 5271   3.958   3.058   1.478  0.5108 -0.5953 -0.1011
  352MPD2    C2 5272   3.961   2.925   1.510 -0.0982 -0.1279 -0.3899
  352MPD2    C3 5273   3.998   2.887   1.637  0.4200 -0.1682 -0.3838
  352MPD2    C4 5274   4.021   2.990   1.732  0.2964 -0.9963  0.5292
  352MPD2    C5 5275   4.040   3.121   1.694  0.6210  1.0881  0.3173
  352MPD2     H 5276   3.943   2.859   1.427 -2.7568  0.5314 -0.3276
  352MPD2    H1 5277   4.048   2.966   1.835  1.2011 -1.9537  0.0702
  352MPD2    H2 5278   4.015   3.254   1.537 -1.4755 -0.3355 -1.5661
  352MPD2    H3 5279   4.070   3.196   1.766  0.0299  0.6655  1.0017
  352MPD2     N 5280   4.002   2.753   1.687  0.5797 -0.5465  0.4599
  352MPD2    H5 5281   4.021   2.735   1.785 -2.6990 -1.8946  0.8330
  352MPD2    N1 5282   3.935   3.100   1.349 -0.4819  0.2703  0.4737
  352MPD2    H7 5283   3.956   3.198   1.332  0.2903 -0.1562 -1.0845
  353TMC3    C1 5284   3.993   2.508   1.677 -0.4771 -0.5793 -0.5062
  353TMC3    C2 5285   4.100   2.503   1.768 -0.5377 -0.2780 -0.6933
  353TMC3    C3 5286   4.149   2.377   1.787  0.1554 -0.2804 -0.1897
  353TMC3    C4 5287   3.949   2.398   1.611  0.2998  0.2596  0.1928
  353TMC3    C5 5288   4.006   2.275   1.632 -0.1896 -0.7998  0.5186
  353TMC3    C6 5289   4.108   2.263   1.726 -0.4238  0.0988  0.7730
  353TMC3     C 5290   3.986   2.636   1.610  0.2893 -0.1868 -0.1273
  353TMC3     O 5291   3.947   2.636   1.496 -0.0793 -0.4859  0.2315
  353TMC3     H 5292   4.146   2.589   1.817 -2.3742  0.7480 -0.7251
  353TMC3    H1 5293   3.866   2.405   1.542 -0.4778  0.0899  1.1131
  353TMC3    H2 5294   4.136   2.160   1.744 -1.8014 -0.3126  0.5939
  353TMC3    C7 5295   4.008   2.176   1.524  0.1799  0.4901 -0.2445
  353TMC3    C8 5296   4.232   2.360   1.900 -0.0313  0.3045 -0.5582
  353TMC3    O1 5297   4.121   2.144   1.483  0.4353  0.6090 -0.6783
  353TMC3    O2 5298   4.215   2.440   1.991 -0.1877  0.0507 -0.5158
  354TMC3    C1 5299   1.110   4.055  13.562 -0.5499  0.2131  0.5991
  354TMC3    C2 5300   1.220   4.123  13.613 -0.0107  0.1702 -0.3611
  354TMC3    C3 5301   1.338   4.107  13.550  0.0304  0.1878 -0.4646
  354TMC3    C4 5302   1.113   4.021  13.429  0.0606  0.2120  0.3518
  354TMC3    C5 5303   1.229   4.001  13.369  0.3813 -0.0462  0.9939
  354TMC3    C6 5304   1.347   4.042  13.432  0.4406  0.0848 -0.1324
  354TMC3     C 5305   1.066   3.958  13.657  0.1633 -0.5474 -0.3236
  354TMC3     O 5306   1.045   3.842  13.629  0.1321  0.0459 -0.1232
  354TMC3     H 5307   1.218   4.173  13.709 -0.7673 -0.5353 -0.0124
  354TMC3    H1 5308   1.023   3.974  13.393 -0.1814  0.3132  0.8214
  354TMC3    H2 5309   1.444   4.026  13.385 -0.2301 -0.0270 -1.4678
  354TMC3    C7 5310   1.221   4.017  13.226 -0.2507  0.0176 -0.4515
  354TMC3    C8 5311   1.453   4.141  13.630  0.7052 -0.4975  0.1173
  354TMC3    O1 5312   1.114   4.057  13.181  0.1709 -0.0264  0.6403
  354TMC3    O2 5313   1.437   4.143  13.753  0.4598  0.1139 -0.7001
  355MPD2     C 5314   0.831   4.651  11.946 -0.3545  0.2292  0.1631
  355MPD2    C1 5315   0.890   4.677  11.825  0.4368 -0.5376  0.0156
  355MPD2    C2 5316   1.027   4.692  11.821 -0.7024  0.8644 -0.6058
  355MPD2    C3 5317   1.108   4.684  11.936 -0.5815 -0.9220  0.0350
  355MPD2    C4 5318   1.044   4.666  12.058  0.1609  0.2784 -0.3724
  355MPD2    C5 5319   0.906   4.651  12.061  0.1649  0.2421  0.1446
  355MPD2     H 5320   1.078   4.706  11.726  1.0722  2.0741  0.5269
  355MPD2    H1 5321   1.098   4.677  12.151 -2.4859 -0.3655  1.2192
  355MPD2    H2 5322   0.723   4.650  11.956 -0.3961 -0.6810 -0.3153
  355MPD2    H3 5323   0.847   4.648  12.152 -1.6061  2.4261 -0.9417
  355MPD2     N 5324   1.251   4.707  11.934  0.0309  0.4176  0.2887
  355MPD2    H5 5325   1.297   4.703  12.024  1.8266  1.1757 -0.5912
  355MPD2    N1 5326   0.803   4.693  11.711  0.0593 -0.0133 -0.0532
  355MPD2    H7 5327   0.711   4.652  11.722  0.2996 -0.3347  0.7444
  356TMC3    C1 5328   1.466   0.033  11.839  0.1222 -0.3484  0.5146
  356TMC3    C2 5329   1.544   0.074  11.725  0.2449 -0.5475  0.7035
  356TMC3    C3 5330   1.663   0.119  11.743 -0.0511 -0.6089  0.1192
  356TMC3    C4 5331   1.523   0.038  11.964  0.2466 -0.5262  0.7500
  356TMC3    C5 5332   1.648   0.078  11.971 -0.3455 -0.1672  0.2310
  356TMC3    C6 5333   1.716   0.121  11.862 -0.8388 -0.2599 -0.1186
  356TMC3     C 5334   1.323   0.014  11.817 -0.2635  0.1053 -0.5556
  356TMC3     O 5335   1.282   0.021  11.700 -0.2730 -0.2987  0.5879
  356TMC3     H 5336   1.488   0.106  11.638  1.0338 -1.2196 -0.0515
  356TMC3    H1 5337   1.484   4.716  12.055  1.5890 -0.3749  1.3893
  356TMC3    H2 5338   1.821   0.147  11.870 -1.5429  2.4373  0.5319
  356TMC3    C7 5339   1.718   0.074  12.100  0.2264 -0.1502  0.2102
  356TMC3    C8 5340   1.743   0.114  11.626  0.4584 -0.9859  0.0058
  356TMC3    O1 5341   1.681   4.718  12.186  0.1044 -0.3114 -0.3151
  356TMC3    O2 5342   1.714   0.030  11.540  0.3167  0.3383 -0.1858
  357MPD2     C 5343   0.572   4.647   1.313 -0.2122 -1.0116  0.3217
  357MPD2    C1 5344   0.667   4.675   1.413  0.2861  0.9055  0.7722
  357MPD2    C2 5345   0.630   0.006   1.532 -0.1342  0.0714  0.0423
  357MPD2    C3 5346   0.495   0.027   1.556 -0.0660  0.3483  0.0997
  357MPD2    C4 5347   0.401   0.004   1.458 -0.4480 -0.7601  0.6868
  357MPD2    C5 5348   0.442   4.667   1.339 -0.3502  0.5628  0.5372
  357MPD2     H 5349   0.705   0.030   1.607 -0.4200  0.0776  0.3281
  357MPD2    H1 5350   0.294   0.018   1.473 -0.2934 -0.5631  1.6174
  357MPD2    H2 5351   0.604   4.604   1.219  2.4905 -0.7939  1.1595
  357MPD2    H3 5352   0.363   4.656   1.266  0.4534  3.5854 -0.7744
  357MPD2     N 5353   0.452   0.078   1.683  0.1089 -0.0025 -0.6691
  357MPD2    H5 5354   0.354   0.107   1.685  0.3631  0.9381 -2.2807
  357MPD2    N1 5355   0.806   4.659   1.387  0.1151 -0.2240  0.0463
  357MPD2    H7 5356   0.870   4.680   1.463  0.6643  0.0526 -0.4933
  358TMC3    C1 5357   0.999   4.592   1.257  0.5009 -0.0287  0.2161
  358TMC3    C2 5358   1.058   4.583   1.129  0.1718 -0.0719  0.5065
  358TMC3    C3 5359   1.192   4.561   1.127 -0.1633  0.4491  0.1842
  358TMC3    C4 5360   1.074   4.595   1.372 -0.2795 -0.7737 -0.6972
  358TMC3    C5 5361   1.211   4.584   1.360 -0.3173 -0.1874 -0.5193
  358TMC3    C6 5362   1.270   4.555   1.234 -0.2879 -0.2110 -0.3312
  358TMC3     C 5363   0.863   4.633   1.259 -0.6579 -0.5449  0.8056
  358TMC3     O 5364   0.811   4.649   1.148  0.3703 -0.2791 -0.2516
  358TMC3     H 5365   0.999   4.592   1.038  0.0125  0.3524  0.6508
  358TMC3    H1 5366   1.025   4.601   1.468  1.3452  0.3339  0.0614
  358TMC3    H2 5367   1.378   4.548   1.228 -0.3307  0.5931 -1.9460
  358TMC3    C7 5368   1.302   4.613   1.468  0.2000  0.0583 -0.3587
  358TMC3    C8 5369   1.246   4.565   0.998 -0.0519  0.0439 -0.1592
  358TMC3    O1 5370   1.423   4.595   1.449 -0.3762  0.3651 -0.4547
  358TMC3    O2 5371   1.359   4.612   0.981 -0.0323 -0.2880  0.0530
  359MPD2     C 5372   1.423   4.029  12.345  0.2520 -0.3165 -0.6471
  359MPD2    C1 5373   1.467   3.931  12.256  0.5441 -0.4513 -0.0958
  359MPD2    C2 5374   1.394   3.819  12.236  0.0556 -0.5605  0.1122
  359MPD2    C3 5375   1.271   3.809  12.295 -0.3843 -0.2153  1.1009
  359MPD2    C4 5376   1.217   3.917  12.360  0.9644  0.7838  0.6012
  359MPD2    C5 5377   1.295   4.031  12.390  0.3453 -0.2453 -0.7381
  359MPD2     H 5378   1.433   3.734  12.181 -0.3759  1.1272 -2.7722
  359MPD2    H1 5379   1.112   3.915  12.387  1.4744  0.2993  2.5252
  359MPD2    H2 5380   1.474   4.120  12.375 -1.2735  0.0111  0.9439
  359MPD2    H3 5381   1.261   4.120  12.442  1.3235  0.1227 -0.7211
  359MPD2     N 5382   1.201   3.684  12.292 -0.6631 -0.2322  1.0146
  359MPD2    H5 5383   1.236   3.610  12.232 -1.8856  1.1233 -1.3535
  359MPD2    N1 5384   1.587   3.933  12.193  0.0472  0.7064 -0.2392
  359MPD2    H7 5385   1.598   3.856  12.127  0.5088  1.8915 -1.5689
  360TMC3    C1 5386   1.809   3.982  12.160  0.4609  0.1630  0.1968
  360TMC3    C2 5387   1.890   4.076  12.099 -0.3266  0.2228 -0.3785
  360TMC3    C3 5388   2.012   4.023  12.064 -0.3138  1.2654  0.5879
  360TMC3    C4 5389   1.840   3.855  12.190 -0.4300  0.2965 -0.4082
  360TMC3    C5 5390   1.967   3.816  12.159  0.3138  0.1989  0.5367
  360TMC3    C6 5391   2.059   3.901  12.105 -0.3952  0.5196  0.5249
  360TMC3     C 5392   1.683   4.028  12.199 -0.2697 -0.2921 -0.3395
  360TMC3     O 5393   1.674   4.146  12.217  0.8897 -0.3894  0.3451
  360TMC3     H 5394   1.847   4.164  12.053  0.6435  2.1263  2.3599
  360TMC3    H1 5395   1.766   3.788  12.234  1.2225 -0.9230  0.5108
  360TMC3    H2 5396   2.156   3.862  12.080 -0.9555  1.2186 -2.7510
  360TMC3    C7 5397   1.961   3.694  12.084  0.2889 -0.5809  0.1092
  360TMC3    C8 5398   2.063   4.071  11.939  0.0433  0.8450 -0.3528
  360TMC3    O1 5399   2.015   3.699  11.970  0.9008  0.1648 -0.3062
  360TMC3    O2 5400   2.041   4.186  11.901  1.0119  0.2388 -0.0813
  361MPD2     C 5401   3.191   2.243  17.001  0.1928 -0.8950 -0.0808
  361MPD2    C1 5402   3.220   2.370  17.063  0.4132  0.4150  0.6985
  361MPD2    C2 5403   3.351   2.408  17.085 -0.8609 -0.2380 -0.2522
  361MPD2    C3 5404   3.452   2.325  17.031 -0.1455  0.0847  0.0264
  361MPD2    C4 5405   3.420   2.201  16.988 -1.0302  0.1220 -0.0585
  361MPD2    C5 5406   3.291   2.156  16.974  0.0198 -0.7040  0.4220
  361MPD2     H 5407   3.375   2.510  17.113  2.7190 -0.5741 -2.0869
  361MPD2    H1 5408   3.498   2.134  16.956 -1.0469 -0.7579  1.7462
  361MPD2    H2 5409   3.092   2.206  16.978  0.1920 -1.2794  0.5313
  361MPD2    H3 5410   3.266   2.067  16.918  0.7958 -0.9136  0.4167
  361MPD2     N 5411   3.591   2.356  17.029  0.5862  0.5647  0.1696
  361MPD2    H5 5412   3.654   2.285  16.994 -2.3570 -1.4733 -0.9639
  361MPD2    N1 5413   3.120   2.465  17.091 -0.3826 -0.0297 -0.1593
  361MPD2    H7 5414   3.154   2.546  17.142  3.7852 -0.4362 -2.3276
  362TMC3    C1 5415   2.898   2.557  17.115  0.1666 -0.1784  0.4184
  362TMC3    C2 5416   2.769   2.535  17.142 -0.1882 -0.3610 -0.1045
  362TMC3    C3 5417   2.677   2.638  17.148 -0.3831 -0.2156  0.5548
  362TMC3    C4 5418   2.945   2.685  17.100 -0.1350 -0.0818  0.8594
  362TMC3    C5 5419   2.858   2.790  17.110 -0.4628  0.1707 -0.1738
  362TMC3    C6 5420   2.726   2.764  17.135 -0.1634  0.2186 -0.4686
  362TMC3     C 5421   2.984   2.447  17.076 -0.5669  0.3562 -0.6004
  362TMC3     O 5422   2.923   2.358  17.017  0.5736 -0.4812 -0.1470
  362TMC3     H 5423   2.730   2.435  17.124 -1.0571 -0.1218  0.4151
  362TMC3    H1 5424   3.043   2.698  17.057 -0.9673 -3.1474 -1.9719
  362TMC3    H2 5425   2.662   2.851  17.123 -0.3842  0.4438  2.3847
  362TMC3    C7 5426   2.881   2.908  17.033 -0.5865  0.4327  0.1294
  362TMC3    C8 5427   2.534   2.614  17.151  0.2543  0.3123  0.1470
  362TMC3    O1 5428   2.787   2.976  17.005  0.3369 -0.0734  0.1534
  362TMC3    O2 5429   2.498   2.506  17.108 -0.8497 -0.3869  0.3809
  363TMC3    C1 5430   1.580   0.185   9.801  0.3027  0.0206 -0.3478
  363TMC3    C2 5431   1.563   0.044   9.784 -0.4345  0.1805 -0.3682
  363TMC3    C3 5432   1.455   0.008   9.707  0.3172 -0.0894 -0.7907
  363TMC3    C4 5433   1.497   0.281   9.742 -0.1093  0.1173  0.6551
  363TMC3    C5 5434   1.410   0.228   9.655 -0.0645 -0.2936 -0.4454
  363TMC3    C6 5435   1.382   0.095   9.641  0.4417  0.1136 -0.9856
  363TMC3     C 5436   1.697   0.217   9.876  0.0518  0.1602  0.2565
  363TMC3     O 5437   1.778   0.134   9.907 -0.0934  0.1520  0.6443
  363TMC3     H 5438   1.630   4.701   9.839 -0.5708 -0.3627 -0.8409
  363TMC3    H1 5439   1.525   0.384   9.726 -0.6192  0.2903  0.8711
  363TMC3    H2 5440   1.292   0.067   9.587  0.1831 -1.7981  0.4345
  363TMC3    C7 5441   1.312   0.309   9.589 -0.0158 -0.3816  0.4356
  363TMC3    C8 5442   1.398   4.591   9.706  0.5600  0.3346  0.1903
  363TMC3    O1 5443   1.281   0.292   9.469  0.1116 -0.3768  0.2147
  363TMC3    O2 5444   1.279   4.575   9.686 -0.2408 -0.0254 -0.1561
  364MPD2     C 5445   0.006   3.388  10.815  0.3834  0.1438  0.3972
  364MPD2    C1 5446   0.117   3.365  10.737 -0.0980  0.3513  0.5282
  364MPD2    C2 5447   0.208   3.275  10.778  0.7865  0.3100 -0.0889
  364MPD2    C3 5448   0.181   3.196  10.890  0.0539 -0.6218 -0.1947
  364MPD2    C4 5449   0.067   3.215  10.966  0.1936  0.3770  0.2359
  364MPD2    C5 5450   4.702   3.322  10.933 -0.1408  0.2092  0.0083
  364MPD2     H 5451   0.306   3.274  10.732 -0.5723 -2.0864 -2.9479
  364MPD2    H1 5452   0.046   3.155  11.053  0.4035  0.8422  0.6048
  364MPD2    H2 5453   4.649   3.457  10.787  1.2201  1.4132  1.2068
  364MPD2    H3 5454   4.611   3.345  10.989 -0.6620  1.3688 -1.3080
  364MPD2     N 5455   0.276   3.100  10.929  0.0154 -0.0722  0.6677
  364MPD2    H5 5456   0.258   3.047  11.014 -0.9632 -0.2540  0.3536
  364MPD2    N1 5457   0.135   3.463  10.629 -0.0810  0.2210 -0.1847
  364MPD2    H7 5458   0.059   3.529  10.621 -0.5496 -0.1608  0.9930
  365TMC3    C1 5459   0.257   3.570  10.453  0.7650  0.4913  0.4885
  365TMC3    C2 5460   0.360   3.555  10.362 -0.2414 -0.6152 -0.0243
  365TMC3    C3 5461   0.415   3.670  10.314  0.5908 -0.1923 -0.1771
  365TMC3    C4 5462   0.209   3.698  10.491 -0.1319  0.4084 -0.6371
  365TMC3    C5 5463   0.279   3.808  10.448 -0.7439  0.4601 -0.1165
  365TMC3    C6 5464   0.382   3.794  10.359 -0.3208 -0.2152  0.2381
  365TMC3     C 5465   0.237   3.451  10.537  0.1233  0.4939 -0.3484
  365TMC3     O 5466   0.310   3.354  10.520  0.3209  0.2680  0.4423
  365TMC3     H 5467   0.388   3.454  10.333 -0.5367 -0.2665 -1.5250
  365TMC3    H1 5468   0.131   3.706  10.566  0.1407 -0.2456 -0.2853
  365TMC3    H2 5469   0.448   3.877  10.338 -1.5252  1.1784  1.9255
  365TMC3    C7 5470   0.258   3.940  10.509 -0.0778 -0.2214 -0.1366
  365TMC3    C8 5471   0.530   3.658  10.223 -0.1312  0.6114  0.0867
  365TMC3    O1 5472   0.319   4.029  10.453 -0.3989 -0.2076 -0.3247
  365TMC3    O2 5473   0.557   3.753  10.155  0.3997  0.2467 -0.4418
  366MPD2     C 5474   4.088   0.348  14.899  0.5791 -0.8519 -0.3403
  366MPD2    C1 5475   4.098   0.430  15.006  0.2392  0.0891 -0.5053
  366MPD2    C2 5476   4.206   0.420  15.090 -0.4470  0.0738 -0.8470
  366MPD2    C3 5477   4.321   0.350  15.050  0.4365 -0.2231 -0.1099
  366MPD2    C4 5478   4.317   0.269  14.940  0.2756 -0.5770 -0.8584
  366MPD2    C5 5479   4.202   0.272  14.863 -0.1809  0.2795  0.4615
  366MPD2     H 5480   4.191   0.473  15.183  1.7559  0.2703 -0.6139
  366MPD2    H1 5481   4.400   0.209  14.903  0.9182 -0.6585  0.6820
  366MPD2    H2 5482   4.003   0.344  14.830 -0.5088  0.7788  0.9157
  366MPD2    H3 5483   4.194   0.213  14.773 -1.3470 -1.0289  1.4331
  366MPD2     N 5484   4.449   0.355  15.114  0.1947  0.4325 -0.6173
  366MPD2    H5 5485   4.521   0.297  15.073 -0.2948  0.1664 -1.0950
  366MPD2    N1 5486   3.992   0.511  15.060 -0.5252  0.1097  0.4666
  366MPD2    H7 5487   4.030   0.585  15.117  0.1802  0.8964 -1.0167
  367TMC3    C1 5488   3.788   0.616  15.094 -0.8957 -0.0847 -0.2702
  367TMC3    C2 5489   3.839   0.680  15.205  0.6137  0.0652  0.0762
  367TMC3    C3 5490   3.787   0.794  15.254 -0.1740 -0.5649  0.9142
  367TMC3    C4 5491   3.680   0.672  15.040 -0.0977 -0.3921  0.2602
  367TMC3    C5 5492   3.616   0.779  15.101 -0.9286  0.3860  0.6154
  367TMC3    C6 5493   3.667   0.836  15.212  0.3950  0.1894  0.3772
  367TMC3     C 5494   3.860   0.505  15.025  0.5567  0.3790  0.1423
  367TMC3     O 5495   3.797   0.425  14.956  0.0710  0.2804  0.2732
  367TMC3     H 5496   3.933   0.646  15.247  0.7223 -0.5628 -0.6719
  367TMC3    H1 5497   3.656   0.632  14.942 -1.4693 -0.2840  0.5626
  367TMC3    H2 5498   3.626   0.932  15.240 -0.8826  0.3253 -1.9650
  367TMC3    C7 5499   3.518   0.863  15.034 -0.3339 -0.2335  0.0409
  367TMC3    C8 5500   3.860   0.873  15.356 -0.1608 -0.0112 -0.4637
  367TMC3    O1 5501   3.524   0.985  15.062 -0.1921  0.3751 -0.4751
  367TMC3    O2 5502   3.935   0.807  15.429  0.3099 -0.1573  0.3614
  368MPD2     C 5503   4.300   2.806  13.002  0.0717 -0.9016 -0.0305
  368MPD2    C1 5504   4.302   2.917  12.927 -0.0649  0.2651 -0.0587
  368MPD2    C2 5505   4.422   2.983  12.912 -0.1904 -0.1567 -0.1780
  368MPD2    C3 5506   4.544   2.928  12.943 -0.2507  0.3447 -0.6635
  368MPD2    C4 5507   4.542   2.812  13.020  0.5937  0.1737  0.9014
  368MPD2    C5 5508   4.418   2.755  13.052 -0.1420  0.0262 -0.7034
  368MPD2     H 5509   4.434   3.078  12.860  2.7779 -0.4188 -0.0020
  368MPD2    H1 5510   4.638   2.767  13.042  0.1622 -0.6391  1.1016
  368MPD2    H2 5511   4.205   2.758  13.022 -1.2316  1.1629 -1.2383
  368MPD2    H3 5512   4.407   2.684  13.133 -0.7414 -2.7672 -3.2394
  368MPD2     N 5513   4.668   2.971  12.905  0.0498  0.0084  0.3548
  368MPD2    H5 5514   0.022   2.916  12.943  1.0279  0.8749 -0.3253
  368MPD2    N1 5515   4.181   2.979  12.878 -0.1261  0.3917  0.6945
  368MPD2    H7 5516   4.099   2.923  12.900 -0.1779  0.3471  0.3863
  369TMC3    C1 5517   4.049   3.089  12.731  0.5329 -0.1916 -0.2058
  369TMC3    C2 5518   4.058   3.172  12.625  0.0578 -0.4501  0.1345
  369TMC3    C3 5519   3.964   3.166  12.528 -0.5497 -0.4776 -0.0559
  369TMC3    C4 5520   3.956   2.991  12.726  0.3385  0.6190  0.1036
  369TMC3    C5 5521   3.867   2.979  12.626  0.0419 -0.2214  0.1269
  369TMC3    C6 5522   3.873   3.063  12.522  0.6444 -0.4435 -0.1585
  369TMC3     C 5523   4.162   3.093  12.817 -0.1051 -0.1350  0.3958
  369TMC3     O 5524   4.232   3.194  12.803 -0.0604 -0.2175 -0.1622
  369TMC3     H 5525   4.126   3.256  12.616  2.3746 -2.0159  2.7830
  369TMC3    H1 5526   3.951   2.927  12.813 -1.2381  1.1441  0.3983
  369TMC3    H2 5527   3.807   3.079  12.438 -0.1106  0.9831  0.6982
  369TMC3    C7 5528   3.771   2.872  12.648 -0.6980 -0.4541  0.0672
  369TMC3    C8 5529   4.009   3.215  12.400  0.4906  0.2959 -0.8175
  369TMC3    O1 5530   3.736   2.846  12.765 -0.4351 -0.1469 -0.5597
  369TMC3    O2 5531   3.935   3.213  12.302 -0.2983 -0.7679 -0.6500
  370TMC3    C1 5532   4.588   3.465  16.161 -0.1323  0.8897 -0.0237
  370TMC3    C2 5533   4.506   3.441  16.267  0.3426  0.0806  0.0644
  370TMC3    C3 5534   4.418   3.345  16.256 -0.1982 -0.4164  0.0081
  370TMC3    C4 5535   4.576   3.409  16.038  0.8010  0.1849 -0.2953
  370TMC3    C5 5536   4.496   3.296  16.038 -0.2012  0.2179 -0.3051
  370TMC3    C6 5537   4.406   3.267  16.141 -0.1886  0.4660  1.1684
  370TMC3     C 5538   4.679   3.576  16.191  0.0884  0.1422 -0.4583
  370TMC3     O 5539   4.715   3.582  16.310 -0.2032 -0.5240  0.0144
  370TMC3     H 5540   4.518   3.501  16.357 -1.3617  2.2358 -1.1571
  370TMC3    H1 5541   4.654   3.420  15.964  2.2426  1.7539  1.4750
  370TMC3    H2 5542   4.337   3.184  16.135  1.5109 -1.0169  2.2557
  370TMC3    C7 5543   4.526   3.198  15.935 -0.3829 -0.2715 -0.2077
  370TMC3    C8 5544   4.377   3.275  16.377  0.7301  0.8844  0.1000
  370TMC3    O1 5545   4.637   3.206  15.881 -0.1521  0.2467  0.5779
  370TMC3    O2 5546   4.336   3.156  16.363  0.7701 -0.0388  0.1405
  371TMC3    C1 5547   0.844   1.465  15.430 -0.5550 -0.5882 -0.2358
  371TMC3    C2 5548   0.727   1.483  15.493 -0.4661 -0.3922  0.0407
  371TMC3    C3 5549   0.664   1.607  15.486 -0.6394 -1.0895  0.2108
  371TMC3    C4 5550   0.898   1.564  15.351  0.4780  0.0131  0.1719
  371TMC3    C5 5551   0.827   1.680  15.340 -0.3413  0.6317 -0.7959
  371TMC3    C6 5552   0.707   1.704  15.400  0.5080  0.1935  0.6747
  371TMC3     C 5553   0.922   1.343  15.448  0.1292  0.5466  0.4906
  371TMC3     O 5554   1.008   1.322  15.366 -0.1304  0.2344  0.7460
  371TMC3     H 5555   0.681   1.410  15.558 -0.9059  1.2377  1.5761
  371TMC3    H1 5556   0.999   1.551  15.314  0.3057 -0.3459 -0.1714
  371TMC3    H2 5557   0.656   1.798  15.382 -0.5701 -0.5898 -0.3065
  371TMC3    C7 5558   0.865   1.790  15.255 -0.0470 -0.3662 -0.4297
  371TMC3    C8 5559   0.541   1.620  15.565  0.6384  0.6541 -0.6103
  371TMC3    O1 5560   0.778   1.856  15.203 -0.2365 -0.2645 -0.2607
  371TMC3    O2 5561   0.480   1.518  15.592 -0.1031 -0.1758 -0.3301
  372MPD2     C 5562   0.020   2.789  13.290 -0.0498 -0.6933  0.2578
  372MPD2    C1 5563   0.114   2.695  13.318  0.2245  0.1340 -0.1502
  372MPD2    C2 5564   0.086   2.571  13.366 -0.1519 -1.0576  0.1914
  372MPD2    C3 5565   4.676   2.533  13.395 -0.2344 -0.4122  0.0550
  372MPD2    C4 5566   4.577   2.630  13.382 -0.4543 -0.7722  0.0654
  372MPD2    C5 5567   4.616   2.753  13.336  0.0929 -0.0756  0.4094
  372MPD2     H 5568   0.168   2.505  13.388  0.8115  0.0230 -0.1405
  372MPD2    H1 5569   4.471   2.614  13.399  0.0059 -1.5080  2.3184
  372MPD2    H2 5570   0.045   2.889  13.259  0.0103 -1.3245 -1.7425
  372MPD2    H3 5571   4.541   2.832  13.338  0.1766  0.0025  0.5035
  372MPD2     N 5572   4.649   2.397  13.426  0.2895  0.2779  0.4079
  372MPD2    H5 5573   0.007   2.338  13.407 -0.6364 -1.1240  0.8077
  372MPD2    N1 5574   0.247   2.714  13.277 -0.2534 -0.1295 -0.3484
  372MPD2    H7 5575   0.326   2.656  13.304 -2.0036 -2.5030 -0.4040
  373TMC3    C1 5576   4.530   2.204  13.479  0.7375 -0.6814 -0.0543
  373TMC3    C2 5577   4.461   2.155  13.585  0.9092  0.1050  0.0103
  373TMC3    C3 5578   4.490   2.033  13.643 -0.0414  0.3428  0.6208
  373TMC3    C4 5579   4.616   2.118  13.408  0.0413 -0.3183 -0.0762
  373TMC3    C5 5580   4.628   1.993  13.455  0.1015 -0.0115 -0.0293
  373TMC3    C6 5581   4.561   1.950  13.573 -0.5749 -0.2226 -0.0319
  373TMC3     C 5582   4.532   2.344  13.472 -0.1670 -0.2155 -0.3431
  373TMC3     O 5583   4.429   2.401  13.509  0.4266 -0.1110 -0.1823
  373TMC3     H 5584   4.403   2.215  13.655 -1.1771 -0.7270 -1.0013
  373TMC3    H1 5585   4.690   2.140  13.332 -0.3717  0.1985 -0.3273
  373TMC3    H2 5586   4.584   1.856  13.621  0.1081  0.7295  1.4978
  373TMC3    C7 5587   0.005   1.897  13.399  0.2847  0.0228 -1.3377
  373TMC3    C8 5588   4.565   2.057  13.768 -0.3685 -0.0698  0.2355
  373TMC3    O1 5589   0.116   1.933  13.360  0.1247 -0.0493  0.2622
  373TMC3    O2 5590   4.652   2.144  13.755 -0.1551 -0.1884 -0.0250
  374TMC3    C1 5591   0.910   2.142   9.811  0.1117 -0.8171 -0.4140
  374TMC3    C2 5592   0.963   2.261   9.853 -0.0827  0.1584  0.0233
  374TMC3    C3 5593   0.990   2.358   9.756 -0.4204 -0.0211 -0.9324
  374TMC3    C4 5594   0.880   2.118   9.685  0.5187  0.1008 -0.6878
  374TMC3    C5 5595   0.919   2.211   9.595  0.1788  0.1742  0.3446
  374TMC3    C6 5596   0.976   2.333   9.619 -0.1408 -0.0877  0.1280
  374TMC3     C 5597   0.850   2.059   9.917  1.1828  0.7596  0.8028
  374TMC3     O 5598   0.763   1.980   9.886 -0.1855  0.7191  0.1467
  374TMC3     H 5599   0.963   2.286   9.959  0.9010 -0.1974  0.1021
  374TMC3    H1 5600   0.825   2.028   9.656 -0.8169  1.2255 -1.6338
  374TMC3    H2 5601   0.976   2.408   9.541  0.1638 -1.0400 -0.7993
  374TMC3    C7 5602   0.925   2.169   9.459  0.4621 -0.2886  0.4773
  374TMC3    C8 5603   1.060   2.478   9.792  0.6120 -0.4051  0.6470
  374TMC3    O1 5604   1.005   2.235   9.396 -0.1901 -0.4062 -0.1068
  374TMC3    O2 5605   1.085   2.548   9.692 -0.5960  0.0559  1.1569
  375MPD2     C 5606   1.398   3.962  16.454  0.4653 -0.2833 -0.4650
  375MPD2    C1 5607   1.284   3.881  16.440  0.6288  0.6389 -0.2303
  375MPD2    C2 5608   1.292   3.755  16.387  0.1418 -0.0744 -0.1949
  375MPD2    C3 5609   1.413   3.707  16.344 -0.1865  0.1836  0.0848
  375MPD2    C4 5610   1.526   3.786  16.360 -0.7864  0.4201  0.4158
  375MPD2    C5 5611   1.518   3.915  16.407 -0.6725  0.8177  0.2383
  375MPD2     H 5612   1.207   3.688  16.384  0.9302 -1.0809  0.0140
  375MPD2    H1 5613   1.624   3.755  16.327 -0.6443 -0.2196  1.4217
  375MPD2    H2 5614   1.400   4.066  16.482  2.2663 -0.6907  0.9237
  375MPD2    H3 5615   1.602   3.983  16.406  0.4164 -0.6018 -2.0727
  375MPD2     N 5616   1.420   3.578  16.291  0.4343  0.1090 -0.9565
  375MPD2    H5 5617   1.514   3.546  16.267  0.5037  0.1912 -0.7905
  375MPD2    N1 5618   1.156   3.919  16.473 -0.3456 -0.0692 -0.2807
  375MPD2    H7 5619   1.076   3.860  16.452 -0.5990  0.6634 -1.3963
  376TMC3    C1 5620   1.351   3.355  16.232 -0.0014 -0.4520 -0.2266
  376TMC3    C2 5621   1.450   3.305  16.308 -0.4048 -0.0014  0.0293
  376TMC3    C3 5622   1.505   3.184  16.273  0.4632  0.6116  1.0055
  376TMC3    C4 5623   1.309   3.295  16.118  0.1505 -0.6618 -0.0708
  376TMC3    C5 5624   1.379   3.171  16.083  0.6006 -0.2337 -0.7586
  376TMC3    C6 5625   1.467   3.112  16.167 -0.6024  0.0144  0.1672
  376TMC3     C 5626   1.314   3.501  16.255 -0.0803  0.7536 -0.3110
  376TMC3     O 5627   1.201   3.534  16.229  0.5507  0.0740  0.2738
  376TMC3     H 5628   1.482   3.366  16.392  2.4799  0.4762 -1.3929
  376TMC3    H1 5629   1.238   3.346  16.054 -1.3458 -1.9384  0.5758
  376TMC3    H2 5630   1.529   3.027  16.143 -0.2370  0.0754  0.8875
  376TMC3    C7 5631   1.330   3.097  15.971  0.2073 -0.5464 -0.2042
  376TMC3    C8 5632   1.644   3.184  16.307  0.3199 -0.8437 -0.5937
  376TMC3    O1 5633   1.331   2.973  15.960 -0.2422  0.3530  0.2215
  376TMC3    O2 5634   1.729   3.167  16.216  0.3435 -0.6794 -0.0720
  377MPD2     C 5635   3.347   3.126  12.029 -0.2577 -0.3555 -0.4780
  377MPD2    C1 5636   3.424   3.051  12.110 -0.0886 -0.0896  0.0526
  377MPD2    C2 5637   3.376   3.014  12.235 -0.0687 -0.0976 -0.0297
  377MPD2    C3 5638   3.258   3.069  12.287  0.1826  0.3948 -0.1319
  377MPD2    C4 5639   3.187   3.154  12.202  0.5651 -0.6349  0.1721
  377MPD2    C5 5640   3.231   3.184  12.079  0.1941 -0.0534 -0.0301
  377MPD2     H 5641   3.432   2.943  12.295  1.0016  0.7981  0.0379
  377MPD2    H1 5642   3.103   3.207  12.246  0.4018  0.4666 -1.4452
  377MPD2    H2 5643   3.367   3.152  11.926 -1.4273  0.8351 -0.4108
  377MPD2    H3 5644   3.166   3.249  12.020  0.3268  1.4211  1.4371
  377MPD2     N 5645   3.211   3.060  12.422 -0.8059  0.5041 -0.1537
  377MPD2    H5 5646   3.123   3.106  12.444 -1.0906 -0.3178  0.4061
  377MPD2    N1 5647   3.557   3.028  12.066 -0.4853  0.1264 -0.6385
  377MPD2    H7 5648   3.585   3.059  11.974 -1.7639 -0.0010 -1.0715
  378TMC3    C1 5649   3.955   3.031  11.941 -0.6522 -0.3603  0.4064
  378TMC3    C2 5650   3.826   3.015  11.968 -0.6174  0.0984 -0.0837
  378TMC3    C3 5651   3.790   2.962  12.088 -0.1277  0.0711 -0.1198
  378TMC3    C4 5652   4.049   2.987  12.035  0.0780  0.5163 -0.0006
  378TMC3    C5 5653   4.006   2.922  12.155  0.4034  0.5681 -0.1766
  378TMC3    C6 5654   3.874   2.899  12.167 -0.6539  0.2167 -0.2333
  378TMC3     C 5655   4.017   3.089  11.816  0.2441 -0.2391  0.1349
  378TMC3     O 5656   3.952   3.165  11.748 -0.3769  0.6796 -0.9683
  378TMC3     H 5657   3.751   3.046  11.896 -0.9128  0.6170  0.4456
  378TMC3    H1 5658   4.150   3.022  12.046 -0.2938  1.3889  0.6484
  378TMC3    H2 5659   3.844   2.837  12.251  0.0197  0.7479  0.4045
  378TMC3    C7 5660   4.096   2.871  12.264  0.2231  0.0521 -0.2884
  378TMC3    C8 5661   3.658   2.976  12.143 -0.5390  0.1756 -0.6581
  378TMC3    O1 5662   4.045   2.841  12.370 -0.0381  0.1651 -0.3078
  378TMC3    O2 5663   3.654   2.940  12.259  0.1530  0.1728  0.6406
  379MPD2     C 5664   4.412   1.234  16.351 -0.2342  0.4286 -1.0653
  379MPD2    C1 5665   4.526   1.187  16.285 -0.4120 -0.0870 -0.3361
  379MPD2    C2 5666   4.609   1.115  16.365 -0.3757 -0.0632  0.3845
  379MPD2    C3 5667   4.590   1.091  16.497 -0.0017 -0.9572  0.5813
  379MPD2    C4 5668   4.480   1.140  16.555 -0.0477 -0.4593 -0.0299
  379MPD2    C5 5669   4.398   1.220  16.482 -0.4021  0.3990  0.2037
  379MPD2     H 5670   4.693   1.061  16.322  0.9108  1.2529  1.2649
  379MPD2    H1 5671   4.449   1.126  16.658  0.9101 -3.8672 -0.1950
  379MPD2    H2 5672   4.334   1.292  16.302 -0.7547  0.3680 -0.2924
  379MPD2    H3 5673   4.308   1.256  16.530 -1.2953  0.0618 -1.2278
  379MPD2     N 5674   4.672   1.015  16.580 -0.3283  0.4233 -0.2607
  379MPD2    H5 5675   4.630   1.008  16.672  1.2515 -1.2619  0.3519
  379MPD2    N1 5676   4.537   1.211  16.145 -1.0242 -0.1069 -0.0398
  379MPD2    H7 5677   4.462   1.265  16.103 -0.5502 -0.3624 -1.2232
  380TMC3    C1 5678   4.570   1.154  15.930 -0.2826  0.2474 -0.2147
  380TMC3    C2 5679   4.662   1.126  15.827 -0.0063 -0.0197  0.1206
  380TMC3    C3 5680   4.615   1.108  15.701 -0.0364  0.9414  0.2058
  380TMC3    C4 5681   4.440   1.175  15.906 -0.2022 -0.3483 -0.8998
  380TMC3    C5 5682   4.397   1.171  15.775  0.6092 -0.1399  1.2571
  380TMC3    C6 5683   4.482   1.135  15.669  0.5218 -0.6799  0.2413
  380TMC3     C 5684   4.620   1.147  16.057  0.0304 -1.2371  0.6952
  380TMC3     O 5685   4.714   1.070  16.076  0.9780 -0.0089 -0.0556
  380TMC3     H 5686   0.044   1.112  15.853  0.5810 -0.4384 -2.4740
  380TMC3    H1 5687   4.357   1.178  15.976 -0.3875 -1.0027 -1.0911
  380TMC3    H2 5688   4.458   1.125  15.563  1.6756 -2.0456  0.1046
  380TMC3    C7 5689   4.262   1.193  15.743 -0.9866 -0.5235  0.4549
  380TMC3    C8 5690   4.704   1.148  15.596  0.0838  0.1556  0.2078
  380TMC3    O1 5691   4.204   1.275  15.818 -0.5786 -0.2422 -0.7132
  380TMC3    O2 5692   4.665   1.227  15.514  0.3008  0.0578 -0.1401
  381TMC3    C1 5693   4.272   2.647  16.087  0.6586  0.0275 -0.6160
  381TMC3    C2 5694   4.333   2.776  16.081  0.0351 -0.1791  0.6193
  381TMC3    C3 5695   4.381   2.830  16.198 -0.0425 -0.7961  0.1092
  381TMC3    C4 5696   4.260   2.576  16.201 -0.0271  0.3292  0.4938
  381TMC3    C5 5697   4.296   2.639  16.313  0.4885 -0.8162 -1.0188
  381TMC3    C6 5698   4.364   2.764  16.319  0.5495 -0.5521  0.0040
  381TMC3     C 5699   4.199   2.589  15.976 -0.4547 -0.0408  0.3893
  381TMC3     O 5700   4.205   2.468  15.973 -0.1297 -0.0494 -0.4115
  381TMC3     H 5701   4.366   2.821  15.988 -1.4193  0.2755  0.3208
  381TMC3    H1 5702   4.200   2.486  16.200 -1.6111  1.3808  0.9526
  381TMC3    H2 5703   4.409   2.799  16.411  1.0119 -1.0976 -0.0165
  381TMC3    C7 5704   4.261   2.571  16.434  0.6973 -1.0519 -0.0371
  381TMC3    C8 5705   4.517   2.875  16.175  0.7000  0.4303  1.0654
  381TMC3    O1 5706   4.241   2.452  16.423 -0.2248  0.2641 -0.6965
  381TMC3    O2 5707   4.580   2.809  16.094 -0.0710  0.7675  0.1495
  382MPD2     C 5708   3.482   0.087  17.682 -0.4211  0.0087  1.2661
  382MPD2    C1 5709   3.370   0.029   0.057 -0.1490 -0.0900 -0.4275
  382MPD2    C2 5710   3.348   4.614   0.034  0.0442  0.1191 -0.1446
  382MPD2    C3 5711   3.430   4.543  17.641  0.2502  0.1699  0.4173
  382MPD2    C4 5712   3.533   4.603  17.571 -0.1711  0.7114 -0.4173
  382MPD2    C5 5713   3.561   0.014  17.596  0.3484 -0.3068 -0.1301
  382MPD2     H 5714   3.268   4.565   0.089 -0.8803 -0.4087 -1.9703
  382MPD2    H1 5715   3.601   4.541  17.515  0.6139  1.1940  0.0094
  382MPD2    H2 5716   3.506   0.193  17.684 -0.2023  0.0179 -2.3737
  382MPD2    H3 5717   3.642   0.067  17.546 -0.1318  2.9817  2.6131
  382MPD2     N 5718   3.425   4.406  17.623  0.1640  0.2528  0.3857
  382MPD2    H5 5719   3.481   4.364  17.549  1.3660  0.1681  1.3419
  382MPD2    N1 5720   3.275   0.104   0.136 -0.6845 -0.7801  0.3495
  382MPD2    H7 5721   3.194   0.048   0.162  1.4859 -2.6607  3.0148
  383TMC3    C1 5722   3.338   4.183  17.615 -0.4844  0.7944  0.1203
  383TMC3    C2 5723   3.217   4.116  17.601 -0.9550  0.0949 -0.0625
  383TMC3    C3 5724   3.217   3.991  17.548  0.6959  0.2860  0.6445
  383TMC3    C4 5725   3.452   4.132  17.556 -0.7744 -0.0116 -0.6499
  383TMC3    C5 5726   3.449   4.002  17.519  0.3325  0.1056  0.4307
  383TMC3    C6 5727   3.337   3.925  17.505 -0.1930  0.1052  0.3416
  383TMC3     C 5728   3.336   4.320  17.676 -0.0420 -0.0131 -0.2429
  383TMC3     O 5729   3.245   4.334   0.065  0.1052  0.4315 -0.1883
  383TMC3     H 5730   3.124   4.166  17.623  0.8334  2.7031  1.6036
  383TMC3    H1 5731   3.545   4.183  17.578 -0.6138 -1.1125  1.1996
  383TMC3    H2 5732   3.338   3.822  17.473  3.8491 -0.3242  1.8837
  383TMC3    C7 5733   3.571   3.938  17.469 -0.2042 -0.4935  0.0953
  383TMC3    C8 5734   3.089   3.967  17.467 -0.7021 -0.0924 -0.4713
  383TMC3    O1 5735   3.562   3.817  17.454 -0.2796 -0.0468  0.4046
  383TMC3    O2 5736   3.000   4.050  17.469  0.0597 -1.0593 -0.1155
  384MPD2     C 5737   0.116   0.783  11.585 -0.5345  0.3453  0.4855
  384MPD2    C1 5738   0.199   0.771  11.691  0.4172  0.2547 -0.0905
  384MPD2    C2 5739   0.282   0.662  11.699  0.1040  1.1900 -0.9107
  384MPD2    C3 5740   0.288   0.561  11.615  0.4818  0.3042  0.0035
  384MPD2    C4 5741   0.192   0.568  11.515 -0.7657  0.5500  0.3919
  384MPD2    C5 5742   0.111   0.680  11.498 -0.0772  0.3860  0.1136
  384MPD2     H 5743   0.356   0.647  11.777 -0.4912  2.2580 -0.1422
  384MPD2    H1 5744   0.181   0.487  11.443 -0.1204  1.2330 -0.4708
  384MPD2    H2 5745   0.058   0.869  11.554 -3.2567 -1.4785  0.4641
  384MPD2    H3 5746   0.040   0.688  11.416  0.6423  0.6385 -0.4741
  384MPD2     N 5747   0.382   0.453  11.639  0.3661 -0.0398  0.4298
  384MPD2    H5 5748   0.450   0.473  11.712 -0.2574  0.3538  0.9095
  384MPD2    N1 5749   0.192   0.881  11.782  0.1265  0.3137  0.5802
  384MPD2    H7 5750   0.121   0.951  11.762  2.0099  1.6779 -1.4220
  385TMC3    C1 5751   0.476   0.244  11.628  0.0213  0.9942  0.1206
  385TMC3    C2 5752   0.419   0.129  11.662  0.7118 -0.0520 -1.4862
  385TMC3    C3 5753   0.459   0.082  11.784  0.1694 -0.1422 -0.3905
  385TMC3    C4 5754   0.584   0.304  11.693 -0.2533 -0.6134  0.7330
  385TMC3    C5 5755   0.613   0.260  11.818 -0.9374  0.4557 -0.5728
  385TMC3    C6 5756   0.552   0.148  11.865  0.4335  0.3625 -0.4136
  385TMC3     C 5757   0.386   0.340  11.566 -0.6356  0.5632  0.3358
  385TMC3     O 5758   0.306   0.294  11.486 -0.2356 -0.1409  0.2571
  385TMC3     H 5759   0.344   0.089  11.595 -0.6015 -0.6934  0.3711
  385TMC3    H1 5760   0.640   0.388  11.652 -0.7010  0.3382  2.0851
  385TMC3    H2 5761   0.584   0.105  11.960  1.1255  0.7287 -0.4804
  385TMC3    C7 5762   0.612   0.382  11.902 -0.0947 -0.3588  0.3752
  385TMC3    C8 5763   0.412   4.670  11.830  0.3455  0.7862  0.0288
  385TMC3    O1 5764   0.593   0.486  11.847  0.2284  0.1214 -0.6190
  385TMC3    O2 5765   0.473   4.631  11.925  0.3050 -0.2976  0.5065
  386TMC3    C1 5766   0.376   2.976  11.583  0.0949  0.1823  0.2212
  386TMC3    C2 5767   0.371   2.884  11.480  0.9826  0.3726  0.0052
  386TMC3    C3 5768   0.313   2.928  11.365 -0.7066 -0.2838 -0.1044
  386TMC3    C4 5769   0.333   3.099  11.570 -0.1670 -0.5986  0.8285
  386TMC3    C5 5770   0.264   3.136  11.459  1.0336  0.3560 -0.3035
  386TMC3    C6 5771   0.264   3.058  11.352  0.0348 -0.8319 -0.5591
  386TMC3     C 5772   0.495   2.970  11.664 -0.0906 -0.1584 -0.0304
  386TMC3     O 5773   0.528   3.074  11.721 -0.3928  0.4919  0.5481
  386TMC3     H 5774   0.409   2.785  11.500  0.3632  0.4021  1.3155
  386TMC3    H1 5775   0.340   3.170  11.652 -0.4004 -0.0950  0.4089
  386TMC3    H2 5776   0.230   3.094  11.255 -0.9038  1.5908  0.6686
  386TMC3    C7 5777   0.167   3.236  11.462 -0.4068 -0.0575 -0.1461
  386TMC3    C8 5778   0.313   2.848  11.238 -0.3848 -0.2425 -0.2072
  386TMC3    O1 5779   0.088   3.221  11.557 -0.7321 -0.5590 -0.2378
  386TMC3    O2 5780   0.260   2.898  11.145 -0.6002 -0.0561 -0.4256
  387MPD2     C 5781   2.928   2.392   9.571  0.2041 -0.1535 -0.0694
  387MPD2    C1 5782   2.980   2.411   9.699 -0.2471  0.1095  0.5891
  387MPD2    C2 5783   2.920   2.357   9.804  0.2476  0.0786  0.4108
  387MPD2    C3 5784   2.805   2.286   9.793 -0.6317  0.7058 -0.1355
  387MPD2    C4 5785   2.746   2.264   9.668  0.5372 -0.8114 -0.2415
  387MPD2    C5 5786   2.812   2.322   9.559 -0.2045 -0.4728 -0.2605
  387MPD2     H 5787   2.965   2.352   9.902 -1.7952  1.2414  1.4127
  387MPD2    H1 5788   2.660   2.201   9.649 -1.2488  1.4995  0.1422
  387MPD2    H2 5789   2.970   2.433   9.480 -1.6180  1.8632 -0.0052
  387MPD2    H3 5790   2.771   2.309   9.460 -0.9874 -2.0481  0.2774
  387MPD2     N 5791   2.760   2.231   9.913  0.0080 -0.4275  0.6083
  387MPD2    H5 5792   2.824   2.243   9.991  0.5138  0.7316  0.0078
  387MPD2    N1 5793   3.096   2.481   9.729  0.2485 -0.2237  0.8833
  387MPD2    H7 5794   3.116   2.491   9.828  1.0102  2.6909  0.4202
  388TMC3    C1 5795   3.295   2.588   9.713 -0.2329 -0.2790  0.1234
  388TMC3    C2 5796   3.364   2.696   9.673  0.0992 -1.0988  0.0067
  388TMC3    C3 5797   3.472   2.731   9.744 -0.0313 -0.7174  0.2370
  388TMC3    C4 5798   3.337   2.505   9.809 -0.6918  0.4598  0.1020
  388TMC3    C5 5799   3.448   2.539   9.878 -0.0695  0.1670 -0.1048
  388TMC3    C6 5800   3.512   2.661   9.856  0.0836  0.0837  0.3595
  388TMC3     C 5801   3.182   2.543   9.642  0.1728  0.2711 -0.4174
  388TMC3     O 5802   3.183   2.552   9.522  0.6829  0.9868  0.0480
  388TMC3     H 5803   3.328   2.759   9.592  0.9808 -2.1240 -1.1854
  388TMC3    H1 5804   3.293   2.409   9.836 -0.3233  0.4179  0.5524
  388TMC3    H2 5805   3.598   2.691   9.915 -0.4986  0.3304  1.0926
  388TMC3    C7 5806   3.470   2.479  10.009 -0.0665 -0.0145 -0.7042
  388TMC3    C8 5807   3.565   2.824   9.692  0.9430  0.0249 -0.3131
  388TMC3    O1 5808   3.579   2.452  10.050 -0.2689  0.3099  0.9668
  388TMC3    O2 5809   3.636   2.869   9.779 -0.0916  0.2173  0.0718
  389MPD2     C 5810   2.303   1.077  11.336  0.3636 -0.0390  0.2768
  389MPD2    C1 5811   2.229   0.967  11.298 -0.1537 -1.0937 -0.1988
  389MPD2    C2 5812   2.153   0.906  11.399 -0.0767 -0.6112 -0.4341
  389MPD2    C3 5813   2.154   0.964  11.529 -0.6686 -0.4971 -0.9298
  389MPD2    C4 5814   2.236   1.069  11.557  0.1975  0.1103  0.1796
  389MPD2    C5 5815   2.317   1.124  11.465  0.7506 -0.2759  0.3862
  389MPD2     H 5816   2.077   0.832  11.375  0.4999 -2.5676  3.6247
  389MPD2    H1 5817   2.222   1.124  11.650  1.3521  3.1714 -1.4522
  389MPD2    H2 5818   2.369   1.129  11.268 -0.7614 -2.0823 -2.3472
  389MPD2    H3 5819   2.391   1.195  11.500 -0.2416  0.7398  0.4351
  389MPD2     N 5820   2.070   0.919  11.628  1.4719  0.0500  0.0218
  389MPD2    H5 5821   2.080   0.974  11.713 -0.3342  0.3826  0.0186
  389MPD2    N1 5822   2.216   0.940  11.158 -0.0410  0.1634  0.1496
  389MPD2    H7 5823   2.258   1.006  11.094  0.9474  0.4007  1.0425
  390TMC3    C1 5824   1.930   0.787  11.744 -0.3941 -0.8354  0.5072
  390TMC3    C2 5825   1.883   0.661  11.777 -0.2721 -0.6444  0.5718
  390TMC3    C3 5826   1.793   0.645  11.882  0.2531 -0.2100 -0.6415
  390TMC3    C4 5827   1.859   0.892  11.790  0.4263  0.2540  0.1557
  390TMC3    C5 5828   1.749   0.867  11.875 -0.2643  0.1672  0.4007
  390TMC3    C6 5829   1.731   0.746  11.936  0.1686 -0.2822 -0.3721
  390TMC3     C 5830   2.000   0.800  11.624  0.0033  0.8461  0.0636
  390TMC3     O 5831   2.005   0.705  11.552  0.4222 -0.5036 -0.3540
  390TMC3     H 5832   1.911   0.569  11.727 -1.8652 -0.8186  0.0169
  390TMC3    H1 5833   1.873   0.993  11.754  4.0841  1.0849  3.9147
  390TMC3    H2 5834   1.659   0.741  12.017  0.1798 -2.1352 -0.4866
  390TMC3    C7 5835   1.630   0.917  11.815  0.3292 -0.1832 -0.6798
  390TMC3    C8 5836   1.731   0.521  11.897  0.5320 -0.2657 -0.1624
  390TMC3    O1 5837   1.637   0.964  11.701 -0.4106  0.7039  0.1878
  390TMC3    O2 5838   1.722   0.443  11.804 -0.6099  0.6531  0.2254
  391MPD2     C 5839   1.410   2.681  11.354  0.3054  0.4651 -0.3529
  391MPD2    C1 5840   1.536   2.675  11.308  0.0525  0.5464 -0.0929
  391MPD2    C2 5841   1.549   2.673  11.167  0.8707 -0.3582 -0.2789
  391MPD2    C3 5842   1.438   2.668  11.084  0.1488 -0.5205 -0.0709
  391MPD2    C4 5843   1.313   2.681  11.134 -0.5450  0.5570  0.2084
  391MPD2    C5 5844   1.298   2.680  11.270  0.0526 -0.5478  0.8650
  391MPD2     H 5845   1.649   2.689  11.129 -0.2991  0.6626 -2.9304
  391MPD2    H1 5846   1.226   2.683  11.069 -1.2497 -1.5276  1.1113
  391MPD2    H2 5847   1.394   2.675  11.462  0.6082  0.9811 -0.2825
  391MPD2    H3 5848   1.203   2.683  11.322  0.0752  1.4408  0.8035
  391MPD2     N 5849   1.465   2.667  10.946  0.1794 -0.5937 -0.7767
  391MPD2    H5 5850   1.565   2.658  10.928  0.1126 -0.2445 -1.3362
  391MPD2    N1 5851   1.639   2.684  11.404  0.2873 -0.4901  0.2905
  391MPD2    H7 5852   1.619   2.714  11.499  0.2878 -1.3091  0.5474
  392TMC3    C1 5853   1.440   2.655  10.721  0.5761 -0.2376  0.3833
  392TMC3    C2 5854   1.371   2.617  10.614 -0.2934 -0.1842 -0.0890
  392TMC3    C3 5855   1.405   2.673  10.495 -0.3641  0.1312 -0.3242
  392TMC3    C4 5856   1.554   2.741  10.708 -0.1227 -0.2502  0.2036
  392TMC3    C5 5857   1.594   2.780  10.582  0.5335  0.4994  0.3612
  392TMC3    C6 5858   1.517   2.753  10.474  0.6638 -0.1405  0.0866
  392TMC3     C 5859   1.371   2.642  10.848  0.3247 -0.1145 -0.0653
  392TMC3     O 5860   1.252   2.608  10.855  0.1615 -0.3155  0.1205
  392TMC3     H 5861   1.271   2.578  10.631 -0.4657  1.0941  1.9030
  392TMC3    H1 5862   1.615   2.772  10.792  2.0636 -0.4361 -1.2984
  392TMC3    H2 5863   1.550   2.788  10.377 -0.5302  1.7198  0.3428
  392TMC3    C7 5864   1.683   2.892  10.581  0.3466 -0.3137  0.2918
  392TMC3    C8 5865   1.323   2.637  10.375  0.9655  0.1467 -0.1113
  392TMC3    O1 5866   1.679   2.962  10.682 -0.2363 -0.0917  0.3726
  392TMC3    O2 5867   1.261   2.530  10.382  1.2840 -0.4021  0.0140
  393TMC3    C1 5868   0.317   4.575  10.318  0.1008  0.1442 -0.7753
  393TMC3    C2 5869   0.206   4.501  10.349  0.0356 -0.2086 -0.5629
  393TMC3    C3 5870   0.215   4.368  10.329  0.2838  0.1106 -0.7839
  393TMC3    C4 5871   0.432   4.520  10.269 -1.0347  0.5538  0.9897
  393TMC3    C5 5872   0.433   4.386  10.257  0.4485  0.0559 -0.5901
  393TMC3    C6 5873   0.326   4.307  10.286 -0.0551 -0.0199 -0.3979
  393TMC3     C 5874   0.310   4.718  10.350  0.1919 -0.2445 -0.1033
  393TMC3     O 5875   0.207   0.055  10.355 -0.4362 -0.3004  0.0586
  393TMC3     H 5876   0.113   4.552  10.373  0.2591  0.0707 -0.2925
  393TMC3    H1 5877   0.508   4.582  10.224 -0.9194  1.0135  1.8149
  393TMC3    H2 5878   0.324   4.201  10.268 -2.3780 -0.3142  1.6019
  393TMC3    C7 5879   0.546   4.309  10.202 -0.4680 -0.2755 -0.0175
  393TMC3    C8 5880   0.089   4.293  10.353  0.0504 -0.0435 -0.3941
  393TMC3    O1 5881   0.524   4.208  10.136 -0.0124 -0.2780  0.5558
  393TMC3    O2 5882   0.013   4.352  10.428  0.0892 -0.0399  0.1602
  394TMC3    C1 5883   2.149   0.832  10.962 -0.3202  0.5890  0.6684
  394TMC3    C2 5884   2.028   0.780  10.922  0.0636  0.5000 -0.1452
  394TMC3    C3 5885   1.963   0.841  10.817  0.3742 -1.4349  0.9132
  394TMC3    C4 5886   2.201   0.930  10.890 -0.4423  0.0562 -0.7288
  394TMC3    C5 5887   2.130   0.993  10.797  0.6642 -0.1310 -0.2693
  394TMC3    C6 5888   2.005   0.959  10.762  0.1917  0.0867  0.5684
  394TMC3     C 5889   2.162   0.825  11.107 -0.3475 -0.5338 -0.2591
  394TMC3     O 5890   2.094   0.739  11.162 -0.1611 -0.2102  0.4166
  394TMC3     H 5891   1.991   0.686  10.961 -1.4659  1.7144  1.3167
  394TMC3    H1 5892   2.292   0.979  10.922  0.2725 -0.4919 -1.9214
  394TMC3    H2 5893   1.959   0.989  10.669  0.9381  0.3820  0.2945
  394TMC3    C7 5894   2.211   1.071  10.699 -0.5191 -0.5389  0.4081
  394TMC3    C8 5895   1.898   0.763  10.715  0.0845  0.5251 -0.1781
  394TMC3    O1 5896   2.147   1.162  10.642 -0.3178 -0.0739 -0.5221
  394TMC3    O2 5897   1.813   0.816  10.644  0.2508 -0.1500 -0.0783
  395TMC3    C1 5898   2.196   3.175  14.985 -0.3510  0.0752 -0.3790
  395TMC3    C2 5899   2.087   3.212  14.907  0.2794  0.1008  0.4705
  395TMC3    C3 5900   2.065   3.345  14.887 -0.0627 -0.9271  0.5895
  395TMC3    C4 5901   2.278   3.272  15.029  0.2750  0.2932  1.2767
  395TMC3    C5 5902   2.242   3.399  15.033 -0.0354  0.5510 -0.5217
  395TMC3    C6 5903   2.141   3.440  14.949  0.3632 -0.7323 -0.1890
  395TMC3     C 5904   2.164   3.096  15.100  0.1506  0.5724  0.4198
  395TMC3     O 5905   2.249   3.100  15.189 -0.5054  0.0061  0.3870
  395TMC3     H 5906   2.022   3.134  14.868  1.9222 -1.8454  1.6089
  395TMC3    H1 5907   2.363   3.247  15.091  0.6097 -2.9852 -0.5051
  395TMC3    H2 5908   2.114   3.545  14.946  0.1484 -0.7458  0.9647
  395TMC3    C7 5909   2.246   3.477  15.159 -0.3490 -0.3487 -0.5512
  395TMC3    C8 5910   1.942   3.402  14.830  0.0848 -0.2863  0.2636
  395TMC3    O1 5911   2.209   3.594  15.145 -1.1187 -0.4077  0.0171
  395TMC3    O2 5912   1.902   3.517  14.842 -0.3008  0.0660  0.1016
  396MPD2     C 5913   1.867   0.033  17.552  0.2370  0.2336 -0.7777
  396MPD2    C1 5914   2.000   0.027  17.543 -0.0826 -0.8334 -0.4638
  396MPD2    C2 5915   2.069   0.133  17.485 -0.6102  0.5537  0.1819
  396MPD2    C3 5916   2.001   0.243  17.435 -0.0949  0.0131 -0.0830
  396MPD2    C4 5917   1.862   0.247  17.448 -0.5320 -0.1528 -0.0470
  396MPD2    C5 5918   1.793   0.140  17.498 -0.9332  0.7927 -0.7142
  396MPD2     H 5919   2.176   0.129  17.471 -0.8410  0.0376 -1.4518
  396MPD2    H1 5920   1.804   0.327  17.402  0.7108 -0.0392 -1.4170
  396MPD2    H2 5921   1.820   4.663  17.583  1.1160 -0.0990 -0.4654
  396MPD2    H3 5922   1.685   0.131  17.497 -0.8503 -0.4790  1.1591
  396MPD2     N 5923   2.084   0.347  17.373  0.2021  0.1084 -0.3193
  396MPD2    H5 5924   2.185   0.344  17.385  0.1585  0.0601  0.0156
  396MPD2    N1 5925   2.067   4.624  17.573 -0.9072  0.1016  0.1774
  396MPD2    H7 5926   2.008   4.555  17.618 -0.0682 -1.3944 -1.0535
  397TMC3    C1 5927   2.232   4.454  17.572 -0.9720  0.2295  0.5532
  397TMC3    C2 5928   2.276   4.400  17.454 -0.2319  1.0202 -0.4951
  397TMC3    C3 5929   2.207   4.299  17.391  0.0834 -0.1129 -0.1852
  397TMC3    C4 5930   2.135   4.386  17.635 -0.3579  0.5907 -0.3179
  397TMC3    C5 5931   2.075   4.272  17.584  0.0283  0.1949 -0.4024
  397TMC3    C6 5932   2.105   4.228  17.460  0.3690 -0.3305  0.1134
  397TMC3     C 5933   2.203   4.594  17.550  0.8134 -0.0174 -0.0142
  397TMC3     O 5934   2.281   4.664  17.491 -0.1949  0.3813 -0.0274
  397TMC3     H 5935   2.337   4.469  17.397 -1.8153  3.5070  0.8100
  397TMC3    H1 5936   2.099   4.432   0.036  0.6019  1.0726 -0.1839
  397TMC3    H2 5937   2.036   4.159  17.414 -1.1146  1.4464 -0.3176
  397TMC3    C7 5938   1.970   4.194  17.657 -0.5974 -0.3599  0.4658
  397TMC3    C8 5939   2.163   4.334  17.259  0.7000 -0.5339 -0.0503
  397TMC3    O1 5940   1.910   4.113  17.587 -0.1869  0.5586  0.1415
  397TMC3    O2 5941   2.042   4.328  17.241  0.2368 -0.1516  0.1689
  398MPD2     C 5942   0.087   1.128   0.117 -0.3700  0.1650  0.5748
  398MPD2    C1 5943   0.116   0.995   0.154 -0.0679  0.3157 -0.2347
  398MPD2    C2 5944   0.233   0.973   0.228  0.2812 -0.5122 -0.3415
  398MPD2    C3 5945   0.330   1.073   0.254  0.5271  0.5958  0.1494
  398MPD2    C4 5946   0.306   1.198   0.202 -0.2662 -0.3169 -0.0580
  398MPD2    C5 5947   0.185   1.220   0.143  0.6043 -1.0853 -0.4990
  398MPD2     H 5948   0.246   0.871   0.262 -0.0442 -0.6698 -0.6915
  398MPD2    H1 5949   0.382   1.274   0.213 -0.9323  0.3855 -0.3222
  398MPD2    H2 5950   4.714   1.149   0.069 -1.4732 -2.6056  1.5982
  398MPD2    H3 5951   0.167   1.320   0.103 -1.0335 -0.9293  0.6489
  398MPD2     N 5952   0.440   1.045   0.331  0.3759 -0.5814 -0.1260
  398MPD2    H5 5953   0.455   0.946   0.350  2.8563 -0.4030 -1.1458
  398MPD2    N1 5954   0.033   0.883   0.133  0.2776 -0.6147  1.1307
  398MPD2    H7 5955   0.069   0.795   0.170  1.0248 -0.5903  0.4697
  399TMC3    C1 5956   4.582   0.748   0.063 -0.2969 -0.1769 -0.2645
  399TMC3    C2 5957   4.681   0.653   0.053  0.1560 -0.1807 -0.2486
  399TMC3    C3 5958   4.660   0.531   0.108  0.0107 -0.4059  0.7052
  399TMC3    C4 5959   4.465   0.722   0.138 -0.1708 -0.2929 -0.4148
  399TMC3    C5 5960   4.454   0.594   0.191 -0.0704  0.2545 -0.5326
  399TMC3    C6 5961   4.546   0.498   0.178  0.0400 -1.2699 -0.4788
  399TMC3     C 5962   4.629   0.881   0.074 -1.1193  0.1485  0.2320
  399TMC3     O 5963   4.543   0.966   0.051  0.6231  0.3929  0.1588
  399TMC3     H 5964   0.045   0.679  17.684  0.7129  1.7253  1.3529
  399TMC3    H1 5965   4.382   0.791   0.134  1.6854  1.9394 -0.2665
  399TMC3    H2 5966   4.534   0.401   0.225 -3.0742 -1.3731 -1.5441
  399TMC3    C7 5967   4.328   0.540   0.237 -0.8697 -0.1440 -1.1026
  399TMC3    C8 5968   0.037   0.437   0.074 -0.2167  0.0479  0.6863
  399TMC3    O1 5969   4.315   0.419   0.224  0.4683  0.5696  0.0852
  399TMC3    O2 5970   0.139   0.479   0.019  0.2639 -0.0168 -0.6702
  400TMC3    C1 5971   3.287   3.872  17.025 -0.7653  0.2580  0.3576
  400TMC3    C2 5972   3.173   3.876  16.950  0.9317  0.2686  0.3649
  400TMC3    C3 5973   3.091   3.991  16.957  0.0636 -0.1928 -0.5755
  400TMC3    C4 5974   3.312   3.972  17.117  0.1435 -0.0697 -0.0524
  400TMC3    C5 5975   3.225   4.080  17.129 -0.4530  0.5338 -0.5714
  400TMC3    C6 5976   3.121   4.094  17.039  0.2385  0.1536 -0.1341
  400TMC3     C 5977   3.381   3.755  17.011  0.2027  0.6728  0.1271
  400TMC3     O 5978   3.345   3.663  16.936  0.7916 -0.1112 -0.0727
  400TMC3     H 5979   3.148   3.804  16.872  2.3224 -1.4863  1.5533
  400TMC3    H1 5980   3.397   3.965  17.184 -1.3967 -0.4649  1.8594
  400TMC3    H2 5981   3.074   4.192  17.034 -0.8415 -0.3239  0.6986
  400TMC3    C7 5982   3.292   4.204  17.157  0.1300 -0.1667 -0.1287
  400TMC3    C8 5983   2.983   4.004  16.859  0.4781 -0.1320 -0.0809
  400TMC3    O1 5984   3.418   4.197  17.159 -0.0522 -0.3021  0.4508
  400TMC3    O2 5985   2.958   4.119  16.836 -0.2576  0.1820 -0.0447
  401MPD2     C 5986   0.458   2.569   0.580  0.3522  0.6689 -0.2882
  401MPD2    C1 5987   0.557   2.470   0.583  0.3358  0.2869  0.1229
  401MPD2    C2 5988   0.520   2.348   0.635  0.2783  0.6148 -0.1536
  401MPD2    C3 5989   0.397   2.321   0.681 -0.3544 -0.2113 -0.1216
  401MPD2    C4 5990   0.307   2.427   0.680 -0.4069 -0.6097 -0.6686
  401MPD2    C5 5991   0.333   2.549   0.625 -0.4428  0.7338  0.3261
  401MPD2     H 5992   0.594   2.269   0.631  0.1404  0.3807  1.9574
  401MPD2    H1 5993   0.206   2.403   0.709  0.4742 -2.8435  0.4910
  401MPD2    H2 5994   0.471   2.667   0.535  1.9031  0.7923  0.4191
  401MPD2    H3 5995   0.252   2.617   0.604 -1.9215 -0.5989  1.7109
  401MPD2     N 5996   0.376   2.192   0.744  0.0909 -0.1602 -0.1036
  401MPD2    H5 5997   0.458   2.132   0.745  0.1354 -0.1173 -1.2925
  401MPD2    N1 5998   0.692   2.485   0.538  0.0376  0.0166  0.1814
  401MPD2    H7 5999   0.758   2.409   0.549 -1.1164 -1.2184 -1.4342
  402TMC3    C1 6000   0.297   2.034   0.902 -0.1431  0.1014  0.1185
  402TMC3    C2 6001   0.285   2.037   1.041  0.5290 -0.3901  0.3346
  402TMC3    C3 6002   0.331   1.922   1.111  0.8588  1.2163 -0.2254
  402TMC3    C4 6003   0.345   1.931   0.830  1.0900 -0.5059 -0.1124
  402TMC3    C5 6004   0.401   1.826   0.903  0.9939 -0.3650 -0.3477
  402TMC3    C6 6005   0.391   1.823   1.042 -0.1536  0.0999  0.1219
  402TMC3     C 6006   0.273   2.158   0.828 -0.0441 -0.6417  0.1134
  402TMC3     O 6007   0.177   2.234   0.855  0.4476 -0.0038 -0.0879
  402TMC3     H 6008   0.266   2.131   1.091 -1.5128 -1.3720  1.4041
  402TMC3    H1 6009   0.357   1.933   0.722 -0.9501  1.6187 -0.2878
  402TMC3    H2 6010   0.427   1.739   1.100 -0.5405  0.5164  0.9627
  402TMC3    C7 6011   0.449   1.711   0.830 -0.0075 -0.2819 -0.0284
  402TMC3    C8 6012   0.365   1.930   1.252  0.1758  0.2860  0.1393
  402TMC3    O1 6013   0.387   1.695   0.722 -0.5368 -0.4894 -0.3549
  402TMC3    O2 6014   0.448   1.849   1.293  0.1279  0.0937 -0.5493
  403MPD2     C 6015   4.186   1.125  13.337  0.6911 -0.7115  0.0275
  403MPD2    C1 6016   4.275   1.020  13.361 -0.2877 -0.4875 -0.8150
  403MPD2    C2 6017   4.381   1.044  13.443 -0.1631  0.1969 -0.4986
  403MPD2    C3 6018   4.407   1.170  13.501 -0.2471  0.3518 -0.3441
  403MPD2    C4 6019   4.327   1.271  13.465 -0.3256 -0.1424  0.5183
  403MPD2    C5 6020   4.212   1.249  13.394  0.2064 -0.7928 -0.6629
  403MPD2     H 6021   4.448   0.962  13.462 -0.9430 -0.2254  0.4502
  403MPD2    H1 6022   4.337   1.376  13.489  0.8213 -0.0260 -0.5117
  403MPD2    H2 6023   4.092   1.113  13.283  0.4558  1.4482 -0.0366
  403MPD2    H3 6024   4.149   1.333  13.367 -0.2388 -0.9237 -0.0306
  403MPD2     N 6025   4.521   1.184  13.572  0.5340  0.2239 -0.4770
  403MPD2    H5 6026   4.573   1.099  13.590 -0.1753  0.0332  0.6586
  403MPD2    N1 6027   4.274   0.895  13.308  0.1442 -0.1244  0.3426
  403MPD2    H7 6028   4.351   0.838  13.340 -0.2048  0.0258  1.4583
  404TMC3    C1 6029   4.251   0.728  13.149  0.6053  0.1087 -0.6819
  404TMC3    C2 6030   4.299   0.641  13.247 -0.3033  0.4617  0.0329
  404TMC3    C3 6031   4.398   0.544  13.219  0.1446  0.0831  0.0536
  404TMC3    C4 6032   4.315   0.723  13.026  1.0736 -0.3623 -0.5008
  404TMC3    C5 6033   4.406   0.623  12.996  0.0966  0.2424  0.0196
  404TMC3    C6 6034   4.448   0.531  13.090 -0.0649  0.3526  0.7531
  404TMC3     C 6035   4.204   0.861  13.191  0.1404 -0.6529  0.3066
  404TMC3     O 6036   4.139   0.925  13.113 -0.3792 -0.2064 -0.4625
  404TMC3     H 6037   4.250   0.654  13.343 -0.9359 -1.6016  0.0070
  404TMC3    H1 6038   4.282   0.802  12.959  0.2866  0.9028  1.3710
  404TMC3    H2 6039   4.519   0.454  13.062  0.2453  0.4211  1.3523
  404TMC3    C7 6040   4.463   0.612  12.865  0.6665 -0.7741  0.7453
  404TMC3    C8 6041   4.445   0.445  13.315  0.6376  0.1825  0.3495
  404TMC3    O1 6042   4.578   0.566  12.865 -0.5205  0.5104  0.4833
  404TMC3    O2 6043   4.544   0.380  13.275  0.0844 -0.0296  0.4411
  405MPD2     C 6044   0.149   1.524  14.316 -0.0461 -0.9071  0.2747
  405MPD2    C1 6045   0.112   1.397  14.291  0.4767 -0.3698  0.5269
  405MPD2    C2 6046   0.035   1.375  14.177  0.2625  0.2857 -0.0674
  405MPD2    C3 6047   0.014   1.474  14.086  0.5770 -0.7840  0.0464
  405MPD2    C4 6048   0.084   1.598  14.096 -0.3529  0.3937 -0.7146
  405MPD2    C5 6049   0.148   1.618  14.214  0.0785  0.5814 -0.4894
  405MPD2     H 6050   4.700   1.285  14.158 -0.8424  0.3522  2.8870
  405MPD2    H1 6051   0.068   1.679  14.026 -0.3510 -0.0588 -1.2373
  405MPD2    H2 6052   0.200   1.541  14.410  0.7913  2.6144 -0.8296
  405MPD2    H3 6053   0.187   1.717  14.234  2.8321 -0.7881  1.0156
  405MPD2     N 6054   4.633   1.442  13.993 -0.9498 -0.1516  0.0167
  405MPD2    H5 6055   4.579   1.358  14.011 -1.8174  0.3440 -0.2880
  405MPD2    N1 6056   0.117   1.296  14.392  0.0746  0.0511  0.1799
  405MPD2    H7 6057   0.166   1.317  14.479 -0.0989  2.0737 -0.1967
  406TMC3    C1 6058   4.247   1.651  13.874 -1.0125 -0.7250 -0.6931
  406TMC3    C2 6059   4.166   1.544  13.911 -0.2902  0.5561  0.1498
  406TMC3    C3 6060   4.232   1.426  13.931  0.2021 -0.7929  0.3040
  406TMC3    C4 6061   4.379   1.642  13.850 -0.1227 -0.5898  0.5317
  406TMC3    C5 6062   4.442   1.528  13.882 -0.3731  0.0635 -0.2080
  406TMC3    C6 6063   4.373   1.417  13.928  0.5378 -0.1656  0.0747
  406TMC3     C 6064   4.206   1.784  13.906  0.9066 -0.5552 -0.4228
  406TMC3     O 6065   4.285   1.868  13.869 -0.1931  0.2777  0.6976
  406TMC3     H 6066   4.057   1.541  13.911 -0.2553 -1.3313  1.3053
  406TMC3    H1 6067   4.445   1.717  13.808 -1.9802 -1.2402 -3.5340
  406TMC3    H2 6068   4.423   1.321  13.937  0.3219 -0.3121 -0.3052
  406TMC3    C7 6069   4.587   1.534  13.901  0.5873 -0.6472 -0.1535
  406TMC3    C8 6070   4.172   1.312  13.991  0.7260 -0.6104 -0.3521
  406TMC3    O1 6071   4.647   1.628  13.843 -0.4213  0.0932  0.3725
  406TMC3    O2 6072   4.060   1.279  13.962  0.1753  0.2600  0.3017
  407MPD2     C 6073   2.176   2.195   9.527  0.0032  0.3598 -0.6094
  407MPD2    C1 6074   2.281   2.196   9.610 -0.5617 -0.8909  0.8008
  407MPD2    C2 6075   2.315   2.311   9.680 -0.3292 -0.2020  0.4730
  407MPD2    C3 6076   2.228   2.423   9.663 -0.2349  0.2248  0.3402
  407MPD2    C4 6077   2.123   2.414   9.577 -0.1202 -0.5734 -0.1446
  407MPD2    C5 6078   2.096   2.303   9.502 -0.2457 -0.1034 -0.8262
  407MPD2     H 6079   2.396   2.317   9.752 -0.4795 -1.9913  0.7909
  407MPD2    H1 6080   2.065   2.503   9.557 -0.4111 -1.2951 -2.5401
  407MPD2    H2 6081   2.146   2.105   9.474  1.0237 -0.7475  0.6916
  407MPD2    H3 6082   2.018   2.295   9.426 -1.8821 -1.8511  1.0338
  407MPD2     N 6083   2.240   2.545   9.735  0.3353 -0.1553  0.7349
  407MPD2    H5 6084   2.167   2.614   9.720 -0.1790 -0.5274  1.5136
  407MPD2    N1 6085   2.353   2.074   9.639 -0.3472 -0.2249 -0.8300
  407MPD2    H7 6086   2.399   2.071   9.730 -1.6500  2.6234 -0.0378
  408TMC3    C1 6087   2.436   1.851   9.620  0.3505 -0.1536  0.2099
  408TMC3    C2 6088   2.561   1.887   9.653  0.2014  0.4048 -0.3697
  408TMC3    C3 6089   2.636   1.786   9.701 -0.7512 -0.1493  0.5474
  408TMC3    C4 6090   2.388   1.726   9.634  0.1499  0.5375  0.3633
  408TMC3    C5 6091   2.466   1.631   9.698  0.4569  0.2719  0.5316
  408TMC3    C6 6092   2.598   1.660   9.728  0.0239 -0.5075 -0.3150
  408TMC3     C 6093   2.353   1.954   9.570  0.6839 -0.5113 -0.1062
  408TMC3     O 6094   2.283   1.927   9.475  0.0225  0.0758  0.0025
  408TMC3     H 6095   2.597   1.989   9.653 -1.1780  0.8973 -1.6799
  408TMC3    H1 6096   2.282   1.719   9.612  0.1107 -0.5198  0.8671
  408TMC3    H2 6097   2.667   1.591   9.775  1.3299  2.5375  2.2321
  408TMC3    C7 6098   2.400   1.513   9.725 -1.4509  0.0690  0.3508
  408TMC3    C8 6099   2.774   1.818   9.746  0.2027  0.2208  0.6154
  408TMC3    O1 6100   2.290   1.509   9.666  0.3962 -0.3028  0.3997
  408TMC3    O2 6101   2.830   1.728   9.807 -0.5027 -0.0210  0.0383
  409MPD2     C 6102   1.867   3.590  16.868  0.6007  0.3796 -0.2980
  409MPD2    C1 6103   1.938   3.600  16.986 -0.8611  0.2388  0.5430
  409MPD2    C2 6104   2.038   3.690  17.003  0.1613 -0.6225 -0.5061
  409MPD2    C3 6105   2.080   3.773  16.899  0.4261  0.3498 -0.3457
  409MPD2    C4 6106   2.015   3.755  16.776  0.3529  0.5587 -0.2987
  409MPD2    C5 6107   1.913   3.666  16.762 -0.4680 -0.0327  0.2518
  409MPD2     H 6108   2.096   3.684  17.094 -1.0520  1.8262  0.3955
  409MPD2    H1 6109   2.055   3.802  16.686  2.0055 -0.1765  0.0607
  409MPD2    H2 6110   1.791   3.516  16.846  0.7052  0.2480 -0.2143
  409MPD2    H3 6111   1.858   3.647  16.671 -2.4476 -0.5492  1.5564
  409MPD2     N 6112   2.192   3.855  16.918 -0.1441 -0.0973  0.2608
  409MPD2    H5 6113   2.221   3.907  16.836  0.3230 -0.0879  0.4291
  409MPD2    N1 6114   1.913   3.508  17.094  0.1333 -0.2419  1.0968
  409MPD2    H7 6115   1.963   3.536  17.178  1.0562  1.2804  0.0389
  410TMC3    C1 6116   2.352   3.996  17.021  0.9957 -0.1728 -0.1067
  410TMC3    C2 6117   2.456   3.990  17.114 -0.0846 -0.3595 -0.4957
  410TMC3    C3 6118   2.560   4.079  17.091 -0.2705 -0.3482  0.4416
  410TMC3    C4 6119   2.354   4.089  16.921 -0.0197 -0.1069  0.3710
  410TMC3    C5 6120   2.463   4.172  16.894 -0.2538 -0.4480 -0.1118
  410TMC3    C6 6121   2.567   4.168  16.984 -0.1970  0.4582 -0.5034
  410TMC3     C 6122   2.246   3.897  17.037 -0.5058 -0.1330 -0.4290
  410TMC3     O 6123   2.232   3.846  17.147  0.3729 -0.2358 -0.0047
  410TMC3     H 6124   2.467   3.902  17.177 -1.0651  1.1368  1.7401
  410TMC3    H1 6125   2.281   4.084  16.840  2.0863 -1.7906 -1.4192
  410TMC3    H2 6126   2.659   4.223  16.970  0.5073 -1.1824 -2.3116
  410TMC3    C7 6127   2.497   4.200  16.754  0.2922  0.3870  0.4767
  410TMC3    C8 6128   2.693   4.030  17.123 -0.3897  0.4044 -0.0420
  410TMC3    O1 6129   2.478   4.110  16.672  0.2507 -0.5603 -0.5001
  410TMC3    O2 6130   2.772   4.116  17.165  0.1246 -0.5288  0.2966
  411MPD2     C 6131   2.616   0.133  14.732 -0.0260 -0.2441 -0.2120
  411MPD2    C1 6132   2.538   0.103  14.843  0.0025 -0.2551 -0.0747
  411MPD2    C2 6133   2.502   4.694  14.861  0.4581 -0.3426  0.0066
  411MPD2    C3 6134   2.526   4.593  14.768  0.8536 -0.3080  0.5872
  411MPD2    C4 6135   2.602   4.629  14.660  0.2478 -0.0117  0.1642
  411MPD2    C5 6136   2.641   0.041  14.638  0.5614 -0.0001 -0.1858
  411MPD2     H 6137   2.456   4.671  14.957 -2.2151  1.5142 -0.8280
  411MPD2    H1 6138   2.610   4.560  14.576  0.0783  1.5314 -1.1257
  411MPD2    H2 6139   2.656   0.230  14.705 -2.3176  0.1033 -2.2973
  411MPD2    H3 6140   2.704   0.080  14.559  0.9412  0.7108  0.4644
  411MPD2     N 6141   2.472   4.461  14.781  0.1189  0.4487  0.2018
  411MPD2    H5 6142   2.505   4.393  14.714  0.0011  1.0667 -0.4763
  411MPD2    N1 6143   2.495   0.213  14.925 -0.1479 -0.5648 -0.0296
  411MPD2    H7 6144   2.520   0.308  14.897  0.4083 -1.2644 -1.9023
  412TMC3    C1 6145   2.331   4.282  14.845 -0.4455  0.8424 -0.8304
  412TMC3    C2 6146   2.208   4.245  14.892  0.5442  0.2942 -0.4735
  412TMC3    C3 6147   2.162   4.123  14.851 -0.1847  0.1892 -0.0111
  412TMC3    C4 6148   2.409   4.201  14.768  0.3309  0.3770 -0.3884
  412TMC3    C5 6149   2.356   4.083  14.727  0.7682 -0.6556  0.4655
  412TMC3    C6 6150   2.229   4.048  14.762  0.0640 -0.6757  0.2047
  412TMC3     C 6151   2.356   4.425  14.858  0.3862  0.2852  0.9262
  412TMC3     O 6152   2.294   4.497  14.936 -0.2781  0.1808  0.1780
  412TMC3     H 6153   2.145   4.307  14.955 -0.0560  0.6141 -1.4045
  412TMC3    H1 6154   2.517   4.214  14.761  0.5755 -0.8036  1.2813
  412TMC3    H2 6155   2.174   3.956  14.745 -0.4127 -0.2023 -0.8766
  412TMC3    C7 6156   2.391   4.060  14.589  0.0927  0.0227 -0.6063
  412TMC3    C8 6157   2.030   4.140  14.815 -0.4359  0.0081 -0.2939
  412TMC3    O1 6158   2.453   4.149  14.528 -0.0231  0.3263  0.5470
  412TMC3    O2 6159   1.947   4.171  14.900 -0.1003  0.2819  0.0817
  413MPD2     C 6160   3.969   3.007  15.286  0.5420  0.8536 -0.3571
  413MPD2    C1 6161   3.918   2.894  15.226 -0.8092 -0.1313  0.7112
  413MPD2    C2 6162   4.007   2.798  15.182  0.3558  0.2962  0.6913
  413MPD2    C3 6163   4.139   2.805  15.194  0.8187  1.2277 -0.2839
  413MPD2    C4 6164   4.186   2.915  15.256  0.5521 -0.3192 -0.0740
  413MPD2    C5 6165   4.105   3.017  15.298 -0.3018  0.2585 -0.3521
  413MPD2     H 6166   3.966   2.709  15.136 -0.1735  0.1767  1.3903
  413MPD2    H1 6167   4.293   2.920  15.275  0.3712 -0.1118  0.9206
  413MPD2    H2 6168   3.914   3.096  15.317  0.0155  0.2414  0.4619
  413MPD2    H3 6169   4.156   3.092  15.357 -0.6425 -0.7009  1.1491
  413MPD2     N 6170   4.222   2.703  15.134  0.4841 -0.4982  0.0844
  413MPD2    H5 6171   4.180   2.630  15.078 -2.2120 -0.0530  1.5304
  413MPD2    N1 6172   3.778   2.870  15.245  0.1147  0.7510 -0.2926
  413MPD2    H7 6173   3.730   2.945  15.294 -0.9563 -0.7344  0.9169
  414TMC3    C1 6174   4.418   2.582  15.089  0.1192 -1.0912 -0.4503
  414TMC3    C2 6175   4.492   2.491  15.162  0.4147 -0.3838 -0.8897
  414TMC3    C3 6176   4.497   2.361  15.110 -0.0159  0.0815  0.4647
  414TMC3    C4 6177   4.362   2.559  14.970  0.8174 -0.1533 -0.6144
  414TMC3    C5 6178   4.383   2.432  14.916 -0.6537  0.0926  0.2481
  414TMC3    C6 6179   4.442   2.327  14.984  0.2325  0.7811 -0.1793
  414TMC3     C 6180   4.356   2.685  15.165 -0.4391  0.0373  0.4007
  414TMC3     O 6181   4.430   2.734  15.247  0.5331  0.3656 -0.9713
  414TMC3     H 6182   4.517   2.501  15.267 -0.2461  2.4154 -0.9999
  414TMC3    H1 6183   4.317   2.642  14.917  1.1439 -0.0752 -0.7743
  414TMC3    H2 6184   4.448   2.229  14.938  1.1956  1.9710 -2.5913
  414TMC3    C7 6185   4.296   2.419  14.802  0.6183 -0.5997 -0.2650
  414TMC3    C8 6186   4.591   2.267  15.169 -0.4802  0.4088 -0.8733
  414TMC3    O1 6187   4.179   2.454  14.829  0.3960  0.4920 -0.3560
  414TMC3    O2 6188   4.582   2.152  15.127 -0.0196 -0.0125  0.4571
  415TMC3    C1 6189   4.541   4.548   9.652  0.0602 -0.5249  0.6783
  415TMC3    C2 6190   4.670   4.564   9.617 -0.0554  0.2163  0.2641
  415TMC3    C3 6191   0.007   4.451   9.564  0.3143  0.6898  0.3731
  415TMC3    C4 6192   4.471   4.431   9.647  0.0849 -0.3097  0.0984
  415TMC3    C5 6193   4.537   4.323   9.602 -0.0161 -0.2779 -0.3373
  415TMC3    C6 6194   4.665   4.337   9.556  0.1512  0.4625  0.4248
  415TMC3     C 6195   4.479   4.644   9.742 -0.2676 -0.2371  0.1409
  415TMC3     O 6196   4.357   4.633   9.758 -0.2334 -0.5366 -0.7465
  415TMC3     H 6197   4.718   4.661   9.621  0.6277 -0.1084  0.0386
  415TMC3    H1 6198   4.363   4.426   9.656  0.1344 -1.0244  0.3410
  415TMC3    H2 6199   4.703   4.258   9.493 -0.5311  1.1355 -0.8237
  415TMC3    C7 6200   4.460   4.209   9.544 -0.3159  0.2275 -0.0155
  415TMC3    C8 6201   0.144   4.457   9.518  0.2484  0.5376 -1.7684
  415TMC3    O1 6202   4.508   4.134   9.455  0.4734  0.3797  0.5235
  415TMC3    O2 6203   0.181   4.363   9.448  0.0706  0.1656  0.7720
  416MPD2     C 6204   1.558   4.201  11.435  0.1698 -0.4720 -0.4781
  416MPD2    C1 6205   1.502   4.123  11.532 -0.1463 -0.1179  0.1344
  416MPD2    C2 6206   1.530   3.990  11.518  0.3419  0.6031  0.3855
  416MPD2    C3 6207   1.600   3.939  11.415 -0.7209 -0.1865 -1.2612
  416MPD2    C4 6208   1.657   4.020  11.324  0.2994  0.1347 -0.2175
  416MPD2    C5 6209   1.645   4.157  11.338 -0.1567  0.6193 -0.0747
  416MPD2     H 6210   1.499   3.923  11.597 -0.1488 -2.0341 -2.0399
  416MPD2    H1 6211   1.716   3.988  11.239  0.9679 -3.1133  1.4746
  416MPD2    H2 6212   1.549   4.309  11.434 -1.8059 -0.6464  1.5735
  416MPD2    H3 6213   1.681   4.229  11.266  2.5668 -1.4740 -0.8284
  416MPD2     N 6214   1.603   3.796  11.398  0.3576  0.3021  0.5392
  416MPD2    H5 6215   1.558   3.741  11.470 -1.9872  1.4801 -0.0355
  416MPD2    N1 6216   1.425   4.190  11.632 -0.1396 -0.4641 -0.7558
  416MPD2    H7 6217   1.401   4.287  11.614  2.3267 -0.1304 -2.1290
  417TMC3    C1 6218   1.323   4.244  11.831  0.5913 -0.0615  0.1982
  417TMC3    C2 6219   1.340   4.250  11.968  0.5192  0.6981  0.3449
  417TMC3    C3 6220   1.236   4.288  12.046  0.1223  0.6119 -0.0911
  417TMC3    C4 6221   1.213   4.288  11.771  0.3966  0.1152 -0.3255
  417TMC3    C5 6222   1.110   4.330  11.849 -0.4878 -0.4017  0.2387
  417TMC3    C6 6223   1.126   4.341  11.989  0.3000  0.7115 -0.2689
  417TMC3     C 6224   1.402   4.151  11.759  0.3116  0.2119  0.7857
  417TMC3     O 6225   1.438   4.050  11.821  1.1606 -0.5881  0.4142
  417TMC3     H 6226   1.424   4.196  12.010 -0.3162 -0.9037 -0.0323
  417TMC3    H1 6227   1.190   4.251  11.671 -2.1629  0.0645  0.2800
  417TMC3    H2 6228   1.047   4.378  12.053 -0.5363 -0.1015 -0.8251
  417TMC3    C7 6229   0.982   4.337  11.782 -0.6978 -0.2977 -0.3982
  417TMC3    C8 6230   1.263   4.335  12.181 -0.2031  0.7199  0.2212
  417TMC3    O1 6231   0.975   4.344  11.661 -0.1119 -0.2237  0.1275
  417TMC3    O2 6232   1.160   4.355  12.246  0.5562  0.2530  0.0717
  418TMC3    C1 6233   0.789   0.905   0.427 -0.0012  0.0957  0.7786
  418TMC3    C2 6234   0.720   1.016   0.397  0.0462 -0.1225  0.4721
  418TMC3    C3 6235   0.614   1.060   0.471 -0.0375  0.0350 -0.5632
  418TMC3    C4 6236   0.745   0.818   0.524 -0.2823 -0.7282 -0.0718
  418TMC3    C5 6237   0.633   0.856   0.592  0.1472  0.4796 -0.2454
  418TMC3    C6 6238   0.556   0.972   0.564 -0.2310  0.0314  0.7293
  418TMC3     C 6239   0.890   0.873   0.330 -0.1794 -0.1206  0.1056
  418TMC3     O 6240   0.923   0.960   0.251 -0.3759 -0.4471 -0.2957
  418TMC3     H 6241   0.747   1.081   0.314  1.1214  0.8745  1.6095
  418TMC3    H1 6242   0.793   0.722   0.537 -0.0008 -0.4705  0.7414
  418TMC3    H2 6243   0.468   0.988   0.625 -1.2764 -1.0495 -0.4700
  418TMC3    C7 6244   0.585   0.777   0.705 -0.2341 -0.4077  0.1181
  418TMC3    C8 6245   0.528   1.133   0.386 -0.0082 -0.2248 -0.0054
  418TMC3    O1 6246   0.464   0.770   0.724 -0.1244  0.2801 -0.1017
  418TMC3    O2 6247   0.525   1.256   0.391  0.3851 -0.3720 -0.3717
  419MPD2     C 6248   3.758   4.212  12.526 -0.3387  0.8585  0.3226
  419MPD2    C1 6249   3.687   4.328  12.523 -0.3233 -0.7140  0.1533
  419MPD2    C2 6250   3.681   4.414  12.633 -0.5465 -0.1597 -0.3449
  419MPD2    C3 6251   3.752   4.385  12.744  0.1990  0.1258 -0.2772
  419MPD2    C4 6252   3.836   4.273  12.746  0.1515 -0.0404  0.0452
  419MPD2    C5 6253   3.846   4.195  12.634  0.3959  0.4073 -0.3550
  419MPD2     H 6254   3.623   4.505  12.629 -1.4773 -0.8837 -3.0951
  419MPD2    H1 6255   3.904   4.253  12.827 -0.1343 -1.1141  0.0101
  419MPD2    H2 6256   3.756   4.154  12.434  0.0668  0.8542  0.3178
  419MPD2    H3 6257   3.910   4.108  12.636  0.2676  0.2711 -2.3115
  419MPD2     N 6258   3.748   4.476  12.852  0.5276  0.3692  0.1798
  419MPD2    H5 6259   3.714   4.570  12.833 -0.4455  0.2185  1.1956
  419MPD2    N1 6260   3.606   4.370  12.415  0.4582  0.0601  0.7984
  419MPD2    H7 6261   3.579   4.468  12.418 -1.1110 -0.4097  1.6142
  420TMC3    C1 6262   3.807   4.569  13.062  0.3734 -0.2418 -0.3832
  420TMC3    C2 6263   3.784   4.701  13.016 -0.2190 -0.0353 -0.4424
  420TMC3    C3 6264   3.719   0.066  13.100  0.5294 -0.0843 -0.7252
  420TMC3    C4 6265   3.779   4.534  13.197  0.3649 -0.3265 -1.0010
  420TMC3    C5 6266   3.699   4.623  13.271  0.0918 -0.2847  0.6438
  420TMC3    C6 6267   3.658   0.020  13.217  0.0102  0.9618 -0.2028
  420TMC3     C 6268   3.825   4.461  12.970 -0.0620  0.1856  0.0328
  420TMC3     O 6269   3.870   4.356  13.012 -0.0839  0.2800 -0.3641
  420TMC3     H 6270   3.801   0.006  12.913 -1.1080 -1.9531 -1.1060
  420TMC3    H1 6271   3.798   4.435  13.237 -1.0236 -0.3954 -0.5264
  420TMC3    H2 6272   3.586   0.082  13.269 -1.2049  0.5013 -1.3528
  420TMC3    C7 6273   3.593   4.562  13.339 -0.0304 -0.4065 -0.3552
  420TMC3    C8 6274   3.642   0.178  13.044  0.1109  0.4833  0.9702
  420TMC3    O1 6275   3.634   4.475  13.418 -0.1026 -0.5298  0.2571
  420TMC3    O2 6276   3.522   0.186  13.082  0.5913 -0.3227 -0.1163
  421TMC3    C1 6277   4.716   1.285  13.665  0.0287 -0.1130 -0.4232
  421TMC3    C2 6278   0.075   1.395  13.671  0.7478  0.3630  0.6272
  421TMC3    C3 6279   0.203   1.381  13.709 -0.0177 -0.2469  0.0029
  421TMC3    C4 6280   0.050   1.157  13.682 -0.1679  0.5028  0.3230
  421TMC3    C5 6281   0.184   1.149  13.709 -0.1905  0.5108  0.6327
  421TMC3    C6 6282   0.263   1.263  13.729  0.0607  0.0504  0.2768
  421TMC3     C 6283   4.575   1.308  13.612 -0.1459 -0.4405 -0.4531
  421TMC3     O 6284   4.519   1.419  13.621  0.2763 -0.1562  0.0199
  421TMC3     H 6285   0.024   1.476  13.621 -1.2304 -0.2018  1.7083
  421TMC3    H1 6286   4.708   1.071  13.668 -0.9292  1.5349 -2.4913
  421TMC3    H2 6287   0.364   1.249  13.766  0.3036 -0.5686 -0.5925
  421TMC3    C7 6288   0.246   1.023  13.733  0.7988 -0.5126  0.7361
  421TMC3    C8 6289   0.294   1.501  13.709 -0.3048 -0.0963 -0.7788
  421TMC3    O1 6290   0.346   1.029  13.803  0.0719  0.1024  0.0418
  421TMC3    O2 6291   0.417   1.486  13.696 -0.0606 -0.6279 -0.2787
  422TMC3    C1 6292   2.534   2.580  12.380 -0.0222  0.0538 -0.0990
  422TMC3    C2 6293   2.536   2.716  12.390 -0.2716  0.6356 -0.2021
  422TMC3    C3 6294   2.474   2.767  12.500  0.0352  0.1868  0.0948
  422TMC3    C4 6295   2.442   2.503  12.442 -0.2868  0.2997  0.4872
  422TMC3    C5 6296   2.375   2.562  12.549  0.2293  0.0784  0.5480
  422TMC3    C6 6297   2.394   2.691  12.587 -0.4866  0.3484 -0.3718
  422TMC3     C 6298   2.588   2.529  12.254 -0.0051 -0.3102 -0.0666
  422TMC3     O 6299   2.626   2.615  12.178  0.1965 -0.0419 -0.3751
  422TMC3     H 6300   2.603   2.777  12.330 -0.3842  1.1168  0.1745
  422TMC3    H1 6301   2.422   2.400  12.412 -2.0498  1.1738 -1.2722
  422TMC3    H2 6302   2.335   2.745  12.661 -0.7243  0.6511 -0.7786
  422TMC3    C7 6303   2.312   2.468  12.637 -0.1017  0.1631 -0.2965
  422TMC3    C8 6304   2.473   2.915  12.514 -0.7907  0.2435  0.0064
  422TMC3    O1 6305   2.358   2.352  12.616 -0.3811  0.1117  0.1565
  422TMC3    O2 6306   2.468   2.960  12.623  0.6761  0.3182  0.2266
  423MPD2     C 6307   4.305   3.456   0.784  0.3401 -0.9095 -1.0994
  423MPD2    C1 6308   4.254   3.332   0.765  0.0738  0.1738  0.3671
  423MPD2    C2 6309   4.292   3.252   0.658 -0.4511 -0.2728 -0.5536
  423MPD2    C3 6310   4.390   3.295   0.569 -0.0996  0.6075  0.8397
  423MPD2    C4 6311   4.433   3.430   0.586  0.9760 -0.3859 -0.0736
  423MPD2    C5 6312   4.397   3.506   0.699  0.9650  0.2526 -0.2167
  423MPD2     H 6313   4.232   3.163   0.641 -1.8850  1.0027 -2.0654
  423MPD2    H1 6314   4.519   3.457   0.525  2.2777 -2.8463  0.6542
  423MPD2    H2 6315   4.269   3.516   0.867  0.9027 -0.7025 -1.0092
  423MPD2    H3 6316   4.443   3.603   0.713 -0.2010  1.0424 -2.0194
  423MPD2     N 6317   4.429   3.219   0.457 -0.6305 -0.1805 -0.5662
  423MPD2    H5 6318   4.470   3.266   0.378  0.4875  0.3275  0.3186
  423MPD2    N1 6319   4.147   3.275   0.839  0.7169  0.3078 -0.2612
  423MPD2    H7 6320   4.119   3.180   0.818  1.4649  0.1841 -0.7050
  424TMC3    C1 6321   3.980   3.262   1.001 -0.5847 -0.4876 -0.4079
  424TMC3    C2 6322   3.983   3.186   1.113 -0.1553 -0.4893  0.3253
  424TMC3    C3 6323   3.871   3.101   1.126  0.0285  0.2628  0.0453
  424TMC3    C4 6324   3.886   3.247   0.901 -0.0682 -0.4217 -0.7308
  424TMC3    C5 6325   3.788   3.155   0.920 -0.4860  0.8592 -0.3210
  424TMC3    C6 6326   3.782   3.075   1.030 -0.2761  0.4084 -0.4970
  424TMC3     C 6327   4.104   3.323   0.961  0.0670  0.1805 -0.0656
  424TMC3     O 6328   4.163   3.397   1.037  0.2765 -0.0778  0.5703
  424TMC3     H 6329   4.073   3.189   1.173  0.8718 -0.0924 -1.2411
  424TMC3    H1 6330   3.898   3.300   0.807 -1.7436 -0.2703 -0.8647
  424TMC3    H2 6331   3.714   2.991   1.038  0.4924 -0.2595 -0.9552
  424TMC3    C7 6332   3.676   3.184   0.835  0.1430  0.6244  0.1924
  424TMC3    C8 6333   3.867   3.026   1.251  0.3982 -0.1213  0.4214
  424TMC3    O1 6334   3.693   3.254   0.736  0.5490 -0.4115  0.2108
  424TMC3    O2 6335   3.800   2.921   1.269  0.1307  0.5635  0.0928
  425MPD2     C 6336   2.837   2.505  17.568  0.0680 -0.0708  0.2004
  425MPD2    C1 6337   2.777   2.418  17.473  0.1530  0.1855 -1.3428
  425MPD2    C2 6338   2.644   2.438  17.446 -0.4181 -0.0661 -0.4455
  425MPD2    C3 6339   2.570   2.535  17.510  0.3358  0.5163  0.2188
  425MPD2    C4 6340   2.623   2.604  17.615 -0.5390 -0.1139 -0.3875
  425MPD2    C5 6341   2.756   2.595  17.631 -0.0812  0.3010 -0.7188
  425MPD2     H 6342   2.607   2.377  17.364  2.2379 -1.7314 -0.4434
  425MPD2    H1 6343   2.563   2.671  17.676  0.2294  2.2785 -2.2401
  425MPD2    H2 6344   2.942   2.498  17.593  0.2954  0.6633 -0.5610
  425MPD2    H3 6345   2.800   2.667   0.008 -0.5408  1.5340 -1.7273
  425MPD2     N 6346   2.438   2.535  17.471 -0.1633  0.2149  0.0245
  425MPD2    H5 6347   2.410   2.466  17.402  0.4985 -0.6236  0.5977
  425MPD2    N1 6348   2.856   2.320  17.413  0.9990  0.5193 -0.1854
  425MPD2    H7 6349   2.952   2.321  17.444  0.4291 -1.6911  1.6665
  426TMC3    C1 6350   2.909   2.120  17.301  0.4283 -0.2493  0.6899
  426TMC3    C2 6351   2.905   2.059  17.178 -0.6582  0.3846 -0.0652
  426TMC3    C3 6352   2.993   1.950  17.171  0.8071  0.3111 -0.0168
  426TMC3    C4 6353   2.965   2.069  17.415  0.1857  0.0763 -0.7494
  426TMC3    C5 6354   3.042   1.954  17.402 -0.0452 -0.0225 -0.2028
  426TMC3    C6 6355   3.060   1.894  17.279  0.1254  0.0096  1.0702
  426TMC3     C 6356   2.815   2.227  17.322  0.3454 -0.3714 -0.0601
  426TMC3     O 6357   2.710   2.225  17.255 -0.4189 -0.3329 -0.3031
  426TMC3     H 6358   2.872   2.116  17.092 -1.3192  1.2276  0.7528
  426TMC3    H1 6359   2.951   2.115  17.512 -3.9936  0.2562 -1.4280
  426TMC3    H2 6360   3.112   1.800  17.262 -1.0563 -0.6639  1.1323
  426TMC3    C7 6361   3.082   1.879  17.519 -0.1653  0.1769 -0.4666
  426TMC3    C8 6362   2.995   1.879  17.049  0.2304  0.3664 -0.2013
  426TMC3    O1 6363   3.178   1.803  17.520  0.1695 -0.4314  0.1926
  426TMC3    O2 6364   3.099   1.831  17.007  0.9962 -0.8429 -0.0424
  427MPD2     C 6365   1.560   4.668  15.228  0.6936 -0.0174 -0.2050
  427MPD2    C1 6366   1.501   4.605  15.331  0.3871 -0.1275  0.3164
  427MPD2    C2 6367   1.363   4.619  15.354 -0.7325 -0.4222 -0.8326
  427MPD2    C3 6368   1.279   4.690  15.268 -0.1496 -0.7953 -0.2692
  427MPD2    C4 6369   1.336   0.030  15.162 -0.1623 -0.3526  0.3357
  427MPD2    C5 6370   1.475   0.019  15.145  0.2701 -0.1885  0.6770
  427MPD2     H 6371   1.325   4.575  15.446 -0.6122 -0.2828 -0.7161
  427MPD2    H1 6372   1.269   0.073  15.087  0.9900 -0.6471 -0.8649
  427MPD2    H2 6373   1.666   4.663  15.204  0.8905  0.9917  0.4484
  427MPD2    H3 6374   1.520   0.079  15.067  0.9485 -2.0443 -0.3643
  427MPD2     N 6375   1.143   4.703  15.285 -0.8371  0.0421  0.4149
  427MPD2    H5 6376   1.097   0.058  15.238 -1.5216 -1.2574 -1.0504
  427MPD2    N1 6377   1.580   4.546  15.438  0.3470  0.2969  0.5654
  427MPD2    H7 6378   1.531   4.515  15.521  0.9179  0.8970  1.1164
  428TMC3    C1 6379   1.763   4.505  15.576 -0.6185  0.0139  0.1498
  428TMC3    C2 6380   1.719   4.383  15.614  0.1481 -0.4837  0.5051
  428TMC3    C3 6381   1.793   4.316  15.709  0.2454  0.3508 -0.5513
  428TMC3    C4 6382   1.881   4.558  15.623 -0.3407  0.0646 -0.5338
  428TMC3    C5 6383   1.947   4.490  15.721 -0.6405 -0.2785  0.0404
  428TMC3    C6 6384   1.900   4.373  15.768  0.0682 -0.5440 -0.3113
  428TMC3     C 6385   1.717   4.562  15.453 -0.1810  0.1310  0.6397
  428TMC3     O 6386   1.807   4.603  15.378  0.1178 -0.7741  0.3577
  428TMC3     H 6387   1.633   4.336  15.567  1.2844 -0.1856 -1.9102
  428TMC3    H1 6388   1.920   4.653  15.588 -0.0705  0.6266  1.3053
  428TMC3    H2 6389   1.963   4.321  15.839  1.5936  1.6881 -0.0362
  428TMC3    C7 6390   2.077   4.534  15.767 -0.4463 -0.0180  0.3203
  428TMC3    C8 6391   1.813   4.169  15.699 -0.0346 -0.2086 -0.3438
  428TMC3    O1 6392   2.116   4.506  15.879 -0.0418 -1.0451  0.0384
  428TMC3    O2 6393   1.864   4.121  15.797 -0.0253 -0.3947  0.0773
  429MPD2     C 6394   2.307   4.561   0.254 -0.0688  0.0141 -0.5937
  429MPD2    C1 6395   2.392   4.480   0.184 -1.1028  0.1035 -0.7203
  429MPD2    C2 6396   2.475   4.538   0.097 -0.6533 -0.5134  0.1254
  429MPD2    C3 6397   2.475   4.673   0.090  0.5388 -0.3318 -0.4549
  429MPD2    C4 6398   2.392   0.032   0.155  0.1407 -0.1717 -0.4130
  429MPD2    C5 6399   2.302   4.698   0.239  0.3096 -0.0387  0.2785
  429MPD2     H 6400   2.550   4.477   0.048  0.3986 -0.1587  1.2762
  429MPD2    H1 6401   2.388   0.140   0.145  1.2412 -0.0631  0.3598
  429MPD2    H2 6402   2.241   4.520   0.330  1.7728 -0.8254  0.5451
  429MPD2    H3 6403   2.234   0.038   0.296  0.0325  2.1791 -2.4758
  429MPD2     N 6404   2.570   4.722  17.691  0.4204 -0.1307 -0.5905
  429MPD2    H5 6405   2.621   4.660  17.629  3.0377  0.3498  1.0708
  429MPD2    N1 6406   2.390   4.342   0.189 -0.1535 -0.4872 -0.5795
  429MPD2    H7 6407   2.461   4.290   0.138  0.3229 -0.5713  0.1707
  430TMC3    C1 6408   2.714   0.145  17.592 -0.1031  0.7115 -1.0842
  430TMC3    C2 6409   2.711   0.251  17.503 -0.7130 -0.1671 -0.0205
  430TMC3    C3 6410   2.820   0.269  17.426 -0.8191  0.4480 -0.3009
  430TMC3    C4 6411   2.821   0.070  17.617  0.5298 -0.1578 -0.7258
  430TMC3    C5 6412   2.937   0.093  17.544 -0.4180  0.0664 -0.0543
  430TMC3    C6 6413   2.929   0.189  17.448 -0.0843  0.3813  0.6279
  430TMC3     C 6414   2.601   0.134  17.676  0.0475  0.1760  0.2645
  430TMC3     O 6415   2.546   0.237   0.019 -0.4286 -0.3219 -0.1361
  430TMC3     H 6416   2.612   0.282  17.473 -0.6324 -1.0132 -1.1548
  430TMC3    H1 6417   2.821   4.716   0.004 -0.4177 -0.8227 -1.3852
  430TMC3    H2 6418   3.014   0.203  17.382 -0.9538 -1.1471 -0.8115
  430TMC3    C7 6419   3.005   4.691  17.505 -0.2520 -0.0785 -0.4114
  430TMC3    C8 6420   2.799   0.315  17.284  0.2082  0.3850 -0.6462
  430TMC3    O1 6421   2.953   4.584  17.529  0.2236 -0.5735  0.8355
  430TMC3    O2 6422   2.877   0.252  17.210  0.2046 -0.0477 -0.0570
  431MPD2     C 6423   3.456   0.412  12.366 -0.2448  0.4528 -0.1607
  431MPD2    C1 6424   3.503   0.380  12.239 -0.5596  0.3363  0.4294
  431MPD2    C2 6425   3.472   0.253  12.197 -0.4424 -0.2813 -0.1017
  431MPD2    C3 6426   3.396   0.162  12.267  0.1794  0.0182  0.6746
  431MPD2    C4 6427   3.360   0.193  12.389  0.6626  0.1427 -0.1729
  431MPD2    C5 6428   3.394   0.314  12.440 -0.0062  0.5767  0.3257
  431MPD2     H 6429   3.511   0.217  12.103 -0.3385  0.0342 -0.1787
  431MPD2    H1 6430   3.315   0.125  12.460  0.5419 -0.8826 -1.2218
  431MPD2    H2 6431   3.476   0.508  12.413  1.7481  0.1931 -0.4437
  431MPD2    H3 6432   3.365   0.347  12.539  2.5062  4.4595 -0.2300
  431MPD2     N 6433   3.378   0.023  12.230 -1.2041 -0.0144 -0.0779
  431MPD2    H5 6434   3.339   4.692  12.306 -2.1744 -1.7109 -1.7830
  431MPD2    N1 6435   3.583   0.462  12.156 -0.3974 -0.8198  0.3752
  431MPD2    H7 6436   3.600   0.422  12.065 -0.5722 -1.1942  0.5047
  432TMC3    C1 6437   3.406   4.548  12.095  0.0831 -0.1949 -0.5481
  432TMC3    C2 6438   3.402   4.489  11.970 -0.2956 -0.7791 -0.1725
  432TMC3    C3 6439   3.458   4.365  11.963  0.2044 -1.0452  0.6066
  432TMC3    C4 6440   3.463   4.488  12.207  0.0329 -0.3292 -0.4529
  432TMC3    C5 6441   3.506   4.362  12.196  0.0528 -0.3498  0.1382
  432TMC3    C6 6442   3.501   4.296  12.076 -0.0893 -0.8367 -0.4231
  432TMC3     C 6443   3.405   4.692  12.100 -0.4127 -0.1973  0.1669
  432TMC3     O 6444   3.418   0.033  11.999 -0.1035  0.1643  0.9061
  432TMC3     H 6445   3.384   4.556  11.887  1.1763  1.3462  1.2135
  432TMC3    H1 6446   3.471   4.545  12.299 -0.3893 -1.4806  0.2993
  432TMC3    H2 6447   3.534   4.193  12.066  0.1800 -0.7914  0.0015
  432TMC3    C7 6448   3.592   4.309  12.296 -0.3388 -0.2853 -0.8279
  432TMC3    C8 6449   3.568   4.363  11.868 -0.4129  0.0637 -0.7804
  432TMC3    O1 6450   3.626   4.200  12.262 -0.1931  0.2496 -0.3892
  432TMC3    O2 6451   3.556   4.454  11.788  0.2610  0.2751  0.1731
  433MPD2     C 6452   2.321   3.239  10.620  0.1616  0.2602 -0.1629
  433MPD2    C1 6453   2.253   3.152  10.698 -0.2224  0.1607  0.0620
  433MPD2    C2 6454   2.226   3.177  10.832  0.3076 -0.1087  0.0538
  433MPD2    C3 6455   2.282   3.296  10.892  0.4102 -0.0892  0.1614
  433MPD2    C4 6456   2.364   3.378  10.813  0.0691 -0.3945  0.1816
  433MPD2    C5 6457   2.379   3.350  10.678  0.0560  0.5622 -0.6777
  433MPD2     H 6458   2.162   3.113  10.891 -1.2108  1.6901  0.3532
  433MPD2    H1 6459   2.422   3.458  10.858  0.7410 -0.2757 -0.8933
  433MPD2    H2 6460   2.339   3.229  10.514 -0.5509  0.0298 -0.2617
  433MPD2    H3 6461   2.434   3.418  10.613 -2.7732  1.7320 -1.8574
  433MPD2     N 6462   2.266   3.312  11.031 -0.8653  0.3990 -0.9355
  433MPD2    H5 6463   2.219   3.233  11.074  0.0879  0.2565 -0.1289
  433MPD2    N1 6464   2.206   3.034  10.638 -0.1857 -0.3489 -0.1085
  433MPD2    H7 6465   2.212   3.026  10.537 -0.3478 -1.0512 -0.0593
  434TMC3    C1 6466   2.138   2.815  10.625 -0.2666 -0.3796  0.4569
  434TMC3    C2 6467   2.200   2.710  10.684 -0.0640 -0.4743 -0.5805
  434TMC3    C3 6468   2.279   2.631  10.600  0.4101  0.3740 -0.1587
  434TMC3    C4 6469   2.145   2.830  10.491  0.1320 -0.5705 -0.4784
  434TMC3    C5 6470   2.214   2.739  10.406 -0.2440 -0.2870 -0.1443
  434TMC3    C6 6471   2.296   2.646  10.469  0.2048  0.8900 -0.3699
  434TMC3     C 6472   2.137   2.932  10.708 -0.3004 -0.5579  0.1996
  434TMC3     O 6473   2.143   2.912  10.827 -0.3635 -0.1259 -0.1477
  434TMC3     H 6474   2.209   2.692  10.790  2.7523 -0.5199 -0.8304
  434TMC3    H1 6475   2.069   2.894  10.447  1.9729  0.7239 -1.7729
  434TMC3    H2 6476   2.369   2.587  10.415  0.8196  2.0578 -0.8041
  434TMC3    C7 6477   2.162   2.715  10.275  0.3180 -0.5033  0.0585
  434TMC3    C8 6478   2.387   2.557  10.666  1.1985  0.2700  0.1869
  434TMC3    O1 6479   2.106   2.808  10.222  0.0189 -0.1056 -0.6065
  434TMC3    O2 6480   2.363   2.528  10.782 -0.2611 -0.3215 -0.3355
  435MPD2     C 6481   4.446   3.226  15.296  0.3911  0.2897  0.1656
  435MPD2    C1 6482   4.442   3.231  15.436  0.3821 -0.5791 -0.6202
  435MPD2    C2 6483   4.552   3.199  15.507 -0.1572  0.0622 -0.5898
  435MPD2    C3 6484   4.661   3.143  15.442 -0.8510 -0.1852 -0.3225
  435MPD2    C4 6485   4.664   3.137  15.311 -1.1531  0.9330  0.2377
  435MPD2    C5 6486   4.560   3.179  15.235 -0.2631 -0.4205 -0.0896
  435MPD2     H 6487   4.550   3.218  15.613 -0.0623 -2.0377 -0.2237
  435MPD2    H1 6488   0.019   3.087  15.254 -0.1773  1.5513  1.0185
  435MPD2    H2 6489   4.355   3.247  15.241 -0.3857 -1.5594  0.7270
  435MPD2    H3 6490   4.561   3.171  15.127 -0.1746  1.0004 -0.1980
  435MPD2     N 6491   0.047   3.094  15.519 -0.0642 -0.9444 -0.1795
  435MPD2    H5 6492   0.025   3.094  15.618 -0.9407  0.7167 -0.3862
  435MPD2    N1 6493   4.329   3.277  15.516  0.1165  0.4530  0.2826
  435MPD2    H7 6494   4.354   3.296  15.613  0.4804 -2.9536  0.8509
  436TMC3    C1 6495   4.051   3.375  15.795  0.2300  0.6979  0.0089
  436TMC3    C2 6496   4.150   3.349  15.706  0.4676 -0.3309 -0.6246
  436TMC3    C3 6497   4.126   3.388  15.576  0.1834  1.3190 -0.0931
  436TMC3    C4 6498   3.931   3.440  15.759 -0.2356  0.3515  0.3635
  436TMC3    C5 6499   3.917   3.478  15.629  0.2223  0.9302  0.1333
  436TMC3    C6 6500   4.011   3.450  15.541 -0.3449 -0.0680  0.0033
  436TMC3     C 6501   4.061   3.306  15.925 -0.3441  0.3508  0.8666
  436TMC3     O 6502   4.141   3.217  15.941  0.3498  0.1260 -0.0652
  436TMC3     H 6503   4.229   3.281  15.737  0.8173  0.4677  0.2388
  436TMC3    H1 6504   3.860   3.473  15.834  0.5586  0.4751  1.0546
  436TMC3    H2 6505   3.990   3.478  15.438 -1.4498  1.1453  0.5581
  436TMC3    C7 6506   3.797   3.545  15.590  0.0505  0.1763 -0.7240
  436TMC3    C8 6507   4.217   3.342  15.472 -0.2160 -0.1568 -0.7425
  436TMC3    O1 6508   3.799   3.613  15.488 -0.2919  0.5986  0.0212
  436TMC3    O2 6509   4.203   3.384  15.357 -0.4151 -0.4704  0.1202
  437TMC3    C1 6510   2.891   0.880  12.731  0.2138 -0.1642  0.2428
  437TMC3    C2 6511   2.793   0.806  12.670  0.0465  0.7172  0.0326
  437TMC3    C3 6512   2.783   0.814  12.528  0.7739  0.8425 -0.3104
  437TMC3    C4 6513   2.978   0.959  12.660 -0.0927 -0.2928 -0.1145
  437TMC3    C5 6514   2.964   0.967  12.528 -0.2733  0.7484 -0.1780
  437TMC3    C6 6515   2.868   0.896  12.453 -0.2223  0.3299  1.1640
  437TMC3     C 6516   2.924   0.854  12.871  0.4335  0.5011 -0.0467
  437TMC3     O 6517   3.041   0.875  12.900  0.7381 -0.3592  0.1568
  437TMC3     H 6518   2.735   0.741  12.733  0.6996  0.3096  0.2101
  437TMC3    H1 6519   3.049   1.021  12.713  0.2067  0.2167 -1.1037
  437TMC3    H2 6520   2.862   0.906  12.345 -0.6551  0.4636  1.2025
  437TMC3    C7 6521   3.062   1.056  12.453  0.5390  0.1733 -0.8369
  437TMC3    C8 6522   2.696   0.711  12.461 -0.0799 -0.3176 -0.1158
  437TMC3    O1 6523   3.020   1.116  12.353 -0.2877  0.2527  0.0952
  437TMC3    O2 6524   2.661   0.623  12.538  0.7486 -0.3867  0.7956
  438MPD2     C 6525   0.807   0.976  17.093  0.6466  0.7476 -0.4173
  438MPD2    C1 6526   0.817   0.844  17.124 -0.1264 -0.2644  0.2980
  438MPD2    C2 6527   0.774   0.808  17.249  0.0573  0.6212 -0.0597
  438MPD2    C3 6528   0.731   0.887  17.354 -0.2056 -0.0734 -0.4809
  438MPD2    C4 6529   0.731   1.020  17.325  0.8741  0.0787  0.3997
  438MPD2    C5 6530   0.773   1.059  17.199  0.1501 -0.1566 -0.0959
  438MPD2     H 6531   0.789   0.702  17.263 -4.1784 -0.0031 -0.1580
  438MPD2    H1 6532   0.700   1.093  17.399  1.7579  0.5691  0.2798
  438MPD2    H2 6533   0.835   1.019  16.997 -0.3239 -0.6250 -1.3260
  438MPD2    H3 6534   0.771   1.165  17.178 -0.9934 -0.3454 -0.9660
  438MPD2     N 6535   0.720   0.834  17.489  0.4279 -0.1251 -0.4643
  438MPD2    H5 6536   0.719   0.907  17.560  0.3736  2.2788 -2.9256
  438MPD2    N1 6537   0.859   0.739  17.046 -0.0503 -0.2027  0.5985
  438MPD2    H7 6538   0.891   0.657  17.096 -0.2365 -1.1785 -0.8783
  439TMC3    C1 6539   0.922   0.614  16.859  0.2475  0.4781  0.1535
  439TMC3    C2 6540   0.931   0.609  16.718 -0.4939 -0.1501  0.3702
  439TMC3    C3 6541   0.994   0.495  16.664 -0.2876 -0.2224 -0.2905
  439TMC3    C4 6542   0.974   0.520  16.940  0.3404 -0.3762  0.3797
  439TMC3    C5 6543   1.040   0.411  16.876  0.5030  0.3383  0.1752
  439TMC3    C6 6544   1.050   0.395  16.739  0.2753 -0.0795  0.1960
  439TMC3     C 6545   0.867   0.740  16.909  0.9928  0.2773 -0.0759
  439TMC3     O 6546   0.837   0.831  16.835 -0.0915 -0.0531 -0.2774
  439TMC3     H 6547   0.885   0.694  16.669  0.3986 -1.0070 -1.9479
  439TMC3    H1 6548   0.979   0.525  17.048  0.5202 -0.8380  0.3926
  439TMC3    H2 6549   1.105   0.314  16.692 -1.5118 -0.9507 -0.4058
  439TMC3    C7 6550   1.156   0.371  16.951  0.7583 -0.3896 -0.6006
  439TMC3    C8 6551   1.067   0.514  16.538  0.3467  0.4854 -0.2700
  439TMC3    O1 6552   1.158   0.386  17.073 -0.4037 -0.0468 -0.3118
  439TMC3    O2 6553   1.176   0.454  16.534 -0.3140  0.4849 -0.5311
  440MPD2     C 6554   4.468   1.692  14.525 -1.1348 -0.1160 -0.2032
  440MPD2    C1 6555   4.496   1.782  14.630  0.9124  0.1694  0.0276
  440MPD2    C2 6556   4.598   1.772  14.720 -0.4893  0.0599  0.0496
  440MPD2    C3 6557   4.683   1.663  14.700 -0.6387  1.3612 -0.5866
  440MPD2    C4 6558   4.659   1.571  14.593 -0.7018 -0.5381 -0.2364
  440MPD2    C5 6559   4.554   1.591  14.507 -0.3085  0.4439  0.4251
  440MPD2     H 6560   4.610   1.851  14.793  2.2336 -0.7807  0.5262
  440MPD2    H1 6561   4.720   1.484  14.574 -2.2351 -2.2279  2.7094
  440MPD2    H2 6562   4.386   1.704  14.456 -1.9587 -2.0363  0.4277
  440MPD2    H3 6563   4.537   1.518  14.429 -1.8263  2.7384 -1.3608
  440MPD2     N 6564   0.061   1.633  14.789  0.7131  0.3252 -0.2563
  440MPD2    H5 6565   0.110   1.547  14.766  0.3618  0.2748 -0.8054
  440MPD2    N1 6566   4.411   1.891  14.654  0.0311  0.1884 -0.3451
  440MPD2    H7 6567   4.429   1.947  14.736  0.8887  1.0110 -1.0895
  441TMC3    C1 6568   0.234   1.668  14.952  0.5532  0.3435  0.2332
  441TMC3    C2 6569   0.302   1.765  15.015  0.0099 -0.4372  0.5576
  441TMC3    C3 6570   0.371   1.742  15.130  0.2722  0.1003  0.0671
  441TMC3    C4 6571   0.222   1.552  15.023 -0.3213 -0.2514  0.5906
  441TMC3    C5 6572   0.290   1.533  15.134  0.4246 -0.4353  1.1198
  441TMC3    C6 6573   0.379   1.621  15.187 -0.1597 -0.1281 -0.1805
  441TMC3     C 6574   0.110   1.717  14.889  0.9732 -0.0367  0.2312
  441TMC3     O 6575   0.078   1.828  14.925  0.5895 -0.1281  0.4194
  441TMC3     H 6576   0.313   1.861  14.965  1.9658 -1.0938 -0.2883
  441TMC3    H1 6577   0.161   1.469  14.988 -2.6646  2.4133 -1.6951
  441TMC3    H2 6578   0.413   1.614  15.290  0.9198  0.2348 -0.5217
  441TMC3    C7 6579   0.251   1.428  15.220 -0.6717  0.0952  0.0610
  441TMC3    C8 6580   0.374   1.857  15.223 -0.3337 -0.4019  0.8841
  441TMC3    O1 6581   0.141   1.377  15.208 -0.1265  0.2060 -0.1329
  441TMC3    O2 6582   0.471   1.870  15.300 -0.3798  0.1761  0.4614
  442MPD2     C 6583   2.625   2.299  16.505 -0.3406  0.3614  0.0990
  442MPD2    C1 6584   2.574   2.175  16.538 -0.1223  0.3916  0.1244
  442MPD2    C2 6585   2.632   2.061  16.477  0.0736 -0.1622 -0.1309
  442MPD2    C3 6586   2.735   2.079  16.379 -0.1106 -0.5536 -0.7164
  442MPD2    C4 6587   2.786   2.206  16.356  0.3957  0.1198 -0.5178
  442MPD2    C5 6588   2.716   2.309  16.405  0.6852  0.2130 -0.5880
  442MPD2     H 6589   2.592   1.963  16.499 -0.3367 -0.4488 -2.1012
  442MPD2    H1 6590   2.863   2.226  16.282  1.0419  0.4973  0.2563
  442MPD2    H2 6591   2.578   2.392  16.535 -2.6533 -0.6326 -0.3828
  442MPD2    H3 6592   2.756   2.405  16.374  0.7407  0.7817  1.2589
  442MPD2     N 6593   2.784   1.979  16.295 -0.8879  0.1566  0.7112
  442MPD2    H5 6594   2.835   2.015  16.215  1.2947 -2.1402  1.0496
  442MPD2    N1 6595   2.469   2.162  16.631 -0.4178 -0.5513 -0.4910
  442MPD2    H7 6596   2.416   2.244  16.659 -0.8039 -0.3379 -1.8572
  443TMC3    C1 6597   2.293   2.056  16.749 -0.5575 -0.7913  0.0886
  443TMC3    C2 6598   2.202   2.161  16.722 -0.4198  0.3827 -0.2872
  443TMC3    C3 6599   2.071   2.144  16.751  0.0642 -0.4464 -0.4764
  443TMC3    C4 6600   2.248   1.938  16.809 -0.1047 -0.4647 -0.2307
  443TMC3    C5 6601   2.124   1.928  16.843 -0.8484  0.2660 -0.8543
  443TMC3    C6 6602   2.034   2.029  16.816  0.1280 -0.0472 -0.2401
  443TMC3     C 6603   2.414   2.043  16.672  1.1594  0.4242 -0.3752
  443TMC3     O 6604   2.436   1.923  16.642 -0.3031  0.1552 -0.3755
  443TMC3     H 6605   2.244   2.253  16.682 -1.6226  1.3373  0.6185
  443TMC3    H1 6606   2.316   1.856  16.830  1.2678 -0.2253 -3.7198
  443TMC3    H2 6607   1.928   2.013  16.837 -0.3202  1.2827 -1.4780
  443TMC3    C7 6608   2.061   1.796  16.841 -0.3370  0.4560  0.5805
  443TMC3    C8 6609   1.982   2.178  16.646  0.9163  0.3278 -0.8182
  443TMC3    O1 6610   1.943   1.785  16.818  0.7913 -0.0303 -0.1542
  443TMC3    O2 6611   1.915   2.086  16.595 -0.3453 -0.6548  0.3430
  444MPD2     C 6612   2.833   1.515  17.501 -0.1758 -0.1617 -0.8692
  444MPD2    C1 6613   2.748   1.512  17.393  0.4808  0.1997  0.3131
  444MPD2    C2 6614   2.799   1.516  17.268 -0.5859 -0.2482 -0.2601
  444MPD2    C3 6615   2.935   1.528  17.250  0.2906 -0.1563 -0.2680
  444MPD2    C4 6616   3.022   1.545  17.356 -0.1841  0.2675  0.1161
  444MPD2    C5 6617   2.964   1.544  17.482 -0.6359  0.5310  0.3296
  444MPD2     H 6618   2.735   1.487  17.185  0.3631  3.3522 -2.2806
  444MPD2    H1 6619   3.129   1.556  17.342 -0.3465 -0.6953 -1.8039
  444MPD2    H2 6620   2.792   1.497  17.600 -0.6381 -0.6650 -1.1565
  444MPD2    H3 6621   3.036   1.571  17.559  0.1201  4.0847 -1.6415
  444MPD2     N 6622   2.980   1.505  17.123 -0.5249 -0.2703 -0.0681
  444MPD2    H5 6623   2.903   1.488  17.059  2.0553 -0.3292 -3.1707
  444MPD2    N1 6624   2.609   1.496  17.418  1.0310 -0.0961 -0.5824
  444MPD2    H7 6625   2.585   1.453  17.507 -0.0286 -2.0109 -1.7821
  445TMC3    C1 6626   3.117   1.438  16.946 -0.0292 -0.1702 -0.0595
  445TMC3    C2 6627   3.033   1.338  16.904 -1.0217  0.0253 -0.2883
  445TMC3    C3 6628   3.057   1.273  16.785  0.0929 -0.1701  0.4962
  445TMC3    C4 6629   3.222   1.477  16.871  0.4803 -0.8913  0.2301
  445TMC3    C5 6630   3.244   1.420  16.748  1.2110  0.0073  0.6639
  445TMC3    C6 6631   3.165   1.319  16.704 -0.1599 -0.2587 -0.5517
  445TMC3     C 6632   3.111   1.482  17.087  0.6994 -0.2422 -0.3331
  445TMC3     O 6633   3.218   1.513  17.144 -0.3485  0.5252 -0.6229
  445TMC3     H 6634   2.948   1.310  16.965 -0.2296  1.8666  1.6947
  445TMC3    H1 6635   3.283   1.563  16.894  0.9419 -0.7797 -1.4213
  445TMC3    H2 6636   3.181   1.269  16.610 -0.1901  0.3434 -0.8779
  445TMC3    C7 6637   3.375   1.441  16.687  0.4022  0.1420  0.1323
  445TMC3    C8 6638   2.947   1.216  16.712 -0.1980 -0.5273 -0.3862
  445TMC3    O1 6639   3.391   1.419  16.569 -0.3707 -0.3636  0.3372
  445TMC3    O2 6640   2.943   1.242  16.592 -0.2049 -0.0502  0.4530
  446MPD2     C 6641   2.340   2.253  11.243  0.1130  0.0803  0.1701
  446MPD2    C1 6642   2.309   2.269  11.109 -0.1597 -0.1206  0.0687
  446MPD2    C2 6643   2.341   2.392  11.053 -0.2317 -0.3474  0.9520
  446MPD2    C3 6644   2.401   2.487  11.122 -0.4306  0.2398 -0.7189
  446MPD2    C4 6645   2.418   2.468  11.257 -0.8054  0.1565  0.3843
  446MPD2    C5 6646   2.400   2.349  11.316  1.0582 -0.7578 -0.4146
  446MPD2     H 6647   2.317   2.407  10.949 -1.6943 -2.0682  1.0334
  446MPD2    H1 6648   2.456   2.550  11.317 -0.0993 -0.6555  1.0428
  446MPD2    H2 6649   2.311   2.163  11.294  0.7484 -0.4972 -0.4953
  446MPD2    H3 6650   2.405   2.340  11.424 -1.0789 -2.6029 -0.4614
  446MPD2     N 6651   2.416   2.607  11.054  0.0286  0.0689 -0.0629
  446MPD2    H5 6652   2.406   2.599  10.954  1.9070 -0.7153 -0.1943
  446MPD2    N1 6653   2.223   2.173  11.043  0.4741  0.2477  1.1528
  446MPD2    H7 6654   2.181   2.209  10.958  1.9167  0.6398  0.5965
  447TMC3    C1 6655   2.507   2.837  11.025 -0.3716 -0.1674  0.7323
  447TMC3    C2 6656   2.491   2.834  10.889  0.7644 -0.5018  0.2214
  447TMC3    C3 6657   2.542   2.945  10.826  0.7949 -0.5058 -0.5462
  447TMC3    C4 6658   2.573   2.934  11.090  0.9906 -0.0935 -0.3245
  447TMC3    C5 6659   2.618   3.044  11.024 -0.1384  1.0651 -0.3949
  447TMC3    C6 6660   2.606   3.045  10.886  1.0940 -0.5524 -0.5409
  447TMC3     C 6661   2.462   2.723  11.113 -0.2232 -0.0107  0.0742
  447TMC3     O 6662   2.478   2.741  11.233 -0.0858 -0.0606  0.0824
  447TMC3     H 6663   2.440   2.754  10.836  1.1475  0.3264 -1.3668
  447TMC3    H1 6664   2.572   2.930  11.198  0.3727  0.0281 -0.3212
  447TMC3    H2 6665   2.654   3.127  10.834  0.9916 -0.1912 -0.0604
  447TMC3    C7 6666   2.745   3.104  11.072  0.5303  0.6312  0.3040
  447TMC3    C8 6667   2.550   2.943  10.677 -0.6849  0.4748  0.9439
  447TMC3    O1 6668   2.833   3.147  11.004  0.2415  1.1788 -0.1955
  447TMC3    O2 6669   2.475   2.866  10.622  0.1100  0.3189 -0.2319
  448TMC3    C1 6670   0.354   1.912  17.118 -0.0218 -0.5816 -0.6156
  448TMC3    C2 6671   0.395   1.885  16.987  0.4311 -0.8016 -0.1589
  448TMC3    C3 6672   0.376   1.757  16.944 -0.9590  0.3715  0.0006
  448TMC3    C4 6673   0.294   1.823  17.202  0.1889 -0.3675 -0.7309
  448TMC3    C5 6674   0.281   1.695  17.154 -0.9375 -0.9822  1.1274
  448TMC3    C6 6675   0.319   1.660  17.028  0.3226  0.3613 -0.7114
  448TMC3     C 6676   0.374   2.046  17.166  0.2873  0.5081 -0.2550
  448TMC3     O 6677   0.410   2.124  17.076  0.5625 -0.2010 -0.1072
  448TMC3     H 6678   0.431   1.963  16.921 -0.5719 -0.0453  0.1802
  448TMC3    H1 6679   0.249   1.855  17.295  0.3972 -1.1243 -0.3719
  448TMC3    H2 6680   0.279   1.570  16.983 -0.0985 -0.9788  2.2927
  448TMC3    C7 6681   0.216   1.593  17.232 -0.2735 -0.2078 -0.2089
  448TMC3    C8 6682   0.393   1.737  16.804 -0.4950  0.0471  0.2010
  448TMC3    O1 6683   0.174   1.491  17.178  0.9507 -0.3800 -0.1154
  448TMC3    O2 6684   0.371   1.832  16.735 -0.0022  0.0512 -0.8618
  449MPD2     C 6685   2.075   0.964  13.985 -0.4397  0.4402 -0.2918
  449MPD2    C1 6686   1.952   1.010  13.937 -0.0008  0.1868  0.5024
  449MPD2    C2 6687   1.843   0.919  13.953 -0.1756  0.5235  0.7955
  449MPD2    C3 6688   1.857   0.800  14.020  0.4274  0.3182 -0.1897
  449MPD2    C4 6689   1.980   0.770  14.077 -0.3402 -0.3268 -0.4102
  449MPD2    C5 6690   2.082   0.846  14.058  0.2801 -0.3652  1.0179
  449MPD2     H 6691   1.749   0.925  13.899 -0.2557  1.1876  1.0012
  449MPD2    H1 6692   1.996   0.669  14.114 -2.6813 -0.8442 -0.7856
  449MPD2    H2 6693   2.160   1.029  13.968 -0.6608  0.3615 -1.6950
  449MPD2    H3 6694   2.176   0.811  14.099  0.5648  0.0977  0.7670
  449MPD2     N 6695   1.738   0.725  14.035  0.9645 -0.5214  0.3974
  449MPD2    H5 6696   1.663   0.764  13.980  1.7647  1.2531  0.5750
  449MPD2    N1 6697   1.940   1.130  13.866  0.2364 -0.1517  0.2956
  449MPD2    H7 6698   1.853   1.149  13.818 -0.9076 -0.5189  2.2202
  450TMC3    C1 6699   1.968   1.286  13.697  0.1812  0.4370  0.1038
  450TMC3    C2 6700   2.016   1.246  13.572 -0.2561 -0.0593 -0.0208
  450TMC3    C3 6701   1.929   1.240  13.471  0.0810 -0.3529  0.0477
  450TMC3    C4 6702   1.837   1.325  13.715 -0.5199  0.5695 -0.0971
  450TMC3    C5 6703   1.750   1.298  13.611  0.3261 -0.1247 -0.5322
  450TMC3    C6 6704   1.795   1.263  13.485  0.4244 -0.1201  0.1930
  450TMC3     C 6705   2.035   1.210  13.801  0.2360 -0.1055 -0.3398
  450TMC3     O 6706   2.153   1.219  13.817  0.9734  0.4060 -0.4002
  450TMC3     H 6707   2.108   1.190  13.569 -1.0425 -1.4224  1.2281
  450TMC3    H1 6708   1.797   1.349  13.813  2.2367  0.8177  0.9756
  450TMC3    H2 6709   1.727   1.262  13.401  0.0692 -0.1665  0.4790
  450TMC3    C7 6710   1.654   1.199  13.650  0.2070 -0.3367 -0.2971
  450TMC3    C8 6711   1.975   1.215  13.342 -0.2241 -0.4120 -0.0062
  450TMC3    O1 6712   1.693   1.122  13.737  0.1201 -0.1516  0.1347
  450TMC3    O2 6713   1.884   1.179  13.267  0.0093  0.4938  0.3049
  451MPD2     C 6714   3.355   0.487   1.306 -0.4319  0.3390 -0.3887
  451MPD2    C1 6715   3.221   0.485   1.293 -0.0979 -0.1829 -0.2925
  451MPD2    C2 6716   3.166   0.364   1.246 -0.7119 -0.4208  0.1943
  451MPD2    C3 6717   3.244   0.256   1.211 -0.5512 -0.2307  0.2245
  451MPD2    C4 6718   3.379   0.260   1.239 -0.0373  0.1951  0.3624
  451MPD2    C5 6719   3.431   0.374   1.283  0.4132 -0.4926 -0.4541
  451MPD2     H 6720   3.058   0.360   1.242 -0.6653  1.2764 -2.5050
  451MPD2    H1 6721   3.442   0.174   1.227 -0.3202  0.0189  0.1351
  451MPD2    H2 6722   3.400   0.578   1.346  3.3323 -1.2360 -1.0329
  451MPD2    H3 6723   3.538   0.372   1.300  0.0422 -4.7518  1.2721
  451MPD2     N 6724   3.189   0.137   1.164 -0.0932  0.5441 -0.0872
  451MPD2    H5 6725   3.252   0.061   1.141 -1.7456 -0.6366 -0.7051
  451MPD2    N1 6726   3.155   0.598   1.343 -0.0117  0.4915  0.3195
  451MPD2    H7 6727   3.209   0.675   1.382 -0.7571  0.1960  1.9580
  452TMC3    C1 6728   3.050   4.677   1.115  0.2468  0.3938  0.1417
  452TMC3    C2 6729   3.001   4.579   1.192 -0.0104 -0.4741 -0.7102
  452TMC3    C3 6730   3.023   4.448   1.151 -0.1867  0.5277  0.0529
  452TMC3    C4 6731   3.117   4.664   1.000 -0.1995 -0.2945  0.4481
  452TMC3    C5 6732   3.135   4.535   0.962  0.2988  0.1660  0.7487
  452TMC3    C6 6733   3.093   4.427   1.037  0.1190 -0.0228 -0.0020
  452TMC3     C 6734   3.061   0.088   1.172 -0.3419 -0.1922  0.3984
  452TMC3     O 6735   2.972   0.133   1.241  0.0696  0.4398 -0.0037
  452TMC3     H 6736   2.937   4.597   1.277  2.1686 -0.2302  0.8944
  452TMC3    H1 6737   3.163   0.024   0.946 -0.6805  0.2865  0.9136
  452TMC3    H2 6738   3.136   4.328   1.022 -1.2742 -0.3959 -1.6006
  452TMC3    C7 6739   3.213   4.511   0.842 -0.1952  0.5975  0.5933
  452TMC3    C8 6740   2.953   4.339   1.224  0.7346 -0.4062  0.7394
  452TMC3    O1 6741   3.278   4.607   0.805  0.0111  0.5454  0.3499
  452TMC3    O2 6742   2.890   4.357   1.324 -0.1506 -0.4406  0.0117
  453TMC3    C1 6743   0.121   1.434  11.696 -0.5646 -0.3737  0.3546
  453TMC3    C2 6744   0.054   1.322  11.753  0.7425 -0.3266 -0.1212
  453TMC3    C3 6745   4.648   1.302  11.713  0.4704 -0.2112 -0.4906
  453TMC3    C4 6746   0.057   1.516  11.605 -0.1066  0.2919 -0.1100
  453TMC3    C5 6747   4.644   1.497  11.572 -0.5985 -0.9848  0.0386
  453TMC3    C6 6748   4.578   1.389  11.630  0.3416 -0.7054  0.5148
  453TMC3     C 6749   0.231   1.494  11.766  0.1277  0.4056  0.1336
  453TMC3     O 6750   0.230   1.615  11.766 -0.4063  0.1473 -0.2989
  453TMC3     H 6751   0.103   1.249  11.816  0.4321 -0.0731  0.4200
  453TMC3    H1 6752   0.116   1.599  11.568  0.9541 -0.6160 -0.4381
  453TMC3    H2 6753   4.473   1.374  11.606  0.0478  0.2610  1.2048
  453TMC3    C7 6754   4.628   1.486  11.430  0.4255 -0.3748  0.0508
  453TMC3    C8 6755   4.620   1.160  11.695  0.0478 -0.3668  0.3109
  453TMC3    O1 6756   4.561   1.389  11.392  0.0435  0.0783  0.4184
  453TMC3    O2 6757   4.673   1.083  11.772  0.0594 -0.6066  0.2043
  454MPD2     C 6758   3.679   1.138  16.118  0.2993  0.0356 -0.6515
  454MPD2    C1 6759   3.607   1.232  16.039 -0.1569 -0.6829  0.0210
  454MPD2    C2 6760   3.528   1.324  16.104 -0.1012  0.0947  0.0906
  454MPD2    C3 6761   3.525   1.326  16.242  0.1798  0.0236  0.3157
  454MPD2    C4 6762   3.599   1.240  16.318 -0.0583  0.0796  0.3527
  454MPD2    C5 6763   3.680   1.153  16.255  0.2213 -0.1321 -1.0151
  454MPD2     H 6764   3.467   1.391  16.043 -0.2389  0.2330  0.3831
  454MPD2    H1 6765   3.586   1.224  16.424 -0.7944 -0.7604  0.1360
  454MPD2    H2 6766   3.727   1.049  16.079 -1.1585  0.1935 -2.7730
  454MPD2    H3 6767   3.733   1.080  16.316 -0.4692 -0.5615 -0.9284
  454MPD2     N 6768   3.428   1.411  16.305  0.1512 -0.2952  0.7441
  454MPD2    H5 6769   3.408   1.389  16.402 -0.2779 -1.2162  0.4499
  454MPD2    N1 6770   3.621   1.237  15.895  0.3849  0.0733  0.3859
  454MPD2    H7 6771   3.575   1.314  15.848 -0.4548 -0.1902  0.7726
  455TMC3    C1 6772   3.241   1.534  16.281  0.3269 -0.0930  0.0989
  455TMC3    C2 6773   3.199   1.582  16.398 -0.7494 -0.2945 -0.2033
  455TMC3    C3 6774   3.072   1.550  16.439  0.9488  0.3884  0.0112
  455TMC3    C4 6775   3.175   1.434  16.211  0.1915 -0.0419  0.1084
  455TMC3    C5 6776   3.057   1.394  16.265 -0.0144  0.1415  0.1825
  455TMC3    C6 6777   3.000   1.448  16.375 -0.2522  0.5507  0.6539
  455TMC3     C 6778   3.379   1.534  16.253 -0.1352  0.2816  0.8559
  455TMC3     O 6779   3.417   1.596  16.158 -0.2750  0.1085 -0.1338
  455TMC3     H 6780   3.253   1.665  16.444 -2.1406 -0.6220  2.0412
  455TMC3    H1 6781   3.229   1.368  16.144  1.7093  2.8559 -1.5467
  455TMC3    H2 6782   2.901   1.418  16.410 -0.8242  2.2919  0.5302
  455TMC3    C7 6783   3.022   1.261  16.218 -0.5571 -0.1051 -0.5044
  455TMC3    C8 6784   3.029   1.619  16.558  0.6578 -0.9163 -0.1730
  455TMC3    O1 6785   3.069   1.219  16.114 -0.2440 -1.4915  0.2649
  455TMC3    O2 6786   3.105   1.698  16.606 -0.1022 -0.2628  0.5729
  456MPD2     C 6787   1.323   1.048  15.862 -0.2331 -0.2962  0.2454
  456MPD2    C1 6788   1.388   1.054  15.985 -0.1684  0.4569 -0.1278
  456MPD2    C2 6789   1.308   1.040  16.096 -0.1388  0.7439  0.0689
  456MPD2    C3 6790   1.174   1.022  16.092  0.1213 -0.3405 -0.6703
  456MPD2    C4 6791   1.114   1.009  15.969 -0.1201  0.6445  0.0601
  456MPD2    C5 6792   1.189   1.024  15.856  0.4381 -0.7584  0.8483
  456MPD2     H 6793   1.341   1.054  16.199 -0.3312  2.0897 -0.0617
  456MPD2    H1 6794   1.008   0.997  15.952 -0.1812  1.9514 -0.4973
  456MPD2    H2 6795   1.374   1.050  15.766 -1.3995 -2.0509 -0.4130
  456MPD2    H3 6796   1.137   1.013  15.762 -1.6334 -1.3724  2.0799
  456MPD2     N 6797   1.107   1.034  16.216  0.1756 -0.3986  0.2071
  456MPD2    H5 6798   1.160   1.051  16.301  0.8139  0.6981 -0.4242
  456MPD2    N1 6799   1.522   1.095  15.980 -0.1640 -0.4390 -0.1118
  456MPD2    H7 6800   1.563   1.124  15.891 -2.6849 -0.6632 -1.3567
  457TMC3    C1 6801   0.919   1.027  16.357 -0.0489 -0.1125  0.4757
  457TMC3    C2 6802   0.816   1.110  16.397 -1.0769 -0.3956  0.1567
  457TMC3    C3 6803   0.785   1.116  16.534  0.0188  0.1982  0.3322
  457TMC3    C4 6804   1.008   0.970  16.453 -0.4000  0.7709  0.4182
  457TMC3    C5 6805   0.972   0.979  16.588  0.0904 -0.2298  0.6461
  457TMC3    C6 6806   0.866   1.061  16.626 -0.1095  0.3891  0.2342
  457TMC3     C 6807   0.969   1.041  16.221 -0.3838  0.0369  0.0169
  457TMC3     O 6808   0.889   1.078  16.135 -0.3122 -0.2714 -0.0546
  457TMC3     H 6809   0.755   1.148  16.315  0.2046  1.9957  0.2850
  457TMC3    H1 6810   1.089   0.901  16.430 -0.2620  0.9573  0.3383
  457TMC3    H2 6811   0.833   1.052  16.729  1.3923 -0.4074  0.6389
  457TMC3    C7 6812   1.085   0.945  16.684  0.8210 -0.0205 -0.1523
  457TMC3    C8 6813   0.705   1.214  16.586 -0.0930  0.1882 -0.0661
  457TMC3    O1 6814   1.073   0.989  16.798  0.3416 -0.2730 -0.3332
  457TMC3    O2 6815   0.702   1.231  16.707  0.6146  0.0124  0.3280
  458MPD2     C 6816   3.549   1.155  12.314 -0.7287 -0.5364  0.3721
  458MPD2    C1 6817   3.550   1.067  12.425  0.6415  0.5537  0.0697
  458MPD2    C2 6818   3.431   1.039  12.495  0.6272 -0.5389  0.4468
  458MPD2    C3 6819   3.310   1.075  12.442  0.3049 -0.2302  0.2200
  458MPD2    C4 6820   3.310   1.150  12.324 -1.0018  0.5267 -0.5624
  458MPD2    C5 6821   3.423   1.201  12.272  0.0124  0.5111  0.3282
  458MPD2     H 6822   3.423   0.985  12.588  4.0561  2.0406  2.2118
  458MPD2    H1 6823   3.215   1.178  12.279  0.0367  4.5840 -0.2668
  458MPD2    H2 6824   3.639   1.201  12.274 -1.0837  1.5843  2.0202
  458MPD2    H3 6825   3.409   1.257  12.180 -0.2404  0.1641  0.1534
  458MPD2     N 6826   3.192   1.039  12.503 -0.6362  0.1903 -0.1954
  458MPD2    H5 6827   3.202   0.994  12.593 -2.3673  3.8952  1.8522
  458MPD2    N1 6828   3.670   1.018  12.473  0.3355 -0.5428 -0.1539
  458MPD2    H7 6829   3.753   1.057  12.430 -0.6188  2.5447  0.8080
  459TMC3    C1 6830   3.830   0.896  12.601 -0.3587  0.2320 -0.3085
  459TMC3    C2 6831   3.933   0.943  12.522  0.1475  0.3051  0.0660
  459TMC3    C3 6832   4.065   0.924  12.558 -0.3812  0.9497  0.0369
  459TMC3    C4 6833   3.861   0.828  12.713 -0.1609  0.3862 -0.0231
  459TMC3    C5 6834   3.998   0.796  12.742 -1.0995  0.1081 -0.4755
  459TMC3    C6 6835   4.098   0.856  12.675 -0.3250 -0.2063  0.3810
  459TMC3     C 6836   3.692   0.921  12.573 -0.0097  0.2011  0.1495
  459TMC3     O 6837   3.608   0.857  12.634  0.0035  0.3638  0.2077
  459TMC3     H 6838   3.914   1.011  12.440 -0.4794  1.8049  1.4622
  459TMC3    H1 6839   3.775   0.791  12.766  0.1151 -0.1638  0.0480
  459TMC3    H2 6840   4.198   0.824  12.704  0.2676  2.7447  1.5613
  459TMC3    C7 6841   4.029   0.695  12.850 -0.1169 -0.0842  0.1224
  459TMC3    C8 6842   4.180   0.948  12.467 -0.2632 -0.3700 -0.3359
  459TMC3    O1 6843   4.124   0.619  12.831 -0.1274  0.4678 -0.0156
  459TMC3    O2 6844   4.295   0.956  12.513 -0.0508  0.0078  0.8261
  460MPD2     C 6845   2.669   3.233  10.469 -0.1436  0.2285 -0.2319
  460MPD2    C1 6846   2.614   3.113  10.492 -0.0903 -0.2230 -0.4004
  460MPD2    C2 6847   2.537   3.059  10.390 -1.0871  0.6214  0.0810
  460MPD2    C3 6848   2.544   3.107  10.263 -0.3875  0.2655  0.0587
  460MPD2    C4 6849   2.599   3.229  10.243  0.0566  0.2950 -0.4080
  460MPD2    C5 6850   2.658   3.293  10.351 -0.2623 -0.1313 -0.8688
  460MPD2     H 6851   2.475   2.973  10.415 -1.4013  1.0947  0.9299
  460MPD2    H1 6852   2.594   3.280  10.148  1.9995  2.7209  0.8220
  460MPD2    H2 6853   2.737   3.276  10.541 -1.8788  1.7059  0.5445
  460MPD2    H3 6854   2.706   3.390  10.342 -0.8873  0.1861 -0.7746
  460MPD2     N 6855   2.502   3.036  10.151  0.3648 -0.2064 -0.3822
  460MPD2    H5 6856   2.519   3.078  10.061  1.1363 -0.1295 -0.1992
  460MPD2    N1 6857   2.628   3.047  10.621  0.2277  0.1041  0.3612
  460MPD2    H7 6858   2.688   3.108  10.676 -0.2470  1.0983 -0.2106
  461TMC3    C1 6859   2.384   2.877  10.036 -0.3112  0.2060  0.2854
  461TMC3    C2 6860   2.380   2.743   9.999 -0.8466  0.2130  0.3252
  461TMC3    C3 6861   2.295   2.714   9.892  0.1618  0.0536  0.1046
  461TMC3    C4 6862   2.320   2.969   9.974  0.8111  0.3308  0.4548
  461TMC3    C5 6863   2.240   2.934   9.868  0.9553 -0.0762  0.0365
  461TMC3    C6 6864   2.220   2.803   9.830  0.0193  0.1311 -0.1123
  461TMC3     C 6865   2.464   2.909  10.148 -0.4550 -0.2203  0.4947
  461TMC3     O 6866   2.488   2.820  10.227 -0.2559  0.1188  0.2773
  461TMC3     H 6867   2.448   2.671  10.043  0.8266  1.3131 -0.4797
  461TMC3    H1 6868   2.322   3.074  10.004 -0.6335  0.4398  0.1828
  461TMC3    H2 6869   2.145   2.779   9.756  0.5576 -0.3881 -0.4959
  461TMC3    C7 6870   2.155   3.042   9.820  0.7527 -0.0431  0.5012
  461TMC3    C8 6871   2.314   2.578   9.839 -0.0184 -0.2057  0.1803
  461TMC3    O1 6872   2.208   3.153   9.801 -0.8190  0.4805  0.3430
  461TMC3    O2 6873   2.393   2.505   9.899  0.5007 -0.1513  0.3155
  462TMC3    C1 6874   2.921   3.540   0.187  0.1339  0.5009  0.2990
  462TMC3    C2 6875   2.945   3.423   0.121 -0.4200 -0.5075  0.1308
  462TMC3    C3 6876   2.850   3.318   0.146  0.3447  0.1427 -0.3764
  462TMC3    C4 6877   2.817   3.569   0.274  0.0646 -0.0374 -0.1293
  462TMC3    C5 6878   2.734   3.464   0.296  0.1029 -0.1906 -0.6908
  462TMC3    C6 6879   2.738   3.346   0.224 -0.6249  0.0139 -0.1003
  462TMC3     C 6880   3.032   3.633   0.167  0.0804 -0.4316 -0.6219
  462TMC3     O 6881   3.139   3.580   0.151  0.2802  0.4019  0.5476
  462TMC3     H 6882   3.032   3.403   0.059  0.9872 -0.9939  2.2680
  462TMC3    H1 6883   2.823   3.653   0.343  0.1546 -0.4453  0.3635
  462TMC3    H2 6884   2.665   3.268   0.244 -0.2603 -0.4709 -0.6678
  462TMC3    C7 6885   2.612   3.479   0.386 -0.5819  0.1885 -0.7663
  462TMC3    C8 6886   2.854   3.197   0.068 -0.3699 -0.3053 -0.3372
  462TMC3    O1 6887   2.550   3.376   0.406 -0.4363 -0.4000  0.1039
  462TMC3    O2 6888   2.773   3.111   0.107 -0.0189 -0.3653 -0.2737
  463MPD2     C 6889   3.189   3.299   1.712  0.0011 -0.8030 -0.0669
  463MPD2    C1 6890   3.119   3.261   1.596 -0.7326  0.1072  0.1252
  463MPD2    C2 6891   3.173   3.279   1.472  0.1104  0.2815 -0.7391
  463MPD2    C3 6892   3.300   3.332   1.453  0.1902  0.2018 -0.2947
  463MPD2    C4 6893   3.361   3.376   1.567 -0.2197 -0.4581  0.5431
  463MPD2    C5 6894   3.311   3.354   1.695 -0.3026  0.7572  0.0961
  463MPD2     H 6895   3.126   3.249   1.379  0.9044 -0.3636 -0.9294
  463MPD2    H1 6896   3.455   3.429   1.560 -0.3912 -0.3983 -1.3819
  463MPD2    H2 6897   3.166   3.272   1.815 -1.5711  3.3867  0.6825
  463MPD2    H3 6898   3.367   3.386   1.782 -0.1698 -0.6711  0.5320
  463MPD2     N 6899   3.365   3.351   1.329 -0.1115  0.2729 -0.2803
  463MPD2    H5 6900   3.463   3.374   1.335 -0.5948  1.8865  1.6427
  463MPD2    N1 6901   3.004   3.176   1.608 -0.3226 -0.2756 -0.1055
  463MPD2    H7 6902   2.959   3.142   1.524  0.5436 -2.1689  0.1972
  464TMC3    C1 6903   2.862   3.008   1.679 -0.3476  0.1954 -0.6492
  464TMC3    C2 6904   2.872   2.945   1.556 -0.9907 -0.5842  0.2825
  464TMC3    C3 6905   2.774   2.865   1.510  0.2819 -0.0051 -0.0662
  464TMC3    C4 6906   2.755   2.982   1.767 -0.1331  0.5498 -0.5432
  464TMC3    C5 6907   2.649   2.911   1.714 -0.6779 -0.2957  0.6321
  464TMC3    C6 6908   2.653   2.861   1.583 -0.1710 -0.4684 -0.2536
  464TMC3     C 6909   2.944   3.121   1.718 -0.4678  0.2486  0.0876
  464TMC3     O 6910   2.938   3.167   1.830 -0.8527  0.0927 -0.2444
  464TMC3     H 6911   2.968   2.945   1.505  0.1680 -1.3239  2.4348
  464TMC3    H1 6912   2.750   3.018   1.869 -2.0264 -0.6708 -0.2029
  464TMC3    H2 6913   2.563   2.821   1.537  0.4739 -0.3116 -1.6622
  464TMC3    C7 6914   2.528   2.916   1.793 -0.9077 -0.3451 -0.1116
  464TMC3    C8 6915   2.785   2.810   1.378  0.0939 -0.1168 -0.5449
  464TMC3    O1 6916   2.521   2.994   1.883 -0.7058  0.2994 -0.2966
  464TMC3    O2 6917   2.889   2.849   1.326  0.2933 -0.4594  0.2080
  465MPD2     C 6918   0.459   1.117  16.269  0.2699 -0.2334 -0.0145
  465MPD2    C1 6919   0.369   1.122  16.372  0.7133 -0.4525 -0.2537
  465MPD2    C2 6920   0.260   1.205  16.352  0.8061 -0.0325  0.1818
  465MPD2    C3 6921   0.240   1.287  16.246 -0.0949  0.4872 -0.1440
  465MPD2    C4 6922   0.323   1.272  16.136  0.0181 -0.2652  0.0984
  465MPD2    C5 6923   0.418   1.179  16.148 -0.4786 -0.0991 -0.1925
  465MPD2     H 6924   0.189   1.220  16.432 -1.6296 -1.9585 -1.6244
  465MPD2    H1 6925   0.322   1.336  16.048 -0.1192  0.7159  0.8074
  465MPD2    H2 6926   0.546   1.053  16.276  1.2101  0.8432 -1.6433
  465MPD2    H3 6927   0.488   1.155  16.069 -0.0367 -1.4814  0.6184
  465MPD2     N 6928   0.132   1.379  16.252 -0.5883  0.0437 -0.3472
  465MPD2    H5 6929   0.073   1.370  16.334 -2.1748  1.1665 -1.3854
  465MPD2    N1 6930   0.383   1.051  16.499  0.1617  0.0562  0.0782
  465MPD2    H7 6931   0.336   1.082  16.583 -2.8509  1.7220 -2.2071
  466TMC3    C1 6932   4.533   1.619  16.289 -0.1964  1.2119  0.2108
  466TMC3    C2 6933   4.516   1.745  16.233  0.2005  0.2489  0.1985
  466TMC3    C3 6934   4.623   1.770  16.150  0.3172 -0.2641 -0.0130
  466TMC3    C4 6935   4.635   1.532  16.266 -0.0044  0.2347 -0.5423
  466TMC3    C5 6936   0.006   1.569  16.177 -0.4061  0.0660  0.5296
  466TMC3    C6 6937   0.008   1.689  16.118 -0.5744  0.4875  0.5985
  466TMC3     C 6938   4.435   1.566  16.384  0.6906  0.0759  0.3516
  466TMC3     O 6939   4.484   1.512  16.484 -0.1147 -0.4576  0.3903
  466TMC3     H 6940   4.432   1.811  16.252  1.2252  1.9601 -1.1807
  466TMC3    H1 6941   4.630   1.433  16.309 -0.1236  0.8680  0.9332
  466TMC3    H2 6942   0.077   1.729  16.045  0.9756  0.3586  1.9912
  466TMC3    C7 6943   0.116   1.477  16.159  0.3700 -0.2923  0.3231
  466TMC3    C8 6944   4.630   1.912  16.112 -0.1024 -0.0186  0.0552
  466TMC3    O1 6945   0.183   1.505  16.057 -0.3348 -0.3617  0.1672
  466TMC3    O2 6946   4.641   1.936  15.992  0.2196 -0.2300  0.5153
  467TMC3    C1 6947   1.403   4.600  14.225 -0.1551  0.5859 -0.1402
  467TMC3    C2 6948   1.383   4.639  14.095 -0.4325 -0.1312 -1.1819
  467TMC3    C3 6949   1.258   4.694  14.058 -0.5046  0.3517  0.3494
  467TMC3    C4 6950   1.312   4.627  14.321  0.0191 -0.3578  0.2130
  467TMC3    C5 6951   1.190   4.670  14.282  0.0506  0.1673  0.0745
  467TMC3    C6 6952   1.158   4.708  14.151 -0.8698  0.4295 -0.2869
  467TMC3     C 6953   1.535   4.598  14.281  0.1469 -0.1120  0.4633
  467TMC3     O 6954   1.555   4.566  14.398 -1.0166 -0.2685 -0.0047
  467TMC3     H 6955   1.462   4.632  14.021 -0.3752  0.5091 -1.1794
  467TMC3    H1 6956   1.335   4.604  14.424  1.3679  0.0199  0.0015
  467TMC3    H2 6957   1.061   0.030  14.128 -1.3897 -0.2405  0.6617
  467TMC3    C7 6958   1.082   4.668  14.383  0.5392  0.2247 -0.7665
  467TMC3    C8 6959   1.226   0.012  13.929 -0.0196 -0.2009  0.0425
  467TMC3    O1 6960   1.117   4.666  14.503 -0.0936  0.6407  0.1499
  467TMC3    O2 6961   1.120   0.070  13.908 -0.0761 -0.3465  0.3173
  468MPD2     C 6962   0.082   2.258  10.064 -0.0687  0.1292 -0.5675
  468MPD2    C1 6963   0.039   2.279  10.192  0.3465  0.9588  0.0405
  468MPD2    C2 6964   4.683   2.186  10.247  0.5997  0.0710 -0.2928
  468MPD2    C3 6965   4.662   2.060  10.191 -0.6442 -0.3673  0.2159
  468MPD2    C4 6966   4.709   2.036  10.064 -0.4431 -0.8138 -0.0110
  468MPD2    C5 6967   0.059   2.139   9.998 -0.3017 -0.2027 -0.0385
  468MPD2     H 6968   4.646   2.210  10.346  0.9552  0.1857 -0.1857
  468MPD2    H1 6969   4.699   1.942  10.012 -1.7613 -1.1634  0.8681
  468MPD2    H2 6970   0.135   2.338  10.014  1.2491 -0.8683 -0.7641
  468MPD2    H3 6971   0.082   2.125   9.893  2.4055  0.7355  0.4397
  468MPD2     N 6972   4.592   1.962  10.261 -0.1966 -0.0338 -0.2244
  468MPD2    H5 6973   4.591   1.865  10.232 -1.4006 -0.6748  1.9001
  468MPD2    N1 6974   0.085   2.388  10.268  0.4315 -0.9258 -0.5877
  468MPD2    H7 6975   0.075   2.376  10.368 -0.5749 -3.8948 -1.0542
  469TMC3    C1 6976   0.210   2.579  10.330  0.0188 -0.0658 -1.0821
  469TMC3    C2 6977   0.284   2.522  10.436  0.2538 -0.3218 -0.7847
  469TMC3    C3 6978   0.325   2.611  10.537  0.1752 -0.1204 -0.3890
  469TMC3    C4 6979   0.189   2.711  10.320  0.5047  0.4871 -0.5461
  469TMC3    C5 6980   0.243   2.793  10.415 -0.4698  0.0992 -0.3771
  469TMC3    C6 6981   0.306   2.747  10.528 -0.1079 -0.0722  0.1796
  469TMC3     C 6982   0.164   2.493  10.218  0.1830 -0.0235  0.6959
  469TMC3     O 6983   0.159   2.543  10.107 -0.3163  0.4429 -0.2037
  469TMC3     H 6984   0.299   2.415  10.434  0.9171 -0.2287 -0.5873
  469TMC3    H1 6985   0.131   2.742  10.233 -1.8601  1.0395  1.2266
  469TMC3    H2 6986   0.316   2.812  10.614  2.7635 -0.7212  0.3202
  469TMC3    C7 6987   0.184   2.918  10.441  0.3202  1.0143  0.3068
  469TMC3    C8 6988   0.377   2.542  10.644  0.6550 -0.0180 -0.3701
  469TMC3    O1 6989   0.254   3.004  10.498 -0.6924  0.7461 -0.1141
  469TMC3    O2 6990   0.405   2.424  10.635 -0.2199  0.2308  0.8390
  470TMC3    C1 6991   2.614   4.322   1.060  0.1475 -0.4379  0.5866
  470TMC3    C2 6992   2.529   4.423   1.103  0.1581  0.8830 -0.3067
  470TMC3    C3 6993   2.472   4.416   1.229 -0.1793  0.0772 -0.6607
  470TMC3    C4 6994   2.618   4.207   1.145 -0.2641  0.2307  0.4527
  470TMC3    C5 6995   2.552   4.206   1.262  0.0851 -0.2883  0.3214
  470TMC3    C6 6996   2.486   4.319   1.318 -0.7975  0.4431  0.6058
  470TMC3     C 6997   2.711   4.342   0.952 -0.3866  0.2334 -0.6372
  470TMC3     O 6998   2.763   4.240   0.915  0.3109  0.3668 -0.5728
  470TMC3     H 6999   2.507   4.511   1.043 -2.6453 -0.3287 -1.0767
  470TMC3    H1 7000   2.675   4.121   1.114 -0.2042  1.1176 -1.8966
  470TMC3    H2 7001   2.447   4.316   1.418 -0.2458  1.9755  0.8821
  470TMC3    C7 7002   2.556   4.069   1.319 -0.3164 -0.2548  0.0750
  470TMC3    C8 7003   2.376   4.519   1.264 -0.3349 -0.0592  0.8841
  470TMC3    O1 7004   2.550   3.979   1.237 -0.1270 -0.2287  0.4134
  470TMC3    O2 7005   2.372   4.551   1.383 -0.0208 -0.2375 -0.2635
  471MPD2     C 7006   2.668   0.652  16.926 -0.2437 -0.0097  0.0049
  471MPD2    C1 7007   2.699   0.520  16.908 -0.6291  0.0046 -0.2675
  471MPD2    C2 7008   2.724   0.447  17.023  0.1091  0.0109 -0.3181
  471MPD2    C3 7009   2.697   0.495  17.151 -0.3614  0.4549  0.1510
  471MPD2    C4 7010   2.662   0.631  17.161 -0.6123 -0.0944  0.1311
  471MPD2    C5 7011   2.659   0.708  17.050 -0.1581 -0.5154  0.2393
  471MPD2     H 7012   2.761   0.347  17.002 -0.2844 -0.2988  0.4491
  471MPD2    H1 7013   2.661   0.681  17.257 -1.5013  1.0075 -0.4494
  471MPD2    H2 7014   2.673   0.717  16.840  0.5916  0.1132  0.1516
  471MPD2    H3 7015   2.648   0.816  17.044 -0.6468 -0.4021  3.1280
  471MPD2     N 7016   2.722   0.428  17.273 -1.0982  0.0411  0.1439
  471MPD2    H5 7017   2.692   0.477  17.356 -0.2705 -1.0633  1.0791
  471MPD2    N1 7018   2.731   0.459  16.785  0.4926  0.3926  0.2124
  471MPD2    H7 7019   2.724   0.358  16.778  0.6867  0.5147 -1.5179
  472TMC3    C1 7020   2.750   0.434  16.549 -0.0831 -0.3541  0.0431
  472TMC3    C2 7021   2.680   0.475  16.438  0.2235  0.3833 -0.1601
  472TMC3    C3 7022   2.622   0.375  16.363 -0.2239  0.4104 -0.5275
  472TMC3    C4 7023   2.753   0.303  16.588 -0.5899  0.0362  0.0831
  472TMC3    C5 7024   2.693   0.208  16.505  0.1160 -0.4051  0.7281
  472TMC3    C6 7025   2.620   0.245  16.398 -0.2089  0.2852  1.1177
  472TMC3     C 7026   2.741   0.524  16.666 -0.6979  0.4283  0.4674
  472TMC3     O 7027   2.745   0.646  16.640 -0.3584  0.1409  0.1578
  472TMC3     H 7028   2.676   0.579  16.406 -2.7891  0.4430  0.4029
  472TMC3    H1 7029   2.816   0.274  16.671  0.8176 -0.9432 -1.3270
  472TMC3    H2 7030   2.562   0.174  16.339  0.6229  1.2614 -0.8793
  472TMC3    C7 7031   2.696   0.073  16.550 -0.1825 -0.3796 -0.0558
  472TMC3    C8 7032   2.495   0.414  16.298  0.2174  0.3269  0.5296
  472TMC3    O1 7033   2.728   0.059  16.669  0.3391 -0.1936  0.0728
  472TMC3    O2 7034   2.494   0.522  16.232  0.4185 -0.0058 -1.0916
  473MPD2     C 7035   3.102   2.594  13.832  0.0499  0.7422 -0.0602
  473MPD2    C1 7036   3.013   2.698  13.829  0.0080 -0.5360 -0.3236
  473MPD2    C2 7037   3.018   2.792  13.927 -0.1375  1.1069 -0.1810
  473MPD2    C3 7038   3.101   2.771  14.035 -0.7275  0.2020  1.1419
  473MPD2    C4 7039   3.185   2.659  14.041  0.6009  0.6851  0.0885
  473MPD2    C5 7040   3.185   2.574  13.935 -0.4334  0.3655 -0.0743
  473MPD2     H 7041   2.964   2.882  13.898  0.6980  1.8857  0.6983
  473MPD2    H1 7042   3.244   2.643  14.131  1.5644 -4.0758 -1.3819
  473MPD2    H2 7043   3.108   2.520  13.753  0.1328 -0.9172  1.5135
  473MPD2    H3 7044   3.246   2.484  13.938 -0.2172  0.5664  1.6290
  473MPD2     N 7045   3.121   2.861  14.145  0.1705 -0.1076  0.1005
  473MPD2    H5 7046   3.184   2.824  14.215 -1.3304  1.1563  2.1067
  473MPD2    N1 7047   2.918   2.716  13.722 -0.4445  0.0843 -0.1858
  473MPD2    H7 7048   2.837   2.769  13.752  0.8733  1.3917  1.0135
  474TMC3    C1 7049   3.090   3.069  14.272  0.0361  0.2574  0.5644
  474TMC3    C2 7050   3.044   3.196  14.272  0.4555  0.5514 -0.8868
  474TMC3    C3 7051   3.052   3.266  14.387 -0.3898 -0.2534 -0.0587
  474TMC3    C4 7052   3.161   3.010  14.374  1.1224 -0.4631  0.1409
  474TMC3    C5 7053   3.185   3.092  14.487  0.1826 -0.6139 -0.3287
  474TMC3    C6 7054   3.111   3.212  14.496 -0.1379 -0.3092  0.1519
  474TMC3     C 7055   3.065   2.987  14.152 -0.6214 -0.3576  0.1211
  474TMC3     O 7056   2.994   3.038  14.068  0.7121  0.2459  0.0126
  474TMC3     H 7057   2.988   3.231  14.186 -1.5569 -0.6390 -0.0570
  474TMC3    H1 7058   3.196   2.908  14.387 -0.8825 -1.0554  0.8557
  474TMC3    H2 7059   3.114   3.272  14.586 -0.2648 -1.7378  1.1166
  474TMC3    C7 7060   3.301   3.076  14.581 -0.6811  0.4161  0.1322
  474TMC3    C8 7061   2.949   3.362  14.421 -0.5000 -0.4345  0.0816
  474TMC3    O1 7062   3.373   2.976  14.562 -0.6801 -0.3652 -0.4612
  474TMC3    O2 7063   2.920   3.375  14.543 -0.4856 -0.6366 -0.2608
  475MPD2     C 7064   1.043   4.301  10.071 -0.1349  0.7396 -0.3853
  475MPD2    C1 7065   1.021   4.403  10.157  0.0818 -0.1422 -0.1462
  475MPD2    C2 7066   0.893   4.424  10.208 -0.3283 -0.1319  0.4216
  475MPD2    C3 7067   0.788   4.347  10.174  0.0787 -0.2941 -0.4666
  475MPD2    C4 7068   0.813   4.238  10.093  0.2317 -0.1812  1.1784
  475MPD2    C5 7069   0.939   4.223  10.038  0.6438 -0.0443 -0.8775
  475MPD2     H 7070   0.875   4.503  10.280 -0.2842 -0.0403  0.3324
  475MPD2    H1 7071   0.735   4.169  10.063 -0.5208  0.6799  1.1940
  475MPD2    H2 7072   1.145   4.272  10.049  0.1442 -0.3283  2.2218
  475MPD2    H3 7073   0.957   4.136   9.975  2.1403 -2.1228  2.4372
  475MPD2     N 7074   0.661   4.372  10.232  0.1970  0.6540 -0.2216
  475MPD2    H5 7075   0.655   4.447  10.300 -0.2854 -0.8545  1.3746
  475MPD2    N1 7076   1.132   4.482  10.199  0.6525  0.5063  0.0958
  475MPD2    H7 7077   1.211   4.488  10.135  2.5228  0.0600  2.3672
  476TMC3    C1 7078   1.238   4.646  10.337  0.4833 -0.7895 -0.1314
  476TMC3    C2 7079   1.197   0.032  10.256  0.3656 -0.0353  0.3695
  476TMC3    C3 7080   1.154   0.146  10.313  0.5655 -0.0469  0.0600
  476TMC3    C4 7081   1.278   4.678  10.461  0.0898 -0.8634 -0.0913
  476TMC3    C5 7082   1.252   0.082  10.512  0.9321  1.2018 -0.3919
  476TMC3    C6 7083   1.185   0.181  10.443  0.4892  0.1691 -0.2881
  476TMC3     C 7084   1.136   4.547  10.323 -0.4507 -0.6642  0.5060
  476TMC3     O 7085   1.059   4.536  10.416 -0.7057  0.6075 -0.8173
  476TMC3     H 7086   1.156   0.007  10.159  0.1377  1.4111  0.0940
  476TMC3    H1 7087   1.290   4.598  10.533 -0.0539  1.2819  2.3160
  476TMC3    H2 7088   1.150   0.273  10.488 -0.1713  0.8377 -2.1743
  476TMC3    C7 7089   1.365   0.130  10.590 -0.5772 -0.5924  0.0879
  476TMC3    C8 7090   1.029   0.204  10.276 -0.0775 -0.1488 -0.9231
  476TMC3    O1 7091   1.454   0.045  10.579  0.5447 -0.5982  0.3113
  476TMC3    O2 7092   0.997   0.314  10.321 -0.4148 -0.3761 -0.5584
  477MPD2     C 7093   3.401   2.253  11.420 -0.3813 -0.1199  0.5986
  477MPD2    C1 7094   3.293   2.230  11.498 -0.3504 -0.2304 -0.0933
  477MPD2    C2 7095   3.317   2.166  11.619 -0.1263 -0.6953  0.0355
  477MPD2    C3 7096   3.441   2.131  11.668 -0.3512 -0.0358 -0.1310
  477MPD2    C4 7097   3.550   2.161  11.586 -0.4251 -0.4606 -0.4240
  477MPD2    C5 7098   3.523   2.217  11.467  0.4997  0.4994  0.0064
  477MPD2     H 7099   3.228   2.144  11.676  0.4773  2.0930  2.0665
  477MPD2    H1 7100   3.653   2.135  11.610 -0.3293  1.2830  1.0675
  477MPD2    H2 7101   3.402   2.308  11.326  0.5143 -0.3315  0.4942
  477MPD2    H3 7102   3.601   2.245  11.397 -1.2735  1.6998 -1.4777
  477MPD2     N 7103   3.446   2.074  11.795 -0.7758  0.5695 -0.2190
  477MPD2    H5 7104   3.358   2.078  11.845  0.8602  1.7792  2.5642
  477MPD2    N1 7105   3.167   2.266  11.436  0.6412  0.8043  0.0074
  477MPD2    H7 7106   3.166   2.316  11.347  1.9818 -2.1929 -1.6617
  478TMC3    C1 7107   2.942   2.330  11.439  0.4430  0.4339 -0.5633
  478TMC3    C2 7108   2.837   2.366  11.517 -0.6415  0.4633  0.0119
  478TMC3    C3 7109   2.758   2.457  11.462 -0.9187  0.2456 -0.1749
  478TMC3    C4 7110   2.963   2.385  11.314 -0.7103  0.0030 -0.5383
  478TMC3    C5 7111   2.861   2.457  11.248 -0.1795  0.3787  0.5794
  478TMC3    C6 7112   2.762   2.501  11.333 -0.6743  0.4005 -0.8722
  478TMC3     C 7113   3.042   2.249  11.500 -0.1399  0.3581 -0.2174
  478TMC3     O 7114   3.019   2.188  11.603  0.2006  0.0586  0.7921
  478TMC3     H 7115   2.832   2.352  11.625  0.5950  2.8846  0.3860
  478TMC3    H1 7116   3.050   2.359  11.255 -0.5953  1.0795 -0.8508
  478TMC3    H2 7117   2.688   2.569  11.292  0.7669  2.2594 -0.3983
  478TMC3    C7 7118   2.882   2.512  11.114 -0.3621  1.1350 -0.2625
  478TMC3    C8 7119   2.669   2.521  11.556  0.1633  0.4773 -0.7037
  478TMC3    O1 7120   2.999   2.547  11.087  0.3828 -0.6320 -0.5630
  478TMC3    O2 7121   2.631   2.454  11.649  0.4388 -0.4501  0.3858
  479MPD2     C 7122   2.309   0.016  15.576 -0.3426 -0.4320  0.3003
  479MPD2    C1 7123   2.268   4.668  15.687 -0.1974  0.8852 -0.1526
  479MPD2    C2 7124   2.345   4.673  15.802 -0.5702 -0.8801  0.2960
  479MPD2    C3 7125   2.441   0.054  15.805 -0.0423 -0.5389  0.1708
  479MPD2    C4 7126   2.485   0.122  15.691  0.5366 -0.3962  0.3312
  479MPD2    C5 7127   2.418   0.094  15.568  0.0614  0.2247  0.6445
  479MPD2     H 7128   2.319   4.615  15.890 -1.6521 -0.7607  0.0548
  479MPD2    H1 7129   2.559   0.200  15.706 -0.7309  0.8357  0.0952
  479MPD2    H2 7130   2.266   4.714  15.480  0.0660  0.2962 -0.0648
  479MPD2    H3 7131   2.427   0.154  15.478 -2.0251  0.2834  0.4642
  479MPD2     N 7132   2.511   0.096  15.922  0.7948  0.3904 -0.2650
  479MPD2    H5 7133   2.606   0.131  15.918  1.8846 -2.2244  2.4822
  479MPD2    N1 7134   2.146   4.603  15.667  0.1318 -0.5923  0.2607
  479MPD2    H7 7135   2.104   4.616  15.575  3.3688 -1.0216 -1.2900
  480TMC3    C1 7136   2.189   4.696  16.231  0.8197 -0.4067  0.2168
  480TMC3    C2 7137   2.086   0.047  16.174 -0.0774  0.3863  0.5164
  480TMC3    C3 7138   2.109   0.126  16.065  0.5055  0.0962 -0.0748
  480TMC3    C4 7139   2.313   4.691  16.187  0.3394 -0.2454 -0.2303
  480TMC3    C5 7140   2.337   0.053  16.085 -0.4664  0.1596 -0.4671
  480TMC3    C6 7141   2.235   0.126  16.022 -0.5299 -0.1884  0.2918
  480TMC3     C 7142   2.158   4.618  16.344  0.0360  0.1063 -0.2370
  480TMC3     O 7143   2.071   4.657  16.415  0.1445 -0.2244  0.8336
  480TMC3     H 7144   1.981   0.036  16.201 -0.3540  0.4010 -0.5546
  480TMC3    H1 7145   2.388   4.617  16.212 -0.0757 -0.4888  0.2790
  480TMC3    H2 7146   2.261   0.206  15.954  0.7935  0.7793  1.9283
  480TMC3    C7 7147   2.482   0.063  16.051 -0.5146 -0.3164 -0.1619
  480TMC3    C8 7148   2.015   0.102  15.960  0.8314  0.4268 -0.2534
  480TMC3    O1 7149   2.568   0.046  16.137 -0.4442 -0.3064  0.1653
  480TMC3    O2 7150   1.917   0.027  15.982  0.2519  0.0499 -0.1782
  481MPD2     C 7151   3.636   4.134  13.945 -0.5955  0.1975  0.5285
  481MPD2    C1 7152   3.522   4.083  14.006 -0.6163 -0.7353 -0.3998
  481MPD2    C2 7153   3.511   4.085  14.142 -0.3377  0.6165  0.1901
  481MPD2    C3 7154   3.615   4.138  14.214  1.0821 -0.0983 -0.6988
  481MPD2    C4 7155   3.724   4.190  14.154  0.3946 -0.1497  0.2328
  481MPD2    C5 7156   3.740   4.186  14.021  0.1069 -0.0156  1.0959
  481MPD2     H 7157   3.416   4.058  14.185  0.3818 -0.8157  0.8699
  481MPD2    H1 7158   3.803   4.236  14.212  0.4513  0.0763 -0.0212
  481MPD2    H2 7159   3.658   4.137  13.839 -2.1272 -3.1980  0.1197
  481MPD2    H3 7160   3.833   4.204  13.968 -1.1854  0.4880 -0.9894
  481MPD2     N 7161   3.593   4.152  14.361  0.3903  0.3158 -0.5300
  481MPD2    H5 7162   3.655   4.217  14.408 -0.3832  2.0646 -1.9260
  481MPD2    N1 7163   3.414   4.047  13.923  0.0416  0.4234  0.6539
  481MPD2    H7 7164   3.433   4.064  13.824  0.5009  1.4621  0.9161
  482TMC3    C1 7165   3.193   3.999  13.857 -0.0719  0.3536  0.2861
  482TMC3    C2 7166   3.116   3.886  13.849  0.5237  0.0924 -0.3361
  482TMC3    C3 7167   3.032   3.874  13.740 -0.5237 -0.4460 -0.0165
  482TMC3    C4 7168   3.207   4.089  13.754  0.1641 -0.1225  0.3325
  482TMC3    C5 7169   3.114   4.080  13.653  0.2127  0.4609  0.5014
  482TMC3    C6 7170   3.034   3.970  13.638  0.0033 -0.1009  0.2475
  482TMC3     C 7171   3.294   4.000  13.965 -0.3038 -0.5504  0.4853
  482TMC3     O 7172   3.252   3.946  14.066  0.9001 -0.0657 -0.0799
  482TMC3     H 7173   3.095   3.833  13.941  1.9629 -1.2931 -0.8059
  482TMC3    H1 7174   3.248   4.187  13.774 -1.1497  0.6183 -0.6641
  482TMC3    H2 7175   2.968   3.968  13.552 -0.0612 -2.8774  0.3487
  482TMC3    C7 7176   3.103   4.191  13.564 -0.2835 -0.3806 -0.7235
  482TMC3    C8 7177   2.960   3.742  13.735  0.2991 -0.2011  0.2816
  482TMC3    O1 7178   3.002   4.189  13.489  0.0224 -0.3030  0.1792
  482TMC3    O2 7179   3.001   3.657  13.810 -0.5411 -0.6117 -0.0326
  483TMC3    C1 7180   0.882   2.596   0.445  0.2653  0.0316  0.1845
  483TMC3    C2 7181   0.955   2.715   0.453 -0.0857 -0.2006  0.1121
  483TMC3    C3 7182   1.089   2.715   0.424  0.5725  0.1746  0.4629
  483TMC3    C4 7183   0.940   2.490   0.382  0.5418  0.4214 -0.5782
  483TMC3    C5 7184   1.073   2.495   0.350  0.0451  1.0958  0.0587
  483TMC3    C6 7185   1.147   2.602   0.369  0.3340 -0.4962  0.5101
  483TMC3     C 7186   0.742   2.603   0.484 -0.1534  0.2640 -0.8903
  483TMC3     O 7187   0.696   2.717   0.484 -0.5724  1.2691 -0.3022
  483TMC3     H 7188   0.906   2.804   0.491  0.6396 -0.4783  1.7007
  483TMC3    H1 7189   0.886   2.396   0.376  0.5591  0.3463  0.3614
  483TMC3    H2 7190   1.254   2.591   0.352  0.2804  1.0973 -0.9161
  483TMC3    C7 7191   1.143   2.368   0.373  0.0663  0.0469  0.1032
  483TMC3    C8 7192   1.154   2.845   0.409  0.0988  0.1224 -0.4850
  483TMC3    O1 7193   1.252   2.368   0.417 -0.0150 -0.5095  0.7165
  483TMC3    O2 7194   1.242   2.850   0.322 -0.0468 -0.1458  0.0455
  484MPD2     C 7195   4.165   1.055  12.114 -0.0973  0.2288 -0.6174
  484MPD2    C1 7196   4.224   1.012  12.229 -0.0933 -0.0276  1.0593
  484MPD2    C2 7197   4.365   1.009  12.233  0.6208  0.9406  0.4611
  484MPD2    C3 7198   4.443   1.031  12.120 -0.0592 -0.6746  0.8424
  484MPD2    C4 7199   4.374   1.074  12.004  0.0116 -0.3907 -0.2506
  484MPD2    C5 7200   4.241   1.084  12.004 -0.7951  0.0651  0.4008
  484MPD2     H 7201   4.414   0.987  12.327 -0.6261 -0.4826  0.7969
  484MPD2    H1 7202   4.434   1.099  11.917  0.3434  0.5032  0.2298
  484MPD2    H2 7203   4.056   1.061  12.117 -0.0845 -0.6957  1.1718
  484MPD2    H3 7204   4.188   1.133  11.923  2.0877 -1.7613 -2.5954
  484MPD2     N 7205   4.585   1.015  12.118  0.2022  0.1614  0.5733
  484MPD2    H5 7206   4.622   1.053  12.032  1.3918  1.2583  1.5746
  484MPD2    N1 7207   4.140   0.977  12.338 -0.2777 -0.3075 -0.0494
  484MPD2    H7 7208   4.039   0.983  12.325 -0.3534 -0.3271  0.5412
  485TMC3    C1 7209   0.095   0.987  12.167 -0.5187  0.2243  0.4410
  485TMC3    C2 7210   0.198   0.979  12.261 -0.3939  0.2410 -0.1062
  485TMC3    C3 7211   0.325   0.980  12.217  0.5968  0.6194  0.4235
  485TMC3    C4 7212   0.120   0.993  12.034 -0.0776  0.6291 -0.4942
  485TMC3    C5 7213   0.247   0.986  11.992 -0.2508 -0.2510 -0.2368
  485TMC3    C6 7214   0.349   0.992  12.083  0.3575  0.4042 -0.1499
  485TMC3     C 7215   4.676   0.998  12.226  0.3480 -0.0231 -0.1126
  485TMC3     O 7216   4.655   0.959  12.339  0.0171 -0.4000  0.3644
  485TMC3     H 7217   0.177   0.978  12.368  0.1165  2.4445 -0.0028
  485TMC3    H1 7218   0.043   0.961  11.963  0.1334 -0.0480 -0.4173
  485TMC3    H2 7219   0.449   1.016  12.047  0.0519 -0.9187 -1.8760
  485TMC3    C7 7220   0.281   0.894  11.886 -0.1313 -0.0702 -0.1900
  485TMC3    C8 7221   0.408   0.881  12.277 -0.3297 -0.8341 -0.4996
  485TMC3    O1 7222   0.384   0.833  11.904  0.6053 -0.1971 -0.1254
  485TMC3    O2 7223   0.402   0.873  12.399  0.1409 -0.1122  0.2437
  486MPD2     C 7224   1.897   4.662  13.297  0.4072 -0.3251  0.2130
  486MPD2    C1 7225   1.879   4.649  13.159  0.5754  1.1944 -0.7483
  486MPD2    C2 7226   1.805   0.025  13.089 -0.2851 -0.3833  0.3433
  486MPD2    C3 7227   1.771   0.146  13.153  0.6649 -0.0480 -0.7792
  486MPD2    C4 7228   1.789   0.157  13.290 -0.0872 -0.3702 -0.1271
  486MPD2    C5 7229   1.841   0.049  13.365 -0.3800 -0.1460 -0.5006
  486MPD2     H 7230   1.796   0.019  12.981  1.0924  2.4271  0.0631
  486MPD2    H1 7231   1.760   0.249  13.340  0.5718 -0.2000 -0.0687
  486MPD2    H2 7232   1.948   4.585  13.354 -0.0337  0.4889  1.7092
  486MPD2    H3 7233   1.863   0.057  13.471 -1.3043  0.2250 -0.3393
  486MPD2     N 7234   1.707   0.249  13.072  0.6346 -0.1568  0.3403
  486MPD2    H5 7235   1.663   0.208  12.990 -1.7356  1.7829  0.6598
  486MPD2    N1 7236   1.932   4.534  13.090 -0.8402  0.3899  0.5752
  486MPD2    H7 7237   2.000   4.475  13.136 -0.9181 -0.0355  0.1360
  487TMC3    C1 7238   1.974   4.383  12.911  0.7447  0.7784 -0.1464
  487TMC3    C2 7239   1.900   4.301  12.831  0.6458  0.3004  0.3769
  487TMC3    C3 7240   1.913   4.162  12.844 -0.2637 -0.6074 -0.2559
  487TMC3    C4 7241   2.058   4.338  13.006 -0.1038 -0.3803  0.3911
  487TMC3    C5 7242   2.063   4.205  13.016  0.2428  1.0257  0.0284
  487TMC3    C6 7243   2.006   4.117  12.934 -0.6341  0.3373 -0.2730
  487TMC3     C 7244   1.900   4.505  12.959  0.5786 -0.3483 -0.4990
  487TMC3     O 7245   1.803   4.542  12.890  0.3959 -0.5658 -1.0527
  487TMC3     H 7246   1.838   4.349  12.756  1.3453 -1.6190 -1.4405
  487TMC3    H1 7247   2.121   4.402  13.066  0.0586  0.6459 -0.8791
  487TMC3    H2 7248   2.021   4.011  12.955  1.4990  0.7490  0.2920
  487TMC3    C7 7249   2.074   4.160  13.153  0.0561 -0.2388 -0.0975
  487TMC3    C8 7250   1.786   4.097  12.884 -0.1007  0.0555 -0.9383
  487TMC3    O1 7251   2.116   4.240  13.233 -0.0214  0.1920  0.1643
  487TMC3    O2 7252   1.792   4.011  12.974 -0.7271 -0.3367 -0.3999
  488MPD2     C 7253   1.466   1.590  15.885  0.3133  0.2755  0.6300
  488MPD2    C1 7254   1.562   1.634  15.974  0.0785  0.3348 -0.8464
  488MPD2    C2 7255   1.591   1.566  16.094  0.4264 -0.2588  0.6271
  488MPD2    C3 7256   1.511   1.463  16.138 -0.0987  0.0744  0.2244
  488MPD2    C4 7257   1.406   1.428  16.056 -0.4757 -0.1530 -0.4291
  488MPD2    C5 7258   1.392   1.481  15.931 -0.4147  0.1989  0.0637
  488MPD2     H 7259   1.666   1.610  16.159 -0.0727  0.8319  0.4632
  488MPD2    H1 7260   1.349   1.340  16.080 -0.6791 -0.3597 -1.6579
  488MPD2    H2 7261   1.459   1.629  15.785  0.3135 -0.8447  0.1856
  488MPD2    H3 7262   1.312   1.446  15.867 -1.9046 -0.9671  2.5460
  488MPD2     N 7263   1.537   1.402  16.262 -0.4232 -0.3359  0.1605
  488MPD2    H5 7264   1.623   1.437  16.303  0.0732 -0.8048 -0.4660
  488MPD2    N1 7265   1.639   1.748  15.953  0.3222  0.0126 -0.2838
  488MPD2    H7 7266   1.711   1.775  16.019 -1.2008 -0.8353  1.7024
  489TMC3    C1 7267   1.521   1.260  16.452  1.0789  0.2953  0.2883
  489TMC3    C2 7268   1.645   1.297  16.496 -0.5734 -0.1037 -0.1962
  489TMC3    C3 7269   1.670   1.289  16.630  0.6186 -0.3141  0.1065
  489TMC3    C4 7270   1.423   1.214  16.534 -0.4007 -0.0723 -0.6578
  489TMC3    C5 7271   1.450   1.222  16.666  0.2290  0.4219  0.4156
  489TMC3    C6 7272   1.574   1.244  16.720 -0.5102 -0.1964 -0.6691
  489TMC3     C 7273   1.464   1.309  16.331 -0.1121  0.3380  0.4564
  489TMC3     O 7274   1.359   1.257  16.298 -0.4285  0.6553  0.3966
  489TMC3     H 7275   1.719   1.329  16.424 -1.5805  0.3304 -1.0411
  489TMC3    H1 7276   1.323   1.182  16.505 -0.2781 -1.4018  0.3548
  489TMC3    H2 7277   1.591   1.265  16.825  0.0945  0.0519 -0.8117
  489TMC3    C7 7278   1.341   1.225  16.764  0.2016  0.1926 -0.1160
  489TMC3    C8 7279   1.785   1.368  16.675  0.5893 -0.2761  0.0036
  489TMC3    O1 7280   1.377   1.192  16.878  0.5109  0.2476 -0.0196
  489TMC3    O2 7281   1.835   1.444  16.595  0.8353 -0.1412 -0.7486
  490MPD2     C 7282   3.471   1.517   0.074 -0.1310  0.3202 -0.2568
  490MPD2    C1 7283   3.435   1.392   0.111  0.9888 -0.1840  0.2966
  490MPD2    C2 7284   3.458   1.351   0.237  0.5638  0.1679 -0.5387
  490MPD2    C3 7285   3.487   1.444   0.333 -0.1147  0.0988  1.2368
  490MPD2    C4 7286   3.515   1.574   0.297 -0.0945 -0.2441  0.1173
  490MPD2    C5 7287   3.502   1.609   0.170  0.1688 -0.7748  0.1320
  490MPD2     H 7288   3.448   1.246   0.261  2.2545  0.3354  0.8663
  490MPD2    H1 7289   3.548   1.654   0.362  1.1859  0.3733 -1.3092
  490MPD2    H2 7290   3.456   1.540  17.661 -1.3086  0.2687 -0.0991
  490MPD2    H3 7291   3.515   1.712   0.139 -0.3675 -0.7874 -0.1401
  490MPD2     N 7292   3.506   1.411   0.466 -0.0840 -0.1831  0.1361
  490MPD2    H5 7293   3.527   1.486   0.531 -0.1184  0.1640 -0.2593
  490MPD2    N1 7294   3.377   1.291   0.027 -0.1907  0.0235  0.1452
  490MPD2    H7 7295   3.369   1.202   0.075  0.8934 -0.3564 -0.3667
  491TMC3    C1 7296   3.229   1.194  17.570 -0.0978 -0.2108 -0.3456
  491TMC3    C2 7297   3.250   1.080  17.641  0.0377 -0.2132  0.0550
  491TMC3    C3 7298   3.152   0.985  17.625 -0.4041  0.3819  0.2652
  491TMC3    C4 7299   3.124   1.210  17.485  0.0919  0.1479 -0.3350
  491TMC3    C5 7300   3.030   1.116  17.477  0.2377 -0.0636 -0.7793
  491TMC3    C6 7301   3.034   1.001  17.551  0.1983 -0.3734 -0.1610
  491TMC3     C 7302   3.313   1.310  17.599 -0.0186  0.6285  0.3011
  491TMC3     O 7303   3.321   1.396  17.512  0.0490  0.3853  0.2963
  491TMC3     H 7304   3.321   1.068   0.031 -0.7816 -0.1885  0.7724
  491TMC3    H1 7305   3.115   1.293  17.416 -1.7668  1.4682  1.4831
  491TMC3    H2 7306   2.960   0.923  17.547  0.0913 -0.1972 -1.4634
  491TMC3    C7 7307   2.930   1.135  17.372 -0.6540  0.7132 -0.3249
  491TMC3    C8 7308   3.164   0.872   0.020 -0.4568 -0.8743  0.1720
  491TMC3    O1 7309   2.960   1.212  17.285  0.1651  0.8177 -0.3931
  491TMC3    O2 7310   3.253   0.797  17.671  0.1865 -0.9048  0.3443
  492MPD2     C 7311   3.264   0.485  11.771 -0.6375  0.6408 -0.8145
  492MPD2    C1 7312   3.141   0.431  11.744 -0.3164  0.3170  0.3961
  492MPD2    C2 7313   3.063   0.382  11.848  0.3125  0.0606 -0.5813
  492MPD2    C3 7314   3.103   0.397  11.979 -0.7267 -0.4459 -1.0447
  492MPD2    C4 7315   3.221   0.463  11.998 -0.2357  0.6435 -0.0027
  492MPD2    C5 7316   3.303   0.510  11.900 -0.0555  0.2306 -0.1565
  492MPD2     H 7317   2.967   0.336  11.828  0.6945 -0.5296 -1.0875
  492MPD2    H1 7318   3.258   0.487  12.097 -0.2248 -1.7226  0.5802
  492MPD2    H2 7319   3.325   0.521  11.689 -1.0647  1.8690 -0.5875
  492MPD2    H3 7320   3.400   0.551  11.925 -0.3675  0.8675  0.0050
  492MPD2     N 7321   3.041   0.346  12.099 -0.0630  0.5778  0.4379
  492MPD2    H5 7322   3.090   0.333  12.187 -0.1961 -0.0127  0.4284
  492MPD2    N1 7323   3.099   0.438  11.610  0.7560 -0.2240 -0.5165
  492MPD2    H7 7324   3.162   0.487  11.547 -1.6617  0.8785 -2.1204
  493TMC3    C1 7325   2.955   0.395  11.422 -0.1586 -0.8909 -0.6092
  493TMC3    C2 7326   2.977   0.526  11.375 -0.1130  0.0406 -0.2547
  493TMC3    C3 7327   2.911   0.571  11.263  0.3818 -0.0217 -0.3476
  493TMC3    C4 7328   2.870   0.308  11.357 -0.3969  0.0575 -0.4945
  493TMC3    C5 7329   2.812   0.356  11.242  0.0058  0.3587 -0.2775
  493TMC3    C6 7330   2.826   0.489  11.196 -0.1830  0.0577 -1.0062
  493TMC3     C 7331   2.999   0.353  11.556 -0.2812  0.3297  0.2240
  493TMC3     O 7332   2.947   0.253  11.607 -0.0539 -0.0813 -0.1444
  493TMC3     H 7333   3.050   0.583  11.432  0.7210 -1.0088 -0.2641
  493TMC3    H1 7334   2.866   0.203  11.384  0.5992 -0.2486 -1.5179
  493TMC3    H2 7335   2.770   0.521  11.109 -2.7616 -1.5205  0.1058
  493TMC3    C7 7336   2.711   0.266  11.181  0.3714  0.1978 -0.1394
  493TMC3    C8 7337   2.896   0.720  11.254 -0.1507 -0.4408 -0.4786
  493TMC3    O1 7338   2.667   0.306  11.076 -0.3015  0.7860 -0.1913
  493TMC3    O2 7339   2.922   0.773  11.361  0.1968  0.0752  0.1853
  494TMC3    C1 7340   3.911   2.812   0.632  0.9111 -0.4725  0.4955
  494TMC3    C2 7341   3.971   2.692   0.670  0.2296 -0.1673 -0.0631
  494TMC3    C3 7342   4.075   2.650   0.595  0.5706  0.4331 -0.5811
  494TMC3    C4 7343   3.948   2.879   0.517 -0.6599 -0.3949 -0.1121
  494TMC3    C5 7344   4.053   2.834   0.453 -0.2314 -0.1509  0.2244
  494TMC3    C6 7345   4.120   2.719   0.481  0.2378  0.1584  0.5209
  494TMC3     C 7346   3.781   2.841   0.683  0.8390  0.3751 -0.1221
  494TMC3     O 7347   3.712   2.925   0.620 -0.7173 -0.2459 -0.4480
  494TMC3     H 7348   3.951   2.648   0.766  1.8256 -1.3983 -0.2848
  494TMC3    H1 7349   3.884   2.957   0.478  1.5079  0.5039 -1.8811
  494TMC3    H2 7350   4.196   2.686   0.411  0.2981 -1.9868  1.6035
  494TMC3    C7 7351   4.088   2.898   0.329  0.3449  0.5607  0.3037
  494TMC3    C8 7352   4.131   2.513   0.614  0.1829 -0.1176  0.9785
  494TMC3    O1 7353   4.121   2.819   0.242 -0.3387  1.0210 -0.3477
  494TMC3    O2 7354   4.113   2.458   0.723 -0.5565 -0.3247  0.1690
  495TMC3    C1 7355   2.351   0.319  15.073 -0.1165  0.0067 -0.6172
  495TMC3    C2 7356   2.271   0.367  14.972 -1.0230  0.4973 -0.1347
  495TMC3    C3 7357   2.129   0.370  14.999  0.3799 -0.7423 -0.5582
  495TMC3    C4 7358   2.302   0.298  15.199 -0.2140 -0.2396 -0.3455
  495TMC3    C5 7359   2.170   0.321  15.233  0.0958  0.9245 -0.1901
  495TMC3    C6 7360   2.079   0.345  15.125  0.2842  0.0467  0.4307
  495TMC3     C 7361   2.419   0.198  15.038  0.4222  0.0741 -0.4205
  495TMC3     O 7362   2.385   0.101  15.103 -0.3399  0.9988  0.1688
  495TMC3     H 7363   2.300   0.369  14.867 -1.4174  0.5807 -0.2443
  495TMC3    H1 7364   2.381   0.293  15.274  1.0381  2.1118 -1.4829
  495TMC3    H2 7365   1.978   0.379  15.144  0.5329  1.1274 -0.1702
  495TMC3    C7 7366   2.136   0.326  15.370 -0.1777 -0.0177 -0.2966
  495TMC3    C8 7367   2.045   0.371  14.888 -0.0784  0.8304 -0.4594
  495TMC3    O1 7368   2.225   0.360  15.444  0.2477  0.3072  0.2159
  495TMC3    O2 7369   2.097   0.436  14.796  0.0837  0.1709  0.0651
  496MPD2     C 7370   4.377   0.209  15.517 -0.1359 -0.8439 -0.9307
  496MPD2    C1 7371   4.306   0.176  15.404  0.8061  0.3024 -0.9084
  496MPD2    C2 7372   4.182   0.234  15.382  0.4825  0.7748 -0.0553
  496MPD2    C3 7373   4.141   0.334  15.459  0.8627  0.1451  0.8094
  496MPD2    C4 7374   4.226   0.384  15.557  0.0394  0.2843 -0.4484
  496MPD2    C5 7375   4.329   0.305  15.597 -0.1410  0.3581 -0.7180
  496MPD2     H 7376   4.122   0.213  15.294  0.2167  0.9711  0.0781
  496MPD2    H1 7377   4.182   0.462  15.619 -0.2070 -1.4109  1.5254
  496MPD2    H2 7378   4.464   0.150  15.543 -1.8415 -1.8202  2.4475
  496MPD2    H3 7379   4.382   0.321  15.690 -1.1104  0.6112 -0.2070
  496MPD2     N 7380   4.013   0.393  15.463  0.3369 -0.3441  0.1207
  496MPD2    H5 7381   4.003   0.468  15.531  1.0803  0.9852 -1.2431
  496MPD2    N1 7382   4.356   0.067  15.329  0.3993 -0.1508 -0.2458
  496MPD2    H7 7383   4.445   0.029  15.361 -0.0846  1.0226  2.4800
  497TMC3    C1 7384   3.786   0.444  15.432  0.0233 -0.5268 -0.3977
  497TMC3    C2 7385   3.667   0.418  15.380 -1.3174  0.5956 -0.8381
  497TMC3    C3 7386   3.550   0.468  15.427  0.6824  0.2011 -0.0377
  497TMC3    C4 7387   3.787   0.513  15.552  0.5069 -0.1491  0.2209
  497TMC3    C5 7388   3.667   0.538  15.615 -0.1527 -0.0367  0.2559
  497TMC3    C6 7389   3.548   0.530  15.547  0.1842 -0.2920 -0.1433
  497TMC3     C 7390   3.902   0.364  15.391 -0.1745  0.5561 -0.0845
  497TMC3     O 7391   3.888   0.277  15.302  0.2737  0.6046  0.2065
  497TMC3     H 7392   3.651   0.352  15.296 -1.1844  1.6615 -1.6967
  497TMC3    H1 7393   3.880   0.529  15.606  1.1532 -1.9364 -0.3487
  497TMC3    H2 7394   3.460   0.558  15.603  1.6506  0.1644  1.9560
  497TMC3    C7 7395   3.660   0.620  15.739 -0.1010 -0.4649  0.0868
  497TMC3    C8 7396   3.443   0.380  15.382 -0.9474 -1.0660 -0.1704
  497TMC3    O1 7397   3.556   0.680  15.771  0.3365  0.4459  0.8082
  497TMC3    O2 7398   3.434   0.348  15.264  0.2977  0.3068  0.7813
  498MPD2     C 7399   0.616   4.655   9.560 -0.6200 -0.0775 -0.4529
  498MPD2    C1 7400   0.524   0.017   9.629 -0.5378 -1.0537 -0.5585
  498MPD2    C2 7401   0.390   4.709   9.635  0.7221 -0.5037  0.9991
  498MPD2    C3 7402   0.342   4.601   9.564 -0.2140 -0.0730  0.4912
  498MPD2    C4 7403   0.436   4.525   9.491 -0.3897  0.9389  0.0153
  498MPD2    C5 7404   0.565   4.548   9.490 -0.6991 -0.3632 -0.2085
  498MPD2     H 7405   0.314   0.050   9.679  0.1939 -1.0687  0.9031
  498MPD2    H1 7406   0.406   4.439   9.432 -0.3488  0.0852  1.2332
  498MPD2    H2 7407   0.723   4.676   9.560 -0.5726 -0.3073  2.6726
  498MPD2    H3 7408   0.628   4.474   9.442 -1.0579 -1.0421  0.3628
  498MPD2     N 7409   0.211   4.563   9.580  0.3745  0.1716 -0.4175
  498MPD2    H5 7410   0.154   4.607   9.651  2.3802  1.1440  0.5881
  498MPD2    N1 7411   0.572   0.136   9.693 -0.3620  0.3370  0.4422
  498MPD2    H7 7412   0.498   0.203   9.715 -2.8294 -1.8487 -1.2573
  499TMC3    C1 7413   0.725   0.297   9.782  0.1445  0.3545  0.1297
  499TMC3    C2 7414   0.831   0.326   9.864 -0.3299  0.2894 -0.8806
  499TMC3    C3 7415   0.843   0.447   9.924 -0.5034  0.3676  0.0353
  499TMC3    C4 7416   0.630   0.393   9.758  0.2018  1.2341  0.0349
  499TMC3    C5 7417   0.642   0.517   9.822  0.5144  0.3026 -0.1168
  499TMC3    C6 7418   0.748   0.542   9.909  0.0640  0.0850  0.0052
  499TMC3     C 7419   0.705   0.164   9.732 -0.4522  0.4027  0.0355
  499TMC3     O 7420   0.800   0.084   9.745 -0.0337 -0.4930  0.2275
  499TMC3     H 7421   0.895   0.243   9.891  2.1915  2.1292 -1.2404
  499TMC3    H1 7422   0.549   0.385   9.686  0.5700  2.1077 -0.4710
  499TMC3    H2 7423   0.759   0.642   9.950  1.9447  0.3459 -1.1347
  499TMC3    C7 7424   0.541   0.618   9.809 -0.1901  1.0527  0.2765
  499TMC3    C8 7425   0.963   0.481  10.008 -0.0855 -1.0341 -0.0878
  499TMC3    O1 7426   0.581   0.736   9.819 -0.1404 -0.3134 -0.0434
  499TMC3    O2 7427   0.953   0.583  10.078  0.1774  0.6558  0.2150
  500MPD2     C 7428   1.913   1.330  10.131  0.3755 -0.1959  0.0488
  500MPD2    C1 7429   1.826   1.434  10.113 -0.7712  0.0141  0.6269
  500MPD2    C2 7430   1.697   1.407  10.076 -0.1214 -0.5086  0.7518
  500MPD2    C3 7431   1.654   1.273  10.054 -0.3199  0.1273  0.1220
  500MPD2    C4 7432   1.746   1.173  10.075  0.2922  0.6503  0.7555
  500MPD2    C5 7433   1.871   1.204  10.104 -0.1155  0.3287 -0.2741
  500MPD2     H 7434   1.624   1.487  10.078 -0.2074 -0.5468 -1.2077
  500MPD2    H1 7435   1.724   1.068  10.057  2.6688  0.4246 -0.9026
  500MPD2    H2 7436   2.012   1.338  10.173 -0.0322 -0.7712  1.0959
  500MPD2    H3 7437   1.940   1.121  10.117  0.6357  1.0564  0.3492
  500MPD2     N 7438   1.524   1.247  10.026 -0.0366 -0.6895 -0.3317
  500MPD2    H5 7439   1.502   1.150  10.043 -0.7834 -0.0961  2.0391
  500MPD2    N1 7440   1.876   1.561  10.145  0.1591  0.6696  0.0901
  500MPD2    H7 7441   1.954   1.557  10.209 -0.3202  0.8564  0.6907
  501TMC3    C1 7442   1.875   1.773  10.217 -0.4228  0.1705  0.4409
  501TMC3    C2 7443   1.865   1.903  10.185  0.5485  0.0196  0.0875
  501TMC3    C3 7444   1.871   1.990  10.291 -0.7215  0.8376 -0.0347
  501TMC3    C4 7445   1.896   1.734  10.345  0.0221  0.4752  0.3699
  501TMC3    C5 7446   1.901   1.828  10.445 -0.0209 -0.9173 -0.5515
  501TMC3    C6 7447   1.879   1.955  10.421  0.3092  0.2003 -0.3631
  501TMC3     C 7448   1.815   1.677  10.126 -0.9512  0.3697 -1.4386
  501TMC3     O 7449   1.725   1.710  10.048  0.4120 -0.2843  0.1046
  501TMC3     H 7450   1.871   1.936  10.082 -2.7858  2.5586  0.6896
  501TMC3    H1 7451   1.905   1.632  10.382 -1.6431 -0.2427 -1.2483
  501TMC3    H2 7452   1.853   2.021  10.503 -1.2769 -0.4429 -0.3477
  501TMC3    C7 7453   2.010   1.808  10.537 -1.1888  0.1826  0.1985
  501TMC3    C8 7454   1.928   2.122  10.283  0.1537 -0.0684  0.1483
  501TMC3    O1 7455   2.051   1.692  10.548  0.5242  0.1086 -0.0401
  501TMC3    O2 7456   1.979   2.173  10.386 -0.2930  0.2302  0.2530
  502TMC3    C1 7457   1.758   1.248  15.336  0.5727  0.1908  0.7227
  502TMC3    C2 7458   1.696   1.367  15.303  1.2561  0.5932 -0.2619
  502TMC3    C3 7459   1.580   1.351  15.224  0.1990  0.2188  0.2143
  502TMC3    C4 7460   1.699   1.122  15.325  0.3232 -0.7019  0.6667
  502TMC3    C5 7461   1.584   1.119  15.251  0.8912 -0.4164  0.0463
  502TMC3    C6 7462   1.545   1.230  15.181 -0.2604  0.4860  0.1050
  502TMC3     C 7463   1.872   1.266  15.429 -0.3571  0.6805  0.1025
  502TMC3     O 7464   1.958   1.353  15.410  0.4035  0.0920 -0.1247
  502TMC3     H 7465   1.733   1.460  15.344  0.9409  0.1950  0.9459
  502TMC3    H1 7466   1.758   1.034  15.347  1.5499  0.1072  0.6456
  502TMC3    H2 7467   1.465   1.231  15.108  0.5938 -0.6515 -0.8380
  502TMC3    C7 7468   1.519   0.992  15.232  0.5358  0.3880 -0.7509
  502TMC3    C8 7469   1.513   1.466  15.162 -0.0687 -1.3714 -0.0849
  502TMC3    O1 7470   1.561   0.905  15.309 -0.3607 -0.3777  0.3339
  502TMC3    O2 7471   1.572   1.564  15.118 -0.2000 -0.3046  0.1078
  503MPD2     C 7472   3.785   1.845  16.979  0.0965 -0.0714 -0.3133
  503MPD2    C1 7473   3.865   1.904  17.075  0.2556  0.1759  0.0635
  503MPD2    C2 7474   3.914   1.823  17.175  0.0652  0.7369  0.2232
  503MPD2    C3 7475   3.884   1.686  17.182 -0.3899  0.3149  0.3524
  503MPD2    C4 7476   3.817   1.620  17.080  0.1030 -0.2942  0.0631
  503MPD2    C5 7477   3.772   1.705  16.983  0.0446  0.0136  0.5081
  503MPD2     H 7478   3.978   1.869  17.248  0.2358 -0.3599  0.7598
  503MPD2    H1 7479   3.796   1.514  17.073 -1.2468  0.1580 -2.4533
  503MPD2    H2 7480   3.751   1.899  16.891 -1.0415 -2.8428 -1.5979
  503MPD2    H3 7481   3.719   1.665  16.898  1.2527 -1.4012  0.4179
  503MPD2     N 7482   3.954   1.614  17.284 -0.5898 -0.3104  0.4501
  503MPD2    H5 7483   4.015   1.664  17.348 -0.1031  1.6195 -1.5038
  503MPD2    N1 7484   3.894   2.043  17.077  0.4196 -0.1617  0.0331
  503MPD2    H7 7485   3.955   2.075  17.151  1.3982 -3.5313  0.6487
  504TMC3    C1 7486   4.059   1.428  17.380  0.2089  0.3434 -0.8461
  504TMC3    C2 7487   4.092   1.498  17.490 -0.2549 -0.3566  0.3452
  504TMC3    C3 7488   4.214   1.473  17.533 -0.5283  0.3383  0.1384
  504TMC3    C4 7489   4.139   1.338  17.309  0.0870 -0.1608 -0.6225
  504TMC3    C5 7490   4.255   1.307  17.372 -0.7408  0.0921  0.2302
  504TMC3    C6 7491   4.299   1.383  17.481 -0.5883 -0.0607  0.4528
  504TMC3     C 7492   3.953   1.476  17.292  0.2712  0.2100  0.0694
  504TMC3     O 7493   3.902   1.392  17.221 -0.1933  0.3804 -0.5001
  504TMC3     H 7494   4.034   1.576  17.538  0.8489  0.4567  0.3626
  504TMC3    H1 7495   4.102   1.282  17.224  1.6055  0.4788 -1.7068
  504TMC3    H2 7496   4.404   1.391  17.507 -0.9573  0.3779  1.7781
  504TMC3    C7 7497   4.343   1.219  17.304  0.3283 -0.5551  0.1510
  504TMC3    C8 7498   4.266   1.551  17.640  0.2004  0.0050  0.0213
  504TMC3    O1 7499   4.314   1.185  17.191 -0.3239  0.1091  0.5675
  504TMC3    O2 7500   4.223   1.666  17.660  0.6616 -0.0124 -0.2004
  505MPD2     C 7501   3.539   4.638   9.566 -0.5794  0.0894 -0.0841
  505MPD2    C1 7502   3.554   4.582   9.688  0.1651  0.3789  0.8199
  505MPD2    C2 7503   3.605   4.673   9.785  0.0712  0.2380 -0.9511
  505MPD2    C3 7504   3.655   0.077   9.752  1.0754 -0.2345  0.3367
  505MPD2    C4 7505   3.637   0.122   9.625  0.2342 -0.1393 -1.0164
  505MPD2    C5 7506   3.573   0.040   9.530 -0.2687  0.2018  0.8901
  505MPD2     H 7507   3.616   4.637   9.886  2.3043 -1.3694 -1.7701
  505MPD2    H1 7508   3.659   0.225   9.600 -3.0665  0.3613 -1.9855
  505MPD2    H2 7509   3.501   4.586   9.478 -1.3933  1.3628 -0.4821
  505MPD2    H3 7510   3.550   0.082   9.433  0.3021  0.3930  0.8365
  505MPD2     N 7511   3.727   0.161   9.842  0.0740 -0.0277 -0.3959
  505MPD2    H5 7512   3.757   0.255   9.818 -0.0468  0.4896  1.4413
  505MPD2    N1 7513   3.534   4.446   9.709  0.4153 -0.3401  0.4203
  505MPD2    H7 7514   3.494   4.382   9.641  0.6071 -0.8255  0.7627
  506TMC3    C1 7515   3.540   4.239   9.832 -0.7568  0.8038  0.3060
  506TMC3    C2 7516   3.597   4.179   9.723  0.1714 -0.8444 -0.0416
  506TMC3    C3 7517   3.681   4.070   9.736 -0.6915 -0.0192  0.5452
  506TMC3    C4 7518   3.559   4.181   9.950  0.6055 -0.9289  0.8191
  506TMC3    C5 7519   3.658   4.086   9.959 -0.9870 -0.1620 -0.8314
  506TMC3    C6 7520   3.710   4.012   9.859  0.0686 -0.0413  0.2336
  506TMC3     C 7521   3.549   4.386   9.834  0.1102  0.0560 -1.0223
  506TMC3     O 7522   3.562   4.428   9.949  0.4533 -0.5296 -0.9988
  506TMC3     H 7523   3.597   4.222   9.623  0.9669 -3.6086 -1.2403
  506TMC3    H1 7524   3.523   4.234  10.037  0.8754 -1.7625  1.4438
  506TMC3    H2 7525   3.781   3.931   9.865 -1.9660 -1.8235  0.4869
  506TMC3    C7 7526   3.758   4.124  10.049 -0.3574  0.2141  0.0617
  506TMC3    C8 7527   3.768   4.030   9.626  0.2460 -1.3791 -0.0073
  506TMC3    O1 7528   3.832   4.031  10.075 -0.4089  0.5738 -0.0128
  506TMC3    O2 7529   3.710   3.997   9.525 -0.3835  0.2984  0.3872
  507TMC3    C1 7530   4.624   1.135  14.696  1.2499  0.1342  0.0062
  507TMC3    C2 7531   4.572   1.009  14.678 -0.3766 -0.3459  0.4045
  507TMC3    C3 7532   4.617   0.939  14.572  0.0665 -1.0013  0.9905
  507TMC3    C4 7533   0.002   1.186  14.618 -0.3257 -0.0283  0.0579
  507TMC3    C5 7534   0.055   1.107  14.523 -0.2458  0.3431  0.0718
  507TMC3    C6 7535   0.002   0.986  14.500  0.3902 -0.4702  0.2600
  507TMC3     C 7536   4.587   1.222  14.811  0.2675  0.3135 -0.0557
  507TMC3     O 7537   4.660   1.302  14.860  0.1088 -0.2869 -0.3086
  507TMC3     H 7538   4.491   0.963  14.734 -0.2500 -2.2416 -0.9652
  507TMC3    H1 7539   0.039   1.287  14.631  0.8552 -0.3902 -0.4835
  507TMC3    H2 7540   0.032   0.935  14.409 -2.0934 -0.9482 -0.3125
  507TMC3    C7 7541   0.063   1.173  14.392 -0.4110 -0.2981  0.1247
  507TMC3    C8 7542   4.500   0.905  14.492 -0.2193  0.3175 -0.4642
  507TMC3    O1 7543   4.721   1.112  14.307 -0.0891  0.1065  0.0903
  507TMC3    O2 7544   4.413   0.832  14.539 -0.4699 -0.0781 -0.0483
  508MPD2     C 7545   1.188   3.035  15.705 -0.1677 -0.5783  0.1845
  508MPD2    C1 7546   1.241   3.163  15.744 -0.2750 -0.5399  0.1062
  508MPD2    C2 7547   1.225   3.269  15.655  0.4986  0.6809  0.0635
  508MPD2    C3 7548   1.167   3.259  15.533 -0.7267 -0.3226 -0.1585
  508MPD2    C4 7549   1.128   3.133  15.496 -0.6663 -1.3164 -0.2300
  508MPD2    C5 7550   1.150   3.021  15.574  0.1715  0.3102 -0.4317
  508MPD2     H 7551   1.256   3.370  15.679 -1.2856  1.7051 -1.9611
  508MPD2    H1 7552   1.105   3.121  15.391  0.0319  0.8093 -0.6205
  508MPD2    H2 7553   1.181   2.950  15.772  1.8882 -0.7409  0.2081
  508MPD2    H3 7554   1.111   2.929  15.532  0.7117 -0.0912 -0.0512
  508MPD2     N 7555   1.156   3.384  15.463  0.3742  0.4401 -0.5935
  508MPD2    H5 7556   1.213   3.463  15.493  1.5732 -0.8814  0.6259
  508MPD2    N1 7557   1.301   3.190  15.873  0.0917 -0.5736 -0.2194
  508MPD2    H7 7558   1.323   3.285  15.902 -0.0019 -0.6906  0.2395
  509TMC3    C1 7559   0.909   3.722  15.315 -0.4121 -0.2018  0.1903
  509TMC3    C2 7560   0.989   3.804  15.393  0.0871 -0.1007 -0.3879
  509TMC3    C3 7561   1.113   3.757  15.436  0.6606 -0.1721 -0.6232
  509TMC3    C4 7562   0.945   3.594  15.296 -0.5179 -0.1669 -0.1841
  509TMC3    C5 7563   1.060   3.552  15.335  0.1357 -0.2692 -0.0314
  509TMC3    C6 7564   1.145   3.626  15.411 -0.4115  0.3233 -0.4551
  509TMC3     C 7565   0.799   3.780  15.246  0.0058  0.5243  1.4710
  509TMC3     O 7566   0.748   3.710  15.164  0.0999  0.3610  0.2039
  509TMC3     H 7567   0.952   3.899  15.429 -3.3061 -1.0825 -1.2436
  509TMC3    H1 7568   0.882   3.537  15.228 -0.3274  0.9653 -1.3056
  509TMC3    H2 7569   1.245   3.595  15.436 -1.0058 -0.6660  0.7352
  509TMC3    C7 7570   1.073   3.408  15.356 -0.7917  0.0150  0.0559
  509TMC3    C8 7571   1.183   3.816  15.546 -0.4749 -0.1615  0.5567
  509TMC3    O1 7572   1.004   3.329  15.294  0.1230  0.0881  0.4082
  509TMC3    O2 7573   1.259   3.741  15.610 -0.3011  0.1615  0.2477
  510MPD2     C 7574   3.409   0.485  14.322 -0.2330  0.0265  0.0131
  510MPD2    C1 7575   3.448   0.369  14.386  0.0706  0.6039 -0.2741
  510MPD2    C2 7576   3.557   0.297  14.337  0.0382  0.2838 -0.1666
  510MPD2    C3 7577   3.616   0.334  14.218  0.7132  0.3651 -0.0193
  510MPD2    C4 7578   3.572   0.448  14.155 -0.1183  0.1079 -0.1221
  510MPD2    C5 7579   3.465   0.523  14.205 -0.6934  0.3569  0.0504
  510MPD2     H 7580   3.593   0.216  14.400  0.0707 -0.7296 -1.4738
  510MPD2    H1 7581   3.600   0.469  14.052 -0.6690  2.6165  0.2282
  510MPD2    H2 7582   3.328   0.544  14.361 -0.6229  0.0838 -0.8766
  510MPD2    H3 7583   3.425   0.603  14.144 -2.3489  0.4740  1.3151
  510MPD2     N 7584   3.728   0.251  14.173 -0.0278  0.1427  0.0128
  510MPD2    H5 7585   3.761   0.183  14.240 -1.0945  0.1328  0.5252
  510MPD2    N1 7586   3.386   0.326  14.510  1.0140 -0.4562  0.6726
  510MPD2    H7 7587   3.425   0.241  14.549 -0.1400 -1.8001 -1.1140
  511TMC3    C1 7588   3.247   0.303  14.693 -0.7452  0.1923  0.3195
  511TMC3    C2 7589   3.182   0.366  14.803  0.6784  0.3938  0.0673
  511TMC3    C3 7590   3.163   0.291  14.910  0.7049  0.1856 -0.2702
  511TMC3    C4 7591   3.296   0.179  14.699 -0.2061 -0.2486 -0.1300
  511TMC3    C5 7592   3.286   0.114  14.815 -0.5109  0.5187  0.4538
  511TMC3    C6 7593   3.211   0.159  14.919 -0.0649  0.1404  0.2846
  511TMC3     C 7594   3.296   0.390  14.589  0.4637 -0.0802  0.5477
  511TMC3     O 7595   3.249   0.502  14.584 -0.5577  0.3500  0.1733
  511TMC3     H 7596   3.136   0.462  14.783 -0.3640  0.1822  1.4330
  511TMC3    H1 7597   3.328   0.126  14.610 -1.1539  0.6611 -1.0088
  511TMC3    H2 7598   3.209   0.117  15.019  1.6650 -0.7134 -0.0385
  511TMC3    C7 7599   3.295   4.695  14.804 -0.0222 -0.2777 -0.2574
  511TMC3    C8 7600   3.093   0.345  15.029  0.2335  0.7565 -0.3634
  511TMC3    O1 7601   3.265   4.635  14.698 -0.6882 -0.0251  0.0739
  511TMC3    O2 7602   3.126   0.456  15.066 -0.4860  0.0819 -0.0510
  512TMC3    C1 7603   2.330   4.661  13.532 -0.4114  0.0183  0.0151
  512TMC3    C2 7604   2.457   4.655  13.579  0.0017  0.0500  0.3708
  512TMC3    C3 7605   2.548   4.598  13.496 -0.0335  0.0102 -0.5158
  512TMC3    C4 7606   2.292   4.603  13.418  0.3950 -0.2043  0.0739
  512TMC3    C5 7607   2.384   4.541  13.345  0.0872  0.2935  0.5970
  512TMC3    C6 7608   2.516   4.548  13.375  0.8564 -0.0070 -0.3746
  512TMC3     C 7609   2.227   4.706  13.629 -0.4067  0.2595 -0.0548
  512TMC3     O 7610   2.270   0.074  13.699 -0.0203 -0.2209  0.0614
  512TMC3     H 7611   2.488   4.672  13.682  0.1987  2.0477 -0.0099
  512TMC3    H1 7612   2.193   4.608  13.374  1.4423 -1.3230 -2.4228
  512TMC3    H2 7613   2.589   4.502  13.310 -0.0751 -2.5116  0.3403
  512TMC3    C7 7614   2.357   4.538  13.201 -0.0459  0.0647  0.9370
  512TMC3    C8 7615   2.681   4.577  13.546 -0.2582 -0.1250 -0.7177
  512TMC3    O1 7616   2.283   4.620  13.146  0.0835 -0.1824 -0.2868
  512TMC3    O2 7617   2.737   4.476  13.511 -0.0013  0.1434  0.4946
  513MPD2     C 7618   4.134   4.172  13.607 -0.4786  0.2890  0.3916
  513MPD2    C1 7619   4.212   4.071  13.558 -0.0167  0.9334 -0.7337
  513MPD2    C2 7620   4.346   4.072  13.582  0.1647  0.2782 -0.3619
  513MPD2    C3 7621   4.405   4.176  13.651 -0.1171  0.2637 -0.2905
  513MPD2    C4 7622   4.328   4.280  13.703  0.5742  0.2171 -0.2629
  513MPD2    C5 7623   4.195   4.273  13.675  0.3372 -0.3706  0.4214
  513MPD2     H 7624   4.416   3.995  13.552  1.1723  0.1652  2.3399
  513MPD2    H1 7625   4.359   4.363  13.765  0.1468  0.6302 -0.6056
  513MPD2    H2 7626   4.032   4.185  13.572 -1.2815 -2.2880  1.7311
  513MPD2    H3 7627   4.128   4.354  13.701  1.6585  0.6798  0.5788
  513MPD2     N 7628   4.543   4.164  13.659 -0.4197 -0.3767 -0.5130
  513MPD2    H5 7629   4.586   4.081  13.618 -0.4173 -0.0328 -1.2035
  513MPD2    N1 7630   4.165   3.971  13.466 -0.0394 -0.0676  0.4368
  513MPD2    H7 7631   4.245   3.921  13.430  0.0431  0.3020  0.1120
  514TMC3    C1 7632   4.047   3.832  13.327  0.0230 -1.0262 -0.1218
  514TMC3    C2 7633   3.984   3.847  13.206 -0.0282  0.7910 -0.6320
  514TMC3    C3 7634   4.055   3.815  13.091  0.0350 -0.4235  0.5121
  514TMC3    C4 7635   4.168   3.764  13.328 -0.5112 -1.1967 -1.0430
  514TMC3    C5 7636   4.243   3.752  13.216  0.1010 -0.1817  0.2313
  514TMC3    C6 7637   4.189   3.771  13.092  0.3629 -0.6345  0.5356
  514TMC3     C 7638   4.039   3.947  13.419 -0.0573 -0.7496 -0.1998
  514TMC3     O 7639   3.932   3.998  13.437 -0.1954  0.1709  0.3339
  514TMC3     H 7640   3.889   3.898  13.212 -0.9266 -0.9450 -0.2493
  514TMC3    H1 7641   4.218   3.739  13.421  1.4978  1.1110 -1.4849
  514TMC3    H2 7642   4.242   3.744  13.002  0.2137 -0.3892  0.3778
  514TMC3    C7 7643   4.379   3.794  13.235 -0.1708 -0.1996  0.6324
  514TMC3    C8 7644   3.973   3.793  12.968  0.2327 -0.2823 -0.7498
  514TMC3    O1 7645   4.407   3.846  13.346 -0.4868 -0.0272 -0.1470
  514TMC3    O2 7646   3.850   3.792  12.967  0.4424  0.1709 -0.5706
  515MPD2     C 7647   2.515   1.381  14.218 -0.1234 -0.1248  0.2159
  515MPD2    C1 7648   2.497   1.312  14.335  0.7891 -0.4832 -0.1122
  515MPD2    C2 7649   2.572   1.338  14.444  0.2240 -0.0245  0.2733
  515MPD2    C3 7650   2.680   1.426  14.439  0.3996 -0.8634  0.7059
  515MPD2    C4 7651   2.703   1.493  14.321 -0.0345  0.1535 -0.8125
  515MPD2    C5 7652   2.617   1.463  14.217  0.2885 -0.6663  0.1463
  515MPD2     H 7653   2.537   1.305  14.541 -0.1488  1.5646  0.6790
  515MPD2    H1 7654   2.789   1.556  14.303  0.6213 -0.8090 -1.0718
  515MPD2    H2 7655   2.450   1.365  14.132  0.2750  0.4985 -0.1975
  515MPD2    H3 7656   2.628   1.511  14.120 -1.2908 -3.5593 -1.4860
  515MPD2     N 7657   2.756   1.454  14.550 -0.4992  0.4112  0.5793
  515MPD2    H5 7658   2.822   1.528  14.528  1.8114 -0.3309  5.0228
  515MPD2    N1 7659   2.387   1.220  14.334 -0.1125  0.0939 -0.1545
  515MPD2    H7 7660   2.321   1.227  14.257  0.0087  3.1425 -0.0142
  516TMC3    C1 7661   2.233   1.064  14.426  0.1295 -0.2469 -0.1545
  516TMC3    C2 7662   2.139   1.102  14.333 -0.6694 -0.9154  0.7222
  516TMC3    C3 7663   2.008   1.052  14.352  0.2182 -0.0575  0.3499
  516TMC3    C4 7664   2.199   0.981  14.531 -0.6835 -0.2603 -0.2266
  516TMC3    C5 7665   2.074   0.931  14.540  0.0378 -0.6990  0.0448
  516TMC3    C6 7666   1.971   0.977  14.457  0.0552 -0.5476  0.0551
  516TMC3     C 7667   2.348   1.144  14.446 -0.2802  0.7526  0.3091
  516TMC3     O 7668   2.412   1.122  14.552 -0.3616  0.2004  0.4682
  516TMC3     H 7669   2.163   1.147  14.238  0.4780  1.5676  2.1868
  516TMC3    H1 7670   2.275   0.960  14.605  1.2783 -1.0341 -2.4278
  516TMC3    H2 7671   1.868   0.947  14.476  0.2994 -1.1403  0.4275
  516TMC3    C7 7672   2.044   0.871  14.668  0.6265 -0.8351 -0.1652
  516TMC3    C8 7673   1.909   1.126  14.286  1.4576  0.4120 -0.0597
  516TMC3    O1 7674   2.128   0.879  14.754  0.1415  0.6184  0.0310
  516TMC3    O2 7675   1.802   1.084  14.248  0.0446  0.2411 -0.3388
  517MPD2     C 7676   1.663   2.935  17.446 -0.6363  0.1931  0.2028
  517MPD2    C1 7677   1.770   2.912  17.534  0.1498  0.5893  0.8450
  517MPD2    C2 7678   1.798   2.999  17.637  1.0034 -0.9973  0.5374
  517MPD2    C3 7679   1.727   3.118  17.644  0.2247  0.4843 -0.2188
  517MPD2    C4 7680   1.622   3.142  17.556 -0.2021 -0.3731  0.8288
  517MPD2    C5 7681   1.578   3.039  17.474  0.6711 -0.0745 -0.6376
  517MPD2     H 7682   1.875   2.967   0.015  0.2203 -1.3028  1.2735
  517MPD2    H1 7683   1.552   3.223  17.571  1.4223  1.7169 -2.8327
  517MPD2    H2 7684   1.646   2.873  17.358  2.8967 -1.0830  0.4306
  517MPD2    H3 7685   1.488   3.052  17.416  0.9057  0.8707 -0.7808
  517MPD2     N 7686   1.738   3.200   0.063 -0.4426  0.3541  0.0320
  517MPD2    H5 7687   1.667   3.271   0.078 -0.7673 -0.2432  1.3045
  517MPD2    N1 7688   1.851   2.796  17.538 -0.2493 -0.3283  0.2303
  517MPD2    H7 7689   1.913   2.801  17.618  0.7193 -0.4388 -0.5082
  518TMC3    C1 7690   1.979   2.611  17.459  0.0823  0.3003 -0.5940
  518TMC3    C2 7691   1.963   2.479  17.421  0.9313 -0.0086 -0.4164
  518TMC3    C3 7692   2.068   2.394  17.442  0.1861 -0.4660 -0.2176
  518TMC3    C4 7693   2.102   2.662  17.494 -0.2560  0.0498 -0.3153
  518TMC3    C5 7694   2.204   2.570  17.512 -0.5174  0.3170  0.7812
  518TMC3    C6 7695   2.185   2.439  17.489 -0.2789  0.3375 -0.4611
  518TMC3     C 7696   1.860   2.692  17.447  0.4808 -1.2734 -0.0606
  518TMC3     O 7697   1.766   2.655  17.383  0.0633 -0.3567  0.1570
  518TMC3     H 7698   1.863   2.443  17.400  0.8691  0.7398 -1.3901
  518TMC3    H1 7699   2.110   2.769  17.487  1.8875 -0.0374  0.7139
  518TMC3    H2 7700   2.273   2.379  17.511  1.3428  2.5108 -1.0345
  518TMC3    C7 7701   2.343   2.620  17.526  0.3761 -0.6281  0.0916
  518TMC3    C8 7702   2.066   2.255  17.391  0.2134  0.3858 -0.4505
  518TMC3    O1 7703   2.352   2.724  17.590  0.2056 -0.0929  0.2474
  518TMC3    O2 7704   2.133   2.178  17.458  0.3669 -0.1350 -0.5524
  519MPD2     C 7705   3.908   1.352  14.482 -0.5078  0.0200 -0.0144
  519MPD2    C1 7706   3.794   1.357  14.402 -0.3627 -0.2624  0.0761
  519MPD2    C2 7707   3.740   1.232  14.369 -0.5867 -0.3008  0.0193
  519MPD2    C3 7708   3.812   1.116  14.391  0.3316  0.0252  0.1517
  519MPD2    C4 7709   3.935   1.117  14.456  0.5960 -0.8282  0.5532
  519MPD2    C5 7710   3.977   1.234  14.510 -0.0974 -0.6772 -0.0561
  519MPD2     H 7711   3.642   1.234  14.324 -0.4563 -1.6112 -0.3083
  519MPD2    H1 7712   3.995   1.027  14.462  1.5095 -0.2602  0.0028
  519MPD2    H2 7713   3.949   1.446  14.517  1.3693 -0.4203 -0.9912
  519MPD2    H3 7714   4.075   1.239  14.556 -0.5758 -1.8917  1.0806
  519MPD2     N 7715   3.786   0.990  14.334  0.2731  0.4656  0.1462
  519MPD2    H5 7716   3.857   0.918  14.336  0.9025  1.0802 -0.0554
  519MPD2    N1 7717   3.747   1.483  14.346  0.1137  0.2711 -0.1980
  519MPD2    H7 7718   3.803   1.565  14.370  1.2510 -0.1034 -1.5890
  520TMC3    C1 7719   3.688   0.835  14.176  0.3624  0.2269  0.8680
  520TMC3    C2 7720   3.656   0.851  14.045  0.1278  0.1064  0.8600
  520TMC3    C3 7721   3.723   0.772  13.956 -0.2903 -0.0930  0.6363
  520TMC3    C4 7722   3.768   0.735  14.217 -0.4027 -0.0692 -0.5060
  520TMC3    C5 7723   3.820   0.646  14.131 -0.1950 -0.7010  0.5683
  520TMC3    C6 7724   3.803   0.671  13.998 -0.1839  0.0512 -0.0074
  520TMC3     C 7725   3.672   0.962  14.259 -0.3872  0.2395 -0.0420
  520TMC3     O 7726   3.567   1.027  14.244 -0.1283 -0.1166 -0.2590
  520TMC3     H 7727   3.587   0.928  14.012  0.8768 -1.0837 -3.4495
  520TMC3    H1 7728   3.795   0.724  14.321  2.9932  0.5038 -1.3094
  520TMC3    H2 7729   3.843   0.608  13.920 -0.7713  2.1926 -2.0336
  520TMC3    C7 7730   3.958   0.598  14.181  0.2165  0.2811 -0.5401
  520TMC3    C8 7731   3.703   0.778  13.811  0.3718 -0.0862  0.5546
  520TMC3    O1 7732   3.975   0.590  14.300 -0.1118 -0.5264 -0.4512
  520TMC3    O2 7733   3.788   0.722  13.747 -0.0911  0.1580  0.0632
  521MPD2     C 7734   0.403   4.377  17.092 -0.3750 -0.4896 -0.2720
  521MPD2    C1 7735   0.358   4.247  17.052 -0.2602 -0.1625  0.5666
  521MPD2    C2 7736   0.429   4.178  16.955  0.6498 -0.4250 -0.1769
  521MPD2    C3 7737   0.564   4.212  16.935 -0.1319 -0.3698  0.4319
  521MPD2    C4 7738   0.606   4.333  16.973 -0.6022 -0.3769  0.1597
  521MPD2    C5 7739   0.524   4.418  17.039  0.4087  1.0322  0.1033
  521MPD2     H 7740   0.386   4.092  16.905 -0.2795 -0.2377  0.3169
  521MPD2    H1 7741   0.702   4.372  16.942 -0.3327 -1.2205 -0.0586
  521MPD2    H2 7742   0.331   4.441  17.143  0.3038  0.0884 -0.0320
  521MPD2    H3 7743   0.557   4.520  17.052  1.4248  0.7695 -0.4257
  521MPD2     N 7744   0.646   4.133  16.853 -0.0067  1.0583  0.3068
  521MPD2    H5 7745   0.594   4.071  16.790  1.0689  2.7916 -2.2684
  521MPD2    N1 7746   0.232   4.208  17.099  0.1790  0.9994  0.2928
  521MPD2    H7 7747   0.179   4.263  17.166 -0.3305 -0.6457  1.2292
  522TMC3    C1 7748   0.845   4.050  16.754 -0.5927 -0.6972  0.1415
  522TMC3    C2 7749   0.960   4.088  16.692  0.4416 -0.1284 -0.0696
  522TMC3    C3 7750   0.991   4.036  16.571  0.0540 -0.5776 -0.0184
  522TMC3    C4 7751   0.760   3.961  16.698 -0.0444 -0.3833  0.5532
  522TMC3    C5 7752   0.794   3.916  16.569  0.3075  0.4712 -0.1814
  522TMC3    C6 7753   0.903   3.952  16.502 -0.0973  0.0132 -0.3535
  522TMC3     C 7754   0.787   4.139  16.852 -0.5511  0.8555 -0.4769
  522TMC3     O 7755   0.864   4.188  16.934  0.0179  0.3737 -0.2301
  522TMC3     H 7756   1.028   4.156  16.743 -2.0257  2.1564  0.1968
  522TMC3    H1 7757   0.693   3.902  16.758 -1.0798 -1.8162 -1.9929
  522TMC3    H2 7758   0.918   3.906  16.405 -1.9030  2.4087 -1.7766
  522TMC3    C7 7759   0.714   3.799  16.526 -0.4340 -0.3751  0.4332
  522TMC3    C8 7760   1.126   4.029  16.541  0.5841 -0.3296  0.9756
  522TMC3    O1 7761   0.779   3.700  16.499 -0.0394 -0.0790 -0.1223
  522TMC3    O2 7762   1.205   4.091  16.615 -0.4244 -0.0682  0.4658
  523MPD2     C 7763   1.795   3.089   9.903 -0.0634  0.2929 -0.3981
  523MPD2    C1 7764   1.912   3.117   9.838  0.4634 -0.0423 -0.3768
  523MPD2    C2 7765   1.920   3.247   9.786  0.4662  0.7524  0.3101
  523MPD2    C3 7766   1.822   3.345   9.812  0.1190  0.5498 -0.0627
  523MPD2    C4 7767   1.694   3.297   9.848  0.2883 -0.2288 -0.1806
  523MPD2    C5 7768   1.683   3.173   9.906 -0.3494  1.2275  0.3668
  523MPD2     H 7769   2.013   3.270   9.736  0.6031 -1.1408 -0.2975
  523MPD2    H1 7770   1.608   3.362   9.855 -1.2127 -2.3594  0.8995
  523MPD2    H2 7771   1.790   2.991   9.949 -0.8098  1.4453  1.9516
  523MPD2    H3 7772   1.584   3.136   9.928 -0.3743  0.7117 -0.6115
  523MPD2     N 7773   1.831   3.486   9.785  0.3169  0.0825  0.4761
  523MPD2    H5 7774   1.749   3.544   9.793  0.4006  0.3864 -0.8442
  523MPD2    N1 7775   2.016   3.014   9.835 -0.2519 -0.5263  0.1216
  523MPD2    H7 7776   1.990   2.917   9.848 -1.8828 -0.1740 -0.4919
  524TMC3    C1 7777   1.933   3.687   9.752 -0.0138 -0.4597  0.2043
  524TMC3    C2 7778   2.039   3.763   9.788 -1.5662  0.0269 -0.2914
  524TMC3    C3 7779   2.012   3.894   9.821 -0.4492  0.1201 -0.5885
  524TMC3    C4 7780   1.806   3.741   9.734 -0.1413 -0.7027  0.3447
  524TMC3    C5 7781   1.789   3.875   9.748  0.5275  0.3742  0.7192
  524TMC3    C6 7782   1.890   3.953   9.800  0.0429 -0.2494 -0.1075
  524TMC3     C 7783   1.948   3.540   9.746  0.3972 -0.5162 -0.5222
  524TMC3     O 7784   2.062   3.492   9.748  0.5033  0.4555 -0.3038
  524TMC3     H 7785   2.128   3.707   9.816 -1.3426  0.3165 -0.4251
  524TMC3    H1 7786   1.723   3.677   9.707 -0.7979  0.3372 -0.0723
  524TMC3    H2 7787   1.879   4.056   9.831 -0.0422 -0.9881  2.2752
  524TMC3    C7 7788   1.648   3.924   9.756  0.0888 -0.4416 -0.1049
  524TMC3    C8 7789   2.119   3.980   9.870 -0.5027  0.6824  0.3363
  524TMC3    O1 7790   1.557   3.844   9.780 -1.0331  0.0786 -0.3660
  524TMC3    O2 7791   2.095   4.090   9.924  0.3960 -0.2320  0.3223
  525MPD2     C 7792   0.284   0.706  14.515 -0.9787  0.5955 -0.4953
  525MPD2    C1 7793   0.404   0.743  14.554  0.1978  0.4238 -0.2060
  525MPD2    C2 7794   0.473   0.829  14.466  0.1999 -0.2243  1.1085
  525MPD2    C3 7795   0.404   0.891  14.362  0.4150  0.4256  0.1024
  525MPD2    C4 7796   0.284   0.845  14.321 -0.6624 -0.5777  0.4684
  525MPD2    C5 7797   0.238   0.741  14.397  0.5806 -1.3117 -0.0945
  525MPD2     H 7798   0.569   0.866  14.498 -0.3103  0.8817  1.3879
  525MPD2    H1 7799   0.244   0.869  14.223  1.2486 -1.0402 -0.4292
  525MPD2    H2 7800   0.224   0.633  14.567  0.6135  0.8008  1.6521
  525MPD2    H3 7801   0.142   0.697  14.369  0.3302 -0.9441  0.1880
  525MPD2     N 7802   0.462   0.993  14.286 -0.4339  0.5121 -0.2904
  525MPD2    H5 7803   0.401   1.040  14.219 -2.2120 -0.0827  0.8972
  525MPD2    N1 7804   0.460   0.699  14.675 -0.3311 -0.2233  0.0056
  525MPD2    H7 7805   0.560   0.715  14.685 -0.5225 -0.1192  1.6975
  526TMC3    C1 7806   0.494   0.586  14.884  0.0397  0.1417  0.3335
  526TMC3    C2 7807   0.437   0.533  15.000 -0.4264 -0.4730 -0.1999
  526TMC3    C3 7808   0.518   0.479  15.105 -0.6267 -0.1171 -0.2246
  526TMC3    C4 7809   0.632   0.576  14.867 -0.2318 -0.2300  0.3304
  526TMC3    C5 7810   0.711   0.531  14.972 -0.5653 -0.4395  0.3961
  526TMC3    C6 7811   0.657   0.468  15.086  0.6676 -0.0981 -0.5921
  526TMC3     C 7812   0.402   0.614  14.764 -0.4210 -0.5072  0.2774
  526TMC3     O 7813   0.284   0.586  14.792 -0.6026  0.3144  0.2561
  526TMC3     H 7814   0.334   0.563  15.015 -0.5674 -0.4656 -1.1820
  526TMC3    H1 7815   0.664   0.607  14.768 -0.6632 -0.8781 -0.0158
  526TMC3    H2 7816   0.725   0.434  15.163 -2.4134  0.8285  2.5617
  526TMC3    C7 7817   0.851   0.564  14.970 -0.0041  0.8263 -0.4151
  526TMC3    C8 7818   0.477   0.524  15.238  0.4769  0.5840 -0.3063
  526TMC3    O1 7819   0.889   0.667  14.912 -0.0228  0.1752 -0.6013
  526TMC3    O2 7820   0.555   0.512  15.328  0.4709 -0.3987 -0.4853
  527MPD2     C 7821   3.170   3.212   0.737 -0.4210  0.1881 -0.1837
  527MPD2    C1 7822   3.184   3.146   0.858  0.6183  0.6853  0.3303
  527MPD2    C2 7823   3.312   3.128   0.909 -0.2498 -0.1886  0.7268
  527MPD2    C3 7824   3.429   3.161   0.841  0.0958  0.0664  0.8618
  527MPD2    C4 7825   3.402   3.198   0.712  1.1513  0.5058  0.0395
  527MPD2    C5 7826   3.281   3.230   0.664  0.2086  0.2004 -0.3418
  527MPD2     H 7827   3.324   3.086   1.008  1.0619 -2.4026 -0.3412
  527MPD2    H1 7828   3.485   3.235   0.652  0.6015  0.3983 -0.7749
  527MPD2    H2 7829   3.074   3.240   0.695  0.0997  0.2909 -1.2947
  527MPD2    H3 7830   3.277   3.262   0.560 -0.8535 -0.1715 -0.4125
  527MPD2     N 7831   3.556   3.160   0.899  0.0642 -0.1363  0.1953
  527MPD2    H5 7832   3.553   3.107   0.986  0.6568  1.4071  1.1536
  527MPD2    N1 7833   3.069   3.128   0.948 -0.3849 -0.2925  0.2752
  527MPD2    H7 7834   3.091   3.108   1.045 -0.7257 -0.9548  0.2114
  528TMC3    C1 7835   2.835   3.083   1.009  0.9279  0.4908  0.4814
  528TMC3    C2 7836   2.848   3.120   1.137  0.0039 -0.2502  0.3087
  528TMC3    C3 7837   2.728   3.109   1.215 -0.3843  0.2848  0.0058
  528TMC3    C4 7838   2.716   3.034   0.958  0.6871 -0.1101 -0.2565
  528TMC3    C5 7839   2.609   3.029   1.034 -0.2420  0.0551  0.1425
  528TMC3    C6 7840   2.609   3.063   1.168 -0.3722  0.7411  0.2844
  528TMC3     C 7841   2.939   3.120   0.906 -0.4528  0.3170 -0.5700
  528TMC3     O 7842   2.906   3.106   0.792 -0.4520  0.4486 -0.1024
  528TMC3     H 7843   2.943   3.160   1.172  0.4825 -2.2420  1.2797
  528TMC3    H1 7844   2.715   2.997   0.856 -1.7857 -1.5988  0.3135
  528TMC3    H2 7845   2.525   3.056   1.236 -0.6939  0.0889 -0.1735
  528TMC3    C7 7846   2.481   3.007   0.971 -0.3686 -0.1342 -0.4052
  528TMC3    C8 7847   2.736   3.176   1.345 -0.1489  0.7987  0.1180
  528TMC3    O1 7848   2.387   3.044   1.038 -1.1886  0.2621 -0.0092
  528TMC3    O2 7849   2.851   3.196   1.373 -0.8123 -0.1195 -0.3106
  529MPD2     C 7850   4.607   1.902   1.136 -0.1859 -0.4324 -0.0485
  529MPD2    C1 7851   4.708   1.816   1.100  0.1333 -0.1447  1.4354
  529MPD2    C2 7852   0.026   1.794   0.970 -0.1670 -0.4972  0.2816
  529MPD2    C3 7853   4.686   1.868   0.874  0.3741 -1.1568  0.3870
  529MPD2    C4 7854   4.585   1.960   0.907  0.5717  0.3248 -0.2009
  529MPD2    C5 7855   4.549   1.977   1.033  0.0088  0.2290  0.0629
  529MPD2     H 7856   0.109   1.726   0.953 -1.0937 -1.9725  1.6758
  529MPD2    H1 7857   4.525   2.010   0.833  0.7308 -1.3067 -1.4246
  529MPD2    H2 7858   4.567   1.918   1.235  1.2098  0.5064  0.3658
  529MPD2    H3 7859   4.467   2.044   1.058 -1.2971 -2.5823  3.2990
  529MPD2     N 7860   4.710   1.848   0.733 -0.4049  0.4268  0.4976
  529MPD2    H5 7861   4.664   1.903   0.662  0.7859 -1.2772 -1.6188
  529MPD2    N1 7862   0.056   1.746   1.201 -0.0213  0.4085  0.9227
  529MPD2    H7 7863   0.112   1.666   1.171 -1.8783 -1.5015  2.5218
  530TMC3    C1 7864   0.144   1.697   1.423  0.3093  0.6067 -0.2501
  530TMC3    C2 7865   0.155   1.756   1.545 -0.1945  0.6895  0.2234
  530TMC3    C3 7866   0.239   1.698   1.634 -0.3926  0.4777 -0.3520
  530TMC3    C4 7867   0.197   1.573   1.385 -0.2737 -0.4863  0.6988
  530TMC3    C5 7868   0.277   1.518   1.482  0.2288 -0.1582 -0.0845
  530TMC3    C6 7869   0.296   1.575   1.603 -0.2467  1.2214  0.1250
  530TMC3     C 7870   0.043   1.770   1.338  0.0482 -0.0241  0.3533
  530TMC3     O 7871   4.708   1.861   1.398 -0.1965  0.4925  0.1550
  530TMC3     H 7872   0.106   1.850   1.567 -1.9189 -0.2786  0.5109
  530TMC3    H1 7873   0.209   1.533   1.285  0.1513  1.4904 -0.0394
  530TMC3    H2 7874   0.350   1.524   1.682  1.4243  1.6023 -0.7671
  530TMC3    C7 7875   0.364   1.411   1.450 -1.0020 -0.4039  0.4357
  530TMC3    C8 7876   0.290   1.780   1.741 -0.2430 -0.1435  0.1117
  530TMC3    O1 7877   0.310   1.327   1.382  0.0394  0.7950  0.5591
  530TMC3    O2 7878   0.219   1.865   1.781 -0.0511 -0.0574  0.0644
  531MPD2     C 7879   0.120   3.946  13.095  0.0618 -0.3892  0.2709
  531MPD2    C1 7880   0.027   3.998  13.184 -0.2776 -0.5992  0.3279
  531MPD2    C2 7881   4.622   3.946  13.179 -0.0109  0.2643  0.0056
  531MPD2    C3 7882   4.587   3.834  13.108 -0.0676  0.4278  0.0679
  531MPD2    C4 7883   4.681   3.788  13.023  0.3971  0.3997 -0.1786
  531MPD2    C5 7884   0.078   3.848  13.014 -0.2390  0.2431 -0.0889
  531MPD2     H 7885   4.550   3.993  13.245 -0.9918 -1.3700  0.1095
  531MPD2    H1 7886   4.659   3.699  12.966 -0.6048  0.6056 -0.1020
  531MPD2    H2 7887   0.224   3.976  13.092 -0.1149  0.3002  1.0799
  531MPD2    H3 7888   0.150   3.813  12.941  0.1686 -0.5249  0.6914
  531MPD2     N 7889   4.453   3.782  13.117 -0.5472  0.3186 -0.7831
  531MPD2    H5 7890   4.426   3.708  13.053  0.9732  0.1796 -1.2445
  531MPD2    N1 7891   0.050   4.086  13.290  1.2194 -0.5056 -0.2302
  531MPD2    H7 7892   4.694   4.087  13.354  1.4348  1.3606  0.0218
  532TMC3    C1 7893   0.169   4.173  13.471 -0.6549  0.5800 -0.4015
  532TMC3    C2 7894   0.048   4.208  13.521 -0.0396 -0.9106 -0.3479
  532TMC3    C3 7895   0.044   4.234  13.656  0.0846  0.4611  0.1932
  532TMC3    C4 7896   0.281   4.179  13.546  0.0594  0.1318  0.1897
  532TMC3    C5 7897   0.266   4.193  13.680  0.6097 -0.5373 -0.5030
  532TMC3    C6 7898   0.148   4.225  13.741 -0.0387  0.0099 -0.3264
  532TMC3     C 7899   0.175   4.121  13.340  0.2553  0.8467 -0.2506
  532TMC3     O 7900   0.283   4.091  13.288  0.6803 -0.0769  0.1186
  532TMC3     H 7901   4.677   4.209  13.465  0.0856 -0.9704 -0.5598
  532TMC3    H1 7902   0.375   4.142  13.507  1.1840  1.6140  1.4506
  532TMC3    H2 7903   0.126   4.218  13.847  0.4800  1.6681 -0.1114
  532TMC3    C7 7904   0.343   4.108  13.763  0.0444 -0.2054 -0.6707
  532TMC3    C8 7905   4.636   4.255  13.703 -0.9037  0.6573 -0.3881
  532TMC3    O1 7906   0.401   4.162  13.859 -0.0067 -0.0252 -0.5958
  532TMC3    O2 7907   4.617   4.351  13.779 -0.2850 -0.2144  0.2570
  533TMC3    C1 7908   0.592   1.186  14.259  0.6364 -0.1118  0.6100
  533TMC3    C2 7909   0.720   1.233  14.256  0.3016 -0.2460  0.5399
  533TMC3    C3 7910   0.738   1.370  14.277  0.0357 -0.3047  0.0518
  533TMC3    C4 7911   0.489   1.271  14.288 -0.3342  0.5249 -0.0185
  533TMC3    C5 7912   0.508   1.405  14.311 -0.7299 -0.4207 -0.2783
  533TMC3    C6 7913   0.634   1.457  14.292  0.0305  0.0615  0.6284
  533TMC3     C 7914   0.577   1.051  14.309 -0.2532  0.4554 -0.6476
  533TMC3     O 7915   0.681   1.014  14.366 -0.2982  0.0170  0.5894
  533TMC3     H 7916   0.801   1.164  14.233 -0.3378 -0.1425 -1.9988
  533TMC3    H1 7917   0.389   1.233  14.304  0.4293 -1.9062 -0.9811
  533TMC3    H2 7918   0.642   1.565  14.294 -2.4193  0.2656 -1.3615
  533TMC3    C7 7919   0.464   1.422  14.448 -0.3022  0.0411 -0.1217
  533TMC3    C8 7920   0.870   1.431  14.282 -0.5778  0.1404  0.0367
  533TMC3    O1 7921   0.396   1.338  14.505  0.7111 -0.1315  0.9056
  533TMC3    O2 7922   0.873   1.543  14.324 -0.2051 -0.2109  0.3812
  534MPD2     C 7923   2.290   2.842   1.957  0.1748  0.2969  0.5639
  534MPD2    C1 7924   2.341   2.769   1.849  0.4956  0.4232 -0.3074
  534MPD2    C2 7925   2.274   2.655   1.804 -0.3852  0.0840 -0.1597
  534MPD2    C3 7926   2.161   2.606   1.858 -0.2741 -0.1976 -0.3688
  534MPD2    C4 7927   2.107   2.675   1.963 -0.4271 -0.2524  0.0574
  534MPD2    C5 7928   2.173   2.792   2.008 -0.0592  0.8191 -0.1811
  534MPD2     H 7929   2.336   2.605   1.731  1.2836  2.1116 -0.1200
  534MPD2    H1 7930   2.014   2.645   2.010 -0.2099  0.0861  0.6970
  534MPD2    H2 7931   2.328   2.936   1.995 -1.3943  1.8360 -1.6652
  534MPD2    H3 7932   2.132   2.844   2.094  0.7694  1.4352 -0.1669
  534MPD2     N 7933   2.095   2.485   1.817 -0.2458 -0.0366  0.2441
  534MPD2    H5 7934   2.014   2.466   1.875  0.1825  2.1656  1.5541
  534MPD2    N1 7935   2.451   2.802   1.772  0.4139 -0.0776 -0.1313
  534MPD2    H7 7936   2.471   2.750   1.687  0.7837  0.2002 -0.2144
  535TMC3    C1 7937   2.047   2.297   1.689 -0.5766  0.5856 -0.3459
  535TMC3    C2 7938   1.933   2.270   1.766  0.7543 -0.0932  0.1637
  535TMC3    C3 7939   1.882   2.142   1.763 -0.0780 -0.0338  0.0345
  535TMC3    C4 7940   2.096   2.198   1.598 -0.3599  0.8060 -0.5030
  535TMC3    C5 7941   2.033   2.079   1.594  0.4385  0.9631  0.6582
  535TMC3    C6 7942   1.922   2.051   1.671  1.1417  0.1179 -0.0039
  535TMC3     C 7943   2.126   2.415   1.706 -0.0253 -0.7813 -0.2430
  535TMC3     O 7944   2.208   2.440   1.621 -0.2158  0.1535  0.3681
  535TMC3     H 7945   1.889   2.346   1.830 -1.0462 -1.3238  0.3727
  535TMC3    H1 7946   2.182   2.228   1.540 -0.1289  0.9499 -0.0817
  535TMC3    H2 7947   1.873   1.955   1.656  0.0228  0.9091 -1.4112
  535TMC3    C7 7948   2.086   1.979   1.508 -0.2874 -0.6806  0.1268
  535TMC3    C8 7949   1.767   2.114   1.843 -0.4017  0.3891  0.1104
  535TMC3    O1 7950   2.151   2.013   1.414 -0.2333  0.6959  0.0052
  535TMC3    O2 7951   1.693   2.026   1.811  0.4886  1.0145 -0.8895
  536MPD2     C 7952   2.397   0.700  16.631 -0.2260  0.2631 -0.2922
  536MPD2    C1 7953   2.273   0.687  16.676  0.3951  0.3345 -0.4243
  536MPD2    C2 7954   2.166   0.689  16.591  0.4571  0.0223 -0.6948
  536MPD2    C3 7955   2.184   0.724  16.458  0.2041 -0.1109 -0.1883
  536MPD2    C4 7956   2.310   0.742  16.415 -0.2632  0.1859  0.0470
  536MPD2    C5 7957   2.423   0.722  16.496 -0.7897  0.1316 -0.3861
  536MPD2     H 7958   2.067   0.670  16.631  2.0327 -0.7047  2.9433
  536MPD2    H1 7959   2.328   0.774  16.313  0.1055  0.6141  0.2449
  536MPD2    H2 7960   2.479   0.683  16.699 -0.0012  1.1998 -0.3243
  536MPD2    H3 7961   2.525   0.734  16.461 -0.7932 -0.6267 -0.6503
  536MPD2     N 7962   2.079   0.746  16.366 -0.0707 -0.0892  0.3596
  536MPD2    H5 7963   2.098   0.747  16.266  0.7372 -3.8287  0.5050
  536MPD2    N1 7964   2.258   0.663  16.807  0.8207  0.8682  0.1401
  536MPD2    H7 7965   2.347   0.668  16.857  0.3437  1.9909  0.8879
  537TMC3    C1 7966   2.172   0.633  17.023  0.0308  0.2153 -0.9161
  537TMC3    C2 7967   2.279   0.686  17.085  0.1438  0.4385 -0.2399
  537TMC3    C3 7968   2.302   0.665  17.220  0.0447 -0.3696 -0.8628
  537TMC3    C4 7969   2.088   0.559  17.092  0.7799  0.0721  0.2916
  537TMC3    C5 7970   2.122   0.525  17.223 -0.6357  0.1747 -0.1309
  537TMC3    C6 7971   2.230   0.574  17.287 -0.1912  0.5974 -0.0169
  537TMC3     C 7972   2.140   0.651  16.880 -0.0471 -0.2822 -0.8303
  537TMC3     O 7973   2.023   0.630  16.846  0.5036  0.6364  0.0270
  537TMC3     H 7974   2.351   0.740  17.024 -0.2003  0.5986 -0.5064
  537TMC3    H1 7975   2.009   0.503  17.043  1.4429 -0.9112  0.3505
  537TMC3    H2 7976   2.257   0.565  17.391 -1.4975 -2.1548  0.0644
  537TMC3    C7 7977   2.026   0.440  17.287  0.3897 -0.4765 -0.3520
  537TMC3    C8 7978   2.388   0.758  17.291 -0.2761 -0.8831 -0.0800
  537TMC3    O1 7979   1.914   0.438  17.235 -0.0660  0.1241  0.4042
  537TMC3    O2 7980   2.453   0.724  17.393  0.2192 -0.1383  0.1597
  538TMC3    C1 7981   3.137   3.415  10.642 -0.3260  0.0809 -0.3922
  538TMC3    C2 7982   3.136   3.331  10.538 -0.7819 -0.3709 -0.1513
  538TMC3    C3 7983   3.064   3.358  10.429  0.5575  1.2281 -0.5097
  538TMC3    C4 7984   3.049   3.523  10.644 -0.8615  0.3787  0.1231
  538TMC3    C5 7985   2.966   3.551  10.534 -0.5708 -0.2307 -0.0890
  538TMC3    C6 7986   2.982   3.471  10.422  0.5639  0.5888  0.0314
  538TMC3     C 7987   3.179   3.376  10.777 -0.1017 -0.4583  0.5456
  538TMC3     O 7988   3.117   3.419  10.876  0.5206  0.1133  0.3786
  538TMC3     H 7989   3.170   3.230  10.558  0.1823 -0.0505 -0.1514
  538TMC3    H1 7990   3.046   3.593  10.727 -0.7059 -0.2462  0.6614
  538TMC3    H2 7991   2.926   3.500  10.334 -0.2473  0.8077  0.6179
  538TMC3    C7 7992   2.835   3.613  10.566 -0.0263  0.2083 -0.7705
  538TMC3    C8 7993   3.080   3.297  10.301  0.5227 -0.5454  0.2396
  538TMC3    O1 7994   2.737   3.602  10.493 -1.1647  0.3759 -0.1595
  538TMC3    O2 7995   2.998   3.320  10.215 -0.1381 -0.0899  0.7647
  539MPD2     C 7996   2.477   2.685  11.712 -0.9381  0.2576 -0.1775
  539MPD2    C1 7997   2.533   2.725  11.594  0.0312  0.0274 -0.4652
  539MPD2    C2 7998   2.501   2.849  11.539  0.3827  0.7687 -0.0980
  539MPD2    C3 7999   2.421   2.943  11.608  0.1558 -0.1725 -0.0417
  539MPD2    C4 8000   2.365   2.902  11.721 -0.2601 -0.0006  0.0098
  539MPD2    C5 8001   2.389   2.775  11.768 -0.3543 -0.2476  0.2722
  539MPD2     H 8002   2.549   2.877  11.446 -1.5629 -1.2057 -1.7067
  539MPD2    H1 8003   2.302   2.965  11.782 -0.0045  0.5393 -0.2822
  539MPD2    H2 8004   2.504   2.595  11.765  0.1147  1.0893  0.6858
  539MPD2    H3 8005   2.334   2.754  11.858  0.0984  0.6080  0.7506
  539MPD2     N 8006   2.398   3.078  11.570 -0.0313  0.5773 -0.5968
  539MPD2    H5 8007   2.341   3.129  11.638  1.4703  2.6863 -0.9059
  539MPD2    N1 8008   2.633   2.647  11.526  0.0812  0.4592 -0.0921
  539MPD2    H7 8009   2.672   2.689  11.442 -0.0115 -1.7494 -1.2421
  540TMC3    C1 8010   2.360   3.256  11.433 -0.6425 -0.0330 -0.0783
  540TMC3    C2 8011   2.323   3.268  11.301  0.0687  0.3277 -0.3698
  540TMC3    C3 8012   2.304   3.392  11.250  0.2258  0.2796  0.5044
  540TMC3    C4 8013   2.374   3.363  11.519  0.4907 -0.1929 -0.2645
  540TMC3    C5 8014   2.354   3.488  11.463 -0.5342 -0.5588  0.0190
  540TMC3    C6 8015   2.333   3.501  11.331 -0.2620 -0.2856  0.0532
  540TMC3     C 8016   2.446   3.139  11.457 -0.9290 -0.1724 -0.2560
  540TMC3     O 8017   2.525   3.109  11.371  0.5294 -0.0331 -0.0507
  540TMC3     H 8018   2.322   3.179  11.239  0.2931 -1.3257  2.0141
  540TMC3    H1 8019   2.402   3.343  11.622 -1.5087 -2.9371 -0.2638
  540TMC3    H2 8020   2.310   3.596  11.284  3.0755  1.3051  1.6007
  540TMC3    C7 8021   2.348   3.595  11.559 -0.2782 -0.0777  0.0208
  540TMC3    C8 8022   2.317   3.418  11.105 -0.2675 -0.4919  0.1023
  540TMC3    O1 8023   2.317   3.558  11.671  0.4146  0.6200  0.1565
  540TMC3    O2 8024   2.362   3.528  11.073 -0.5774  0.2687 -0.8635
  541MPD2     C 8025   1.715   4.275  13.401 -0.3313 -0.0601  0.3251
  541MPD2    C1 8026   1.581   4.254  13.446 -0.4863 -0.6631 -0.0552
  541MPD2    C2 8027   1.480   4.302  13.365 -0.4600  1.0070  0.1427
  541MPD2    C3 8028   1.504   4.356  13.235  0.4361 -0.7521  0.4260
  541MPD2    C4 8029   1.635   4.367  13.191  0.2784  0.1235  0.2684
  541MPD2    C5 8030   1.740   4.333  13.281  0.4189  0.0470 -0.4460
  541MPD2     H 8031   1.383   4.318  13.409 -0.6514  0.2455 -0.0141
  541MPD2    H1 8032   1.660   4.399  13.091  0.4817  0.0069  0.2811
  541MPD2    H2 8033   1.796   4.244  13.466 -0.7667 -1.2367  0.3058
  541MPD2    H3 8034   1.845   4.334  13.254 -0.0796  0.1744 -2.4128
  541MPD2     N 8035   1.408   4.396  13.143  0.2143 -0.4473  0.2230
  541MPD2    H5 8036   1.442   4.425  13.052  2.3941  2.2161  1.8701
  541MPD2    N1 8037   1.565   4.190  13.570 -0.1808 -0.0021 -0.4577
  541MPD2    H7 8038   1.646   4.171  13.627 -0.7311  0.9440  0.6440
  542TMC3    C1 8039   1.196   4.455  13.043 -0.0001 -0.6404  0.3303
  542TMC3    C2 8040   1.257   4.459  12.922 -0.0102 -0.5160 -0.1775
  542TMC3    C3 8041   1.207   4.549  12.828  0.1334  0.4195 -0.2108
  542TMC3    C4 8042   1.087   4.532  13.067 -0.3073 -0.0728 -0.3597
  542TMC3    C5 8043   1.035   4.607  12.966  0.1416  0.0261  0.4008
  542TMC3    C6 8044   1.096   4.624  12.846  0.2090  0.1606  0.3989
  542TMC3     C 8045   1.266   4.397  13.161  0.7881  0.2270 -0.7243
  542TMC3     O 8046   1.202   4.361  13.258 -0.1990 -0.0768  0.6224
  542TMC3     H 8047   1.341   4.394  12.901  0.1275  0.1080 -1.5311
  542TMC3    H1 8048   1.039   4.519  13.163 -0.7958 -3.8736 -1.1112
  542TMC3    H2 8049   1.068   4.695  12.770 -1.5960 -2.0243 -0.9541
  542TMC3    C7 8050   0.959   0.006  13.004  0.3025  0.4729  0.2495
  542TMC3    C8 8051   1.241   4.530  12.689  0.2663 -0.4900 -0.7009
  542TMC3    O1 8052   0.928   0.085  12.918  0.0467  0.1538  0.1522
  542TMC3    O2 8053   1.153   4.538  12.602 -0.2267 -0.6309  0.3752
  543TMC3    C1 8054   0.748   0.660  17.658  0.8202 -0.3724  0.5708
  543TMC3    C2 8055   0.795   0.533  17.659 -0.4742 -0.5763 -0.8182
  543TMC3    C3 8056   0.742   0.435   0.043 -0.5387 -0.9853 -0.3384
  543TMC3    C4 8057   0.634   0.695   0.038 -0.7862 -0.2882 -0.0870
  543TMC3    C5 8058   0.586   0.600   0.117  0.2113  0.3884 -0.0382
  543TMC3    C6 8059   0.644   0.472   0.127 -0.9220 -0.1324 -0.8720
  543TMC3     C 8060   0.721   0.696  17.515  0.4415  0.1261 -0.1434
  543TMC3     O 8061   0.722   0.597  17.443  0.6910 -0.0015 -0.5051
  543TMC3     H 8062   0.884   0.518  17.599  0.5300 -0.0259  0.5337
  543TMC3    H1 8063   0.593   0.795   0.037 -0.5526 -0.1933 -0.0510
  543TMC3    H2 8064   0.614   0.405   0.207 -0.7551 -0.0025 -0.7010
  543TMC3    C7 8065   0.490   0.648   0.213 -0.2645  0.0299 -0.6362
  543TMC3    C8 8066   0.781   0.297   0.006  0.0117 -0.2280 -0.0157
  543TMC3    O1 8067   0.479   0.766   0.235  0.7043  0.2032 -0.6522
  543TMC3    O2 8068   0.887   0.289  17.636  0.0104  0.4372  0.0283
  544MPD2     C 8069   0.694   4.510  17.682  0.3195 -0.3704  0.5364
  544MPD2    C1 8070   0.768   4.591  17.596 -0.1120 -0.1084 -0.2184
  544MPD2    C2 8071   0.784   0.004  17.632  0.2947 -0.6106  0.3787
  544MPD2    C3 8072   0.697   0.057   0.032 -0.4763  0.3630  0.2559
  544MPD2    C4 8073   0.613   4.698   0.103  0.0767  0.2970 -0.5831
  544MPD2    C5 8074   0.610   4.570   0.082 -0.0509 -0.1004  0.2752
  544MPD2     H 8075   0.847   0.070  17.575 -2.4285 -1.6485 -3.8473
  544MPD2    H1 8076   0.548   0.022   0.176  0.2979 -1.4268  0.7167
  544MPD2    H2 8077   0.687   4.403  17.665 -2.1777 -0.1372  0.1174
  544MPD2    H3 8078   0.540   4.512   0.141  0.0825  0.6552  1.1802
  544MPD2     N 8079   0.696   0.201   0.058 -0.1265  0.0022  0.0421
  544MPD2    H5 8080   0.626   0.234   0.124  0.2572 -1.2748  1.1054
  544MPD2    N1 8081   0.839   4.533  17.487  0.1063 -0.0464  0.2676
  544MPD2    H7 8082   0.838   4.431  17.488 -2.1299 -0.0311 -0.6277
  545TMC3    C1 8083   0.941   4.541  17.277 -0.2633  0.6501  0.7534
  545TMC3    C2 8084   0.907   4.576  17.149 -0.3147 -0.0548  0.1592
  545TMC3    C3 8085   1.003   4.577  17.047 -0.3256  0.1902  0.0955
  545TMC3    C4 8086   1.068   4.487  17.313 -0.4077 -0.2398  0.5101
  545TMC3    C5 8087   1.154   4.477  17.208  0.6937 -0.6951 -0.0638
  545TMC3    C6 8088   1.121   4.517  17.078 -0.1433  0.3746 -0.5827
  545TMC3     C 8089   0.870   4.609  17.374 -0.4743 -0.3722  0.0758
  545TMC3     O 8090   0.816   4.717  17.348  0.5202  0.0887  0.9097
  545TMC3     H 8091   0.804   4.609  17.141 -1.0608 -1.8395  2.3101
  545TMC3    H1 8092   1.086   4.457  17.416  1.4313 -0.9548 -0.0199
  545TMC3    H2 8093   1.201   4.513  17.006  0.7386  1.3827  0.3501
  545TMC3    C7 8094   1.291   4.449  17.234  0.5361  0.7306 -0.5277
  545TMC3    C8 8095   0.981   4.650  16.927 -0.2426 -0.6111 -0.1757
  545TMC3    O1 8096   1.369   4.437  17.140  0.7880 -0.3542 -0.2971
  545TMC3    O2 8097   0.870   4.657  16.882 -0.0536  0.4075 -0.4924
  546MPD2     C 8098   2.245   0.720  17.663 -0.4871  0.9016 -0.1059
  546MPD2    C1 8099   2.141   0.772  17.587 -0.3661  0.1704 -0.0294
  546MPD2    C2 8100   2.154   0.900  17.529  0.0583 -0.3541  0.7798
  546MPD2    C3 8101   2.270   0.973  17.546  0.3109  0.9605 -0.0428
  546MPD2    C4 8102   2.368   0.922  17.625 -0.9293  0.0862  0.7253
  546MPD2    C5 8103   2.361   0.791  17.670 -0.0657 -0.3985 -0.7194
  546MPD2     H 8104   2.070   0.939  17.472  1.1322 -2.2316 -2.0959
  546MPD2    H1 8105   2.454   0.984  17.647  1.7327 -2.1226 -3.4693
  546MPD2    H2 8106   2.243   0.622   0.019 -1.4881  0.6776 -0.6197
  546MPD2    H3 8107   2.443   0.750   0.036 -0.7392 -1.7301 -0.7129
  546MPD2     N 8108   2.289   1.102  17.494  0.5496 -0.4287  0.0491
  546MPD2    H5 8109   2.374   1.152  17.516  0.9825 -0.8720 -0.6131
  546MPD2    N1 8110   2.024   0.701  17.586  0.5348  0.4466 -0.4728
  546MPD2    H7 8111   2.010   0.621  17.648  1.4628  1.0274  0.4832
  547TMC3    C1 8112   1.813   0.616  17.512 -0.0768 -0.1061  0.4780
  547TMC3    C2 8113   1.728   0.595  17.408  0.1595 -0.2314 -1.0162
  547TMC3    C3 8114   1.614   0.513  17.432  0.2779 -0.5851  1.1290
  547TMC3    C4 8115   1.784   0.566  17.632 -0.0329  0.4981  0.1647
  547TMC3    C5 8116   1.668   0.487  17.651 -1.1383  0.0233 -0.7041
  547TMC3    C6 8117   1.579   0.456  17.554 -0.0159 -0.2639 -0.2020
  547TMC3     C 8118   1.924   0.709  17.492 -0.6538 -0.0892 -0.6940
  547TMC3     O 8119   1.929   0.775  17.384 -0.0415  0.0955  0.2408
  547TMC3     H 8120   1.750   0.633  17.309  2.0728 -1.7124 -1.1614
  547TMC3    H1 8121   1.846   0.590   0.026  0.3549 -1.4944  0.4363
  547TMC3    H2 8122   1.482   0.409  17.566  0.2597 -1.2336 -1.7953
  547TMC3    C7 8123   1.613   0.504   0.089 -0.1648 -0.0420  0.1057
  547TMC3    C8 8124   1.533   0.481  17.317 -0.0076 -0.0259  0.1864
  547TMC3    O1 8125   1.655   0.604   0.150  0.3556  0.4710 -0.6320
  547TMC3    O2 8126   1.413   0.458  17.344 -0.3518  0.1567 -0.0434
  548MPD2     C 8127   1.761   1.512  12.183  0.0899 -0.0779  0.1855
  548MPD2    C1 8128   1.771   1.444  12.301 -0.1279  0.5427 -0.2006
  548MPD2    C2 8129   1.847   1.327  12.295  0.4754 -0.8916 -0.0249
  548MPD2    C3 8130   1.901   1.276  12.181  0.1852 -0.0212 -0.1748
  548MPD2    C4 8131   1.875   1.340  12.063 -0.2663 -0.4445 -0.2760
  548MPD2    C5 8132   1.808   1.459  12.060  0.2310 -0.1215  0.1196
  548MPD2     H 8133   1.877   1.276  12.386 -2.2285  0.1347  1.4543
  548MPD2    H1 8134   1.903   1.305  11.965  0.4183  0.4665 -0.4088
  548MPD2    H2 8135   1.706   1.605  12.167 -1.4088 -0.9343  0.3098
  548MPD2    H3 8136   1.777   1.506  11.967  0.4774 -1.4409 -0.6285
  548MPD2     N 8137   1.974   1.159  12.205  0.3580  0.6966  0.1655
  548MPD2    H5 8138   1.999   1.125  12.298 -0.3735  0.3911  0.2477
  548MPD2    N1 8139   1.712   1.488  12.418  0.2320  0.4477  0.5859
  548MPD2    H7 8140   1.651   1.569  12.412  1.2794  1.2354  0.5444
  549TMC3    C1 8141   1.650   1.517  12.639 -0.7158 -0.2899 -0.5445
  549TMC3    C2 8142   1.626   1.646  12.609 -0.0779 -0.1778 -0.2802
  549TMC3    C3 8143   1.513   1.699  12.674  0.0666  0.3160  0.0079
  549TMC3    C4 8144   1.577   1.444  12.725 -0.1564 -1.4625  0.3206
  549TMC3    C5 8145   1.471   1.500  12.795  0.1520 -0.3236 -0.2852
  549TMC3    C6 8146   1.433   1.628  12.758 -0.4592 -1.1518  0.8725
  549TMC3     C 8147   1.729   1.440  12.547  0.2665  0.3587  0.1751
  549TMC3     O 8148   1.774   1.335  12.590 -0.1746  0.0561  0.0191
  549TMC3     H 8149   1.701   1.699  12.552 -0.0989 -0.8426 -0.9215
  549TMC3    H1 8150   1.598   1.339  12.743  0.1539 -1.3611  0.5393
  549TMC3    H2 8151   1.345   1.671  12.806 -2.6916 -0.2289 -4.0109
  549TMC3    C7 8152   1.366   1.421  12.842  1.0792  0.0675  0.2216
  549TMC3    C8 8153   1.448   1.809  12.602 -0.1662  0.0751 -0.5704
  549TMC3    O1 8154   1.251   1.470  12.833 -0.5895  0.2882 -0.8292
  549TMC3    O2 8155   1.335   1.835  12.630  0.4600 -0.1688  0.4410
  550TMC3    C1 8156   0.541   3.863  12.870 -0.1715 -0.2960  0.2916
  550TMC3    C2 8157   0.503   3.988  12.911  0.3204 -0.5613 -0.0181
  550TMC3    C3 8158   0.514   4.094  12.826 -0.8028  0.8159 -0.2994
  550TMC3    C4 8159   0.585   3.850  12.740 -0.2333  1.0062 -0.2397
  550TMC3    C5 8160   0.595   3.950  12.654 -0.4014 -1.0425  0.1079
  550TMC3    C6 8161   0.562   4.077  12.702 -0.5580 -0.0857  0.4393
  550TMC3     C 8162   0.450   3.751  12.905  0.8247  0.3725 -0.1158
  550TMC3     O 8163   0.453   3.721  13.022 -0.2025 -0.2158  0.7282
  550TMC3     H 8164   0.426   3.982  12.987 -1.1026  0.7799 -1.3427
  550TMC3    H1 8165   0.611   3.749  12.709 -0.7646  1.0432 -0.8051
  550TMC3    H2 8166   0.581   4.164  12.639 -0.7905 -0.0550  0.4077
  550TMC3    C7 8167   0.559   3.925  12.521 -0.8381  0.8005  0.6426
  550TMC3    C8 8168   0.445   4.218  12.846  0.2027 -0.0795  0.3503
  550TMC3    O1 8169   0.601   3.829  12.462 -0.1024  0.0166 -0.1642
  550TMC3    O2 8170   0.410   4.278  12.743 -0.1649  0.2510  0.2605
  551TMC3    C1 8171   2.856   1.963  13.380 -0.0866 -0.0670  0.2543
  551TMC3    C2 8172   2.953   1.987  13.285 -0.3834  0.4215 -0.1083
  551TMC3    C3 8173   3.034   2.093  13.305 -0.5868 -0.6461 -0.1020
  551TMC3    C4 8174   2.835   2.036  13.491  0.0508  0.0484  0.8052
  551TMC3    C5 8175   2.914   2.143  13.499  1.1939 -0.3434 -0.4613
  551TMC3    C6 8176   3.017   2.171  13.413  0.3230 -0.0334 -0.6385
  551TMC3     C 8177   2.756   1.855  13.348 -0.1602 -0.2091  0.1131
  551TMC3     O 8178   2.663   1.837  13.427 -0.1464  0.4329  0.3093
  551TMC3     H 8179   2.977   1.930  13.196 -1.8092 -0.6720  0.2110
  551TMC3    H1 8180   2.774   2.005  13.575 -0.9382 -0.8402 -0.2319
  551TMC3    H2 8181   3.081   2.258  13.426 -0.0048  0.1216 -0.0550
  551TMC3    C7 8182   2.893   2.232  13.607 -0.2013  0.1601  0.2102
  551TMC3    C8 8183   3.134   2.117  13.203 -0.4869 -0.5746  0.2094
  551TMC3    O1 8184   2.980   2.310  13.642 -0.6094 -0.8949 -0.1959
  551TMC3    O2 8185   3.176   2.027  13.141 -0.3426 -0.1498 -0.0744
  552MPD2     C 8186   0.131   4.080  14.072 -0.3687  0.3431  0.8311
  552MPD2    C1 8187   0.165   3.946  14.063 -0.1114  0.0051  0.7240
  552MPD2    C2 8188   0.269   3.899  14.146  0.0534 -0.8156  0.9053
  552MPD2    C3 8189   0.318   3.984  14.244  0.0532 -0.3539  0.3506
  552MPD2    C4 8190   0.277   4.113  14.246  0.3809  0.1059  0.5161
  552MPD2    C5 8191   0.179   4.162  14.170 -0.0058 -0.8671 -0.1701
  552MPD2     H 8192   0.290   3.793  14.142 -0.9401 -0.9565 -0.8336
  552MPD2    H1 8193   0.319   4.181  14.320  1.4928  0.1504 -0.1542
  552MPD2    H2 8194   0.053   4.115  14.006  0.3074  0.7583  0.2421
  552MPD2    H3 8195   0.151   4.266  14.184  0.5768 -0.7695  0.2921
  552MPD2     N 8196   0.420   3.949  14.334 -0.0322  0.4166 -0.1104
  552MPD2    H5 8197   0.456   4.021  14.396  0.1493 -0.4616  0.7990
  552MPD2    N1 8198   0.093   3.849  13.985 -0.1466  0.1108  0.5461
  552MPD2    H7 8199   0.129   3.755  13.994 -1.6732 -0.8876 -3.8278
  553TMC3    C1 8200   4.641   3.740  13.882  0.8118  0.2514  1.0984
  553TMC3    C2 8201   4.597   3.731  13.750  0.0199 -0.0464  0.4718
  553TMC3    C3 8202   4.578   3.608  13.693 -0.0093 -0.1133  0.2340
  553TMC3    C4 8203   4.676   3.634  13.959  0.5849 -0.2559  0.0662
  553TMC3    C5 8204   4.646   3.514  13.898  0.1944  0.4540  0.2010
  553TMC3    C6 8205   4.591   3.500  13.778 -0.3938 -0.1746  0.4495
  553TMC3     C 8206   4.695   3.865  13.921  0.5830  0.4594  0.1311
  553TMC3     O 8207   4.631   3.968  13.896  0.7369  0.0617 -0.2445
  553TMC3     H 8208   4.563   3.816  13.693  1.9225  1.5447  1.7484
  553TMC3    H1 8209   0.004   3.630  14.055  2.5350 -4.8942 -1.1046
  553TMC3    H2 8210   4.604   3.404  13.728 -0.1569 -0.1713  0.5030
  553TMC3    C7 8211   4.689   3.388  13.952  0.1181  0.4133 -0.7915
  553TMC3    C8 8212   4.630   3.576  13.556 -0.3343  0.7995 -0.4590
  553TMC3    O1 8213   4.614   3.294  13.928 -0.6927  0.2908  0.1974
  553TMC3    O2 8214   4.700   3.661  13.503  0.3894 -0.5647 -0.4573
  554TMC3    C1 8215   1.796   2.872  11.685 -0.0763 -0.5400 -0.3474
  554TMC3    C2 8216   1.790   2.752  11.614 -0.5617  0.0924 -0.6928
  554TMC3    C3 8217   1.845   2.754  11.486 -0.3739 -0.9158  0.6231
  554TMC3    C4 8218   1.843   2.990  11.630  0.0305 -0.1546  0.7937
  554TMC3    C5 8219   1.903   2.985  11.501 -1.0414  0.3165 -0.8453
  554TMC3    C6 8220   1.904   2.863  11.429 -0.1604  0.9826  0.9585
  554TMC3     C 8221   1.730   2.879  11.817  0.6457  0.4458 -0.4374
  554TMC3     O 8222   1.657   2.971  11.852 -0.7630  0.0026 -0.2710
  554TMC3     H 8223   1.733   2.669  11.653  2.3188 -1.9555 -0.8979
  554TMC3    H1 8224   1.811   3.080  11.681 -0.3379  1.3758 -2.1799
  554TMC3    H2 8225   1.932   2.861  11.325  2.2282 -0.2073  1.6090
  554TMC3    C7 8226   1.927   3.102  11.425 -0.3261  0.8440 -0.6513
  554TMC3    C8 8227   1.771   2.683  11.385 -0.2845 -0.5470 -0.1939
  554TMC3    O1 8228   1.920   3.092  11.302  0.5797  0.1301  0.0795
  554TMC3    O2 8229   1.829   2.654  11.280  0.3030 -0.1246  0.1702
  555TMC3    C1 8230   0.741   2.455  14.755  0.0323  0.4725 -0.9086
  555TMC3    C2 8231   0.730   2.544  14.854 -0.3146 -0.1079 -0.1119
  555TMC3    C3 8232   0.831   2.551  14.949  0.1647 -0.3584  0.4702
  555TMC3    C4 8233   0.844   2.365  14.763  0.5049  0.3873  0.1544
  555TMC3    C5 8234   0.938   2.364  14.862  0.3257  0.0110 -0.6845
  555TMC3    C6 8235   0.937   2.466  14.952 -1.0632  0.0998  0.6166
  555TMC3     C 8236   0.698   2.496  14.621  0.0207 -0.6604 -0.0247
  555TMC3     O 8237   0.760   2.450  14.527 -0.1188 -0.0217 -0.8933
  555TMC3     H 8238   0.674   2.636  14.840 -0.1804  0.4541  3.0506
  555TMC3    H1 8239   0.828   2.273  14.708 -1.7806  0.1503  1.1898
  555TMC3    H2 8240   1.017   2.472  15.025  0.4327  1.8884 -1.1767
  555TMC3    C7 8241   0.947   2.228  14.914 -0.6150 -0.5747  0.2241
  555TMC3    C8 8242   0.828   2.668  15.032  0.1655  0.1829  0.8003
  555TMC3    O1 8243   0.841   2.172  14.931 -0.3304  0.5630  0.0905
  555TMC3    O2 8244   0.784   2.776  14.992 -0.0471  0.5723 -0.3373
  556MPD2     C 8245   4.138   3.784  10.279  0.1836 -0.3756  0.1335
  556MPD2    C1 8246   4.052   3.723  10.362 -0.2794 -0.5827  0.1220
  556MPD2    C2 8247   4.012   3.604  10.324 -0.7415 -0.2063 -0.1726
  556MPD2    C3 8248   4.056   3.543  10.205  0.0305 -0.3643  0.2157
  556MPD2    C4 8249   4.144   3.609  10.121 -0.7289  0.1206 -0.2258
  556MPD2    C5 8250   4.182   3.728  10.163  0.3739 -0.4244 -0.3661
  556MPD2     H 8251   3.956   3.537  10.389  0.2308 -1.1850 -0.3534
  556MPD2    H1 8252   4.186   3.575  10.028  1.3732  0.1840  0.6993
  556MPD2    H2 8253   4.185   3.880  10.297 -0.6505 -0.0662  0.6488
  556MPD2    H3 8254   4.253   3.780  10.101 -0.2908 -0.6371 -1.3183
  556MPD2     N 8255   4.022   3.409  10.184 -0.2701 -0.8866 -0.0469
  556MPD2    H5 8256   3.981   3.360  10.263 -2.3795 -0.9817 -1.1821
  556MPD2    N1 8257   4.027   3.769  10.497 -0.1823 -0.4890 -0.1679
  556MPD2    H7 8258   3.973   3.713  10.561  0.0722 -0.0463  0.4343
  557TMC3    C1 8259   4.006   3.194  10.097  0.5433 -0.5895 -0.2795
  557TMC3    C2 8260   4.041   3.110   9.995 -0.5435 -0.4756 -0.1986
  557TMC3    C3 8261   3.964   2.999   9.964  0.3418 -0.2347  0.1449
  557TMC3    C4 8262   3.877   3.179  10.155 -0.6927 -0.3342  0.0941
  557TMC3    C5 8263   3.806   3.065  10.115 -0.0957  0.2951  0.6161
  557TMC3    C6 8264   3.843   2.978  10.017  0.2682 -0.5124 -0.4153
  557TMC3     C 8265   4.067   3.327  10.084 -0.3342  0.1057  0.1662
  557TMC3     O 8266   4.134   3.356   9.984  0.3039  0.1399  0.1733
  557TMC3     H 8267   4.124   3.130   9.928 -1.4058  2.0683 -0.4731
  557TMC3    H1 8268   3.826   3.250  10.219 -1.2750 -0.1927 -0.5326
  557TMC3    H2 8269   3.784   2.890   9.994 -0.9319 -0.4280  2.3672
  557TMC3    C7 8270   3.664   3.063  10.159  0.4244 -0.1303 -0.5986
  557TMC3    C8 8271   3.999   2.944   9.830 -0.5643  0.1557 -0.2273
  557TMC3    O1 8272   3.645   3.121  10.266 -0.2563 -0.0738 -0.2625
  557TMC3    O2 8273   4.095   2.986   9.765 -0.3144  0.4997 -0.1561
  558TMC3    C1 8274   1.298   1.297   9.988 -0.0733 -0.5817 -0.6583
  558TMC3    C2 8275   1.253   1.209  10.080 -0.0564 -0.8811  0.3580
  558TMC3    C3 8276   1.113   1.190  10.083  0.9575 -0.0653  1.1834
  558TMC3    C4 8277   1.214   1.356   9.887 -0.0840 -0.0185  0.2632
  558TMC3    C5 8278   1.079   1.334   9.896  0.5360  0.2234 -0.2222
  558TMC3    C6 8279   1.028   1.244   9.991  0.1087  0.1301 -0.1760
  558TMC3     C 8280   1.433   1.342   9.985  0.1491  0.4543 -0.1396
  558TMC3     O 8281   1.453   1.457   9.945  0.5667 -0.0688  0.0717
  558TMC3     H 8282   1.317   1.155  10.150 -0.5872 -1.5489  0.3250
  558TMC3    H1 8283   1.253   1.428   9.815  2.1121 -1.3075  0.1553
  558TMC3    H2 8284   0.922   1.231  10.012  0.9389 -1.0229  3.3812
  558TMC3    C7 8285   0.990   1.394   9.801 -0.5328 -0.1312  0.0765
  558TMC3    C8 8286   1.066   1.111  10.198  0.0968  0.7090  1.0197
  558TMC3    O1 8287   1.051   1.492   9.758 -0.3658 -0.4502 -0.2069
  558TMC3    O2 8288   0.968   1.052  10.164 -0.1790  0.2095 -0.1148
  559MPD2     C 8289   1.225   2.225  10.928  0.2046  0.9041 -0.3961
  559MPD2    C1 8290   1.255   2.099  10.970  0.6312 -0.0743  0.5555
  559MPD2    C2 8291   1.383   2.056  10.990  0.0728  0.5832 -0.3978
  559MPD2    C3 8292   1.493   2.139  10.961  0.0283  0.4633  0.1730
  559MPD2    C4 8293   1.472   2.266  10.912 -0.1394  0.3815  0.4229
  559MPD2    C5 8294   1.335   2.301  10.902 -0.0869  0.0554 -0.1783
  559MPD2     H 8295   1.391   1.959  11.036  0.2204  0.7800 -0.0043
  559MPD2    H1 8296   1.550   2.338  10.889 -0.9237  1.0352 -0.2111
  559MPD2    H2 8297   1.127   2.270  10.915  0.2233  0.6088 -1.5172
  559MPD2    H3 8298   1.314   2.399  10.859 -1.8231 -0.2122  0.0812
  559MPD2     N 8299   1.626   2.086  10.980  0.2960  0.1590 -0.5673
  559MPD2    H5 8300   1.629   1.994  11.022  0.9252  0.0478 -0.8595
  559MPD2    N1 8301   1.139   2.015  10.996  0.2410 -0.3793  0.0325
  559MPD2    H7 8302   1.051   2.062  11.012 -1.0144 -2.4289 -0.8718
  560TMC3    C1 8303   1.857   2.041  10.958 -0.2367 -0.3014  0.6473
  560TMC3    C2 8304   1.833   1.907  10.933 -0.0601 -0.0891  1.1122
  560TMC3    C3 8305   1.943   1.823  10.954 -0.3760 -0.0534  0.7540
  560TMC3    C4 8306   1.976   2.086  10.973  0.3538 -0.1897  0.7557
  560TMC3    C5 8307   2.090   2.002  10.986 -0.6768 -0.0552  0.3016
  560TMC3    C6 8308   2.073   1.865  10.984  0.5638  0.2199 -0.7042
  560TMC3     C 8309   1.750   2.138  10.947  0.0690 -0.0747 -0.2868
  560TMC3     O 8310   1.778   2.242  10.897 -0.0410  0.7010 -0.5721
  560TMC3     H 8311   1.730   1.874  10.919  0.0758 -0.0900  0.0558
  560TMC3    H1 8312   1.976   2.189  11.008 -0.1761  0.3406 -0.8347
  560TMC3    H2 8313   2.164   1.809  11.003 -0.0179 -1.0995 -1.7118
  560TMC3    C7 8314   2.194   2.050  11.076  0.2095 -0.5683 -0.0673
  560TMC3    C8 8315   1.915   1.680  10.935 -0.0045 -0.4147  0.1544
  560TMC3    O1 8316   2.255   1.973  11.152  0.2516  0.4933 -0.6462
  560TMC3    O2 8317   1.795   1.655  10.912  0.2652 -0.0090  0.3697
  561TMC3    C1 8318   4.260   1.333  11.288 -0.1971  0.4458  0.1830
  561TMC3    C2 8319   4.227   1.267  11.407  0.9967 -0.4762  0.1345
  561TMC3    C3 8320   4.212   1.343  11.514  0.2822 -0.5545  0.4468
  561TMC3    C4 8321   4.281   1.467  11.283 -0.0240  0.0549 -0.2255
  561TMC3    C5 8322   4.269   1.538  11.402 -0.5684  0.2680  0.4512
  561TMC3    C6 8323   4.235   1.474  11.518 -0.0108  0.3555 -0.7580
  561TMC3     C 8324   4.293   1.259  11.169  0.0198  0.1001 -0.6791
  561TMC3     O 8325   4.381   1.307  11.097 -0.3510  0.6381  0.9470
  561TMC3     H 8326   4.222   1.159  11.417  1.4525 -0.6635 -1.5858
  561TMC3    H1 8327   4.305   1.504  11.184  0.1021  2.0270  0.5345
  561TMC3    H2 8328   4.221   1.536  11.606  4.2322  0.2366 -0.0317
  561TMC3    C7 8329   4.325   1.673  11.411 -0.2267  0.4721  0.0464
  561TMC3    C8 8330   4.116   1.299  11.622 -0.3462  0.0738  0.1656
  561TMC3    O1 8331   4.364   1.718  11.516  0.5199  0.3728  0.2172
  561TMC3    O2 8332   4.121   1.180  11.651 -0.4684 -0.2916 -0.4122
  562TMC3    C1 8333   0.963   3.121  16.225  0.1127 -0.4775  0.1900
  562TMC3    C2 8334   0.911   3.235  16.160  0.8404 -0.1290 -0.5387
  562TMC3    C3 8335   0.799   3.219  16.085  0.2168  0.5766 -0.2375
  562TMC3    C4 8336   0.893   3.004  16.215 -0.1242 -0.5760 -0.2265
  562TMC3    C5 8337   0.777   2.998  16.148  0.4005  0.6928  0.3419
  562TMC3    C6 8338   0.728   3.102  16.079  0.2570  0.3832 -0.4489
  562TMC3     C 8339   1.058   3.130  16.333  0.2133 -0.3719  0.2480
  562TMC3     O 8340   1.091   3.020  16.378  0.5447 -0.3449  0.3848
  562TMC3     H 8341   0.958   3.332  16.169  2.3424 -0.9246  0.1808
  562TMC3    H1 8342   0.926   2.921  16.276  0.8545  1.3974  1.9465
  562TMC3    H2 8343   0.640   3.078  16.021  0.4527  0.1986 -0.6695
  562TMC3    C7 8344   0.700   2.879  16.130  0.1799  0.4418 -0.1596
  562TMC3    C8 8345   0.735   3.341  16.047 -0.5087 -0.0981  0.2645
  562TMC3    O1 8346   0.575   2.892  16.116  0.1834  0.6058 -0.2807
  562TMC3    O2 8347   0.753   3.441  16.115 -0.2159  1.1077 -0.5107
  563MPD2     C 8348   3.181   4.398  15.617 -0.1951  0.2270 -0.7929
  563MPD2    C1 8349   3.229   4.370  15.746 -0.7678 -0.1132  0.1589
  563MPD2    C2 8350   3.362   4.405  15.775 -0.7087  0.0287  0.3315
  563MPD2    C3 8351   3.438   4.459  15.679  0.2352  0.1932 -0.1522
  563MPD2    C4 8352   3.394   4.485  15.554 -0.6152  0.7268  0.1463
  563MPD2    C5 8353   3.262   4.460  15.524  0.8997 -0.3485  0.0024
  563MPD2     H 8354   3.417   4.373  15.863 -1.4724 -1.9557  0.0912
  563MPD2    H1 8355   3.456   4.543  15.486  0.0598 -1.0990 -0.7873
  563MPD2    H2 8356   3.075   4.392  15.595 -0.2224 -0.4396 -0.4722
  563MPD2    H3 8357   3.223   4.487  15.427 -0.2171  0.8711  0.7916
  563MPD2     N 8358   3.572   4.489  15.708 -0.0612 -0.1443  0.3848
  563MPD2    H5 8359   3.603   4.467  15.802  1.1023  0.6964  0.1976
  563MPD2    N1 8360   3.139   4.329  15.840  0.1401 -0.0914  0.7783
  563MPD2    H7 8361   3.050   4.298  15.803 -0.1902  0.7080  0.9025
  564TMC3    C1 8362   3.061   4.268  16.050  0.4278 -0.8161  0.1198
  564TMC3    C2 8363   2.937   4.229  16.003  1.0481 -0.0140  0.0383
  564TMC3    C3 8364   2.859   4.170  16.094 -0.2885  0.1282 -0.0472
  564TMC3    C4 8365   3.097   4.254  16.185  0.1648  0.3862  0.3962
  564TMC3    C5 8366   3.008   4.200  16.267  0.7871  0.4157 -0.2047
  564TMC3    C6 8367   2.877   4.179  16.231 -0.1049  0.0143 -0.2354
  564TMC3     C 8368   3.164   4.317  15.971 -0.8615  0.7823 -0.2591
  564TMC3     O 8369   3.267   4.360  16.026 -0.1304  0.2589 -0.1138
  564TMC3     H 8370   2.907   4.232  15.899  1.7272 -1.0676 -0.1913
  564TMC3    H1 8371   3.198   4.272  16.221 -0.6890  1.2693  2.3423
  564TMC3    H2 8372   2.802   4.136  16.295 -1.8431  0.9528 -1.6316
  564TMC3    C7 8373   3.066   4.098  16.360 -0.8316 -0.2362 -0.3300
  564TMC3    C8 8374   2.806   4.043  16.061 -0.1113  0.1603  0.4648
  564TMC3    O1 8375   3.168   4.127  16.417  0.7014  0.1363 -0.5802
  564TMC3    O2 8376   2.738   3.994  16.155  0.5122  0.1698 -0.2440
  565TMC3    C1 8377   3.245   0.725   9.646 -0.0019 -0.2106  0.1300
  565TMC3    C2 8378   3.223   0.630   9.740  0.2321  0.2498 -0.0147
  565TMC3    C3 8379   3.109   0.548   9.731 -0.0476  0.5812 -0.1967
  565TMC3    C4 8380   3.161   0.741   9.543 -0.6221 -0.8043  0.4140
  565TMC3    C5 8381   3.044   0.666   9.537 -0.0149 -0.5304  0.3924
  565TMC3    C6 8382   3.025   0.567   9.625 -0.3763  0.2875 -0.0247
  565TMC3     C 8383   3.372   0.803   9.646  0.1435  0.4666  0.0981
  565TMC3     O 8384   3.394   0.870   9.550 -0.2626  0.5370  0.2890
  565TMC3     H 8385   3.282   0.627   9.832 -0.4343 -0.5250  0.3846
  565TMC3    H1 8386   3.180   0.832   9.486  1.0486 -1.2761  0.2080
  565TMC3    H2 8387   2.930   0.515   9.627 -1.0954  1.5709 -0.4609
  565TMC3    C7 8388   2.946   0.695   9.425  0.0176 -1.1355 -0.1133
  565TMC3    C8 8389   3.082   0.463   9.847  0.3002  0.2377 -0.0055
  565TMC3    O1 8390   2.967   0.791   9.348  0.2865 -0.1443 -0.2194
  565TMC3    O2 8391   3.149   0.480   9.947 -0.5437 -0.0822 -0.4214
  566MPD2     C 8392   0.035   1.949  14.234  0.1432  0.2742 -0.0662
  566MPD2    C1 8393   0.085   2.026  14.127 -0.1365  0.8526  0.0983
  566MPD2    C2 8394   0.007   2.046  14.016  0.3099  0.0790  0.2400
  566MPD2    C3 8395   4.612   1.973  13.997  0.1323  0.2154 -0.4949
  566MPD2    C4 8396   4.564   1.898  14.104 -0.5547 -0.2344  0.3828
  566MPD2    C5 8397   4.634   1.888  14.220  0.4073  0.7535  0.7395
  566MPD2     H 8398   0.046   2.103  13.932 -0.3832 -0.6784 -0.5999
  566MPD2    H1 8399   4.463   1.861  14.093 -1.4056  1.7015  1.5489
  566MPD2    H2 8400   0.089   1.922  14.324 -2.8040  3.2388  2.5396
  566MPD2    H3 8401   4.583   1.828  14.295  0.5335  0.4358  0.5668
  566MPD2     N 8402   4.535   1.975  13.878  0.4348 -0.3044  0.1960
  566MPD2    H5 8403   4.447   1.924  13.870  0.0159  0.3950  0.3482
  566MPD2    N1 8404   0.211   2.080  14.146  0.3063 -0.5261 -0.2380
  566MPD2    H7 8405   0.264   2.051  14.227  1.5178  1.4168 -0.3420
  567TMC3    C1 8406   0.407   2.175  14.052  0.2302  0.9545 -0.7098
  567TMC3    C2 8407   0.450   2.274  13.962 -0.3520  0.8985  0.6958
  567TMC3    C3 8408   0.583   2.288  13.933 -0.3401  0.6332 -0.1477
  567TMC3    C4 8409   0.491   2.073  14.083  0.0920  0.1269 -0.0867
  567TMC3    C5 8410   0.622   2.090  14.049  0.2305  0.3517  0.2930
  567TMC3    C6 8411   0.667   2.195  13.969  0.7219 -0.8246 -0.7501
  567TMC3     C 8412   0.259   2.177  14.071 -0.1832  0.7840  0.0295
  567TMC3     O 8413   0.196   2.261  14.009 -0.6736  0.1288  0.8380
  567TMC3     H 8414   0.378   2.352  13.942 -1.1669 -0.2138 -0.6974
  567TMC3    H1 8415   0.461   1.986  14.141  0.4580  0.3042  0.3736
  567TMC3    H2 8416   0.774   2.209  13.955  0.5768 -0.5550 -1.5757
  567TMC3    C7 8417   0.709   2.059  14.164 -0.8861  0.6275  0.5839
  567TMC3    C8 8418   0.623   2.394  13.832  0.1263 -0.3263 -0.2033
  567TMC3    O1 8419   0.831   2.084  14.147  0.1284 -0.0611 -1.1381
  567TMC3    O2 8420   0.535   2.456  13.777 -0.1505  0.2457  0.8546
  568MPD2     C 8421   3.187   2.995  16.836  0.2063 -0.0683  0.6227
  568MPD2    C1 8422   3.056   3.007  16.875  0.1453  0.2443  0.3911
  568MPD2    C2 8423   2.976   3.089  16.799  0.3297 -0.4716 -0.1428
  568MPD2    C3 8424   3.015   3.158  16.682 -0.4325 -0.2186  0.6977
  568MPD2    C4 8425   3.145   3.133  16.648  0.4626 -0.1429 -0.0567
  568MPD2    C5 8426   3.223   3.055  16.719  0.5188 -0.1669  0.9159
  568MPD2     H 8427   2.874   3.093  16.835  1.0553  0.8373  1.7285
  568MPD2    H1 8428   3.186   3.159  16.551  0.6644 -0.8646 -0.1638
  568MPD2    H2 8429   3.258   2.927  16.881  0.5978 -0.0310  0.0590
  568MPD2    H3 8430   3.324   3.040  16.684  0.5728 -0.2408  1.1009
  568MPD2     N 8431   2.916   3.213  16.601  0.9721  0.2937  0.5312
  568MPD2    H5 8432   2.823   3.195  16.637  1.5067 -2.4924  0.5062
  568MPD2    N1 8433   3.008   2.922  16.979 -0.1775  0.2841  0.3861
  568MPD2    H7 8434   3.073   2.855  17.020  1.3283  0.3068 -1.9691
  569TMC3    C1 8435   2.804   3.280  16.404 -0.0587 -0.0181  0.5952
  569TMC3    C2 8436   2.704   3.346  16.456  0.3616  0.0968  0.5042
  569TMC3    C3 8437   2.625   3.417  16.369  0.0986 -0.3545  0.5037
  569TMC3    C4 8438   2.824   3.279  16.268  0.2186  0.4219 -0.2143
  569TMC3    C5 8439   2.741   3.340  16.181 -0.1720 -0.2768 -0.0513
  569TMC3    C6 8440   2.644   3.424  16.227 -0.0513  0.1981 -0.5938
  569TMC3     C 8441   2.934   3.266  16.474  0.3202  0.1534  0.0795
  569TMC3     O 8442   3.037   3.297  16.417  0.0366  0.7360  0.2530
  569TMC3     H 8443   2.693   3.354  16.563  1.2708  2.1314  0.4441
  569TMC3    H1 8444   2.899   3.212  16.230 -2.2783 -3.0533  0.9422
  569TMC3    H2 8445   2.567   3.466  16.163  0.7823  2.8453  0.1750
  569TMC3    C7 8446   2.802   3.391  16.067  0.0762 -0.0245  0.1159
  569TMC3    C8 8447   2.630   3.558  16.400 -0.6013 -0.2225 -0.2463
  569TMC3    O1 8448   2.892   3.325  16.013  0.1872  0.6110 -0.3766
  569TMC3    O2 8449   2.613   3.623  16.295 -0.5227  0.4063  0.3171
  570TMC3    C1 8450   1.708   1.945  15.856  0.0136  0.2860 -0.7970
  570TMC3    C2 8451   1.789   1.992  15.750  0.8518  0.0593  0.2590
  570TMC3    C3 8452   1.865   2.107  15.777 -0.3248 -0.0567 -0.4781
  570TMC3    C4 8453   1.718   2.000  15.982  0.1411  0.4116  1.1585
  570TMC3    C5 8454   1.799   2.104  16.006 -0.0821 -0.5275  0.3185
  570TMC3    C6 8455   1.866   2.166  15.906 -0.5304  0.1256 -0.1293
  570TMC3     C 8456   1.635   1.826  15.834 -0.3455 -0.3479 -0.0375
  570TMC3     O 8457   1.583   1.806  15.723  0.3071 -0.6333 -0.1439
  570TMC3     H 8458   1.768   1.955  15.650 -0.7768  0.5765  0.4107
  570TMC3    H1 8459   1.650   1.981  16.065 -0.3628 -0.7584  0.4768
  570TMC3    H2 8460   1.925   2.255  15.924  0.4685 -0.2985 -1.3234
  570TMC3    C7 8461   1.817   2.151  16.138  0.2750 -0.2193  0.0558
  570TMC3    C8 8462   1.945   2.180  15.685  0.6157  0.3057  0.0076
  570TMC3    O1 8463   1.803   2.072  16.228 -0.0177  0.0534 -0.2550
  570TMC3    O2 8464   2.026   2.266  15.723  0.2789 -0.2428 -0.1024
  571MPD2     C 8465   0.530   4.333  17.368  0.3672 -0.4846 -0.0571
  571MPD2    C1 8466   0.446   4.227  17.391  0.2033 -0.4442 -0.0396
  571MPD2    C2 8467   0.326   4.248  17.444 -0.4890  0.7341 -1.2427
  571MPD2    C3 8468   0.286   4.375  17.490  0.7127  0.0019  0.3305
  571MPD2    C4 8469   0.367   4.481  17.460 -0.0331  1.0129  0.1912
  571MPD2    C5 8470   0.498   4.460  17.415  0.4893  0.1651  0.3708
  571MPD2     H 8471   0.270   4.167  17.490  0.5350  0.4752 -0.4364
  571MPD2    H1 8472   0.344   4.583  17.486  0.9044  1.1340  0.5424
  571MPD2    H2 8473   0.625   4.320  17.317 -0.0211 -0.8554 -0.6780
  571MPD2    H3 8474   0.558   4.547  17.393 -1.4544  1.5473  0.5477
  571MPD2     N 8475   0.170   4.403  17.564  0.0421  0.1566  0.1027
  571MPD2    H5 8476   0.151   4.502  17.578  1.4276  0.2199  1.4421
  571MPD2    N1 8477   0.480   4.104  17.336 -0.1053 -0.0830 -0.4716
  571MPD2    H7 8478   0.571   4.095  17.293 -0.9541 -0.3664 -2.2330
  572TMC3    C1 8479   4.697   4.373   0.005  0.5156 -0.3465  0.1714
  572TMC3    C2 8480   4.635   4.313   0.114 -0.1511  0.2686 -0.1093
  572TMC3    C3 8481   4.533   4.385   0.174 -0.2776  0.1531  0.6721
  572TMC3    C4 8482   4.656   4.490  17.636 -0.5773 -0.0483  0.9836
  572TMC3    C5 8483   4.550   4.551   0.012  0.7205  0.7662  0.0055
  572TMC3    C6 8484   4.486   4.501   0.123 -0.6134 -0.0204  0.3518
  572TMC3     C 8485   0.093   4.317  17.638 -0.0010 -0.7821 -0.6991
  572TMC3     O 8486   0.121   4.203  17.670  0.2150  0.1230  0.9029
  572TMC3     H 8487   4.684   4.234   0.171  0.6504 -0.0816 -1.2889
  572TMC3    H1 8488   4.688   4.524  17.538 -2.6174 -1.3980 -0.1500
  572TMC3    H2 8489   4.422   4.568   0.179 -0.6959 -0.8888  1.2954
  572TMC3    C7 8490   4.490   4.678  17.659 -0.0030  0.1886 -0.1760
  572TMC3    C8 8491   4.492   4.340   0.301 -0.3965 -0.1043  0.5280
  572TMC3    O1 8492   4.381   4.692   0.016 -0.8247 -0.4899  0.2322
  572TMC3    O2 8493   4.571   4.264   0.359  0.1550  0.2399 -0.2831
  573MPD2     C 8494   1.106   4.342   0.729 -0.0450  0.0180 -0.0576
  573MPD2    C1 8495   1.188   4.443   0.775 -0.6523 -0.0932 -0.1213
  573MPD2    C2 8496   1.298   4.490   0.708  0.5586 -0.0971 -0.8115
  573MPD2    C3 8497   1.312   4.457   0.573 -0.3605  0.0638 -0.7760
  573MPD2    C4 8498   1.227   4.357   0.527  0.2756 -0.0061  0.2599
  573MPD2    C5 8499   1.123   4.303   0.599 -0.3166 -0.1722  0.0857
  573MPD2     H 8500   1.362   4.569   0.746 -0.1236  0.2162 -0.3198
  573MPD2    H1 8501   1.225   4.341   0.420  0.3433  1.1435  0.0892
  573MPD2    H2 8502   1.021   4.299   0.780  1.0649 -0.9228  0.9822
  573MPD2    H3 8503   1.060   4.225   0.556  0.3204 -0.6445  0.0093
  573MPD2     N 8504   1.407   4.514   0.483  0.5659 -0.0959 -0.6769
  573MPD2    H5 8505   1.404   4.477   0.389 -0.1248 -0.3465 -0.5595
  573MPD2    N1 8506   1.173   4.482   0.915 -0.4216  0.1180 -0.3717
  573MPD2    H7 8507   1.085   4.446   0.950 -0.2183 -0.5092 -0.5023
  574TMC3    C1 8508   1.604   4.650   0.410  0.7653  0.3965 -0.3710
  574TMC3    C2 8509   1.620   4.572   0.300  0.0796 -0.8376 -0.0646
  574TMC3    C3 8510   1.746   4.561   0.248 -0.0787 -0.7957 -0.6903
  574TMC3    C4 8511   1.710   4.717   0.466  0.3076  0.3846 -0.5301
  574TMC3    C5 8512   1.833   4.701   0.409  0.3083 -0.2101 -0.1174
  574TMC3    C6 8513   1.849   4.614   0.304  0.0609 -0.9175 -0.2973
  574TMC3     C 8514   1.485   4.625   0.501  0.0053  0.0696  0.2327
  574TMC3     O 8515   1.474   4.715   0.584 -0.8524  0.2254  0.3342
  574TMC3     H 8516   1.543   4.500   0.272  1.4866 -2.4862  0.2628
  574TMC3    H1 8517   1.696   0.061   0.551 -0.4421 -0.0320 -0.3277
  574TMC3    H2 8518   1.952   4.593   0.277 -0.2230 -1.1477 -1.2037
  574TMC3    C7 8519   1.955   0.024   0.477  0.8952  0.3588  0.6358
  574TMC3    C8 8520   1.756   4.515   0.110  0.5012 -0.2046 -0.5485
  574TMC3    O1 8521   2.058   4.680   0.458 -0.1609  0.1106 -0.2698
  574TMC3    O2 8522   1.864   4.503   0.059 -0.1162 -0.2675 -0.0331
  575TMC3    C1 8523   3.154   0.227  10.676 -0.6208  0.0957  0.3463
  575TMC3    C2 8524   3.177   0.093  10.709 -0.7001 -0.3905  0.2352
  575TMC3    C3 8525   3.176   4.716  10.612  0.0046  0.6082  0.1698
  575TMC3    C4 8526   3.131   0.260  10.546 -0.0223 -0.0869  0.8320
  575TMC3    C5 8527   3.109   0.158  10.454  0.3135 -0.3239 -0.0395
  575TMC3    C6 8528   3.134   0.025  10.485 -0.2105 -0.1560 -0.1683
  575TMC3     C 8529   3.194   0.337  10.767  0.2913  0.1861  0.3211
  575TMC3     O 8530   3.124   0.435  10.775  0.7822 -0.6733  0.4979
  575TMC3     H 8531   3.195   0.073  10.814  2.6476  0.1104 -0.2713
  575TMC3    H1 8532   3.117   0.365  10.523 -2.6985 -0.4936  0.5047
  575TMC3    H2 8533   3.103   4.671  10.414  1.1304 -1.1083  0.2707
  575TMC3    C7 8534   3.069   0.206  10.329 -0.2444  0.0808  0.4886
  575TMC3    C8 8535   3.193   4.578  10.651  0.2156 -0.2881 -0.5220
  575TMC3    O1 8536   3.071   0.327  10.306  0.1632 -0.5520  0.3619
  575TMC3    O2 8537   3.156   4.534  10.757  0.5559  0.2745  0.1165
  576MPD2     C 8538   2.958   1.871  12.268 -0.4387  0.1170 -0.4937
  576MPD2    C1 8539   3.054   1.971  12.282  0.4667 -0.0878  0.2243
  576MPD2    C2 8540   3.028   2.071  12.377 -0.5202  0.1047 -0.3097
  576MPD2    C3 8541   2.908   2.073  12.446  0.0896 -1.1827 -0.3888
  576MPD2    C4 8542   2.811   1.971  12.425 -0.0243 -0.1177  0.4055
  576MPD2    C5 8543   2.830   1.869  12.329 -0.2485 -0.4875 -0.3667
  576MPD2     H 8544   3.105   2.142  12.402 -1.8301  1.5665 -0.4282
  576MPD2    H1 8545   2.710   1.986  12.460 -1.1202  1.1524 -3.3224
  576MPD2    H2 8546   2.970   1.796  12.191  1.6340  1.0021 -1.0382
  576MPD2    H3 8547   2.760   1.789  12.310 -1.5324  0.3619  0.7755
  576MPD2     N 8548   2.885   2.178  12.538  0.4970  0.0119  0.4020
  576MPD2    H5 8549   2.953   2.253  12.537 -0.2193  0.6192 -1.6333
  576MPD2    N1 8550   3.181   1.947  12.230  0.4648 -0.0769 -0.3148
  576MPD2    H7 8551   3.249   2.020  12.249 -0.1118  0.1603  0.8391
  577TMC3    C1 8552   3.366   1.846  12.124 -0.4792  1.0200  0.0635
  577TMC3    C2 8553   3.438   1.726  12.119 -0.2712 -0.4033  0.5278
  577TMC3    C3 8554   3.556   1.729  12.057 -0.2812  0.3300  0.1060
  577TMC3    C4 8555   3.406   1.949  12.047 -1.1128  0.5067  0.3227
  577TMC3    C5 8556   3.524   1.940  11.972 -0.1712  0.2567 -0.2574
  577TMC3    C6 8557   3.606   1.829  11.982 -0.7040 -0.2313  0.6228
  577TMC3     C 8558   3.227   1.842  12.151  0.0217 -0.9093  0.3365
  577TMC3     O 8559   3.165   1.744  12.124  0.3029  0.1183  0.2835
  577TMC3     H 8560   3.399   1.641  12.174  2.1340 -1.9186 -0.0781
  577TMC3    H1 8561   3.359   2.044  12.072  1.8541  1.5516  1.9461
  577TMC3    H2 8562   3.702   1.824  11.932 -1.1836  0.2685 -0.3647
  577TMC3    C7 8563   3.554   2.012  11.856 -0.2992  0.6831 -0.5626
  577TMC3    C8 8564   3.595   1.593  12.025 -0.4756 -1.1694  0.5141
  577TMC3    O1 8565   3.674   2.020  11.831  0.1108 -0.1016 -0.0872
  577TMC3    O2 8566   3.545   1.503  12.093 -0.0641  0.2275 -0.3037
  578MPD2     C 8567   0.256   2.175   1.520 -0.5900 -0.1598 -0.0430
  578MPD2    C1 8568   0.343   2.085   1.455  0.3489  0.4111 -0.2520
  578MPD2    C2 8569   0.457   2.044   1.515 -0.0134 -0.1748 -0.1556
  578MPD2    C3 8570   0.502   2.098   1.637 -0.2313 -0.1637  0.0201
  578MPD2    C4 8571   0.425   2.193   1.692  0.2138  0.1051 -0.1509
  578MPD2    C5 8572   0.304   2.227   1.638 -0.3316  0.6793  0.3586
  578MPD2     H 8573   0.521   1.977   1.459  0.1901  0.8617 -1.1525
  578MPD2    H1 8574   0.463   2.245   1.780 -1.2544 -0.6760  0.9537
  578MPD2    H2 8575   0.168   2.208   1.466 -1.8300  1.4982  3.0144
  578MPD2    H3 8576   0.247   2.296   1.700 -0.0802 -0.1398  1.5069
  578MPD2     N 8577   0.624   2.053   1.695 -0.3348 -0.5384 -0.0977
  578MPD2    H5 8578   0.668   1.976   1.647  0.5606 -1.2067  1.7835
  578MPD2    N1 8579   0.310   2.040   1.320 -0.1784 -0.6142 -0.3570
  578MPD2    H7 8580   0.229   2.084   1.280 -0.4742 -0.0827  0.8239
  579TMC3    C1 8581   0.829   2.050   1.823  0.7089 -0.2412 -0.9557
  579TMC3    C2 8582   0.916   2.115   1.913  0.5322 -0.1036 -0.0518
  579TMC3    C3 8583   1.048   2.087   1.900  0.7042 -0.4539  0.6287
  579TMC3    C4 8584   0.870   1.956   1.733  0.3807 -1.0256 -0.2150
  579TMC3    C5 8585   1.007   1.926   1.724 -0.2566  0.3767 -0.6709
  579TMC3    C6 8586   1.098   1.991   1.812 -0.8220  0.2384 -0.3665
  579TMC3     C 8587   0.695   2.106   1.803  0.1401 -0.3551 -0.1688
  579TMC3     O 8588   0.673   2.212   1.865 -0.0647  0.1602  0.1773
  579TMC3     H 8589   0.884   2.196   1.979 -1.1575 -1.8244  1.2216
  579TMC3    H1 8590   0.793   1.898   1.683  0.4265 -2.3753  1.2691
  579TMC3    H2 8591   1.205   1.974   1.809 -0.5262  1.7574  1.2137
  579TMC3    C7 8592   1.057   1.812   1.649  0.8557  0.2238  0.4379
  579TMC3    C8 8593   1.134   2.151   1.999 -0.6049  0.1353  0.5573
  579TMC3    O1 8594   1.172   1.771   1.679  0.1095  0.5623  0.0294
  579TMC3    O2 8595   1.086   2.187   2.104 -0.5667 -0.1118 -0.2109
  580TMC3    C1 8596   0.841   0.810  12.096 -0.0047 -0.4915  0.3868
  580TMC3    C2 8597   0.847   0.755  11.977  0.0540  0.2060 -0.1195
  580TMC3    C3 8598   0.897   0.625  11.965  1.0463  0.0953 -0.2262
  580TMC3    C4 8599   0.871   0.748  12.212 -0.4566  0.1277 -0.1328
  580TMC3    C5 8600   0.920   0.619  12.199  0.8238 -0.8415  0.5505
  580TMC3    C6 8601   0.939   0.559  12.078  0.1822 -0.0270  0.5889
  580TMC3     C 8602   0.840   0.955  12.097  0.0521 -0.6877 -0.5587
  580TMC3     O 8603   0.835   1.008  12.208  0.3126  0.2256 -0.1210
  580TMC3     H 8604   0.808   0.795  11.884  0.6871  0.1037 -0.4326
  580TMC3    H1 8605   0.849   0.791  12.309 -2.1464  0.3049 -0.5961
  580TMC3    H2 8606   0.975   0.457  12.070 -3.3125 -1.3225  1.1259
  580TMC3    C7 8607   0.969   0.554  12.322 -0.4154 -0.4791  0.4119
  580TMC3    C8 8608   0.982   0.612  11.849  0.2256 -0.6053  0.5777
  580TMC3    O1 8609   0.985   0.626  12.422  0.3829  0.5916 -0.6616
  580TMC3    O2 8610   0.926   0.629  11.746 -0.1828  0.2399  0.0419
  581MPD2     C 8611   4.170   0.718  14.730  0.4850 -1.0281 -0.0939
  581MPD2    C1 8612   4.140   0.789  14.849 -0.0983 -0.4518 -0.0994
  581MPD2    C2 8613   4.016   0.846  14.864 -0.1116 -0.2836 -0.5073
  581MPD2    C3 8614   3.922   0.849  14.752  0.1463 -0.1696  0.1539
  581MPD2    C4 8615   3.963   0.788  14.636 -0.4893  0.2330  0.3579
  581MPD2    C5 8616   4.081   0.712  14.629 -0.6071  0.3752  0.1135
  581MPD2     H 8617   3.997   0.897  14.958  2.9476  0.4782 -0.3180
  581MPD2    H1 8618   3.907   0.788  14.544  1.4212  1.2111 -0.8051
  581MPD2    H2 8619   4.258   0.656  14.717  2.0168  1.1932 -0.2963
  581MPD2    H3 8620   4.105   0.661  14.537  0.6629  1.8577 -0.3710
  581MPD2     N 8621   3.799   0.922  14.751  0.0197  0.0479  0.0143
  581MPD2    H5 8622   3.774   0.982  14.829 -0.0828  0.3313 -0.2384
  581MPD2    N1 8623   4.231   0.763  14.955 -0.3941  0.1304 -0.2162
  581MPD2    H7 8624   4.313   0.708  14.933  1.0052  1.8699  0.6698
  582TMC3    C1 8625   4.339   0.767  15.161 -1.5820 -0.0009  0.2434
  582TMC3    C2 8626   4.347   0.817  15.291 -0.9949 -0.5726  0.0121
  582TMC3    C3 8627   4.390   0.734  15.392 -0.3804  0.7971  0.4860
  582TMC3    C4 8628   4.381   0.640  15.138 -0.4126 -0.4223  0.3836
  582TMC3    C5 8629   4.422   0.562  15.239 -0.4270  0.0526 -0.5271
  582TMC3    C6 8630   4.425   0.604  15.368  0.4157 -0.1063 -0.2482
  582TMC3     C 8631   4.219   0.801  15.089  0.5958  0.5204 -0.3427
  582TMC3     O 8632   4.120   0.831  15.148 -0.7372 -0.0742  0.2818
  582TMC3     H 8633   4.311   0.916  15.317 -1.4146 -0.7472  0.0994
  582TMC3    H1 8634   4.396   0.604  15.037  0.7418 -0.8967  0.7189
  582TMC3    H2 8635   4.447   0.530  15.444 -2.1588 -3.0342 -2.3831
  582TMC3    C7 8636   4.489   0.439  15.215  0.2739 -0.3682  1.1154
  582TMC3    C8 8637   4.358   0.778  15.529 -0.5562  0.2322  0.1558
  582TMC3    O1 8638   4.581   0.420  15.297 -0.2489 -0.3990 -0.4151
  582TMC3    O2 8639   4.297   0.884  15.536 -0.2230  0.0238  0.3112
  583MPD2     C 8640   4.217   2.484  16.712  0.0141 -0.0858  0.5637
  583MPD2    C1 8641   4.203   2.615  16.668 -0.5985 -0.1381  0.3837
  583MPD2    C2 8642   4.173   2.717  16.762 -0.2431 -0.3487  0.6185
  583MPD2    C3 8643   4.139   2.688  16.893  0.3334  0.3830  0.2630
  583MPD2    C4 8644   4.135   2.555  16.926  0.0881 -0.3373  0.5796
  583MPD2    C5 8645   4.174   2.455  16.838  0.9764  0.5186 -0.4996
  583MPD2     H 8646   4.178   2.819  16.725 -0.2199 -0.2393  0.9259
  583MPD2    H1 8647   4.110   2.532  17.029 -0.2824  2.5589  1.1190
  583MPD2    H2 8648   4.254   2.410  16.642  1.5235  2.3918 -1.2677
  583MPD2    H3 8649   4.174   2.356  16.881 -2.3928 -0.6982 -3.3221
  583MPD2     N 8650   4.109   2.799  16.984  0.2988  0.1926 -0.3091
  583MPD2    H5 8651   4.125   2.886  16.935 -3.7109  1.1754  0.1095
  583MPD2    N1 8652   4.239   2.657  16.541 -0.2817 -0.4536 -0.1559
  583MPD2    H7 8653   4.241   2.759  16.535  0.0286 -0.4470  0.0236
  584TMC3    C1 8654   4.094   2.920  17.180 -0.8615 -0.1908  0.0363
  584TMC3    C2 8655   4.069   3.037  17.114  0.0995  0.1579  0.1161
  584TMC3    C3 8656   4.128   3.154  17.166  0.3981 -0.5311 -0.0266
  584TMC3    C4 8657   4.164   2.913  17.298 -0.0381  0.3696  0.7140
  584TMC3    C5 8658   4.220   3.027  17.345 -0.2691  0.2801  0.3909
  584TMC3    C6 8659   4.206   3.148  17.274 -0.2416 -0.2865 -0.3935
  584TMC3     C 8660   4.085   2.794  17.117 -0.3548 -0.6121 -0.4986
  584TMC3     O 8661   4.091   2.692  17.192  0.7830 -0.4540 -0.2319
  584TMC3     H 8662   4.006   3.024  17.027 -2.0765  0.7444  1.6229
  584TMC3    H1 8663   4.174   2.819  17.349  1.4428 -0.9531 -1.9829
  584TMC3    H2 8664   4.264   3.234  17.306 -1.1554  0.2420 -0.1800
  584TMC3    C7 8665   4.228   3.024  17.487  0.1155 -0.0414  0.2477
  584TMC3    C8 8666   4.118   3.269  17.080  0.2982 -0.9394 -0.3679
  584TMC3    O1 8667   4.252   2.916  17.542 -0.0585  0.0969  0.0814
  584TMC3    O2 8668   4.061   3.248  16.976  0.4664  0.6124  0.2409
  585MPD2     C 8669   2.896   1.435   1.292  0.5071  0.3436 -0.8631
  585MPD2    C1 8670   2.888   1.438   1.153  0.0481 -0.3349  0.1294
  585MPD2    C2 8671   3.002   1.412   1.074  0.3262 -0.3157  0.3581
  585MPD2    C3 8672   3.121   1.373   1.129  0.0117 -0.4017  0.7308
  585MPD2    C4 8673   3.130   1.363   1.268 -0.0481  0.5783 -1.0956
  585MPD2    C5 8674   3.018   1.397   1.347 -0.5608  0.2704  0.3620
  585MPD2     H 8675   2.995   1.410   0.966  2.3266 -1.6538  0.2500
  585MPD2    H1 8676   3.223   1.333   1.314 -0.9219 -0.0143  0.2820
  585MPD2    H2 8677   2.809   1.445   1.357  0.9636 -0.2564 -0.1588
  585MPD2    H3 8678   3.017   1.381   1.454  0.8733  2.1922  0.6697
  585MPD2     N 8679   3.244   1.339   1.054  0.1497 -0.8089  0.8397
  585MPD2    H5 8680   3.319   1.304   1.113  1.0300  0.9943  0.7883
  585MPD2    N1 8681   2.763   1.477   1.093 -0.4827 -0.3467 -0.7662
  585MPD2    H7 8682   2.685   1.482   1.158 -0.5530 -1.0073 -0.8075
  586TMC3    C1 8683   3.392   1.309   0.869 -0.2995  0.1463 -0.4760
  586TMC3    C2 8684   3.418   1.179   0.895  0.3529  0.4088 -0.5814
  586TMC3    C3 8685   3.492   1.104   0.813  0.4506 -0.0749  0.5452
  586TMC3    C4 8686   3.428   1.362   0.744  0.3004  0.0697 -0.0016
  586TMC3    C5 8687   3.513   1.282   0.667 -0.5080 -0.1180 -0.7358
  586TMC3    C6 8688   3.537   1.155   0.696 -0.4812  0.8298 -0.0956
  586TMC3     C 8689   3.259   1.353   0.914  0.2135 -0.5355 -0.5131
  586TMC3     O 8690   3.177   1.408   0.843  0.4457 -0.1873  0.6664
  586TMC3     H 8691   3.373   1.136   0.983  1.3517 -2.2773 -1.3966
  586TMC3    H1 8692   3.389   1.459   0.715  1.5558  0.2689 -0.9935
  586TMC3    H2 8693   3.600   1.088   0.639 -0.0403  0.6880  0.5642
  586TMC3    C7 8694   3.504   1.285   0.521  0.2319 -0.2238 -0.3117
  586TMC3    C8 8695   3.477   0.960   0.816 -0.3796  0.0480 -0.2509
  586TMC3    O1 8696   3.487   1.178   0.465  0.1439  0.1227  0.0800
  586TMC3    O2 8697   3.366   0.919   0.788  0.1896 -0.0479  0.5620
  587TMC3    C1 8698   0.458   4.591  16.253  0.4253  0.5665 -0.0220
  587TMC3    C2 8699   0.460   4.662  16.378  0.3503  0.0711  0.0051
  587TMC3    C3 8700   0.576   4.676  16.445  0.8143  0.2507  0.0458
  587TMC3    C4 8701   0.572   4.539  16.194 -1.1858 -0.0409  0.1802
  587TMC3    C5 8702   0.685   4.560  16.271 -0.3413  0.2779  0.0538
  587TMC3    C6 8703   0.696   4.620  16.396  0.0590  0.4785 -0.3275
  587TMC3     C 8704   0.343   4.596  16.178  0.2487 -0.7110 -0.3377
  587TMC3     O 8705   0.326   4.506  16.097 -0.0391  0.2841  0.0733
  587TMC3     H 8706   0.370   4.678  16.436 -0.7745 -0.7286 -1.5318
  587TMC3    H1 8707   0.573   4.478  16.105  0.9479 -1.0852  0.9271
  587TMC3    H2 8708   0.791   4.609  16.448 -0.1367  0.5889  0.0521
  587TMC3    C7 8709   0.807   4.522  16.205  0.3724  0.9525  0.3422
  587TMC3    C8 8710   0.586   0.012  16.575 -0.0279  0.2415  0.4204
  587TMC3    O1 8711   0.801   4.449  16.110 -0.1267 -0.1152 -0.1940
  587TMC3    O2 8712   0.662   4.676  16.653  0.7282  0.3283  0.1690
  588TMC3    C1 8713   2.652   2.075  10.051 -0.3655  0.1877 -0.0001
  588TMC3    C2 8714   2.614   1.945  10.034  0.3207 -0.0491 -1.1191
  588TMC3    C3 8715   2.683   1.847  10.095 -0.0114 -0.0568  0.2042
  588TMC3    C4 8716   2.745   2.106  10.140 -0.2968 -0.5435 -0.0597
  588TMC3    C5 8717   2.802   2.006  10.212 -0.1145 -0.0220  0.0519
  588TMC3    C6 8718   2.779   1.873  10.192 -0.1597  0.3521  0.4276
  588TMC3     C 8719   2.655   2.151   9.929  0.2803  0.6007 -0.1775
  588TMC3     O 8720   2.564   2.132   9.851  0.3055 -0.1334  0.1818
  588TMC3     H 8721   2.542   1.934   9.953 -0.8208 -2.2806  0.2051
  588TMC3    H1 8722   2.745   2.209  10.173  2.3604 -1.2514  2.1009
  588TMC3    H2 8723   2.825   1.795  10.252 -1.3328  0.7856  1.8953
  588TMC3    C7 8724   2.934   2.028  10.261 -0.1231  0.6991 -0.1394
  588TMC3    C8 8725   2.630   1.719  10.078  0.8075 -0.1005 -0.1848
  588TMC3    O1 8726   2.985   1.943  10.332 -0.0656 -0.4072 -0.1787
  588TMC3    O2 8727   2.533   1.704  10.002 -0.8222  0.9272  0.3842
  589TMC3    C1 8728   1.837   0.490   1.533  0.7240  0.8281 -0.7716
  589TMC3    C2 8729   1.895   0.563   1.635 -0.3681  0.3535  0.0486
  589TMC3    C3 8730   2.028   0.538   1.655  0.4999  0.0351 -0.4358
  589TMC3    C4 8731   1.899   0.388   1.463  0.4943 -0.2874  0.8193
  589TMC3    C5 8732   2.030   0.363   1.489  0.3343  0.3517  0.4174
  589TMC3    C6 8733   2.094   0.434   1.589  0.3043  0.2460 -0.0053
  589TMC3     C 8734   1.698   0.533   1.489  1.0976  0.6263  0.4074
  589TMC3     O 8735   1.659   0.508   1.376  0.0444  0.2991 -0.8265
  589TMC3     H 8736   1.851   0.654   1.674 -0.0687 -0.0724  1.4033
  589TMC3    H1 8737   1.848   0.356   1.373  2.0630  1.9106 -0.8454
  589TMC3    H2 8738   2.200   0.415   1.595  0.1657 -0.1135  1.4983
  589TMC3    C7 8739   2.093   0.250   1.432  0.3419 -0.2363 -0.2006
  589TMC3    C8 8740   2.110   0.626   1.734 -0.2420 -0.4956 -0.6785
  589TMC3    O1 8741   2.176   0.194   1.504 -0.0928 -0.6870  0.0039
  589TMC3    O2 8742   2.050   0.687   1.821 -0.2025  0.3335 -0.5567
  590MPD2     C 8743   1.785   3.232  16.648  0.3725 -0.3634 -0.0307
  590MPD2    C1 8744   1.778   3.248  16.509 -0.8288 -0.0337 -0.4991
  590MPD2    C2 8745   1.896   3.296  16.447  0.6536 -0.3476  0.1515
  590MPD2    C3 8746   2.010   3.336  16.518 -0.9417  0.2671  0.9489
  590MPD2    C4 8747   2.014   3.310  16.654 -0.6177  0.2397  0.2030
  590MPD2    C5 8748   1.899   3.261  16.714  0.2649  0.2275 -0.5416
  590MPD2     H 8749   1.888   3.331  16.345  0.2692 -1.1123 -0.0794
  590MPD2    H1 8750   2.093   3.345  16.719  0.0728 -2.0695  0.6318
  590MPD2    H2 8751   1.706   3.185  16.705  0.0411  1.3719  0.9518
  590MPD2    H3 8752   1.898   3.234  16.819  0.3942  0.4440 -0.4859
  590MPD2     N 8753   2.110   3.409  16.448 -0.0419 -0.2849  0.1684
  590MPD2    H5 8754   2.088   3.433  16.351 -1.4620  1.3726  0.9135
  590MPD2    N1 8755   1.652   3.219  16.444  0.1796  0.0050  0.2194
  590MPD2    H7 8756   1.574   3.199  16.505  0.7689 -0.7875  0.7289
  591TMC3    C1 8757   2.276   3.567  16.423 -0.2966 -0.1693  0.5518
  591TMC3    C2 8758   2.286   3.569  16.285  0.0121 -0.0855 -0.1846
  591TMC3    C3 8759   2.305   3.694  16.226 -0.8856  0.4527  0.1375
  591TMC3    C4 8760   2.291   3.675  16.502 -0.3487  0.1603 -0.0798
  591TMC3    C5 8761   2.310   3.798  16.442 -0.1679 -1.0502 -0.3239
  591TMC3    C6 8762   2.322   3.808  16.305 -0.3786 -0.2488 -0.2452
  591TMC3     C 8763   2.230   3.450  16.497 -0.6472 -1.0096  0.0031
  591TMC3     O 8764   2.274   3.423  16.606 -0.1780 -0.1759  0.5035
  591TMC3     H 8765   2.267   3.483  16.222 -1.6368  0.0691  0.0989
  591TMC3    H1 8766   2.279   3.663  16.609  0.6978 -0.2281 -0.0063
  591TMC3    H2 8767   2.321   3.904  16.256 -2.4826 -0.4230 -0.5181
  591TMC3    C7 8768   2.290   3.920  16.522  0.6691 -0.3525  0.0623
  591TMC3    C8 8769   2.351   3.692  16.088 -0.1744 -0.0591 -0.2100
  591TMC3    O1 8770   2.258   3.899  16.638 -0.0970 -0.1021  0.2244
  591TMC3    O2 8771   2.362   3.574  16.044  0.0156  0.6843 -0.6875
  592MPD2     C 8772   2.161   0.272  11.365  0.0576 -0.3754 -0.3666
  592MPD2    C1 8773   2.141   0.356  11.474 -0.5161  0.7542 -0.1629
  592MPD2    C2 8774   2.040   0.323  11.562  0.8099 -0.2210  0.2366
  592MPD2    C3 8775   1.957   0.216  11.549 -0.7697  0.2580 -0.0572
  592MPD2    C4 8776   1.984   0.124  11.449  0.2543 -0.3853  0.8701
  592MPD2    C5 8777   2.090   0.154  11.365 -0.4283  0.5740  0.5602
  592MPD2     H 8778   2.007   0.402  11.629  2.1750 -0.4578  1.1847
  592MPD2    H1 8779   1.926   0.033  11.435  2.3542 -1.4635 -0.8079
  592MPD2    H2 8780   2.249   0.284  11.303  0.1122  0.0162 -0.2151
  592MPD2    H3 8781   2.111   0.079  11.290  0.9976  1.8220 -0.2964
  592MPD2     N 8782   1.840   0.204  11.633  0.2186 -0.5131 -0.1559
  592MPD2    H5 8783   1.838   0.277  11.703 -1.1784 -1.7985  1.1449
  592MPD2    N1 8784   2.234   0.460  11.486  0.3683  0.4420  0.3192
  592MPD2    H7 8785   2.285   0.491  11.404 -2.7787  5.3457  0.1869
  593TMC3    C1 8786   2.340   0.635  11.596  0.4004  0.7902 -0.4002
  593TMC3    C2 8787   2.352   0.720  11.709 -0.3205 -0.5923 -0.6410
  593TMC3    C3 8788   2.436   0.827  11.713 -0.4827  0.3912  0.0899
  593TMC3    C4 8789   2.404   0.675  11.481  0.3521  0.0552 -0.4202
  593TMC3    C5 8790   2.491   0.783  11.486 -0.7790  0.1229 -0.4018
  593TMC3    C6 8791   2.504   0.865  11.601  0.3156  0.4065  0.4026
  593TMC3     C 8792   2.241   0.530  11.606  0.3248  0.1624  0.2680
  593TMC3     O 8793   2.207   0.491  11.716 -0.1220  0.5734 -0.0210
  593TMC3     H 8794   2.295   0.700  11.798  1.3253  1.0941  0.7996
  593TMC3    H1 8795   2.367   0.639  11.386  0.6001  0.1254 -0.5448
  593TMC3    H2 8796   2.565   0.955  11.596  1.8893 -0.6814 -0.2485
  593TMC3    C7 8797   2.548   0.845  11.363  0.4909  1.1611  0.2665
  593TMC3    C8 8798   2.410   0.921  11.826  0.4321 -0.1145 -0.1623
  593TMC3    O1 8799   2.612   0.943  11.380  0.2710 -0.1931  0.0049
  593TMC3    O2 8800   2.309   0.898  11.888  0.0373  0.1551  0.2564
  594MPD2     C 8801   0.964   3.928  14.974  0.9349  0.0030 -0.3445
  594MPD2    C1 8802   0.925   4.007  14.868 -0.0948 -0.8192  0.7378
  594MPD2    C2 8803   1.002   4.122  14.844  0.1275  0.2076 -0.6211
  594MPD2    C3 8804   1.122   4.147  14.912 -0.6745  0.0811  0.0521
  594MPD2    C4 8805   1.172   4.057  15.000 -0.0702  1.0080  0.6014
  594MPD2    C5 8806   1.087   3.952  15.034  0.5778 -0.6890  0.2811
  594MPD2     H 8807   0.971   4.196  14.770 -0.2426 -0.9603 -1.6275
  594MPD2    H1 8808   1.263   4.063  15.060  0.8312 -0.8244 -0.5662
  594MPD2    H2 8809   0.901   3.845  15.003  1.0109 -0.9405 -2.8545
  594MPD2    H3 8810   1.108   3.883  15.115  2.4612 -1.9971 -1.3304
  594MPD2     N 8811   1.188   4.271  14.887 -0.7470  0.6922  0.4268
  594MPD2    H5 8812   1.141   4.336  14.825 -0.8745 -0.8199 -1.0734
  594MPD2    N1 8813   0.811   3.973  14.794 -0.0988  0.5532 -0.2670
  594MPD2    H7 8814   0.772   3.883  14.821 -1.4335  0.8072 -1.3274
  595TMC3    C1 8815   1.472   4.558  14.742  1.0682 -1.1588  0.5917
  595TMC3    C2 8816   1.469   4.450  14.824 -0.0595 -0.5061 -0.5448
  595TMC3    C3 8817   1.346   4.431  14.880 -0.2090  0.0570  0.0879
  595TMC3    C4 8818   1.372   4.644  14.728 -0.1623  0.0400 -0.4899
  595TMC3    C5 8819   1.261   4.641  14.809 -0.3611  0.3196 -0.5677
  595TMC3    C6 8820   1.243   4.528  14.881  0.1956 -0.0456 -0.1567
  595TMC3     C 8821   1.608   4.612  14.749 -0.4792 -0.3736 -0.2177
  595TMC3     O 8822   1.665   4.592  14.855  0.0811 -0.2320 -0.4323
  595TMC3     H 8823   1.553   4.381  14.825 -0.1637 -0.6000  2.0462
  595TMC3    H1 8824   1.386   0.014  14.673  3.2089 -0.1706  0.0353
  595TMC3    H2 8825   1.154   4.511  14.941  1.1231  0.9513  1.5311
  595TMC3    C7 8826   1.176   0.029  14.830  0.5537  0.3337 -0.0091
  595TMC3    C8 8827   1.318   4.301  14.932 -0.3662 -0.3001  0.8585
  595TMC3    O1 8828   1.060   0.017  14.867  0.1202 -0.4244  0.5661
  595TMC3    O2 8829   1.409   4.227  14.969 -0.3052 -0.2188  0.9024
  596MPD2     C 8830   0.203   2.375  16.616 -0.0574 -0.7763 -0.1752
  596MPD2    C1 8831   0.216   2.502  16.558  0.0682 -0.2859  0.1900
  596MPD2    C2 8832   0.229   2.517  16.421  0.5421  0.0996  0.1026
  596MPD2    C3 8833   0.230   2.406  16.341  0.1571 -0.1979 -1.2764
  596MPD2    C4 8834   0.228   2.275  16.396  0.4361  0.4997  0.5174
  596MPD2    C5 8835   0.211   2.264  16.533  0.6927  0.0089 -0.4222
  596MPD2     H 8836   0.249   2.612  16.372  1.3290 -1.2017 -2.0524
  596MPD2    H1 8837   0.232   2.181  16.342 -1.9068  0.8603 -0.2681
  596MPD2    H2 8838   0.191   2.357  16.723  0.6158 -0.4488 -0.0428
  596MPD2    H3 8839   0.210   2.169  16.586 -1.1820  0.2360 -0.0528
  596MPD2     N 8840   0.234   2.413  16.195  0.1221 -0.4167  0.0360
  596MPD2    H5 8841   0.233   2.323  16.148 -2.3701 -0.1398 -0.4455
  596MPD2    N1 8842   0.207   2.628  16.630  1.3785 -0.0106  0.7709
  596MPD2    H7 8843   0.222   2.716  16.582 -0.1910 -0.1313  0.0610
  597TMC3    C1 8844   0.202   2.762  16.821  0.0609 -0.0518 -0.1126
  597TMC3    C2 8845   0.283   2.850  16.770 -0.4072 -0.1656 -0.1373
  597TMC3    C3 8846   0.296   2.971  16.827 -0.6500  0.1157  0.2375
  597TMC3    C4 8847   0.128   2.792  16.933 -0.4156  0.0054 -0.2449
  597TMC3    C5 8848   0.151   2.910  16.995 -0.1599 -0.1922 -0.9925
  597TMC3    C6 8849   0.230   3.002  16.942 -0.0433  0.4555  0.5233
  597TMC3     C 8850   0.187   2.629  16.762  0.5133 -0.0176 -0.1031
  597TMC3     O 8851   0.145   2.544  16.835  0.0246 -0.1399  0.0023
  597TMC3     H 8852   0.358   2.823  16.696 -0.9414  0.1346 -0.7871
  597TMC3    H1 8853   0.057   2.724  16.979  3.0288 -3.5612 -0.2185
  597TMC3    H2 8854   0.243   3.102  16.981 -0.7582  1.1420 -1.0083
  597TMC3    C7 8855   0.067   2.940  17.107 -0.0457 -0.3614 -0.0844
  597TMC3    C8 8856   0.387   3.069  16.760  0.1412 -0.1639 -0.3424
  597TMC3    O1 8857   0.033   2.842  17.169  0.1343 -0.6566 -0.0529
  597TMC3    O2 8858   0.418   3.160  16.833  0.2263 -0.1368  0.2085
  598TMC3    C1 8859   3.717   4.106  15.447  0.0937 -0.5170  0.3185
  598TMC3    C2 8860   3.684   4.073  15.580 -0.6937 -0.3096 -0.1187
  598TMC3    C3 8861   3.551   4.084  15.617  0.0280  0.7411 -0.3286
  598TMC3    C4 8862   3.624   4.163  15.365  0.2964 -0.1099 -0.0192
  598TMC3    C5 8863   3.491   4.153  15.405 -0.4368  0.0227  0.1427
  598TMC3    C6 8864   3.450   4.116  15.532 -0.1426 -0.0755 -0.1522
  598TMC3     C 8865   3.846   4.077  15.390 -0.4404  0.0037 -0.5538
  598TMC3     O 8866   3.860   4.108  15.273 -0.7137  0.1999 -0.5183
  598TMC3     H 8867   3.760   4.036  15.648  0.1069 -1.2400 -1.5174
  598TMC3    H1 8868   3.659   4.198  15.268  1.3932 -2.1801 -0.3638
  598TMC3    H2 8869   3.345   4.128  15.555 -0.3488 -0.4433 -0.9315
  598TMC3    C7 8870   3.384   4.174  15.311 -0.2336 -0.4071  0.0453
  598TMC3    C8 8871   3.527   4.084  15.761  0.8986 -0.5634  1.0789
  598TMC3    O1 8872   3.284   4.112  15.327 -0.1843  0.3590  0.5977
  598TMC3    O2 8873   3.623   4.086  15.834  0.1824  0.4426  0.3469
  599MPD2     C 8874   3.280   1.692  15.476 -0.1459 -0.4485  0.2353
  599MPD2    C1 8875   3.334   1.617  15.575  0.5439 -0.0709 -0.5748
  599MPD2    C2 8876   3.280   1.623  15.698 -0.5011 -0.2523  0.8868
  599MPD2    C3 8877   3.184   1.716  15.731  0.3222 -0.1961 -0.1477
  599MPD2    C4 8878   3.143   1.800  15.632  0.2308  0.6277 -0.0476
  599MPD2    C5 8879   3.180   1.777  15.506  1.1002  0.1340  0.0182
  599MPD2     H 8880   3.311   1.547  15.769 -1.2852 -1.7924 -0.4090
  599MPD2    H1 8881   3.074   1.882  15.651  1.3266  1.6224 -0.3988
  599MPD2    H2 8882   3.316   1.675  15.376  1.5991 -1.1418  0.9758
  599MPD2    H3 8883   3.139   1.846  15.433  0.9592 -0.7962 -0.7852
  599MPD2     N 8884   3.126   1.698  15.856 -0.5633 -0.7472  0.3797
  599MPD2    H5 8885   3.136   1.610  15.906 -2.2284 -0.6073  0.9671
  599MPD2    N1 8886   3.425   1.517  15.537  0.1361  0.2250  0.2643
  599MPD2    H7 8887   3.431   1.491  15.440 -0.6638  1.0258 -0.0026
  600TMC3    C1 8888   2.961   1.724  16.022  0.2230  0.5330  0.0454
  600TMC3    C2 8889   2.913   1.595  16.003  0.4194 -0.1036 -0.1612
  600TMC3    C3 8890   2.796   1.566  16.069 -0.6810  1.1916  0.8357
  600TMC3    C4 8891   2.926   1.815  16.118  0.3076  0.1980 -0.5498
  600TMC3    C5 8892   2.818   1.766  16.191  0.2962  0.1167  0.2701
  600TMC3    C6 8893   2.748   1.649  16.162 -0.4792  0.2979 -0.6304
  600TMC3     C 8894   3.030   1.778  15.909  0.3309  0.0888 -0.0440
  600TMC3     O 8895   3.006   1.895  15.895  0.6060  0.3301  0.0549
  600TMC3     H 8896   2.937   1.527  15.922  0.2804 -0.7180  0.3133
  600TMC3    H1 8897   2.978   1.909  16.133  0.8589 -0.1629 -0.2465
  600TMC3    H2 8898   2.665   1.619  16.224  0.1138 -1.4078 -0.6683
  600TMC3    C7 8899   2.762   1.841  16.302 -0.3258  1.1054 -0.0180
  600TMC3    C8 8900   2.738   1.440  16.046  0.3783 -0.6546  0.1186
  600TMC3    O1 8901   2.685   1.779  16.378 -0.9551  0.5653 -0.0141
  600TMC3    O2 8902   2.814   1.360  15.996  0.1826 -0.3442  0.4286
  601MPD2     C 8903   4.475   0.445  17.511 -0.7589 -0.2251 -0.0032
  601MPD2    C1 8904   4.378   0.356  17.566 -0.2257 -0.2881 -0.1788
  601MPD2    C2 8905   4.404   0.219  17.582 -0.4455 -0.1245 -0.4053
  601MPD2    C3 8906   4.532   0.167  17.551 -0.6564  0.2201 -0.3471
  601MPD2    C4 8907   4.625   0.254  17.497  1.0066 -0.2888  0.8598
  601MPD2    C5 8908   4.601   0.386  17.479 -0.0200 -0.1140 -0.0012
  601MPD2     H 8909   4.323   0.157  17.619 -2.0042  0.4014 -2.9470
  601MPD2    H1 8910   0.005   0.222  17.481  1.2989  2.0137 -1.7612
  601MPD2    H2 8911   4.454   0.549  17.489  0.4419 -0.1622 -0.8427
  601MPD2    H3 8912   4.687   0.443  17.448  0.8351 -1.2424  0.2979
  601MPD2     N 8913   4.569   0.038  17.577  0.3200 -0.9006  0.0736
  601MPD2    H5 8914   4.663   0.010  17.551  0.1261 -1.0203 -0.4986
  601MPD2    N1 8915   4.245   0.399  17.602 -0.6273 -0.9727  0.6242
  601MPD2    H7 8916   4.183   0.323  17.629 -0.5590 -0.3715  2.4603
  602TMC3    C1 8917   4.061   0.534  17.629  0.1320 -0.2637  0.2446
  602TMC3    C2 8918   4.026   0.661  17.665  0.4909 -0.7553 -0.0290
  602TMC3    C3 8919   3.889   0.685  17.666  0.0844  0.0623 -0.3729
  602TMC3    C4 8920   3.966   0.442  17.593  0.0599 -0.0529 -0.3155
  602TMC3    C5 8921   3.829   0.475  17.594 -0.6647 -0.5460 -0.2104
  602TMC3    C6 8922   3.794   0.602  17.623  0.6334  0.5388  0.4718
  602TMC3     C 8923   4.208   0.527  17.611 -0.7479 -0.2588 -0.1941
  602TMC3     O 8924   4.270   0.629  17.581  0.1616 -0.1884  0.0459
  602TMC3     H 8925   4.100   0.738  17.687 -2.4148  2.0515 -0.0202
  602TMC3    H1 8926   3.996   0.352  17.540  0.2340 -2.2770  3.5562
  602TMC3    H2 8927   3.689   0.630  17.632  1.0088  1.1624  2.8878
  602TMC3    C7 8928   3.761   0.410  17.485 -0.6485 -0.7281  0.0501
  602TMC3    C8 8929   3.864   0.827  17.663  0.0714 -1.0188 -0.0688
  602TMC3    O1 8930   3.788   0.288  17.470  0.0680  0.1355  0.2483
  602TMC3    O2 8931   3.939   0.914   0.024  0.5603 -0.3881 -0.1663
  603TMC3    C1 8932   2.865   4.054  10.499  0.5413 -0.3115 -0.0219
  603TMC3    C2 8933   2.934   4.105  10.612 -0.0859  0.3062  0.3216
  603TMC3    C3 8934   2.891   4.211  10.688  0.5743 -0.6774 -0.0167
  603TMC3    C4 8935   2.753   4.123  10.457  0.9904 -0.4421  1.1599
  603TMC3    C5 8936   2.717   4.231  10.532 -0.2022  0.8327  0.5316
  603TMC3    C6 8937   2.780   4.273  10.645  0.9522  0.1503 -0.4725
  603TMC3     C 8938   2.935   3.966  10.411  0.3805  0.1229  0.5239
  603TMC3     O 8939   2.882   3.951  10.299  0.1317  0.0356  0.1545
  603TMC3     H 8940   3.032   4.066  10.637  0.9843  2.5344 -0.3930
  603TMC3    H1 8941   2.706   4.082  10.368  1.9362  0.0153  0.4549
  603TMC3    H2 8942   2.742   4.359  10.700 -0.6139  0.4008 -1.9796
  603TMC3    C7 8943   2.616   4.327  10.476 -0.0150 -0.0794 -0.4293
  603TMC3    C8 8944   2.930   4.199  10.830 -0.2635  0.1618  0.5450
  603TMC3    O1 8945   2.638   4.449  10.492  0.1312 -0.4357 -0.2419
  603TMC3    O2 8946   2.982   4.090  10.858 -0.4998 -0.3181  0.7483
  604MPD2     C 8947   3.901   3.233  16.415 -0.2896  0.3627  0.0430
  604MPD2    C1 8948   3.859   3.356  16.365  0.5788 -0.7854  0.1027
  604MPD2    C2 8949   3.888   3.393  16.234 -0.2101 -0.1288  0.7406
  604MPD2    C3 8950   3.971   3.312  16.156  0.0064  0.2823  0.1159
  604MPD2    C4 8951   4.020   3.185  16.199 -0.0126  0.1488  0.0144
  604MPD2    C5 8952   3.983   3.154  16.332  0.2966 -0.1795  0.2790
  604MPD2     H 8953   3.860   3.493  16.205  0.2487  0.1171  1.1561
  604MPD2    H1 8954   4.088   3.125  16.138  0.1343  2.1605 -1.8069
  604MPD2    H2 8955   3.879   3.194  16.514  0.2079  2.8904  1.1479
  604MPD2    H3 8956   4.028   3.070  16.385  2.6528 -0.3271 -1.9448
  604MPD2     N 8957   3.989   3.362  16.024  0.2623  0.3246  0.4072
  604MPD2    H5 8958   3.943   3.451  16.008  0.6659  0.8237  1.9967
  604MPD2    N1 8959   3.797   3.453  16.451  0.1162  0.0083  0.1117
  604MPD2    H7 8960   3.777   3.543  16.409  0.3734 -0.5498 -1.2213
  605TMC3    C1 8961   3.708   3.549  16.646  0.9531  0.6519 -0.3784
  605TMC3    C2 8962   3.788   3.607  16.738 -1.1082  0.3534  0.0314
  605TMC3    C3 8963   3.764   3.734  16.773 -0.2311  0.2806  0.0279
  605TMC3    C4 8964   3.604   3.609  16.588 -0.6447 -0.1501  0.9845
  605TMC3    C5 8965   3.568   3.730  16.637 -0.7605 -1.0928 -0.2793
  605TMC3    C6 8966   3.653   3.796  16.724  0.6377 -0.4018 -0.0268
  605TMC3     C 8967   3.772   3.439  16.583 -0.7609  0.1594  0.4162
  605TMC3     O 8968   3.811   3.353  16.657 -0.3385  0.3937  0.0812
  605TMC3     H 8969   3.879   3.557  16.769 -0.1670  2.1332  0.1143
  605TMC3    H1 8970   3.556   3.548  16.513  0.1142  0.4442  0.0203
  605TMC3    H2 8971   3.628   3.898  16.752 -2.7481 -0.9874 -0.8900
  605TMC3    C7 8972   3.435   3.793  16.608  0.5367  0.0980 -0.7641
  605TMC3    C8 8973   3.885   3.816  16.751 -0.5829  0.0427  0.0158
  605TMC3    O1 8974   3.403   3.905  16.639  0.1042  0.5523 -0.1432
  605TMC3    O2 8975   3.966   3.771  16.672 -0.0927 -0.0220  0.2678
  606TMC3    C1 8976   0.160   2.523  17.278  0.2255  0.1126  0.2812
  606TMC3    C2 8977   0.122   2.506  17.406 -0.7430 -0.2077 -0.4911
  606TMC3    C3 8978   0.038   2.404  17.427 -0.0681 -0.2743 -0.0463
  606TMC3    C4 8979   0.139   2.439  17.180 -0.3222  0.0331  0.2586
  606TMC3    C5 8980   0.055   2.333  17.206  0.5044 -0.5209  0.2132
  606TMC3    C6 8981   0.003   2.320  17.330 -0.8880  0.3916  0.4584
  606TMC3     C 8982   0.254   2.633  17.262 -0.3320  0.2402  0.6493
  606TMC3     O 8983   0.265   2.716  17.351  0.3976 -0.2247 -0.2258
  606TMC3     H 8984   0.133   2.581  17.485 -0.2185 -1.1429  0.3197
  606TMC3    H1 8985   0.166   2.455  17.076 -0.3841  0.5602  0.3216
  606TMC3    H2 8986   4.663   2.236  17.359 -1.0021  1.2440  2.6920
  606TMC3    C7 8987   0.042   2.220  17.108 -0.0431  0.1530  0.0583
  606TMC3    C8 8988   0.006   2.364  17.566  0.4000 -0.8058 -0.0377
  606TMC3    O1 8989   0.094   2.246  17.001 -0.7028  0.2711 -0.7853
  606TMC3    O2 8990   4.694   2.246  17.580 -0.1570  0.3164  0.1956
  607MPD2     C 8991   2.413   4.532  12.418  0.0929  0.4137  0.0297
  607MPD2    C1 8992   2.544   4.546  12.457  0.3097 -0.2814 -0.2083
  607MPD2    C2 8993   2.619   4.440  12.497  0.6477  0.3028 -0.2584
  607MPD2    C3 8994   2.559   4.316  12.509  0.1766  0.2133 -0.0686
  607MPD2    C4 8995   2.418   4.306  12.480  0.7857  0.4091  0.6760
  607MPD2    C5 8996   2.351   4.411  12.423 -0.1755 -0.6863 -0.6394
  607MPD2     H 8997   2.720   4.457  12.533 -0.0047  0.9302  1.2618
  607MPD2    H1 8998   2.355   4.218  12.491  0.4298  0.6585  0.6527
  607MPD2    H2 8999   2.360   4.616  12.376  2.0462  2.0449  0.7875
  607MPD2    H3 9000   2.248   4.399  12.390 -0.3711 -0.0998 -0.2559
  607MPD2     N 9001   2.632   4.204  12.547  0.2272  0.5492 -0.1828
  607MPD2    H5 9002   2.732   4.223  12.542 -0.0340  1.4010 -2.3221
  607MPD2    N1 9003   2.619   4.664  12.446  0.6021 -0.0872 -0.1147
  607MPD2    H7 9004   2.708   4.659  12.496  0.1550 -2.0919  0.4792
  608TMC3    C1 9005   2.706   0.140  12.369 -0.9938 -0.0377 -0.0514
  608TMC3    C2 9006   2.793   0.128  12.476 -0.2704  0.0617  0.8147
  608TMC3    C3 9007   2.923   0.174  12.462  0.1234 -0.4773 -0.3487
  608TMC3    C4 9008   2.747   0.199  12.249  0.2582 -0.6780  0.4602
  608TMC3    C5 9009   2.876   0.242  12.238 -0.4299  0.7128 -0.0468
  608TMC3    C6 9010   2.963   0.234  12.345 -0.4701 -0.5261  0.6357
  608TMC3     C 9011   2.591   0.049  12.365 -0.1856 -0.2111  0.4046
  608TMC3     O 9012   2.504   0.062  12.280 -0.3508 -0.1628  0.4235
  608TMC3     H 9013   2.760   0.100  12.575  0.6759 -0.7534  0.9031
  608TMC3    H1 9014   2.675   0.187  12.169 -0.8519 -3.7408  1.9463
  608TMC3    H2 9015   3.069   0.247  12.331 -0.7890  0.2621 -1.0474
  608TMC3    C7 9016   2.909   0.310  12.112  0.7122 -0.1271 -0.1108
  608TMC3    C8 9017   3.025   0.112  12.549 -0.5200 -0.6170  0.4901
  608TMC3    O1 9018   2.824   0.312  12.025 -0.4729 -0.1669  0.0172
  608TMC3    O2 9019   3.114   0.180  12.593 -0.0347  0.1576 -0.0033
  609TMC3    C1 9020   0.903   3.384   8.663 -0.9517  0.3454  0.2820
  609TMC3    C2 9021   0.837   3.346   8.544 -0.0290 -0.0665 -0.3409
  609TMC3    C3 9022   0.866   3.224   8.499 -0.2077 -0.4881 -0.6451
  609TMC3    C4 9023   0.980   3.297   8.730  0.6409  0.3227 -0.6095
  609TMC3    C5 9024   1.004   3.173   8.685 -0.0543  0.3048 -0.5869
  609TMC3    C6 9025   0.936   3.129   8.573  0.7308  0.1968 -0.1121
  609TMC3     C 9026   0.857   3.509   8.738  0.2978 -0.9014 -0.1429
  609TMC3     O 9027   0.921   3.535   8.835 -0.0489 -0.2232  0.0767
  609TMC3     H 9028   0.779   3.418   8.487  1.3677  2.8712  1.9729
  609TMC3    H1 9029   1.018   3.323   8.828  0.5045  1.8508 -0.9757
  609TMC3    H2 9030   0.939   3.025   8.543  0.1691  0.1816 -0.1146
  609TMC3    C7 9031   1.088   3.096   8.772 -0.1580  0.1852  0.1993
  609TMC3    C8 9032   0.803   3.159   8.383 -0.2895 -0.8299  0.3635
  609TMC3    O1 9033   1.169   3.155   8.843 -0.3329  0.2439  0.2126
  609TMC3    O2 9034   0.801   3.039   8.378  0.2761  0.2153 -0.3970
  610TMC3    C1 9035   2.936   0.467  12.737 -0.0227  0.7266 -0.3117
  610TMC3    C2 9036   2.940   0.501  12.605 -0.1733 -0.2117  0.3501
  610TMC3    C3 9037   3.051   0.565  12.549 -0.2113  0.0738 -0.6059
  610TMC3    C4 9038   3.051   0.488  12.811 -0.0836 -0.4728  0.0519
  610TMC3    C5 9039   3.155   0.563  12.768  0.0109  0.1379 -0.0041
  610TMC3    C6 9040   3.164   0.593  12.632  0.4332  0.5837  0.7312
  610TMC3     C 9041   2.832   0.367  12.781 -0.4207  0.1181  0.7620
  610TMC3     O 9042   2.851   0.287  12.873  0.3403 -0.0392 -0.6187
  610TMC3     H 9043   2.851   0.484  12.547 -0.3535  0.4686  0.4187
  610TMC3    H1 9044   3.050   0.455  12.914  1.3637  1.0209  0.5460
  610TMC3    H2 9045   3.237   0.666  12.599 -2.4077  2.5572 -1.1089
  610TMC3    C7 9046   3.282   0.528  12.831 -0.5150  0.4246 -0.5029
  610TMC3    C8 9047   3.048   0.578  12.399 -0.0431 -0.3364  0.3147
  610TMC3    O1 9048   3.274   0.468  12.938  0.6321  0.1930  0.5581
  610TMC3    O2 9049   2.957   0.520  12.345 -0.1126 -0.4293  0.1553
  611MPD2     C 9050   1.116   4.173  10.488 -0.8913 -0.2831 -0.1817
  611MPD2    C1 9051   1.133   4.072  10.396 -0.1315  0.6947  0.8383
  611MPD2    C2 9052   1.246   4.066  10.320 -0.4252  0.1664  0.9734
  611MPD2    C3 9053   1.347   4.156  10.333  0.7116  0.2121 -0.0305
  611MPD2    C4 9054   1.325   4.254  10.427  0.1250  0.3328  0.0153
  611MPD2    C5 9055   1.213   4.267  10.494 -1.3580 -0.0167 -0.4126
  611MPD2     H 9056   1.260   3.979  10.258  0.2610 -1.4068  3.3409
  611MPD2    H1 9057   1.393   4.338  10.435 -1.4716  1.5715  0.7147
  611MPD2    H2 9058   1.023   4.185  10.542 -0.3626  0.1420  0.6328
  611MPD2    H3 9059   1.196   4.350  10.561 -0.8409 -1.8269  1.9846
  611MPD2     N 9060   1.468   4.133  10.269 -0.1015  0.1119 -0.6283
  611MPD2    H5 9061   1.542   4.201  10.284 -1.4448  0.6985  3.1877
  611MPD2    N1 9062   1.028   3.977  10.389  0.5103  0.1831  0.6799
  611MPD2    H7 9063   0.950   3.987  10.454 -1.0537 -1.8142 -0.9152
  612TMC3    C1 9064   1.648   4.032  10.159 -0.4201  0.0476 -0.0647
  612TMC3    C2 9065   1.723   4.148  10.169 -0.4512  0.8258 -0.0606
  612TMC3    C3 9066   1.860   4.130  10.175  0.4680  0.4777  0.3294
  612TMC3    C4 9067   1.701   3.909  10.162 -0.1960 -0.2106  0.0472
  612TMC3    C5 9068   1.832   3.902  10.182  0.1604  0.7746 -0.0122
  612TMC3    C6 9069   1.917   4.007  10.179  0.0382  0.3004  0.3055
  612TMC3     C 9070   1.507   4.024  10.193  0.7191  0.3084 -0.2351
  612TMC3     O 9071   1.454   3.918  10.161  0.3618  0.6555  0.6135
  612TMC3     H 9072   1.676   4.244  10.185 -0.9221  0.8511 -1.5614
  612TMC3    H1 9073   1.650   3.814  10.148 -2.1516  0.9151 -0.4349
  612TMC3    H2 9074   2.024   3.988  10.171 -0.1754  0.0160 -2.0154
  612TMC3    C7 9075   1.883   3.773  10.146 -0.2787  0.3756 -0.6673
  612TMC3    C8 9076   1.944   4.246  10.186  0.3160  0.8380  0.7623
  612TMC3    O1 9077   1.819   3.688  10.083  0.6346  0.6405  0.2012
  612TMC3    O2 9078   1.887   4.358  10.163 -0.4220  0.7665  0.2305
  613MPD2     C 9079   1.480   2.596  16.235  0.0696  0.0268  0.6818
  613MPD2    C1 9080   1.343   2.614  16.227  1.3036  0.5786  0.0335
  613MPD2    C2 9081   1.258   2.539  16.307 -0.4311 -1.0289  0.4146
  613MPD2    C3 9082   1.312   2.436  16.386 -0.8396 -0.0299  0.3218
  613MPD2    C4 9083   1.449   2.418  16.391 -0.0980 -0.2312  0.1072
  613MPD2    C5 9084   1.528   2.503  16.316  0.7200 -0.3733 -0.1225
  613MPD2     H 9085   1.150   2.545  16.297 -0.1926 -2.2773 -2.8711
  613MPD2    H1 9086   1.492   2.335  16.446  0.2184 -0.2955 -0.2427
  613MPD2    H2 9087   1.548   2.661  16.181  1.0219 -2.2888 -0.9021
  613MPD2    H3 9088   1.636   2.499  16.321  0.8131  0.6916 -1.4440
  613MPD2     N 9089   1.240   2.343  16.460  0.5378  0.5091 -0.1222
  613MPD2    H5 9090   1.290   2.273  16.515 -0.3033  0.1996  0.2500
  613MPD2    N1 9091   1.298   2.717  16.142  0.3202 -0.2902  0.1116
  613MPD2    H7 9092   1.363   2.740  16.068  0.6457  0.9138  0.7642
  614TMC3    C1 9093   1.140   2.711  15.976 -0.9167  0.0484  0.3947
  614TMC3    C2 9094   1.191   2.589  15.935  0.4491  0.3176 -0.0905
  614TMC3    C3 9095   1.110   2.510  15.851 -0.4883  0.6402 -0.1891
  614TMC3    C4 9096   1.025   2.766  15.931 -0.2243 -0.5680  0.5150
  614TMC3    C5 9097   0.944   2.691  15.848 -0.8764 -0.0681 -0.1282
  614TMC3    C6 9098   0.985   2.563  15.808  0.1118 -0.2275  1.1925
  614TMC3     C 9099   1.168   2.742  16.112 -0.6283  1.0570 -0.1015
  614TMC3     O 9100   1.077   2.749  16.193  0.2624  0.4576 -0.1893
  614TMC3     H 9101   1.282   2.549  15.978  0.7407  0.3404 -0.6814
  614TMC3    H1 9102   1.004   2.871  15.951 -0.6778 -0.9939  2.2701
  614TMC3    H2 9103   0.910   2.497  15.765  0.1741  0.4265  0.0963
  614TMC3    C7 9104   0.873   2.767  15.753 -0.0053  0.0049 -0.0208
  614TMC3    C8 9105   1.119   2.369  15.889  0.1057  0.4269 -0.5021
  614TMC3    O1 9106   0.836   2.882  15.780  0.7914  0.1385  0.0248
  614TMC3    O2 9107   1.202   2.340  15.973 -0.1599  0.6173 -0.0391
  615MPD2     C 9108   1.007   3.557  15.808  0.0905 -0.6837  0.0884
  615MPD2    C1 9109   0.946   3.687  15.820 -0.7492 -0.1904 -0.7652
  615MPD2    C2 9110   0.828   3.711  15.751  0.3585 -0.3295 -0.3639
  615MPD2    C3 9111   0.768   3.612  15.674  0.1313 -1.0897  0.4609
  615MPD2    C4 9112   0.832   3.491  15.665 -0.0788  0.2315  0.3306
  615MPD2    C5 9113   0.949   3.459  15.727 -0.3262 -0.2742 -0.2517
  615MPD2     H 9114   0.787   3.811  15.763  0.5386 -0.4611  1.3384
  615MPD2    H1 9115   0.792   3.407  15.608 -2.7438  1.6329  0.1537
  615MPD2    H2 9116   1.094   3.538  15.869  0.4744  2.7213  0.6064
  615MPD2    H3 9117   0.979   3.356  15.715  3.9671  1.1016 -1.4221
  615MPD2     N 9118   0.654   3.629  15.601  0.1244 -0.2959  0.3877
  615MPD2    H5 9119   0.639   3.556  15.531  2.9278 -1.8371  1.3686
  615MPD2    N1 9120   1.007   3.795  15.893  0.2932 -0.2356  0.2374
  615MPD2    H7 9121   0.959   3.884  15.887 -1.6214 -1.3640 -1.0187
  616TMC3    C1 9122   1.163   3.918  16.022  0.1990  0.0817 -0.2038
  616TMC3    C2 9123   1.291   3.944  16.054 -0.1156 -0.0748  0.2232
  616TMC3    C3 9124   1.322   4.058  16.120  0.3310  0.7269  0.2626
  616TMC3    C4 9125   1.062   3.992  16.069 -0.3049 -0.0291  0.3066
  616TMC3    C5 9126   1.096   4.106  16.142 -0.0172  0.5707 -0.3404
  616TMC3    C6 9127   1.230   4.145  16.173 -0.6098  0.5834 -0.0874
  616TMC3     C 9128   1.141   3.802  15.939 -0.1791  0.0871 -0.1180
  616TMC3     O 9129   1.236   3.728  15.933  0.3796  0.6179  0.4089
  616TMC3     H 9130   1.373   3.883  16.017 -1.5239 -0.6172 -2.0099
  616TMC3    H1 9131   0.962   3.954  16.059 -0.0246 -0.3490 -1.3388
  616TMC3    H2 9132   1.248   4.246  16.207 -2.3827  1.3642 -1.4353
  616TMC3    C7 9133   0.994   4.163  16.227 -0.2434  0.4563  0.2445
  616TMC3    C8 9134   1.458   4.103  16.100 -0.5349 -0.1042 -0.6584
  616TMC3    O1 9135   1.035   4.223  16.329  0.0966 -0.4930  0.4906
  616TMC3    O2 9136   1.526   4.039  16.024  0.2093 -0.5406  0.0253
  617MPD2     C 9137   3.668   2.536  14.027  0.1828 -0.3549  0.2388
  617MPD2    C1 9138   3.646   2.422  13.957 -0.1318  0.2558  0.1306
  617MPD2    C2 9139   3.547   2.334  13.997  0.8494  0.2364  0.3522
  617MPD2    C3 9140   3.465   2.364  14.101 -0.2031 -0.1314  0.5511
  617MPD2    C4 9141   3.480   2.484  14.164 -0.0123 -0.0473  0.1072
  617MPD2    C5 9142   3.581   2.568  14.122  0.0262 -0.3721  0.8164
  617MPD2     H 9143   3.524   2.237  13.953  0.3394  1.6169 -2.4565
  617MPD2    H1 9144   3.409   2.525  14.235  1.4084  0.9431  0.9627
  617MPD2    H2 9145   3.748   2.607  14.006 -1.3869  1.5162  0.5841
  617MPD2    H3 9146   3.586   2.669  14.160  0.3453  0.2815 -0.9952
  617MPD2     N 9147   3.353   2.286  14.135 -0.5011 -0.2007  0.3370
  617MPD2    H5 9148   3.309   2.304  14.224 -0.9558 -2.6032  0.5750
  617MPD2    N1 9149   3.748   2.376  13.867 -0.4021  0.5089 -0.1189
  617MPD2    H7 9150   3.824   2.441  13.851  0.8738 -1.0388 -0.2692
  618TMC3    C1 9151   3.895   2.231  13.752  0.6484  0.0768  0.8660
  618TMC3    C2 9152   3.951   2.105  13.748  0.1516 -0.0001  0.0935
  618TMC3    C3 9153   4.058   2.091  13.661  0.2568  0.8040 -0.2037
  618TMC3    C4 9154   3.943   2.334  13.681  0.3469 -0.5927  0.6554
  618TMC3    C5 9155   4.059   2.321  13.607  0.6264  0.3173  0.1994
  618TMC3    C6 9156   4.122   2.202  13.606  0.2496 -0.3108  0.5082
  618TMC3     C 9157   3.764   2.248  13.820  0.7754 -0.5728  0.3623
  618TMC3     O 9158   3.709   2.136  13.840 -0.5671 -0.3544  0.0827
  618TMC3     H 9159   3.920   2.023  13.813  2.8147  0.3553  1.7927
  618TMC3    H1 9160   3.892   2.429  13.675  1.8418  0.1404 -0.4956
  618TMC3    H2 9161   4.214   2.187  13.551  0.1418  0.2895  0.1626
  618TMC3    C7 9162   4.044   2.368  13.471  0.0595 -0.7023 -0.2936
  618TMC3    C8 9163   4.062   1.967  13.587 -0.8223  0.3639 -0.3462
  618TMC3    O1 9164   3.934   2.354  13.418  0.1890  0.3132 -0.6303
  618TMC3    O2 9165   4.010   1.872  13.645 -0.5724 -0.0529  0.3705
  619MPD2     C 9166   0.370   2.814  13.585  0.4866  1.2289  0.0801
  619MPD2    C1 9167   0.319   2.943  13.558 -0.1629  0.1741 -0.1161
  619MPD2    C2 9168   0.179   2.964  13.560  0.4194  0.5365  0.6819
  619MPD2    C3 9169   0.098   2.864  13.606 -0.2875  0.5513  0.6731
  619MPD2    C4 9170   0.147   2.745  13.634  0.8414 -0.2204  0.1348
  619MPD2    C5 9171   0.280   2.710  13.616  0.1261 -0.2698  0.6125
  619MPD2     H 9172   0.139   3.062  13.535 -2.9996 -1.6280 -2.3895
  619MPD2    H1 9173   0.080   2.672  13.677 -0.8525 -0.3795 -2.8127
  619MPD2    H2 9174   0.474   2.783  13.594 -0.0981 -0.4366  1.1598
  619MPD2    H3 9175   0.321   2.616  13.651 -0.5650 -0.0662  1.9836
  619MPD2     N 9176   4.684   2.884  13.628  0.2027 -0.1044  0.0839
  619MPD2    H5 9177   4.627   2.800  13.626 -0.3940  0.2907  0.9970
  619MPD2    N1 9178   0.400   3.055  13.529 -0.0939 -0.5252  0.0788
  619MPD2    H7 9179   0.349   3.141  13.509  1.1198  0.1306 -0.2383
  620TMC3    C1 9180   0.580   3.170  13.436 -0.3681 -0.4139 -0.9915
  620TMC3    C2 9181   0.489   3.219  13.350 -0.5234 -0.3905  0.0216
  620TMC3    C3 9182   0.486   3.354  13.321 -0.0832 -0.0502 -0.1292
  620TMC3    C4 9183   0.653   3.256  13.509  0.3095  0.2215 -0.0132
  620TMC3    C5 9184   0.648   3.390  13.481  0.0252  0.5754 -0.1718
  620TMC3    C6 9185   0.572   3.440  13.376  0.3432  0.4859 -0.5265
  620TMC3     C 9186   0.533   3.054  13.504  0.4867  0.3345  0.2603
  620TMC3     O 9187   0.620   2.979  13.543  0.0747  0.3666 -0.2490
  620TMC3     H 9188   0.419   3.146  13.312  0.2444 -0.7113 -0.7921
  620TMC3    H1 9189   0.711   3.223  13.594  0.2904  1.8707  0.6286
  620TMC3    H2 9190   0.565   3.546  13.350 -0.3404  0.9339  1.4684
  620TMC3    C7 9191   0.683   3.476  13.591  0.7589  0.7718 -0.1478
  620TMC3    C8 9192   0.357   3.401  13.329  0.1244 -0.5199 -0.3186
  620TMC3    O1 9193   0.763   3.433  13.674 -0.4552  0.1584  0.0962
  620TMC3    O2 9194   0.340   3.501  13.396  0.7095 -0.2923 -0.1528
  621MPD2     C 9195   0.530   2.300   9.930  0.0442  0.2783  0.7509
  621MPD2    C1 9196   0.590   2.394   9.839  0.1155  0.1010  0.1015
  621MPD2    C2 9197   0.663   2.498   9.898  0.2211  0.0441  0.0019
  621MPD2    C3 9198   0.685   2.515  10.032  0.4059  0.4278  0.2547
  621MPD2    C4 9199   0.627   2.421  10.115  0.5785  0.5720  0.1111
  621MPD2    C5 9200   0.558   2.313  10.061  0.2723 -0.8305 -0.1819
  621MPD2     H 9201   0.696   2.583   9.839  0.8864  1.4202  2.3213
  621MPD2    H1 9202   0.631   2.430  10.223 -1.9123  0.4495  0.2132
  621MPD2    H2 9203   0.464   2.222   9.894 -1.2380  0.8482  1.9079
  621MPD2    H3 9204   0.515   2.248  10.136  0.1936  0.2036  0.6796
  621MPD2     N 9205   0.763   2.626  10.081  0.1356  0.0587 -0.3994
  621MPD2    H5 9206   0.800   2.692  10.012  1.4440 -0.6363 -0.3580
  621MPD2    N1 9207   0.552   2.404   9.702 -0.0587 -0.4197  0.8285
  621MPD2    H7 9208   0.573   2.491   9.655  1.2612 -0.1986  1.8217
  622TMC3    C1 9209   0.474   2.356   9.495 -0.2619  0.0181 -0.5727
  622TMC3    C2 9210   0.349   2.356   9.447 -0.5376 -0.4638  0.6582
  622TMC3    C3 9211   0.305   2.445   9.360 -0.5905 -0.3484  0.3726
  622TMC3    C4 9212   0.571   2.441   9.450  0.5520  0.2913 -0.0345
  622TMC3    C5 9213   0.525   2.533   9.365 -0.2521  0.1424  0.3134
  622TMC3    C6 9214   0.394   2.544   9.316 -0.0255 -0.5781 -0.4681
  622TMC3     C 9215   0.494   2.304   9.628 -0.0333  0.6581  0.5758
  622TMC3     O 9216   0.449   2.193   9.659  0.0265  0.4285 -0.2750
  622TMC3     H 9217   0.274   2.280   9.466 -3.0760  1.6920 -0.8512
  622TMC3    H1 9218   0.677   2.434   9.474  0.4113  0.0566  0.5049
  622TMC3    H2 9219   0.351   2.618   9.249  1.5007  2.8869  2.4185
  622TMC3    C7 9220   0.594   2.657   9.361 -0.3244 -0.3758 -0.4559
  622TMC3    C8 9221   0.175   2.422   9.309  0.4814 -0.4656  0.8129
  622TMC3    O1 9222   0.686   2.648   9.441  0.1965 -0.2399  0.5419
  622TMC3    O2 9223   0.178   2.411   9.189 -0.4865  0.2888  0.0691
  623MPD2     C 9224   4.182   4.064  15.836  0.4503  0.8941  1.1268
  623MPD2    C1 9225   4.157   4.160  15.932 -0.9635 -0.9339  0.1894
  623MPD2    C2 9226   4.209   4.138  16.060  0.4104  0.5812 -0.4177
  623MPD2    C3 9227   4.283   4.021  16.092  0.5234 -0.0628  0.2035
  623MPD2    C4 9228   4.300   3.922  15.993 -0.8698 -0.2717  0.2365
  623MPD2    C5 9229   4.255   3.948  15.868 -0.0393  0.4382 -0.0730
  623MPD2     H 9230   4.191   4.200  16.147  0.6257 -1.1931  0.8907
  623MPD2    H1 9231   4.360   3.833  16.013 -1.4066 -0.1647  2.3787
  623MPD2    H2 9232   4.162   4.079  15.731  0.1754 -0.1869  1.0286
  623MPD2    H3 9233   4.280   3.874  15.793 -0.8097  0.0470  0.0580
  623MPD2     N 9234   4.351   4.014  16.218  0.8186 -0.4990  1.1169
  623MPD2    H5 9235   4.324   4.095  16.273  2.6887  1.3899 -0.7517
  623MPD2    N1 9236   4.093   4.280  15.907  0.0665 -0.3383 -0.1671
  623MPD2    H7 9237   4.085   4.348  15.982 -1.3446 -1.2504  0.4953
  624TMC3    C1 9238   4.667   3.907  16.551  0.1827  0.2389 -0.2439
  624TMC3    C2 9239   4.622   4.006  16.631  0.9139  0.2326  0.1517
  624TMC3    C3 9240   4.515   4.078  16.586  0.3074 -0.4913  0.1788
  624TMC3    C4 9241   4.604   3.875  16.431  0.6476  0.1513 -0.1803
  624TMC3    C5 9242   4.487   3.938  16.395 -0.0800 -0.2966 -0.2299
  624TMC3    C6 9243   4.441   4.041  16.476 -0.1736 -0.3268  0.6271
  624TMC3     C 9244   0.068   3.836  16.594 -0.1668 -0.5105  0.4164
  624TMC3     O 9245   0.145   3.894  16.669 -0.0371  0.2070 -0.5376
  624TMC3     H 9246   4.668   4.020  16.728 -1.3347  1.0472  1.1046
  624TMC3    H1 9247   4.640   3.792  16.371 -3.6444 -0.9160 -1.3103
  624TMC3    H2 9248   4.351   4.098  16.453  1.0104  0.8633 -1.0608
  624TMC3    C7 9249   4.428   3.910  16.267 -0.4256 -0.3791  0.3997
  624TMC3    C8 9250   4.436   4.132  16.700 -0.3523  0.7133 -0.0493
  624TMC3    O1 9251   4.456   3.800  16.222 -0.0104  0.1378  0.1137
  624TMC3    O2 9252   4.464   4.243  16.737 -0.7091  0.0186  0.7135
  625MPD2     C 9253   4.441   0.473   0.602  0.7659  0.0870  0.7458
  625MPD2    C1 9254   4.513   0.532   0.711  0.6061  0.0391  0.1169
  625MPD2    C2 9255   4.581   0.446   0.794 -1.4571 -0.2284 -0.0581
  625MPD2    C3 9256   4.588   0.313   0.764 -0.2338 -0.0797 -0.1114
  625MPD2    C4 9257   4.507   0.254   0.670 -0.4996 -0.2231  0.4694
  625MPD2    C5 9258   4.436   0.336   0.588  0.5107 -1.2264  0.2375
  625MPD2     H 9259   4.626   0.498   0.877  0.0223 -1.2973 -0.1919
  625MPD2    H1 9260   4.503   0.148   0.648 -0.5260 -0.3563  1.1293
  625MPD2    H2 9261   4.384   0.529   0.528  1.6726 -0.1377 -0.1168
  625MPD2    H3 9262   4.369   0.291   0.516 -2.6158  1.4385  1.4638
  625MPD2     N 9263   4.690   0.241   0.835 -0.0538 -0.1563  0.1307
  625MPD2    H5 9264   0.029   0.298   0.893  0.5677 -0.5821 -0.1036
  625MPD2    N1 9265   4.511   0.675   0.729 -0.4137  0.0492  0.0312
  625MPD2    H7 9266   4.568   0.711   0.805  0.6643 -1.2905 -0.1578
  626TMC3    C1 9267   4.489   0.906   0.684  0.0362 -0.2250 -0.5372
  626TMC3    C2 9268   4.501   0.993   0.583 -0.3442 -0.5907  0.0638
  626TMC3    C3 9269   4.475   1.132   0.599  0.0058 -0.4035  0.0220
  626TMC3    C4 9270   4.459   0.947   0.806  0.7964  0.2093  0.2370
  626TMC3    C5 9271   4.422   1.078   0.817 -0.5132  0.1630  0.0774
  626TMC3    C6 9272   4.428   1.171   0.716 -0.1025  0.7027 -0.8976
  626TMC3     C 9273   4.448   0.771   0.652 -0.0317  0.4390 -0.0241
  626TMC3     O 9274   4.393   0.759   0.543  0.6991  0.3163  0.3975
  626TMC3     H 9275   4.521   0.953   0.484 -0.1950 -0.4591  0.0393
  626TMC3    H1 9276   4.454   0.870   0.883 -0.1988 -1.8448 -1.8813
  626TMC3    H2 9277   4.406   1.276   0.734 -0.8366  0.5589 -0.9568
  626TMC3    C7 9278   4.368   1.121   0.943  0.0369 -0.2772 -0.1562
  626TMC3    C8 9279   4.438   1.200   0.476 -0.1541 -0.3027 -0.0862
  626TMC3    O1 9280   4.402   1.055   1.042  0.0119  0.3438  0.1898
  626TMC3    O2 9281   4.390   1.131   0.385  0.5258  0.8172 -0.7818
  627MPD2     C 9282   3.149   0.936  14.231 -0.2683 -0.3729 -0.0151
  627MPD2    C1 9283   3.165   0.869  14.351  0.0655  0.1549 -0.4932
  627MPD2    C2 9284   3.099   0.751  14.378  0.2601  0.2620  0.5503
  627MPD2    C3 9285   3.008   0.703  14.287  0.1692  0.3005 -0.6972
  627MPD2    C4 9286   2.986   0.766  14.164 -0.2820  0.3987  0.0273
  627MPD2    C5 9287   3.055   0.880  14.142  0.0267 -0.2395  0.5212
  627MPD2     H 9288   3.131   0.700  14.467 -1.0110 -0.2821  0.6913
  627MPD2    H1 9289   2.916   0.747  14.084 -0.3828  0.4286  0.1076
  627MPD2    H2 9290   3.217   1.014  14.196 -2.7235  1.4130 -0.8230
  627MPD2    H3 9291   3.041   0.929  14.047 -0.5792 -1.2827  0.0753
  627MPD2     N 9292   2.948   0.583  14.313  0.3054 -0.5519 -0.4330
  627MPD2    H5 9293   2.954   0.548  14.408  0.7366 -1.1814 -0.6989
  627MPD2    N1 9294   3.267   0.915  14.440  0.0519  0.0881  0.4117
  627MPD2    H7 9295   3.279   0.858  14.523 -0.0099 -0.8871 -0.2549
  628TMC3    C1 9296   3.412   1.058  14.533 -0.5825 -0.5626 -0.2934
  628TMC3    C2 9297   3.490   0.951  14.580 -0.6885  0.4301 -0.2546
  628TMC3    C3 9298   3.588   0.987  14.670  0.4376 -0.4975  0.0435
  628TMC3    C4 9299   3.427   1.188  14.581 -0.1257  0.0836 -0.0363
  628TMC3    C5 9300   3.527   1.211  14.663  0.1248 -0.0447 -0.1290
  628TMC3    C6 9301   3.602   1.110  14.724  0.2507 -0.3108 -0.5545
  628TMC3     C 9302   3.308   1.043  14.430 -0.3150 -0.0979 -0.7183
  628TMC3     O 9303   3.247   1.140  14.384  0.6552 -0.3355  0.0722
  628TMC3     H 9304   3.484   0.853  14.535 -0.4565  0.0640  0.5098
  628TMC3    H1 9305   3.353   1.258  14.542 -0.7014  0.4663  1.7293
  628TMC3    H2 9306   3.690   1.145  14.777 -0.2219 -0.6156  0.4276
  628TMC3    C7 9307   3.535   1.346  14.708  0.1831  0.6203 -0.0654
  628TMC3    C8 9308   3.693   0.891  14.670  0.2203 -0.3487  0.4217
  628TMC3    O1 9309   3.606   1.373  14.806 -0.4583  0.8978  0.1166
  628TMC3    O2 9310   3.686   0.801  14.588 -0.2247 -0.5052 -0.0520
  629MPD2     C 9311   1.840   4.432  16.216  0.3944 -0.1871  1.1461
  629MPD2    C1 9312   1.740   4.443  16.312  0.1235  0.0768 -0.5615
  629MPD2    C2 9313   1.629   4.369  16.296 -0.0895  0.4656  1.0881
  629MPD2    C3 9314   1.611   4.281  16.197 -0.2679 -0.5076 -0.3517
  629MPD2    C4 9315   1.714   4.264  16.100  0.0934  0.7736  0.5580
  629MPD2    C5 9316   1.825   4.342  16.116  0.2856 -0.0577 -0.1106
  629MPD2     H 9317   1.543   4.382  16.360 -0.7441  1.2289  0.0492
  629MPD2    H1 9318   1.728   4.190  16.022  0.9569  1.1052  0.3947
  629MPD2    H2 9319   1.928   4.494  16.222  0.6022 -0.4633  0.9903
  629MPD2    H3 9320   1.912   4.330  16.053 -0.6922 -0.3061 -1.4176
  629MPD2     N 9321   1.486   4.208  16.189  0.2686 -0.1218 -0.1540
  629MPD2    H5 9322   1.417   4.224  16.261  1.1866 -1.8762  1.0940
  629MPD2    N1 9323   1.762   4.541  16.411  0.4598 -0.1685  0.2956
  629MPD2    H7 9324   1.843   4.602  16.416  0.1948  0.1791  0.2826
  630TMC3    C1 9325   1.727   4.647  16.616  0.2503  1.0116 -0.8830
  630TMC3    C2 9326   1.784   0.042  16.564  0.1413  0.2338  0.5085
  630TMC3    C3 9327   1.831   0.141  16.649 -0.3232 -0.2524 -0.1865
  630TMC3    C4 9328   1.723   4.621  16.750 -0.1966  0.4031 -0.1363
  630TMC3    C5 9329   1.795   4.710  16.824 -0.1220 -0.1859 -0.6906
  630TMC3    C6 9330   1.840   0.109  16.785  0.3105 -0.5629  0.8998
  630TMC3     C 9331   1.684   4.544  16.523  0.5232  0.5794 -0.1376
  630TMC3     O 9332   1.603   4.469  16.566 -1.3724 -0.4139  0.1586
  630TMC3     H 9333   1.786   0.065  16.458  0.7694 -0.5461  0.3522
  630TMC3    H1 9334   1.701   4.522  16.790 -0.4137  0.2787 -0.5669
  630TMC3    H2 9335   1.892   0.175  16.853  2.2766 -2.7312  1.4975
  630TMC3    C7 9336   1.876   4.635  16.917 -0.1218  0.1504  0.1710
  630TMC3    C8 9337   1.940   0.223  16.598 -0.2525 -0.4519  0.5004
  630TMC3    O1 9338   1.836   4.546  16.985  0.1459 -0.5293 -0.0490
  630TMC3    O2 9339   2.044   0.221  16.664  0.7821 -0.0720  0.0158
  631MPD2     C 9340   4.441   4.170  15.551 -0.0267 -0.0796  0.5881
  631MPD2    C1 9341   4.509   4.178  15.432 -0.0804  0.6296  0.0013
  631MPD2    C2 9342   4.614   4.085  15.421  0.2332 -0.1067  0.3787
  631MPD2    C3 9343   4.636   3.984  15.508  0.8939 -0.2485  0.3885
  631MPD2    C4 9344   4.566   3.979  15.631 -0.7585 -0.5836  0.4628
  631MPD2    C5 9345   4.472   4.074  15.645 -0.2811 -0.0399 -0.4425
  631MPD2     H 9346   4.678   4.081  15.334 -0.5001 -1.3557 -0.0990
  631MPD2    H1 9347   4.587   3.910  15.712  0.3955 -0.7710  0.0093
  631MPD2    H2 9348   4.351   4.221  15.584 -0.3034 -0.9616  1.2018
  631MPD2    H3 9349   4.416   4.071  15.738  0.9447 -2.5793  0.2176
  631MPD2     N 9350   0.023   3.897  15.478 -0.0007  0.4732  0.0079
  631MPD2    H5 9351   0.043   3.888  15.379 -1.8321  1.1330 -0.4282
  631MPD2    N1 9352   4.477   4.282  15.346 -0.0425 -0.2351  0.2785
  631MPD2    H7 9353   4.392   4.334  15.368  0.6513  1.3943 -0.9345
  632TMC3    C1 9354   4.510   4.437  15.176 -0.4414 -0.0225  0.4118
  632TMC3    C2 9355   4.421   4.525  15.235  1.1532 -0.0489 -0.2434
  632TMC3    C3 9356   4.378   4.630  15.157 -0.1968  0.1663  0.5471
  632TMC3    C4 9357   4.550   4.460  15.044  0.3364 -0.1736 -0.8064
  632TMC3    C5 9358   4.501   4.565  14.966  0.2833  0.4301 -0.6501
  632TMC3    C6 9359   4.413   4.651  15.024 -0.3931 -0.3886 -0.7676
  632TMC3     C 9360   4.551   4.316  15.237 -0.3997  0.3366 -0.5902
  632TMC3     O 9361   4.652   4.264  15.202 -0.0864 -0.0616 -0.4764
  632TMC3     H 9362   4.404   4.522  15.342 -0.7927  1.4338 -0.5212
  632TMC3    H1 9363   4.606   4.381  14.994  0.9355 -1.0323  1.2015
  632TMC3    H2 9364   4.380   0.020  14.974 -0.5866  0.4034  0.7914
  632TMC3    C7 9365   4.557   4.586  14.832  0.6708  0.5117 -1.0640
  632TMC3    C8 9366   4.304   0.021  15.213  0.4441 -0.3078  0.0099
  632TMC3    O1 9367   4.667   4.540  14.806 -0.2592  0.0049  0.6264
  632TMC3    O2 9368   4.209   0.061  15.151  0.2717 -0.2413  0.3984
  633MPD2     C 9369   4.420   2.329  17.274  0.0086  0.2127 -0.2446
  633MPD2    C1 9370   4.424   2.282  17.143 -0.1570  0.7962 -0.5598
  633MPD2    C2 9371   4.392   2.141  17.126  0.1056 -0.2315  0.2832
  633MPD2    C3 9372   4.347   2.067  17.233 -0.4272 -0.7727 -0.3932
  633MPD2    C4 9373   4.351   2.118  17.360 -0.3383  0.1598  0.1564
  633MPD2    C5 9374   4.391   2.249  17.379  0.1584 -0.4927 -0.7780
  633MPD2     H 9375   4.390   2.100  17.025 -0.5946  1.0041 -0.2148
  633MPD2    H1 9376   4.306   2.063  17.443  0.6316  0.6352  1.0004
  633MPD2    H2 9377   4.436   2.435  17.292  1.8497 -0.4856  2.1479
  633MPD2    H3 9378   4.392   2.293  17.478  1.2099 -1.1267 -0.5093
  633MPD2     N 9379   4.304   1.933  17.219  0.9229  0.4295 -0.8651
  633MPD2    H5 9380   4.295   1.877  17.303  1.5435 -1.2481 -1.9162
  633MPD2    N1 9381   4.458   2.354  17.028 -0.0327  0.8568 -0.3203
  633MPD2    H7 9382   4.448   2.306  16.940  0.6966 -1.3766  0.8257
  634TMC3    C1 9383   4.510   2.532  16.889  0.7844  0.5708  0.0659
  634TMC3    C2 9384   4.571   2.447  16.799  0.2867  0.5805  0.2633
  634TMC3    C3 9385   4.603   2.492  16.672  0.7982 -0.1517 -0.4030
  634TMC3    C4 9386   4.512   2.669  16.861  0.7153 -0.7774 -0.0382
  634TMC3    C5 9387   4.553   2.707  16.735  0.2802 -0.2871  0.0682
  634TMC3    C6 9388   4.590   2.622  16.640 -0.0393  0.2102 -0.3304
  634TMC3     C 9389   4.470   2.490  17.018  0.8136 -0.2199 -0.7044
  634TMC3     O 9390   4.450   2.584  17.096 -0.3061  0.4133  0.7946
  634TMC3     H 9391   4.594   2.344  16.822  0.2748  0.7002  0.8132
  634TMC3    H1 9392   4.448   2.724  16.930  2.4185 -0.8445  1.5980
  634TMC3    H2 9393   4.626   2.666  16.547 -0.1525  0.7018 -0.1398
  634TMC3    C7 9394   4.530   2.845  16.691  0.4508 -0.4999 -0.3174
  634TMC3    C8 9395   4.584   2.391  16.567 -0.3058 -0.5190  0.4353
  634TMC3    O1 9396   4.551   2.867  16.573 -0.2420  0.0588 -0.7202
  634TMC3    O2 9397   4.582   2.277  16.608 -0.6256 -0.2650 -0.0199
  635TMC3    C1 9398   0.457   3.874  17.260  0.0587 -0.0814 -0.1998
  635TMC3    C2 9399   0.565   3.898  17.174 -0.2247 -0.0696 -0.5092
  635TMC3    C3 9400   0.630   3.799  17.113 -0.4180 -0.1057 -0.7731
  635TMC3    C4 9401   0.412   3.743  17.279 -0.3235  0.3464 -0.7804
  635TMC3    C5 9402   0.492   3.644  17.221 -0.1726  0.3581 -0.4569
  635TMC3    C6 9403   0.604   3.670  17.149  0.0894 -0.2108 -0.2516
  635TMC3     C 9404   0.409   3.983  17.344  0.2460  0.1791  0.0226
  635TMC3     O 9405   0.320   3.957  17.423 -0.3612 -0.3153  0.3078
  635TMC3     H 9406   0.599   3.999  17.156  0.2125 -0.2158 -0.5039
  635TMC3    H1 9407   0.329   3.720  17.346 -0.4281 -0.4886 -1.1913
  635TMC3    H2 9408   0.668   3.589  17.117 -1.3693 -1.8169  0.9009
  635TMC3    C7 9409   0.441   3.511  17.227 -0.2420  0.3661  0.1971
  635TMC3    C8 9410   0.760   3.836  17.067 -0.1554  0.7518  0.1798
  635TMC3    O1 9411   0.448   3.451  17.120 -0.0748  0.4654 -0.1046
  635TMC3    O2 9412   0.805   3.935  17.122  0.0120 -0.1944 -0.9047
  636MPD2     C 9413   0.601   2.601  16.098  0.4352 -0.1205  0.0529
  636MPD2    C1 9414   0.716   2.635  16.168  0.0071 -0.5396  0.0123
  636MPD2    C2 9415   0.781   2.545  16.242 -0.7360  0.3882 -0.0384
  636MPD2    C3 9416   0.727   2.418  16.258 -1.1553 -0.3667 -0.8196
  636MPD2    C4 9417   0.611   2.385  16.189  0.2512  0.0552  0.4143
  636MPD2    C5 9418   0.552   2.473  16.107 -0.1108 -0.1628  0.6406
  636MPD2     H 9419   0.872   2.572  16.294 -1.3676  2.2884  0.1039
  636MPD2    H1 9420   0.566   2.287  16.185 -1.7121  0.8920  1.5482
  636MPD2    H2 9421   0.551   2.671  16.031 -0.3778 -1.8618 -1.1390
  636MPD2    H3 9422   0.474   2.448  16.036  0.1812 -2.2904  1.0522
  636MPD2     N 9423   0.782   2.335  16.355  0.3605 -0.0384  0.7694
  636MPD2    H5 9424   0.859   2.377  16.406  0.9489 -0.3609  0.1565
  636MPD2    N1 9425   0.775   2.768  16.156 -0.0891  0.2154  0.5226
  636MPD2    H7 9426   0.868   2.777  16.194 -0.7260  1.1310  1.8841
  637TMC3    C1 9427   0.834   2.157  16.482  0.0952  0.3294 -0.7030
  637TMC3    C2 9428   0.926   2.244  16.537  0.1775  0.1049  0.0069
  637TMC3    C3 9429   1.060   2.223  16.535  0.2372  0.7854 -0.1352
  637TMC3    C4 9430   0.878   2.037  16.442  0.1044 -0.2573 -0.2865
  637TMC3    C5 9431   1.013   2.021  16.434 -0.1603  0.4513  0.2631
  637TMC3    C6 9432   1.106   2.100  16.494 -0.2226  0.9360  0.3661
  637TMC3     C 9433   0.737   2.211  16.389  0.5996  0.6417  0.3925
  637TMC3     O 9434   0.658   2.143  16.329 -0.0043 -0.2548  0.1981
  637TMC3     H 9435   0.882   2.337  16.571  2.4721  2.1764 -2.7070
  637TMC3    H1 9436   0.807   1.969  16.397 -0.7410 -1.3779  2.7969
  637TMC3    H2 9437   1.208   2.065  16.488 -0.3369  0.7227 -0.2768
  637TMC3    C7 9438   1.045   2.017  16.290  0.6884 -0.3717 -0.8298
  637TMC3    C8 9439   1.108   2.332  16.459  0.1917 -0.1354  0.3918
  637TMC3    O1 9440   1.153   2.066  16.256 -0.0718  0.1047  0.3976
  637TMC3    O2 9441   1.025   2.423  16.438 -1.2362 -0.2594  0.1376
  638MPD2     C 9442   0.593   1.664  14.687 -0.3212 -0.4748 -0.1465
  638MPD2    C1 9443   0.540   1.549  14.642 -0.3415  0.0247 -0.2276
  638MPD2    C2 9444   0.549   1.434  14.724 -0.3865 -0.8081  0.9869
  638MPD2    C3 9445   0.584   1.438  14.854 -0.4210  0.1345 -0.0091
  638MPD2    C4 9446   0.619   1.561  14.912  0.2578 -0.0013 -0.1712
  638MPD2    C5 9447   0.613   1.674  14.825 -0.1280  0.4314 -0.5754
  638MPD2     H 9448   0.540   1.333  14.686  0.1337 -2.1065  4.2790
  638MPD2    H1 9449   0.631   1.569  15.020 -1.3593  0.8229 -0.0483
  638MPD2    H2 9450   0.609   1.752  14.627 -1.5972 -0.5887 -0.6513
  638MPD2    H3 9451   0.642   1.771  14.864  0.3216  0.6598 -1.4879
  638MPD2     N 9452   0.570   1.317  14.930 -0.7644 -0.3219 -0.6828
  638MPD2    H5 9453   0.562   1.231  14.876 -0.7076 -2.3981  2.6422
  638MPD2    N1 9454   0.506   1.538  14.504 -0.4746 -0.6052  0.3337
  638MPD2    H7 9455   0.538   1.614  14.446 -0.9636 -0.2516  0.5278
  639TMC3    C1 9456   0.603   1.157  15.099  0.2361  0.3236  0.2542
  639TMC3    C2 9457   0.482   1.104  15.108  0.4819 -0.5373 -0.0896
  639TMC3    C3 9458   0.463   0.985  15.164  0.1371 -0.0668  0.7622
  639TMC3    C4 9459   0.707   1.099  15.165  0.2558  0.1827  0.6812
  639TMC3    C5 9460   0.694   0.966  15.198  0.0093 -0.4121  0.2692
  639TMC3    C6 9461   0.566   0.912  15.198  0.8465  1.1007 -0.1133
  639TMC3     C 9462   0.607   1.299  15.061 -0.1309 -0.5509  0.7860
  639TMC3     O 9463   0.620   1.383  15.151  0.1610  0.2311 -0.1888
  639TMC3     H 9464   0.399   1.159  15.065 -1.3672 -2.1417  1.4071
  639TMC3    H1 9465   0.805   1.145  15.170  0.1508  0.0939  3.4329
  639TMC3    H2 9466   0.557   0.806  15.217  2.3513  0.5203 -2.6062
  639TMC3    C7 9467   0.801   0.872  15.204  0.0974 -0.0974 -0.6260
  639TMC3    C8 9468   0.356   0.911  15.106  0.8160 -1.0275 -0.2650
  639TMC3    O1 9469   0.775   0.762  15.255  0.2172 -0.0118 -0.0034
  639TMC3    O2 9470   0.388   0.826  15.022 -0.5975  0.2046  0.4899
  640MPD2     C 9471   0.968   3.818   9.736 -0.2892  0.3884 -0.5219
  640MPD2    C1 9472   0.984   3.936   9.678 -0.7776  0.0781 -0.2129
  640MPD2    C2 9473   0.882   4.031   9.689  0.0353  0.4839 -0.2917
  640MPD2    C3 9474   0.759   3.992   9.745 -0.7381 -0.7806 -0.2267
  640MPD2    C4 9475   0.746   3.871   9.799  0.2853  0.7787  0.4494
  640MPD2    C5 9476   0.850   3.784   9.800 -0.4365 -0.5187  0.6877
  640MPD2     H 9477   0.889   4.129   9.643  0.0106 -0.1614 -1.6427
  640MPD2    H1 9478   0.650   3.841   9.839  0.2539 -0.7077 -0.7374
  640MPD2    H2 9479   1.050   3.747   9.741 -0.2429  0.4909  0.1552
  640MPD2    H3 9480   0.839   3.692   9.856 -0.2990 -0.1101  1.3799
  640MPD2     N 9481   0.647   4.074   9.754  0.1201 -0.1980  0.2718
  640MPD2    H5 9482   0.575   4.045   9.820  0.3774  0.5012  0.8549
  640MPD2    N1 9483   1.113   3.959   9.618 -0.6116  0.2166  0.7560
  640MPD2    H7 9484   1.174   3.878   9.630  0.7910  0.8670 -1.9463
  641TMC3    C1 9485   1.271   4.052   9.470  0.2737 -0.3693 -0.4052
  641TMC3    C2 9486   1.328   3.922   9.442  0.4274  0.2152  0.0544
  641TMC3    C3 9487   1.450   3.917   9.389 -0.4905  0.4952  0.5567
  641TMC3    C4 9488   1.327   4.167   9.422  0.3111  0.1904 -0.3153
  641TMC3    C5 9489   1.453   4.159   9.368  0.5356  0.5514  0.5260
  641TMC3    C6 9490   1.518   4.036   9.351 -0.6170 -0.4132  0.1233
  641TMC3     C 9491   1.140   4.069   9.537 -0.7697  0.1105 -0.0673
  641TMC3     O 9492   1.076   4.171   9.518 -0.2644 -0.4055 -0.8890
  641TMC3     H 9493   1.274   3.830   9.464 -2.4754  1.7492 -0.6474
  641TMC3    H1 9494   1.284   4.259   9.461  3.3856  1.3807  0.2176
  641TMC3    H2 9495   1.615   4.036   9.303 -0.7743 -0.2388 -0.1950
  641TMC3    C7 9496   1.535   4.281   9.375  0.7195  0.9620 -0.1612
  641TMC3    C8 9497   1.512   3.786   9.389  0.2405  0.2477  0.2134
  641TMC3    O1 9498   1.657   4.263   9.379 -0.0468  0.4588 -0.1013
  641TMC3    O2 9499   1.443   3.688   9.422 -0.1050 -0.3690  0.5863
  642TMC3    C1 9500   2.103   0.969  12.155 -0.0083  0.3070  0.4117
  642TMC3    C2 9501   2.184   0.996  12.260 -0.1309 -0.1043  0.2571
  642TMC3    C3 9502   2.234   0.887  12.327  0.1240  0.6488  0.5127
  642TMC3    C4 9503   2.072   0.843  12.120 -0.2069 -0.0340  0.4637
  642TMC3    C5 9504   2.126   0.738  12.195 -0.1765  0.3471 -0.0454
  642TMC3    C6 9505   2.207   0.758  12.302 -0.4989  0.0432  0.8211
  642TMC3     C 9506   2.033   1.086  12.104 -0.2965  0.2279  0.4190
  642TMC3     O 9507   2.018   1.081  11.980 -0.1689 -0.4120  0.2066
  642TMC3     H 9508   2.204   1.099  12.285  0.8146 -0.6499  1.7696
  642TMC3    H1 9509   2.005   0.820  12.037 -1.7530  2.1982  1.0963
  642TMC3    H2 9510   2.250   0.679  12.362 -0.1491 -0.3502  0.0497
  642TMC3    C7 9511   2.053   0.614  12.188  0.0064  0.4942 -0.0944
  642TMC3    C8 9512   2.353   0.907  12.412 -0.1295  0.3579 -0.0141
  642TMC3    O1 9513   2.008   0.592  12.075  0.4038  0.0366  0.2948
  642TMC3    O2 9514   2.361   0.844  12.515 -0.4588  0.6299  0.0947
  643TMC3    C1 9515   1.079   1.003   0.622  0.4260  0.4779  0.2154
  643TMC3    C2 9516   1.042   1.110   0.540 -0.2983 -0.1975 -0.6848
  643TMC3    C3 9517   1.107   1.121   0.419  0.4719  0.5665 -0.9330
  643TMC3    C4 9518   1.149   0.891   0.581  0.8163  0.5215 -0.1229
  643TMC3    C5 9519   1.203   0.912   0.457 -0.3067 -0.5641  0.9262
  643TMC3    C6 9520   1.185   1.021   0.374  0.0177  0.0419  0.2251
  643TMC3     C 9521   1.075   1.032   0.769  0.5518 -0.1450 -0.1261
  643TMC3     O 9522   0.998   1.115   0.807 -0.1799  0.6070 -0.1762
  643TMC3     H 9523   0.995   1.199   0.581  0.5113 -0.0805 -0.0075
  643TMC3    H1 9524   1.198   0.814   0.639 -1.0357 -0.5757 -0.0093
  643TMC3    H2 9525   1.238   1.010   0.280 -1.2662  0.8171 -0.5811
  643TMC3    C7 9526   1.292   0.805   0.399 -0.5355  0.0828 -0.1662
  643TMC3    C8 9527   1.060   1.222   0.330  0.5006  0.4961  0.1937
  643TMC3    O1 9528   1.390   0.847   0.335 -0.1640 -0.6390  0.0963
  643TMC3    O2 9529   0.954   1.279   0.345 -0.4581 -0.4219 -0.5750
  644MPD2     C 9530   1.097   0.584   9.699 -0.9546 -0.4868 -0.1915
  644MPD2    C1 9531   1.127   0.464   9.644  0.1661 -0.3043 -0.0370
  644MPD2    C2 9532   1.035   0.399   9.568  0.6652 -0.0454  0.6502
  644MPD2    C3 9533   0.911   0.452   9.544  0.1742 -0.4196  0.6220
  644MPD2    C4 9534   0.884   0.571   9.598 -0.3369  0.1674  1.1114
  644MPD2    C5 9535   0.973   0.633   9.674 -0.2089 -0.0383 -0.0480
  644MPD2     H 9536   1.057   0.304   9.521  0.9614 -0.6272  1.9803
  644MPD2    H1 9537   0.794   0.627   9.575 -0.0115  0.6770  1.0869
  644MPD2    H2 9538   1.156   0.636   9.773 -1.4084 -0.0756 -0.1195
  644MPD2    H3 9539   0.945   0.725   9.723  0.3148 -0.1433  0.4570
  644MPD2     N 9540   0.822   0.370   9.459 -0.8204 -0.1676  1.0160
  644MPD2    H5 9541   0.861   0.277   9.448 -0.0816 -0.0204  2.4106
  644MPD2    N1 9542   1.260   0.409   9.666 -0.8768 -0.4958 -0.6392
  644MPD2    H7 9543   1.312   0.447   9.744 -1.7795 -2.3774  0.8757
  645TMC3    C1 9544   0.636   0.293   9.336  0.2064  0.3357 -0.7775
  645TMC3    C2 9545   0.711   0.203   9.269  0.1993  0.6146  0.6152
  645TMC3    C3 9546   0.646   0.094   9.221 -0.4678 -0.0315  0.0712
  645TMC3    C4 9547   0.500   0.277   9.353 -0.2221  0.3749  0.1937
  645TMC3    C5 9548   0.439   0.165   9.302 -0.4041  0.3957  0.4260
  645TMC3    C6 9549   0.507   0.075   9.226 -0.2447  0.1592 -0.6927
  645TMC3     C 9550   0.699   0.407   9.409  0.3332 -0.2171 -0.9462
  645TMC3     O 9551   0.638   0.512   9.439  0.2207  0.0034  0.8018
  645TMC3     H 9552   0.819   0.213   9.259  0.0140  1.8313 -0.1085
  645TMC3    H1 9553   0.445   0.351   9.410  0.1962  0.4070  0.5576
  645TMC3    H2 9554   0.462   4.714   9.173 -0.9393  0.5061 -0.6469
  645TMC3    C7 9555   0.293   0.151   9.317  0.7223  0.1837  0.1706
  645TMC3    C8 9556   0.733   4.705   9.186  0.6598  0.0792  0.4717
  645TMC3    O1 9557   0.230   0.240   9.369  0.1880  0.1940  0.0620
  645TMC3    O2 9558   0.851   4.706   9.212 -0.4325  0.0113 -0.1956
  646MPD2     C 9559   0.666   0.235  14.848 -0.6040  0.0649 -0.2163
  646MPD2    C1 9560   0.568   0.187  14.936 -0.0028  0.1180  0.3421
  646MPD2    C2 9561   0.436   0.204  14.903  0.3351  0.3576 -0.2704
  646MPD2    C3 9562   0.397   0.273  14.786 -0.5258 -0.0061 -0.5959
  646MPD2    C4 9563   0.494   0.318  14.703 -0.2167 -0.7511 -0.2136
  646MPD2    C5 9564   0.621   0.291  14.735  0.7676  0.3052  0.2514
  646MPD2     H 9565   0.361   0.174  14.975  2.8823 -3.2077  0.8980
  646MPD2    H1 9566   0.472   0.368  14.609  0.6734 -1.3965 -0.7669
  646MPD2    H2 9567   0.773   0.224  14.860  0.0008  4.2860 -1.7907
  646MPD2    H3 9568   0.691   0.319  14.657 -0.4363  1.8163 -0.2802
  646MPD2     N 9569   0.261   0.281  14.764  0.1751  1.2514  0.1710
  646MPD2    H5 9570   0.197   0.246  14.835 -1.4670  0.2628 -1.8144
  646MPD2    N1 9571   0.603   0.123  15.059 -0.2224  0.0424 -0.1015
  646MPD2    H7 9572   0.528   0.075  15.108  1.0460 -2.1954 -0.3534
  647TMC3    C1 9573   0.772   0.022  15.203 -0.0293 -0.8750  0.5594
  647TMC3    C2 9574   0.691   4.629  15.216  0.1030 -0.5103 -0.2547
  647TMC3    C3 9575   0.734   4.542  15.317  0.3792 -0.7832 -0.7157
  647TMC3    C4 9576   0.894   0.033  15.260  0.0673  0.2875 -0.3119
  647TMC3    C5 9577   0.927   4.674  15.361 -0.2260  0.2888 -0.2693
  647TMC3    C6 9578   0.845   4.575  15.394 -1.0013 -0.5195 -0.1594
  647TMC3     C 9579   0.729   0.131  15.114  0.1815  0.2840 -0.0049
  647TMC3     O 9580   0.814   0.215  15.091  0.4158 -0.0158 -0.1602
  647TMC3     H 9581   0.592   4.622  15.173  0.3962 -0.5267 -0.9133
  647TMC3    H1 9582   0.962   0.116  15.239 -0.0952  0.3655 -0.5293
  647TMC3    H2 9583   0.880   4.507  15.472  0.6047  0.6617  0.1505
  647TMC3    C7 9584   1.067   4.631  15.376 -0.6568  0.3779  0.1929
  647TMC3    C8 9585   0.695   4.408  15.326  0.1808 -0.1563 -0.3347
  647TMC3    O1 9586   1.098   4.533  15.447  0.1302  0.3254  0.2300
  647TMC3    O2 9587   0.731   4.348  15.427  0.5209  0.5344  0.4403
  648TMC3    C1 9588   0.199   2.498  15.980 -0.0844  0.3082 -0.2363
  648TMC3    C2 9589   0.228   2.374  15.928  0.1791  0.2263  0.1030
  648TMC3    C3 9590   0.185   2.345  15.804  0.1942  0.2389  0.0341
  648TMC3    C4 9591   0.134   2.598  15.906 -0.8254  0.0838  0.0713
  648TMC3    C5 9592   0.089   2.563  15.775 -0.0644 -0.3950 -0.4285
  648TMC3    C6 9593   0.111   2.434  15.731  0.4003 -0.2194  0.0337
  648TMC3     C 9594   0.228   2.529  16.117 -0.1652  0.8129 -0.0648
  648TMC3     O 9595   0.215   2.648  16.146  0.5785 -0.5481 -0.3967
  648TMC3     H 9596   0.280   2.297  15.983 -0.2944  0.0643  0.3227
  648TMC3    H1 9597   0.108   2.693  15.952 -1.8693 -1.2957  2.3052
  648TMC3    H2 9598   0.070   2.391  15.640 -1.0659  2.2857 -0.4893
  648TMC3    C7 9599   0.001   2.645  15.704  0.1736  0.5999  0.6661
  648TMC3    C8 9600   0.159   2.210  15.772 -0.3030  0.1434 -0.3955
  648TMC3    O1 9601   4.663   2.581  15.618 -0.1618  0.6720 -0.4061
  648TMC3    O2 9602   0.047   2.186  15.730 -0.0916  0.8980  0.1810
  649TMC3    C1 9603   3.638   3.314  12.771 -0.5513 -0.3001 -0.1761
  649TMC3    C2 9604   3.730   3.349  12.874  0.6012  0.1052  0.5419
  649TMC3    C3 9605   3.753   3.258  12.967 -0.5457 -0.8121 -0.2756
  649TMC3    C4 9606   3.573   3.194  12.774 -0.0783  0.3586 -0.2494
  649TMC3    C5 9607   3.598   3.114  12.878 -0.2088  1.1988  0.0792
  649TMC3    C6 9608   3.693   3.142  12.970  0.2023 -0.8614 -1.1659
  649TMC3     C 9609   3.609   3.426  12.682 -0.4890 -0.6081 -0.0066
  649TMC3     O 9610   3.621   3.541  12.722  0.2421 -0.5331 -0.5850
  649TMC3     H 9611   3.758   3.452  12.892 -3.1990  1.3897 -0.7072
  649TMC3    H1 9612   3.494   3.170  12.704 -1.8824 -1.0464  2.2628
  649TMC3    H2 9613   3.705   3.078  13.057 -0.0332  1.7327  0.7753
  649TMC3    C7 9614   3.491   3.026  12.928 -0.1232 -0.4723  0.2004
  649TMC3    C8 9615   3.852   3.283  13.067  0.0581  0.0843 -0.3967
  649TMC3    O1 9616   3.381   3.075  12.946  0.1953  0.0471  0.3351
  649TMC3    O2 9617   3.847   3.222  13.174  0.4029 -0.4150 -0.5666
  650TMC3    C1 9618   1.580   0.439  13.028  0.0878 -0.2143  0.1053
  650TMC3    C2 9619   1.594   0.573  13.005  0.2272  1.0291 -0.4110
  650TMC3    C3 9620   1.508   0.633  12.916  0.2366 -0.1209 -0.2663
  650TMC3    C4 9621   1.501   0.354  12.957 -0.0128 -0.1945  0.5992
  650TMC3    C5 9622   1.415   0.414  12.870  0.1828  0.1536  0.3536
  650TMC3    C6 9623   1.417   0.551  12.852 -0.6925  0.7579 -0.0260
  650TMC3     C 9624   1.673   0.372  13.113 -0.5327 -0.0389 -0.4122
  650TMC3     O 9625   1.728   0.434  13.203 -0.3316 -0.0542  0.0134
  650TMC3     H 9626   1.673   0.629  13.055  1.9849  0.3699 -2.4604
  650TMC3    H1 9627   1.483   0.256  13.001 -1.9749  0.5576  1.4821
  650TMC3    H2 9628   1.349   0.596  12.781  0.3934  0.4302 -1.2642
  650TMC3    C7 9629   1.334   0.319  12.806 -0.7262 -0.0587 -0.5346
  650TMC3    C8 9630   1.491   0.774  12.926 -0.7545 -0.0075 -0.1479
  650TMC3    O1 9631   1.341   0.201  12.829 -0.0425  0.6499 -0.1009
  650TMC3    O2 9632   1.583   0.847  12.954  0.0244 -0.3077  0.5513
  651MPD2     C 9633   0.380   1.583  10.480 -0.4717  0.8994  0.5157
  651MPD2    C1 9634   0.352   1.689  10.562 -1.0709 -0.5259  0.0529
  651MPD2    C2 9635   0.442   1.712  10.669 -0.7289 -0.2228  0.8936
  651MPD2    C3 9636   0.561   1.637  10.682  0.0206 -0.2839  0.0142
  651MPD2    C4 9637   0.583   1.529  10.595  0.0928 -0.6144 -0.2055
  651MPD2    C5 9638   0.493   1.501  10.499 -0.1712 -0.0807 -0.2550
  651MPD2     H 9639   0.425   1.795  10.738 -1.2437  0.5829 -0.1943
  651MPD2    H1 9640   0.668   1.463  10.606 -0.4684 -1.3652 -0.3499
  651MPD2    H2 9641   0.320   1.560  10.392  1.0859  0.7575 -0.5158
  651MPD2    H3 9642   0.514   1.423  10.427 -0.8766  0.4321 -1.0166
  651MPD2     N 9643   0.649   1.675  10.787 -0.2989 -0.0321  0.2637
  651MPD2    H5 9644   0.622   1.751  10.848  2.2715 -0.4468  1.9286
  651MPD2    N1 9645   0.233   1.761  10.540 -0.1217  0.5504  0.3257
  651MPD2    H7 9646   0.162   1.722  10.480  2.6869 -1.7730 -1.5077
  652TMC3    C1 9647   1.003   1.832  11.016  0.8723 -0.6132 -0.8228
  652TMC3    C2 9648   0.961   1.730  10.931  0.0384  0.3552 -0.7692
  652TMC3    C3 9649   0.830   1.703  10.926  0.1498  0.2914 -1.4406
  652TMC3    C4 9650   0.913   1.905  11.093  0.4252 -0.2263  0.2959
  652TMC3    C5 9651   0.786   1.868  11.089  0.2076  0.2425  0.1052
  652TMC3    C6 9652   0.739   1.773  11.009 -0.0820 -0.2274 -1.2395
  652TMC3     C 9653   1.136   1.879  10.989 -0.4999 -0.0989 -0.2695
  652TMC3     O 9654   1.220   1.803  10.952  0.1429  0.0450 -0.5681
  652TMC3     H 9655   1.028   1.690  10.855 -1.8006  0.0359 -2.1971
  652TMC3    H1 9656   0.947   1.976  11.167  1.1132  0.6769 -0.9011
  652TMC3    H2 9657   0.635   1.743  11.013  0.3777 -1.3688  2.4719
  652TMC3    C7 9658   0.699   1.927  11.192  0.3846 -0.4479  0.6074
  652TMC3    C8 9659   0.780   1.643  10.801  0.2334  0.9476  0.0872
  652TMC3    O1 9660   0.641   1.854  11.272  0.0164 -0.2254 -0.3582
  652TMC3    O2 9661   0.851   1.577  10.728  0.0185 -0.1834 -0.4337
  653MPD2     C 9662   4.295   2.445   0.042  0.1738  0.6643 -0.2650
  653MPD2    C1 9663   4.265   2.570  17.677  0.3675  0.0757 -0.7299
  653MPD2    C2 9664   4.191   2.574  17.562  0.6858  0.3297 -0.0952
  653MPD2    C3 9665   4.139   2.466  17.502  0.8048  0.0639 -0.7196
  653MPD2    C4 9666   4.150   2.345  17.576  0.6893  0.2634  0.4925
  653MPD2    C5 9667   4.237   2.336  17.683  0.3372  0.0107 -0.0620
  653MPD2     H 9668   4.172   2.670  17.517  2.6114  0.4030 -0.7359
  653MPD2    H1 9669   4.112   2.250  17.542 -0.0850  0.2041  1.5276
  653MPD2    H2 9670   4.377   2.437   0.112 -1.6614  0.5837  1.8986
  653MPD2    H3 9671   4.267   2.237   0.023 -1.0332 -1.1693 -2.4866
  653MPD2     N 9672   4.072   2.481  17.375  0.6673  0.2181 -0.3266
  653MPD2    H5 9673   4.077   2.565  17.319  1.9822 -1.6563 -3.0049
  653MPD2    N1 9674   4.328   2.689   0.022 -0.1646  0.0791  0.1379
  653MPD2    H7 9675   4.319   2.770  17.653  2.0143  1.0883  1.1686
  654TMC3    C1 9676   3.970   2.403  17.185 -0.1246  0.0951 -0.2632
  654TMC3    C2 9677   3.862   2.487  17.162  0.2185  0.0265 -0.8947
  654TMC3    C3 9678   3.795   2.469  17.046 -0.1176  0.4373  0.2940
  654TMC3    C4 9679   3.989   2.289  17.105 -0.1386  0.5158  0.2215
  654TMC3    C5 9680   3.913   2.273  16.990  0.4124 -0.3559 -0.2895
  654TMC3    C6 9681   3.825   2.371  16.955 -0.2642  0.7547 -0.3566
  654TMC3     C 9682   4.006   2.370  17.320  0.2694  0.7001 -0.1659
  654TMC3     O 9683   3.981   2.256  17.360 -0.0577 -0.3071  0.1291
  654TMC3     H 9684   3.831   2.555  17.241 -0.6451 -1.7075  0.2506
  654TMC3    H1 9685   4.056   2.213  17.142 -0.4570  0.4885  0.7435
  654TMC3    H2 9686   3.759   2.354  16.871  0.5035 -1.6611 -0.4880
  654TMC3    C7 9687   3.855   2.139  16.983 -0.1982  0.9273 -0.5324
  654TMC3    C8 9688   3.652   2.469  17.082 -0.5522  0.0214  0.2563
  654TMC3    O1 9689   3.768   2.132  16.898 -0.2719 -0.1052  0.0317
  654TMC3    O2 9690   3.606   2.558  17.145 -0.1138  0.3005 -0.1008
  655MPD2     C 9691   0.595   2.450  15.608 -0.5785 -0.2368  0.8631
  655MPD2    C1 9692   0.550   2.543  15.519  0.2550  0.2394  0.4206
  655MPD2    C2 9693   0.547   2.520  15.382  0.1651 -0.1425 -0.2638
  655MPD2    C3 9694   0.583   2.396  15.333 -0.1827 -0.1695 -0.2487
  655MPD2    C4 9695   0.639   2.313  15.423 -0.0073  0.1597  0.3905
  655MPD2    C5 9696   0.641   2.335  15.562  0.6629 -0.0015  0.7521
  655MPD2     H 9697   0.512   2.599  15.317  0.3651  0.9323  0.9520
  655MPD2    H1 9698   0.687   2.223  15.385 -0.4299  0.7387 -1.4926
  655MPD2    H2 9699   0.597   2.464  15.716  0.1983 -0.2666  0.8473
  655MPD2    H3 9700   0.662   2.254  15.632 -0.1723  0.1614  1.1860
  655MPD2     N 9701   0.570   2.349  15.203 -0.4096 -0.3590  0.0448
  655MPD2    H5 9702   0.562   2.248  15.194  0.7439 -0.3219 -1.5586
  655MPD2    N1 9703   0.494   2.667  15.556 -0.3200  0.1648  0.6256
  655MPD2    H7 9704   0.475   2.737  15.485 -0.0513  0.4297  0.8126
  656TMC3    C1 9705   0.418   2.849  15.681 -0.5444 -0.5608  0.0454
  656TMC3    C2 9706   0.418   2.924  15.792 -0.3889 -0.3962  0.2921
  656TMC3    C3 9707   0.327   3.028  15.805 -0.1668 -0.4613  0.7116
  656TMC3    C4 9708   0.339   2.886  15.573 -0.2430  0.9183  0.3707
  656TMC3    C5 9709   0.250   2.992  15.590  0.2928  0.1476  0.9992
  656TMC3    C6 9710   0.241   3.066  15.704  0.1408 -0.0461  0.3282
  656TMC3     C 9711   0.484   2.716  15.683 -0.2022 -0.1436  0.2801
  656TMC3     O 9712   0.520   2.671  15.790 -0.4049 -0.0086 -0.4043
  656TMC3     H 9713   0.480   2.887  15.873  1.6150  1.7334 -0.2656
  656TMC3    H1 9714   0.318   2.828  15.484  1.3999  0.1396  0.4762
  656TMC3    H2 9715   0.166   3.141  15.729 -0.7324 -1.0899  0.8629
  656TMC3    C7 9716   0.161   3.019  15.476 -0.5546 -0.2106  0.0948
  656TMC3    C8 9717   0.242   3.008  15.915 -0.3284  0.0023 -1.2853
  656TMC3    O1 9718   0.183   2.967  15.368  0.3642 -0.0911 -0.9397
  656TMC3    O2 9719   0.162   2.918  15.899 -0.2147  0.1674  0.4803
  657TMC3    C1 9720   4.205   2.008  14.673  0.4134 -0.8746  0.3510
  657TMC3    C2 9721   4.213   1.997  14.808  0.3617 -0.4344  0.0613
  657TMC3    C3 9722   4.122   2.062  14.894  0.8934  0.0411  0.8085
  657TMC3    C4 9723   4.108   2.086  14.614 -0.0600 -0.7218  0.0420
  657TMC3    C5 9724   4.038   2.168  14.702 -0.4028  0.2068  0.1598
  657TMC3    C6 9725   4.034   2.155  14.839 -0.2799 -0.4276 -0.4479
  657TMC3     C 9726   4.293   1.927  14.591  0.3515 -0.5672 -0.0522
  657TMC3     O 9727   4.238   1.882  14.489  0.1594 -0.1918 -0.3348
  657TMC3     H 9728   4.263   1.911  14.852  0.9176 -1.1802 -2.0220
  657TMC3    H1 9729   4.098   2.094  14.506  0.2968 -0.3302  0.0408
  657TMC3    H2 9730   3.959   2.204  14.899 -0.2180 -1.9339  0.8552
  657TMC3    C7 9731   3.941   2.264  14.656  0.3247  0.9756 -0.5536
  657TMC3    C8 9732   4.125   2.058  15.035  0.0849 -0.0416  0.0577
  657TMC3    O1 9733   3.887   2.243  14.547 -0.4951  0.2006 -0.0227
  657TMC3    O2 9734   4.066   2.154  15.080  0.8373  0.1267 -0.5625
  658MPD2     C 9735   0.824   2.021  14.663 -0.2764  0.0168  0.4547
  658MPD2    C1 9736   0.683   2.032  14.655  0.6124 -0.2131 -1.1951
  658MPD2    C2 9737   0.620   2.023  14.530  0.5026  0.2012 -0.4871
  658MPD2    C3 9738   0.695   2.019  14.414 -1.0931 -0.5694  0.1725
  658MPD2    C4 9739   0.830   2.008  14.423  0.0444  0.2104 -0.0035
  658MPD2    C5 9740   0.891   2.011  14.544  0.1063 -0.2647  0.5245
  658MPD2     H 9741   0.512   2.024  14.528  0.4769 -2.3066 -1.3840
  658MPD2    H1 9742   0.890   1.997  14.333  0.0926 -1.4630  0.2297
  658MPD2    H2 9743   0.876   2.013  14.758 -0.5865  1.3868  0.7495
  658MPD2    H3 9744   0.999   2.003  14.549  0.2738  0.1780 -2.4520
  658MPD2     N 9745   0.637   2.042  14.282 -0.2953  0.5825  0.2366
  658MPD2    H5 9746   0.536   2.057  14.276 -0.4510 -0.3302  0.5835
  658MPD2    N1 9747   0.612   2.056  14.773 -0.3218 -0.9878 -0.2072
  658MPD2    H7 9748   0.665   2.098  14.849  1.1728 -1.2198 -1.1211
  659TMC3    C1 9749   0.425   2.119  14.895  1.0124 -0.4217 -0.3720
  659TMC3    C2 9750   0.503   2.205  14.971  0.0076 -0.4373 -0.2598
  659TMC3    C3 9751   0.441   2.321  15.016  0.0423  1.1211  0.1739
  659TMC3    C4 9752   0.288   2.136  14.885  0.2535 -0.7263 -0.6655
  659TMC3    C5 9753   0.241   2.259  14.930  0.1706 -0.3723 -0.1417
  659TMC3    C6 9754   0.312   2.356  14.990 -0.1870 -0.2882 -0.2455
  659TMC3     C 9755   0.474   2.043  14.783  0.1301  0.1265 -0.1988
  659TMC3     O 9756   0.398   1.973  14.713 -0.0599 -1.0980 -0.9535
  659TMC3     H 9757   0.610   2.199  14.990  0.0942 -1.0739 -0.9294
  659TMC3    H1 9758   0.223   2.064  14.837 -1.0350  1.4038 -2.1095
  659TMC3    H2 9759   0.262   2.447  15.021 -0.3912 -0.4925  0.0185
  659TMC3    C7 9760   0.108   2.294  14.881 -0.1274  0.5227  0.3415
  659TMC3    C8 9761   0.515   2.414  15.095  0.0596 -0.1302  0.6618
  659TMC3    O1 9762   0.047   2.384  14.942 -0.6021  0.1930 -0.1981
  659TMC3    O2 9763   0.483   2.534  15.075  0.0784 -0.0648  0.0276
  660MPD2     C 9764   3.379   1.361  12.612  0.0796 -0.4752  0.2689
  660MPD2    C1 9765   3.245   1.376  12.603  0.1110 -0.1777 -0.4438
  660MPD2    C2 9766   3.158   1.339  12.712 -0.2765 -0.1228 -0.3691
  660MPD2    C3 9767   3.214   1.286  12.821 -0.2962 -0.7485  0.0710
  660MPD2    C4 9768   3.355   1.268  12.829 -0.0134  0.3184  0.7355
  660MPD2    C5 9769   3.434   1.313  12.724 -0.2887  0.7486 -0.3186
  660MPD2     H 9770   3.054   1.369  12.706  0.0297  0.7681 -1.0824
  660MPD2    H1 9771   3.402   1.217  12.913 -1.0524  0.9023  1.6692
  660MPD2    H2 9772   3.451   1.386  12.535 -0.0770  2.2647  0.9950
  660MPD2    H3 9773   3.540   1.298  12.738 -0.5644 -0.5757  0.3396
  660MPD2     N 9774   3.133   1.248  12.931  0.0527  0.3013 -0.6434
  660MPD2    H5 9775   3.191   1.207  13.004 -0.0193  2.1882  0.4851
  660MPD2    N1 9776   3.191   1.429  12.486  0.0464 -0.2258  0.4683
  660MPD2    H7 9777   3.258   1.435  12.409 -0.8836  0.1324 -0.3176
  661TMC3    C1 9778   3.034   1.475  12.315 -0.5144  0.6642  0.1989
  661TMC3    C2 9779   3.119   1.431  12.215 -0.4555 -0.0320  0.4212
  661TMC3    C3 9780   3.069   1.447  12.089  0.3949 -0.1799  0.2016
  661TMC3    C4 9781   2.907   1.521  12.284  0.1540  0.2162  0.0942
  661TMC3    C5 9782   2.857   1.529  12.158  0.2729 -0.6680  0.0373
  661TMC3    C6 9783   2.942   1.489  12.055 -0.2472  1.1552 -0.2562
  661TMC3     C 9784   3.061   1.464  12.461 -0.5816  0.7405  0.2159
  661TMC3     O 9785   2.972   1.496  12.537 -0.5743  0.3189  0.5033
  661TMC3     H 9786   3.218   1.392  12.234 -1.1031 -1.8910 -0.0147
  661TMC3    H1 9787   2.841   1.553  12.364 -1.3340 -2.4905 -0.0809
  661TMC3    H2 9788   2.905   1.481  11.953  0.0736  1.5151 -0.3991
  661TMC3    C7 9789   2.717   1.497  12.146  0.4434 -0.1905 -0.0920
  661TMC3    C8 9790   3.171   1.414  11.988  0.1139  0.1620  1.0005
  661TMC3    O1 9791   2.637   1.568  12.207  0.0172 -0.1460 -0.2048
  661TMC3    O2 9792   3.208   1.297  11.972 -0.4599 -1.0410 -0.3077
  662MPD2     C 9793   3.678   0.544   0.621 -0.2714  0.1875 -0.8411
  662MPD2    C1 9794   3.552   0.591   0.613 -0.2554  0.0803 -0.5436
  662MPD2    C2 9795   3.525   0.709   0.674 -0.0585  0.0798  0.2971
  662MPD2    C3 9796   3.624   0.789   0.729  0.4525 -0.1313  0.3093
  662MPD2    C4 9797   3.757   0.750   0.717  0.3460  0.4501  0.3685
  662MPD2    C5 9798   3.779   0.626   0.664  0.0396  0.0465 -0.5743
  662MPD2     H 9799   3.422   0.743   0.673 -0.4771 -1.1912  0.3429
  662MPD2    H1 9800   3.835   0.816   0.753  1.7357 -0.1314 -1.6094
  662MPD2    H2 9801   3.701   0.449   0.574  0.2382 -0.4898  0.7633
  662MPD2    H3 9802   3.879   0.588   0.650 -0.0614 -0.6008  0.4638
  662MPD2     N 9803   3.602   0.912   0.794 -0.1745 -0.0481 -0.2421
  662MPD2    H5 9804   3.678   0.959   0.842  1.1873 -1.0439 -1.3947
  662MPD2    N1 9805   3.459   0.504   0.557 -0.6958  0.7711  0.1562
  662MPD2    H7 9806   3.488   0.424   0.502 -1.6607  0.5334 -0.0100
  663TMC3    C1 9807   3.248   0.433   0.469 -0.0939  0.0214 -0.1075
  663TMC3    C2 9808   3.108   0.443   0.467 -0.8156 -0.5129 -0.1677
  663TMC3    C3 9809   3.033   0.375   0.373 -0.5369  0.4546 -0.1607
  663TMC3    C4 9810   3.311   0.344   0.388  0.5055 -0.4656 -0.6527
  663TMC3    C5 9811   3.234   0.266   0.302  0.0887 -1.1245 -0.2507
  663TMC3    C6 9812   3.098   0.275   0.306  0.8491  0.4493  0.4224
  663TMC3     C 9813   3.323   0.531   0.554 -0.2741  0.8955  0.1451
  663TMC3     O 9814   3.260   0.633   0.584  0.3610  0.3145  0.2547
  663TMC3     H 9815   3.062   0.527   0.518  0.4976  1.6581 -2.5851
  663TMC3    H1 9816   3.418   0.328   0.381  0.8873  1.1566  1.3716
  663TMC3    H2 9817   3.043   0.225   0.227  0.9518  2.6459 -1.0345
  663TMC3    C7 9818   3.296   0.233   0.176  0.7806  0.3735  0.0060
  663TMC3    C8 9819   2.899   0.332   0.406  0.5994  0.2596 -0.1841
  663TMC3    O1 9820   3.383   0.316   0.146  0.4269 -0.1083  0.1409
  663TMC3    O2 9821   2.872   0.224   0.349 -0.2831  0.2946 -0.1552
  664MPD2     C 9822   1.726   4.125   0.117  0.0330 -0.1474 -0.4368
  664MPD2    C1 9823   1.830   4.198   0.167  0.3010 -0.6413  0.2317
  664MPD2    C2 9824   1.826   4.245   0.293 -0.0968 -0.2027 -0.3946
  664MPD2    C3 9825   1.716   4.231   0.377 -0.9042  1.0911 -0.1295
  664MPD2    C4 9826   1.617   4.147   0.328  0.1963  0.4952 -0.1682
  664MPD2    C5 9827   1.621   4.103   0.199 -0.0350 -0.0463 -0.4967
  664MPD2     H 9828   1.917   4.289   0.331 -1.8744  1.8851  1.4720
  664MPD2    H1 9829   1.517   4.134   0.368  0.3006 -1.6951 -0.6105
  664MPD2    H2 9830   1.724   4.083   0.017  0.3163 -1.6595  0.1994
  664MPD2    H3 9831   1.533   4.051   0.162 -1.8339  0.6649  2.7086
  664MPD2     N 9832   1.713   4.286   0.509 -0.0163 -0.0597  0.3332
  664MPD2    H5 9833   1.789   4.351   0.527 -0.7078  1.1989 -1.1530
  664MPD2    N1 9834   1.949   4.231   0.093 -0.3926 -0.5846 -0.5256
  664MPD2    H7 9835   2.016   4.300   0.125 -0.2000 -1.0505  0.0612
  665TMC3    C1 9836   1.633   4.322   0.733  0.1657  0.0192 -0.3648
  665TMC3    C2 9837   1.574   4.278   0.851  0.2957  0.0276  0.3911
  665TMC3    C3 9838   1.583   4.354   0.964  0.6433  0.2574 -0.6299
  665TMC3    C4 9839   1.678   4.451   0.730  0.4274 -0.0650  0.2591
  665TMC3    C5 9840   1.674   4.522   0.843  0.9925  0.2047  0.4074
  665TMC3    C6 9841   1.636   4.479   0.965 -0.0592 -0.0619  0.4213
  665TMC3     C 9842   1.617   4.251   0.607 -0.3295 -0.2903  0.3728
  665TMC3     O 9843   1.539   4.154   0.607  0.2213 -0.3471  0.1107
  665TMC3     H 9844   1.546   4.173   0.852  1.3022 -0.2554 -0.2045
  665TMC3    H1 9845   1.715   4.498   0.640 -0.0237 -0.4259 -0.1156
  665TMC3    H2 9846   1.650   4.539   1.053  2.3302  0.2711 -0.1858
  665TMC3    C7 9847   1.694   4.659   0.833  0.6107 -0.3324  0.4456
  665TMC3    C8 9848   1.521   4.310   1.088  0.0693 -0.0214 -0.3812
  665TMC3    O1 9849   1.797   4.688   0.769  0.1497 -0.0787 -0.3140
  665TMC3    O2 9850   1.566   4.353   1.195  0.0532  0.7221 -0.2461
  666TMC3    C1 9851   0.886   2.753  10.243  0.2647 -0.0652 -0.7883
  666TMC3    C2 9852   0.955   2.748  10.358  0.0138 -0.0167  0.2997
  666TMC3    C3 9853   1.012   2.864  10.404 -0.9976  0.3936  0.3511
  666TMC3    C4 9854   0.867   2.870  10.179  0.3715  0.0841 -0.4177
  666TMC3    C5 9855   0.936   2.980  10.217 -0.6270  0.4231 -0.0526
  666TMC3    C6 9856   1.007   2.976  10.332  0.1229 -0.0700  0.0494
  666TMC3     C 9857   0.812   2.634  10.208  0.6368  0.5882 -0.2438
  666TMC3     O 9858   0.801   2.561  10.306 -0.4773  0.6939 -0.1977
  666TMC3     H 9859   0.960   2.657  10.417 -0.1592 -0.5871 -0.5660
  666TMC3    H1 9860   0.802   2.866  10.093  0.0925 -3.6185 -0.0351
  666TMC3    H2 9861   1.051   3.071  10.359  0.1781 -0.7245  2.2322
  666TMC3    C7 9862   0.857   3.103  10.202 -0.2095  0.1377 -0.5290
  666TMC3    C8 9863   1.030   2.873  10.545  0.3633 -1.2705  0.4792
  666TMC3    O1 9864   0.736   3.090  10.194 -0.3252  0.1615  0.0670
  666TMC3    O2 9865   0.975   2.798  10.624  0.0012  0.1351 -0.2027
  667MPD2     C 9866   2.242   3.528  15.675  0.3270  0.5354  0.0734
  667MPD2    C1 9867   2.245   3.626  15.572  0.7837  0.2332 -0.1216
  667MPD2    C2 9868   2.268   3.588  15.442  0.6536 -0.7981 -0.7816
  667MPD2    C3 9869   2.271   3.454  15.405  0.1195  0.5722 -0.6105
  667MPD2    C4 9870   2.254   3.358  15.501 -0.0169  0.2352  0.3068
  667MPD2    C5 9871   2.242   3.400  15.633 -0.6510  0.2911  0.9288
  667MPD2     H 9872   2.269   3.667  15.368  0.7965  1.1117  1.2467
  667MPD2    H1 9873   2.263   3.252  15.483  2.4133  0.1334  2.0993
  667MPD2    H2 9874   2.221   3.557  15.777 -1.3523  0.5325 -0.2660
  667MPD2    H3 9875   2.233   3.327  15.713  0.1972 -2.4103 -1.4431
  667MPD2     N 9876   2.271   3.406  15.272 -0.3009 -0.2244  0.1618
  667MPD2    H5 9877   2.272   3.305  15.269  0.4430 -0.1677 -1.4760
  667MPD2    N1 9878   2.229   3.759  15.608 -0.2385 -0.0738 -0.5466
  667MPD2    H7 9879   2.214   3.777  15.707 -1.1058  1.1759 -0.8942
  668TMC3    C1 9880   2.202   3.995  15.589 -0.4446 -0.1993  0.4899
  668TMC3    C2 9881   2.276   4.102  15.534  0.5781  0.2441  0.5173
  668TMC3    C3 9882   2.321   4.188  15.632 -0.5770  0.0802 -0.6924
  668TMC3    C4 9883   2.168   3.985  15.719 -1.3583  0.8479  0.3323
  668TMC3    C5 9884   2.205   4.083  15.804 -0.1000 -0.3145 -0.1842
  668TMC3    C6 9885   2.275   4.187  15.761  0.0211  0.5117  0.7068
  668TMC3     C 9886   2.222   3.868  15.524  0.3232 -1.0693  0.7784
  668TMC3     O 9887   2.257   3.872  15.407  0.2634  0.0871 -0.8077
  668TMC3     H 9888   2.331   4.080  15.443  1.3569 -0.7701  1.2307
  668TMC3    H1 9889   2.105   3.902  15.751 -0.1903  0.5096  1.7953
  668TMC3    H2 9890   2.308   4.263  15.832 -1.2231 -0.3374  2.1713
  668TMC3    C7 9891   2.158   4.072  15.952 -1.2280  0.3119  0.5312
  668TMC3    C8 9892   2.430   4.284  15.609 -0.5217  0.3957 -1.0039
  668TMC3    O1 9893   2.198   4.169  16.016 -0.4438  0.2135  0.3204
  668TMC3    O2 9894   2.485   4.320  15.713 -0.2126  0.1752 -0.7801
  669TMC3    C1 9895   0.567   3.740  14.670 -0.8095 -0.1441 -0.4942
  669TMC3    C2 9896   0.565   3.718  14.535  0.2128  0.0570  0.0386
  669TMC3    C3 9897   0.577   3.831  14.469  0.5252 -0.7265  0.5391
  669TMC3    C4 9898   0.598   3.857  14.727  0.6066  0.8023 -0.3621
  669TMC3    C5 9899   0.632   3.962  14.648  0.1811 -0.4213  0.1756
  669TMC3    C6 9900   0.609   3.955  14.518  0.4910  0.0640 -0.0174
  669TMC3     C 9901   0.501   3.641  14.749  0.0470  0.7698  0.2638
  669TMC3     O 9902   0.471   3.672  14.864  0.1772 -0.4884  0.1832
  669TMC3     H 9903   0.524   3.632  14.482 -0.4292  0.7033 -0.5155
  669TMC3    H1 9904   0.583   3.877  14.833  0.0872  0.4375 -0.3652
  669TMC3    H2 9905   0.609   4.052  14.470  2.4076 -1.0868 -2.2991
  669TMC3    C7 9906   0.748   4.038  14.695 -0.0513 -0.1660 -0.1588
  669TMC3    C8 9907   0.490   3.830  14.354 -0.2201  0.0116  0.7221
  669TMC3    O1 9908   0.764   4.152  14.648  0.1589 -0.0989 -0.2091
  669TMC3    O2 9909   0.475   3.725  14.294 -0.3361 -0.4220  0.0404
  670MPD2     C 9910   3.844   1.334  13.434  0.2277 -0.1339 -0.5097
  670MPD2    C1 9911   3.848   1.473  13.424 -0.3395 -0.3451  0.1283
  670MPD2    C2 9912   3.825   1.543  13.542 -0.1285 -0.4022 -0.5374
  670MPD2    C3 9913   3.794   1.489  13.665 -0.2819 -0.3305 -0.0395
  670MPD2    C4 9914   3.804   1.357  13.673  0.0462  0.4583 -0.1948
  670MPD2    C5 9915   3.819   1.278  13.557 -0.6132 -0.1823 -0.3156
  670MPD2     H 9916   3.825   1.651  13.533 -1.2401 -0.4331 -0.9061
  670MPD2    H1 9917   3.788   1.305  13.766  4.6140 -0.3096  0.1172
  670MPD2    H2 9918   3.848   1.270  13.346  0.8833  0.3778 -0.8597
  670MPD2    H3 9919   3.811   1.170  13.557  0.6152 -0.2590 -3.1961
  670MPD2     N 9920   3.765   1.574  13.774  0.2028  0.3979 -0.5479
  670MPD2    H5 9921   3.765   1.673  13.749  0.5991  0.3047 -0.9254
  670MPD2    N1 9922   3.875   1.550  13.311 -0.2057  0.4432 -0.4024
  670MPD2    H7 9923   3.881   1.649  13.334  0.5434  0.6489 -1.4339
  671TMC3    C1 9924   3.687   1.648  13.984 -0.7953 -0.4394 -0.9615
  671TMC3    C2 9925   3.715   1.631  14.115  0.0113  0.5657  0.0182
  671TMC3    C3 9926   3.613   1.614  14.205 -0.2223  0.1393 -0.0853
  671TMC3    C4 9927   3.559   1.677  13.932 -0.2516 -0.3440  0.5040
  671TMC3    C5 9928   3.460   1.659  14.021 -0.4421  0.2785  0.0483
  671TMC3    C6 9929   3.487   1.634  14.159  0.0143  0.2626 -0.0465
  671TMC3     C 9930   3.753   1.539  13.905 -0.2827  0.2397  0.0740
  671TMC3     O 9931   3.788   1.439  13.966 -0.1309  0.2357 -0.6388
  671TMC3     H 9932   3.811   1.591  14.145 -0.1033  2.0760  2.4511
  671TMC3    H1 9933   3.533   1.698  13.828  1.1596 -3.7089 -0.5202
  671TMC3    H2 9934   3.405   1.631  14.230 -0.4090 -0.7674 -0.5701
  671TMC3    C7 9935   3.333   1.606  13.967 -0.6412 -0.1902 -0.4718
  671TMC3    C8 9936   3.625   1.496  14.284  0.2350  0.1567 -0.0952
  671TMC3    O1 9937   3.320   1.623  13.848  0.1625 -0.4417 -0.1640
  671TMC3    O2 9938   3.523   1.432  14.282 -0.1400  0.0709  0.1026
  672MPD2     C 9939   3.785   1.937   1.130  0.0470  0.0992 -0.0021
  672MPD2    C1 9940   3.919   1.921   1.172 -0.4263 -0.1259 -0.3450
  672MPD2    C2 9941   3.953   1.990   1.285 -0.5002 -0.2463 -0.4453
  672MPD2    C3 9942   3.858   2.066   1.359  0.0662  0.3306 -0.1010
  672MPD2    C4 9943   3.727   2.060   1.325  0.1260 -1.1451  0.0267
  672MPD2    C5 9944   3.688   2.005   1.202  0.4544  0.4622 -0.1017
  672MPD2     H 9945   4.056   1.979   1.318 -0.3263  1.5387 -0.3915
  672MPD2    H1 9946   3.655   2.108   1.391  2.2461 -0.2445  1.7151
  672MPD2    H2 9947   3.749   1.898   1.036 -0.4152  2.0244 -0.6233
  672MPD2    H3 9948   3.585   2.002   1.169  0.9828  2.4091 -1.9039
  672MPD2     N 9949   3.885   2.150   1.473  0.5779 -0.1021  0.6480
  672MPD2    H5 9950   3.811   2.210   1.506 -0.4521 -0.9490 -0.1339
  672MPD2    N1 9951   4.025   1.862   1.094 -0.1890 -0.0679  0.3578
  672MPD2    H7 9952   4.122   1.871   1.123  0.5382 -0.8246 -1.8775
  673TMC3    C1 9953   4.134   1.767   0.918 -0.4326 -0.4320 -0.0231
  673TMC3    C2 9954   4.223   1.696   0.998 -0.0701 -0.0246 -0.4120
  673TMC3    C3 9955   4.339   1.663   0.927  0.2203  0.3625  0.5551
  673TMC3    C4 9956   4.165   1.828   0.798  0.4835 -0.1472  0.5481
  673TMC3    C5 9957   4.294   1.802   0.751 -0.8510  0.3654  0.3002
  673TMC3    C6 9958   4.383   1.724   0.816  0.0620  0.0373  0.4616
  673TMC3     C 9959   4.005   1.808   0.971  1.2067 -0.0624 -0.5488
  673TMC3     O 9960   3.915   1.826   0.890  0.1713  0.4017  0.6542
  673TMC3     H 9961   4.180   1.633   1.075 -3.2417  0.9397 -1.4107
  673TMC3    H1 9962   4.098   1.893   0.742  0.8606 -0.2370 -0.0045
  673TMC3    H2 9963   4.485   1.701   0.787 -0.0549  0.0947  0.0148
  673TMC3    C7 9964   4.351   1.888   0.648  0.5916 -0.6129  0.2752
  673TMC3    C8 9965   4.436   1.568   0.981  1.0952 -0.1211 -0.3194
  673TMC3    O1 9966   4.457   1.866   0.596  0.2399  0.7069 -0.2391
  673TMC3    O2 9967   4.517   1.511   0.907  0.0694  0.0549  1.1824
  674MPD2     C 9968   2.536   2.060   0.341  0.0420 -0.7896  0.2741
  674MPD2    C1 9969   2.654   2.026   0.404 -0.7159 -0.6209 -0.3865
  674MPD2    C2 9970   2.643   1.958   0.528 -0.3252 -0.8628  0.3507
  674MPD2    C3 9971   2.516   1.924   0.570 -0.6985  0.0818  0.2883
  674MPD2    C4 9972   2.405   1.956   0.506 -0.3911  0.2117 -0.0988
  674MPD2    C5 9973   2.412   2.020   0.391  0.2734 -0.0591 -0.3180
  674MPD2     H 9974   2.730   1.917   0.578  1.8715  2.2968 -0.8858
  674MPD2    H1 9975   2.306   1.942   0.547 -0.5746 -0.1244 -0.6509
  674MPD2    H2 9976   2.537   2.118   0.249 -2.1307 -0.0719  0.7030
  674MPD2    H3 9977   2.315   2.046   0.351  1.0039  0.7794 -1.5322
  674MPD2     N 9978   2.513   1.836   0.686 -0.1182 -0.0198 -0.2423
  674MPD2    H5 9979   2.603   1.820   0.730  0.3872  1.3976 -0.7373
  674MPD2    N1 9980   2.779   2.066   0.353  1.2707 -0.2544 -0.5072
  674MPD2    H7 9981   2.782   2.113   0.263 -2.4129 -0.8827 -0.9651
  675TMC3    C1 9982   3.004   2.091   0.323 -0.2089 -0.1275 -0.0919
  675TMC3    C2 9983   3.128   2.032   0.323  0.3569 -0.7782  0.3630
  675TMC3    C3 9984   3.231   2.097   0.257 -0.6917  0.1252 -0.4517
  675TMC3    C4 9985   2.976   2.207   0.263 -0.4110 -1.3638  0.5235
  675TMC3    C5 9986   3.084   2.268   0.200 -0.2469  0.6870  0.7234
  675TMC3    C6 9987   3.209   2.216   0.186 -0.0808  0.0972  0.6411
  675TMC3     C 9988   2.899   2.033   0.404  0.0047  0.8104  0.0799
  675TMC3     O 9989   2.939   1.972   0.502  0.2038  0.4275 -0.9738
  675TMC3     H 9990   3.151   1.937   0.368 -2.8240 -1.5060  0.4756
  675TMC3    H1 9991   2.877   2.253   0.257 -0.1174 -0.7518  0.3790
  675TMC3    H2 9992   3.293   2.267   0.140  0.6580 -1.4307  0.2942
  675TMC3    C7 9993   3.062   2.411   0.169 -0.3538 -0.7529 -0.5134
  675TMC3    C8 9994   3.374   2.058   0.270  0.1596 -1.3141 -0.6122
  675TMC3    O1 9995   2.945   2.448   0.186  0.2218  0.3444  0.0204
  675TMC3    O2 9996   3.460   2.084   0.188 -0.4451 -0.1428 -0.0775
  676MPD2     C 9997   1.443   4.643  11.305 -0.2228 -0.3075 -0.0188
  676MPD2    C1 9998   1.304   4.623  11.312  0.3143  0.1202 -0.0059
  676MPD2    C2 9999   1.261   4.512  11.239  0.5854 -0.7263 -0.0627
  676MPD2    C310000   1.347   4.408  11.189 -0.4062 -0.1479  1.1078
  676MPD2    C410001   1.479   4.432  11.185 -0.5966  0.1713 -0.4581
  676MPD2    C510002   1.524   4.551  11.236  0.2634 -0.5579  0.5004
  676MPD2     H10003   1.155   4.502  11.219  1.1048 -0.0914 -3.1365
  676MPD2    H110004   1.546   4.369  11.127 -0.5846 -1.5394  1.4074
  676MPD2    H210005   1.500   0.002  11.349 -1.1167  1.3511 -1.9060
  676MPD2    H310006   1.630   4.572  11.227  0.1557  0.1499  0.8691
  676MPD2     N10007   1.288   4.300  11.126  0.4432 -0.8174 -0.2088
  676MPD2    H510008   1.358   4.238  11.087 -0.6236 -2.2745  0.1694
  676MPD2    N110009   1.214   4.711  11.370 -0.4955  0.1297 -0.2884
  676MPD2    H710010   1.122   4.675  11.391 -0.8627  1.0640 -0.3488
  677TMC3    C110011   1.129   0.185  11.455 -0.6484 -0.4665 -0.2950
  677TMC3    C210012   1.012   0.111  11.459 -0.0242 -0.4380 -0.4236
  677TMC3    C310013   0.927   0.116  11.565  0.2532  0.5368 -0.5465
  677TMC3    C410014   1.161   0.262  11.565  0.2324 -0.9993  0.6570
  677TMC3    C510015   1.072   0.272  11.669  0.7470 -0.1320 -0.1133
  677TMC3    C610016   0.953   0.208  11.662  0.3805  0.2779 -0.2557
  677TMC3     C10017   1.241   0.125  11.390 -0.1204  0.8269  0.0429
  677TMC3     O10018   1.345   0.190  11.365  0.3033 -0.1067  0.0124
  677TMC3     H10019   0.974   0.050  11.378 -2.5051 -1.2235  1.3512
  677TMC3    H110020   1.258   0.311  11.559 -1.3333  1.7212 -2.4091
  677TMC3    H210021   0.870   0.217  11.732  0.0157  0.1957 -0.6774
  677TMC3    C710022   1.115   0.316  11.805 -0.5423  0.0037  0.5257
  677TMC3    C810023   0.832   0.009  11.580 -0.1338  0.7988 -0.6338
  677TMC3    O110024   1.032   0.296  11.894  0.0038 -0.4037 -0.5859
  677TMC3    O210025   0.769   4.715  11.477  0.4315  0.6967  0.4738
  678MPD2     C10026   2.556   0.856   1.856  0.0866 -0.0818  0.6657
  678MPD2    C110027   2.573   0.772   1.749  0.4069  0.0707 -0.6817
  678MPD2    C210028   2.472   0.693   1.703  0.0774  0.2249 -0.2718
  678MPD2    C310029   2.349   0.701   1.756  0.4944 -0.3661  0.2687
  678MPD2    C410030   2.334   0.777   1.872  0.0381  0.2463 -0.6329
  678MPD2    C510031   2.438   0.856   1.919  0.1208  0.0197  0.1967
  678MPD2     H10032   2.481   0.637   1.611  0.4672  1.4547 -0.9838
  678MPD2    H110033   2.239   0.780   1.923  1.7294  0.6578  2.5337
  678MPD2    H210034   2.625   0.926   1.902  0.2397 -1.2612  2.2397
  678MPD2    H310035   2.421   0.928   1.999 -0.5095 -0.4145  0.4607
  678MPD2     N10036   2.246   0.622   1.696  0.5517 -0.3627 -0.1562
  678MPD2    H510037   2.272   0.576   1.609 -0.5908 -2.0549  0.3881
  678MPD2    N110038   2.696   0.772   1.671 -0.4015  0.3760 -0.2523
  678MPD2    H710039   2.707   0.706   1.595 -1.7990 -0.7865  0.5646
  679TMC3    C110040   2.983   0.720   1.416  0.1773  0.3978  0.0607
  679TMC3    C210041   2.912   0.714   1.529  0.0628 -0.7227  0.3160
  679TMC3    C310042   2.907   0.836   1.595  0.5206  0.3613 -0.6760
  679TMC3    C410043   3.034   0.829   1.361 -0.8892  0.8866 -0.1275
  679TMC3    C510044   2.992   0.949   1.414 -0.0655  0.2772 -0.2317
  679TMC3    C610045   2.922   0.954   1.530  0.4289 -0.0009 -0.3417
  679TMC3     C10046   3.019   0.590   1.370 -0.8431 -0.1195 -0.5948
  679TMC3     O10047   2.940   0.500   1.386 -0.6208 -0.1962 -0.2186
  679TMC3     H10048   2.903   0.625   1.590  1.1050 -0.5246  0.7553
  679TMC3    H110049   3.086   0.815   1.267  1.3585  1.9418  0.9664
  679TMC3    H210050   2.875   1.045   1.566 -0.2827 -1.3649  2.1103
  679TMC3    C710051   2.946   1.049   1.316 -0.0393 -0.1459  0.3279
  679TMC3    C810052   2.807   0.856   1.693 -0.0370 -0.5312  0.2022
  679TMC3    O110053   2.834   1.100   1.333 -0.9345  0.8765 -0.0148
  679TMC3    O210054   2.813   0.955   1.765 -0.0357 -0.4329 -0.1123
  680MPD2     C10055   2.676   3.389  13.483  0.1133  0.3668 -0.1646
  680MPD2    C110056   2.802   3.380  13.533  1.0116  0.0431 -0.2109
  680MPD2    C210057   2.853   3.498  13.596 -0.0176 -0.4514  0.3025
  680MPD2    C310058   2.797   3.624  13.585  0.1120 -0.1292 -0.1642
  680MPD2    C410059   2.675   3.628  13.520  0.8916  0.1536 -0.1023
  680MPD2    C510060   2.611   3.512  13.478  0.1692 -0.1140 -0.8359
  680MPD2     H10061   2.957   3.497  13.626  0.3312  0.6344 -0.8510
  680MPD2    H110062   2.630   3.727  13.523 -1.0432 -0.6555 -2.3538
  680MPD2    H210063   2.621   3.301  13.453 -2.2857  0.4923  3.8434
  680MPD2    H310064   2.507   3.520  13.449 -0.4363 -1.5108  0.9462
  680MPD2     N10065   2.860   3.742  13.636 -1.3287 -0.0403  0.9071
  680MPD2    H510066   2.820   3.831  13.609  0.7533  0.7831  0.5455
  680MPD2    N110067   2.875   3.260  13.534  0.7147 -0.0927  0.3915
  680MPD2    H710068   2.825   3.189  13.482  1.1251  0.8002 -1.1997
  681TMC3    C110069   3.021   3.080  13.595 -0.0593 -0.3211 -0.4641
  681TMC3    C210070   3.088   3.024  13.697  0.1025  0.2535 -0.4769
  681TMC3    C310071   3.190   2.939  13.669  0.7588  0.1861 -1.1247
  681TMC3    C410072   3.051   3.039  13.470 -0.2062  0.1173 -0.3477
  681TMC3    C510073   3.150   2.942  13.450 -0.7675  0.0646 -0.1633
  681TMC3    C610074   3.211   2.877  13.552 -0.1568  0.2977 -0.4044
  681TMC3     C10075   2.990   3.220  13.606  0.3834  0.3403  0.1553
  681TMC3     O10076   3.057   3.283  13.687  0.0431  0.5741 -0.0824
  681TMC3     H10077   3.064   3.063  13.795 -0.9323  1.3198 -1.1549
  681TMC3    H110078   3.017   3.102  13.388 -0.3219 -1.6480 -1.6565
  681TMC3    H210079   3.288   2.803  13.535  0.1796  0.2350  1.3800
  681TMC3    C710080   3.141   2.884  13.319 -0.2601 -0.4501 -0.4678
  681TMC3    C810081   3.275   2.907  13.781  0.0827  0.3320  0.3289
  681TMC3    O110082   3.094   2.947  13.230 -0.6822  0.2149  0.1801
  681TMC3    O210083   3.344   2.811  13.759  0.6419  0.2198  0.5566
  682MPD2     C10084   0.207   4.185  10.662 -0.5297  0.6867  0.1042
  682MPD2    C110085   0.164   4.058  10.700 -0.3311  0.1638 -0.3275
  682MPD2    C210086   0.099   4.039  10.816 -0.0680  0.2933 -0.3130
  682MPD2    C310087   0.089   4.138  10.908  0.3350  0.4407 -0.2538
  682MPD2    C410088   0.140   4.262  10.869 -0.3813 -0.3518 -0.0211
  682MPD2    C510089   0.192   4.289  10.750  0.2002 -1.0154 -0.2311
  682MPD2     H10090   0.065   3.938  10.832  0.7857  0.1178  0.4113
  682MPD2    H110091   0.122   4.349  10.931 -2.1563  0.2966 -1.4533
  682MPD2    H210092   0.252   4.211  10.567 -1.2858  3.0735  0.3921
  682MPD2    H310093   0.229   4.387  10.721 -0.5378  0.1169  2.6983
  682MPD2     N10094   0.037   4.129  11.041 -0.2565  0.3121  0.4789
  682MPD2    H510095   0.028   4.214  11.096  0.5206  0.6272  0.1164
  682MPD2    N110096   0.179   3.942  10.622  0.1876  0.1371  0.2260
  682MPD2    H710097   0.153   3.853  10.662  1.9891  0.0334  1.1931
  683TMC3    C110098   4.708   4.125  11.438  0.4709 -0.0089 -0.7591
  683TMC3    C210099   4.599   4.063  11.491  0.5397 -0.2916  0.3525
  683TMC3    C310100   4.541   3.975  11.410 -0.0330 -0.2351  0.1332
  683TMC3    C410101   0.022   4.118  11.307  0.2237  1.2090  0.3579
  683TMC3    C510102   4.667   4.033  11.230  0.5806  0.3968  0.4432
  683TMC3    C610103   4.562   3.959  11.278 -0.4583 -0.3420 -0.5536
  683TMC3     C10104   0.040   4.239  11.510  0.5765  0.0203 -0.2045
  683TMC3     O10105   0.061   4.341  11.439 -0.0467 -0.6374 -0.0992
  683TMC3     H10106   4.550   4.097  11.581  1.2366 -0.2084  0.7031
  683TMC3    H110107   0.112   4.165  11.268 -1.0776  1.8246 -1.9086
  683TMC3    H210108   4.496   3.897  11.219  0.4094  0.6113 -2.5321
  683TMC3    C710109   4.712   4.012  11.096  0.2303  0.6582 -1.0917
  683TMC3    C810110   4.429   3.894  11.467 -0.3706  0.6001 -1.1764
  683TMC3    O110111   4.694   3.897  11.057 -0.9557 -0.0792 -0.0599
  683TMC3    O210112   4.336   3.859  11.392  0.5475 -0.1740 -0.5251
  684MPD2     C10113   3.639   0.009  16.311  1.0268  0.3112 -0.1613
  684MPD2    C110114   3.622   0.051  16.180  0.3268  0.0154 -0.0883
  684MPD2    C210115   3.517   0.137  16.159  0.1059 -0.7014 -0.6718
  684MPD2    C310116   3.431   0.180  16.260 -0.0437  0.0344 -0.0400
  684MPD2    C410117   3.460   0.140  16.384  0.0924 -0.5798 -0.2352
  684MPD2    C510118   3.566   0.066  16.408 -0.2739 -0.0788  0.4986
  684MPD2     H10119   3.497   0.168  16.058  0.0595  2.9674  0.4602
  684MPD2    H110120   3.406   0.177  16.470  1.3158  2.0644 -0.6390
  684MPD2    H210121   3.714   4.656  16.333 -0.1700 -0.8360  0.0128
  684MPD2    H310122   3.591   0.038  16.510  2.1295 -2.1859 -0.6784
  684MPD2     N10123   3.312   0.260  16.243  0.4643  0.2150  0.6250
  684MPD2    H510124   3.264   0.297  16.324  1.0434  0.8119  0.6964
  684MPD2    N110125   3.691   0.004  16.068 -0.3863 -1.0207 -0.6089
  684MPD2    H710126   3.665   0.042  15.977 -1.2893  2.1439  0.9661
  685TMC3    C110127   3.839   4.604  15.928  0.3005 -0.1414  0.5305
  685TMC3    C210128   3.754   4.623  15.822 -0.0014 -0.8366  0.3430
  685TMC3    C310129   3.788   4.564  15.703 -0.0377 -0.9187 -0.1864
  685TMC3    C410130   3.953   4.523  15.916  0.0218 -0.2167 -0.1832
  685TMC3    C510131   3.981   4.459  15.798 -0.6830 -0.7617  0.0640
  685TMC3    C610132   3.900   4.477  15.694 -0.0043  0.0848 -0.5897
  685TMC3     C10133   3.799   4.639  16.068  0.3228 -0.6198 -0.1159
  685TMC3     O10134   3.866   4.595  16.157  0.2249  1.1141 -0.0051
  685TMC3     H10135   3.669   4.690  15.829 -0.8887 -1.6677 -2.5185
  685TMC3    H110136   4.010   4.498  16.004 -2.0817 -2.0322  0.6771
  685TMC3    H210137   3.901   4.419  15.603  0.0715 -1.7417  0.5637
  685TMC3    C710138   4.049   4.329  15.786 -0.3319  0.0117  0.0607
  685TMC3    C810139   3.671   4.532  15.621  0.7278 -0.0487  0.4338
  685TMC3    O110140   4.065   4.284  15.676  0.1459  0.4129 -0.0192
  685TMC3    O210141   3.667   4.535  15.498 -0.1575  0.6723 -0.1782
  686MPD2     C10142   0.157   4.128  15.067  0.3360 -0.9519  0.8961
  686MPD2    C110143   0.229   4.104  15.186  0.2388 -0.2578  0.3881
  686MPD2    C210144   0.277   3.975  15.194 -0.0334 -0.0033 -0.3509
  686MPD2    C310145   0.266   3.882  15.092 -0.2175  0.1718  0.4618
  686MPD2    C410146   0.204   3.918  14.974  0.1973 -0.2158 -0.1610
  686MPD2    C510147   0.141   4.039  14.965  0.0239  0.0299 -0.1669
  686MPD2     H10148   0.329   3.936  15.281 -1.6094  0.7677  0.9421
  686MPD2    H110149   0.189   3.849  14.892 -0.6306  0.4832 -0.6045
  686MPD2    H210150   0.120   4.227  15.046  0.3172 -1.5071 -1.7553
  686MPD2    H310151   0.088   4.076  14.879 -3.0273 -1.3567  1.1343
  686MPD2     N10152   0.306   3.745  15.094  0.3131  0.7834  0.5304
  686MPD2    H510153   0.309   3.696  15.005 -0.6628 -2.1281  2.1120
  686MPD2    N110154   0.226   4.198  15.293 -0.5326  0.2213  0.0534
  686MPD2    H710155   0.175   4.285  15.280 -0.8147 -0.3317 -2.5096
  687TMC3    C110156   0.348   3.705  15.329  0.1707  0.0445 -0.4012
  687TMC3    C210157   0.225   3.731  15.381  0.5281 -0.3019  0.1262
  687TMC3    C310158   0.211   3.752  15.519  0.0113 -0.3047 -0.3618
  687TMC3    C410159   0.463   3.706  15.405  0.3795 -0.3125 -0.0367
  687TMC3    C510160   0.441   3.720  15.544  0.5729  0.3372  0.0740
  687TMC3    C610161   0.322   3.751  15.605  0.4404 -0.2882  0.0048
  687TMC3     C10162   0.374   3.676  15.190 -0.1593 -0.7189  0.3272
  687TMC3     O10163   0.450   3.581  15.170 -0.3310  0.2073 -0.1790
  687TMC3     H10164   0.138   3.724  15.317  0.2938  0.8215  0.3170
  687TMC3    H110165   0.562   3.685  15.365 -0.0017 -0.4892 -0.8879
  687TMC3    H210166   0.312   3.791  15.705 -0.0459  1.8671 -0.8901
  687TMC3    C710167   0.555   3.722  15.636  0.0943  0.4271  0.7584
  687TMC3    C810168   0.095   3.825  15.572  0.2650 -0.9113  0.2231
  687TMC3    O110169   0.557   3.808  15.724  0.1497  0.8916  0.0379
  687TMC3    O210170   0.104   3.844  15.694 -0.1831 -0.0026 -0.3920
  688MPD2     C10171   4.527   3.279  17.385  0.0644 -0.8321  1.2943
  688MPD2    C110172   4.564   3.153  17.417 -0.4173  0.2948 -0.2302
  688MPD2    C210173   4.631   3.073  17.321 -0.4075  0.5837 -0.3082
  688MPD2    C310174   4.660   3.126  17.196 -0.1860  0.8134 -0.1227
  688MPD2    C410175   4.620   3.255  17.163 -0.4054 -0.3183 -0.7171
  688MPD2    C510176   4.566   3.329  17.263  0.0983  0.1540  0.2695
  688MPD2     H10177   4.672   2.976  17.344 -0.4935  0.7628  0.5982
  688MPD2    H110178   4.630   3.299  17.065 -0.3464 -0.8109 -0.9310
  688MPD2    H210179   4.484   3.343  17.461 -0.8937  0.0628  0.0058
  688MPD2    H310180   4.542   3.430  17.233 -1.5633 -0.2371  0.3219
  688MPD2     N10181   0.011   3.063  17.099 -0.1038  0.7107 -0.5388
  688MPD2    H510182   0.036   3.121  17.020 -2.0712  0.0631 -1.6186
  688MPD2    N110183   4.549   3.086  17.544  0.2812 -0.2811 -0.0263
  688MPD2    H710184   4.572   2.988  17.559  1.0477 -0.5383 -2.9227
  689TMC3    C110185   4.490   3.055   0.082 -0.3875  0.0071  0.9847
  689TMC3    C210186   4.485   3.115   0.200  0.2756  0.7128  0.6708
  689TMC3    C310187   4.453   3.034   0.308 -0.1529 -0.7577  0.2125
  689TMC3    C410188   4.473   2.923   0.052 -0.0285 -0.6584 -0.0302
  689TMC3    C510189   4.444   2.842   0.158 -0.1527 -0.4114  0.1486
  689TMC3    C610190   4.436   2.900   0.281  0.1547 -0.3678 -0.2954
  689TMC3     C10191   4.485   3.141  17.656 -0.6129 -0.1101 -0.8043
  689TMC3     O10192   4.442   3.254  17.684  0.4484 -1.0520  0.3570
  689TMC3     H10193   4.494   3.223   0.200 -0.6725  0.7951  1.6555
  689TMC3    H110194   4.480   2.890  17.640  0.9832 -2.6678  0.6993
  689TMC3    H210195   4.410   2.838   0.366 -1.7294 -0.2720 -0.8048
  689TMC3    C710196   4.398   2.703   0.144 -0.5881 -0.0902  0.6528
  689TMC3    C810197   4.412   3.081   0.444  0.8458 -0.1631 -0.8773
  689TMC3    O110198   4.406   2.635   0.247 -0.3188 -0.0530  0.2568
  689TMC3    O210199   4.357   2.998   0.517  0.0685  0.5295  0.4974
  690MPD2     C10200   1.606   0.311  16.014  0.0714 -0.3520  0.2987
  690MPD2    C110201   1.546   0.323  15.890  0.1813  0.5347  0.0864
  690MPD2    C210202   1.617   0.396  15.793  0.5040 -0.0106 -0.4018
  690MPD2    C310203   1.734   0.460  15.822  0.2919  0.3240 -0.1708
  690MPD2    C410204   1.793   0.450  15.944 -0.2460  0.3787  0.0918
  690MPD2    C510205   1.726   0.382  16.043  0.0782  0.1649  0.2570
  690MPD2     H10206   1.583   0.390  15.690  0.0361  1.3857 -0.3214
  690MPD2    H110207   1.882   0.502  15.976  0.1130 -1.2772  1.8135
  690MPD2    H210208   1.552   0.253  16.088 -1.3840  0.1796 -0.3465
  690MPD2    H310209   1.776   0.388  16.139 -1.7546 -0.9502  1.2982
  690MPD2     N10210   1.794   0.542  15.718 -0.2420  0.1895  0.4555
  690MPD2    H510211   1.744   0.566  15.634 -0.7649  1.8518  1.2334
  690MPD2    N110212   1.446   0.243  15.851  0.3240 -0.1630  0.2315
  690MPD2    H710213   1.413   0.235  15.756 -2.1645  0.3038  1.0394
  691TMC3    C110214   1.277   0.093  15.856 -0.5968  0.3369 -0.3567
  691TMC3    C210215   1.148   0.091  15.902  0.0134  0.0155 -0.2924
  691TMC3    C310216   1.066   4.721  15.854  0.1068  0.1982  0.5208
  691TMC3    C410217   1.330   0.000  15.772  0.8071 -0.9045  0.4209
  691TMC3    C510218   1.250   4.634  15.718  0.5359 -0.4870 -0.2640
  691TMC3    C610219   1.117   4.635  15.759  0.9345 -0.0285 -0.2041
  691TMC3     C10220   1.373   0.168  15.935  0.1081 -0.3084 -0.1047
  691TMC3     O10221   1.351   0.191  16.055 -0.6094  0.1377  0.2072
  691TMC3     H10222   1.126   0.159  15.984  1.2823  0.3998 -0.2664
  691TMC3    H110223   1.434   4.719  15.740  0.7321  1.9200 -0.1555
  691TMC3    H210224   1.055   4.550  15.734 -1.0264  0.8534  1.5971
  691TMC3    C710225   1.319   4.510  15.706  0.3154 -0.2879  0.2695
  691TMC3    C810226   0.919   0.002  15.861 -0.0645 -0.0315 -0.3192
  691TMC3    O110227   1.439   4.508  15.677 -0.4862 -0.3065 -0.6538
  691TMC3    O210228   0.855   4.643  15.789  0.0588  0.2658  0.0042
  692TMC3    C110229   3.573   1.333  15.562 -0.7472  0.5110  0.1799
  692TMC3    C210230   3.685   1.300  15.644  0.3323  0.1083 -0.3926
  692TMC3    C310231   3.695   1.164  15.675  0.4105 -0.1296  0.0645
  692TMC3    C410232   3.502   1.244  15.492  0.3242 -0.1524  0.0466
  692TMC3    C510233   3.514   1.114  15.528 -0.6450 -0.2466  0.5886
  692TMC3    C610234   3.614   1.072  15.608 -0.2975 -0.2778 -0.6574
  692TMC3     C10235   3.503   1.446  15.624  0.2201  0.3122 -0.9056
  692TMC3     O10236   3.534   1.481  15.736 -0.0186  0.1922 -0.3200
  692TMC3     H10237   3.731   1.375  15.707  2.1199  0.3280 -1.9385
  692TMC3    H110238   3.434   1.268  15.411  1.1224  1.2231 -0.2218
  692TMC3    H210239   3.609   0.972  15.649 -0.2491  1.6356  4.0143
  692TMC3    C710240   3.416   1.012  15.483  0.4793  0.0540 -0.0658
  692TMC3    C810241   3.686   1.137  15.820 -0.5639  0.4268 -0.4063
  692TMC3    O110242   3.392   1.008  15.368 -0.3958 -0.3182 -0.1269
  692TMC3    O210243   3.728   1.027  15.855  0.0007  0.2284 -0.4066
  693MPD2     C10244   2.534   3.900  10.889  1.6747  0.3470 -0.1829
  693MPD2    C110245   2.495   3.801  10.794  0.1115 -0.2023 -0.2943
  693MPD2    C210246   2.600   3.743  10.711 -0.0699 -0.5451 -0.8365
  693MPD2    C310247   2.736   3.762  10.739  0.3196 -0.1604 -0.0544
  693MPD2    C410248   2.768   3.843  10.847 -0.3841  0.1399 -0.9140
  693MPD2    C510249   2.667   3.908  10.913 -0.4476 -0.4619  0.9186
  693MPD2     H10250   2.570   3.681  10.627 -0.4854 -0.5343 -0.6992
  693MPD2    H110251   2.872   3.854  10.875 -0.4412 -0.4173 -0.4850
  693MPD2    H210252   2.468   3.948  10.961  0.6231 -0.1451 -0.8202
  693MPD2    H310253   2.702   3.957  11.003 -1.5091 -0.5743  1.3945
  693MPD2     N10254   2.847   3.700  10.671 -0.4898  0.1739  0.1058
  693MPD2    H510255   2.942   3.718  10.703 -0.0423  0.0819 -1.1683
  693MPD2    N110256   2.360   3.772  10.786  0.2880  0.6259  0.7619
  693MPD2    H710257   2.305   3.813  10.861  0.2551  2.1725 -0.0901
  694TMC3    C110258   2.159   3.655  10.738 -0.3166 -0.1928  0.4100
  694TMC3    C210259   2.108   3.544  10.677 -0.2591 -0.4774 -0.1673
  694TMC3    C310260   2.014   3.472  10.742 -0.0206  0.4247  0.2367
  694TMC3    C410261   2.108   3.707  10.858  1.2210  0.0528 -0.4640
  694TMC3    C510262   2.020   3.627  10.926 -0.4312  0.3979 -0.2303
  694TMC3    C610263   1.974   3.509  10.871  0.6626  0.0166 -0.0689
  694TMC3     C10264   2.290   3.697  10.692  0.3681 -1.0248  0.0553
  694TMC3     O10265   2.333   3.644  10.589 -0.2586  1.1739 -0.1820
  694TMC3     H10266   2.153   3.518  10.582  2.3445  0.3079  0.8257
  694TMC3    H110267   2.135   3.804  10.899  2.6717 -0.7373  0.4369
  694TMC3    H210268   1.891   3.465  10.925  1.9051  0.3996  2.1809
  694TMC3    C710269   2.021   3.638  11.073 -0.7117  0.6942  0.0089
  694TMC3    C810270   1.956   3.351  10.691 -0.0505  0.6681 -0.2069
  694TMC3    O110271   2.029   3.752  11.117  0.5946  0.2514  0.2020
  694TMC3    O210272   1.872   3.284  10.753 -0.2843 -0.0069  0.5654
  695MPD2     C10273   3.686   0.897  13.533  0.1760 -0.3258  0.0957
  695MPD2    C110274   3.593   0.915  13.635  0.1424  0.5477 -0.3570
  695MPD2    C210275   3.485   1.002  13.613  0.4142 -0.0169  0.1699
  695MPD2    C310276   3.458   1.054  13.492 -0.0516  0.0617 -0.2701
  695MPD2    C410277   3.540   1.009  13.388 -0.1173  0.2575  0.1863
  695MPD2    C510278   3.652   0.939  13.409  0.1636 -0.1713  0.3485
  695MPD2     H10279   3.417   1.042  13.688 -0.9219 -1.7024 -0.1480
  695MPD2    H110280   3.518   1.046  13.288 -1.0890 -2.1358 -0.4727
  695MPD2    H210281   3.777   0.841  13.551 -0.2294 -1.6793 -2.0002
  695MPD2    H310282   3.718   0.922  13.325  0.0810 -2.5912  0.7707
  695MPD2     N10283   3.356   1.148  13.479  1.0358 -0.6059 -0.1064
  695MPD2    H510284   3.302   1.168  13.563 -1.0918  0.1377 -1.6537
  695MPD2    N110285   3.608   0.865  13.767  0.5293 -0.0463  0.3077
  695MPD2    H710286   3.553   0.921  13.832 -0.0770  0.4440 -0.6146
  696TMC3    C110287   3.185   1.269  13.381  0.4797  0.1108 -0.1917
  696TMC3    C210288   3.103   1.265  13.492 -0.5570  0.1498  0.5029
  696TMC3    C310289   3.003   1.356  13.503  0.6235  0.7245  0.1956
  696TMC3    C410290   3.176   1.378  13.296 -0.0349  0.2532  0.4299
  696TMC3    C510291   3.084   1.477  13.312 -0.8885  0.8076  0.1275
  696TMC3    C610292   2.987   1.452  13.407 -0.1425 -0.7009  0.4802
  696TMC3     C10293   3.304   1.193  13.363 -0.6455  0.3768 -0.0848
  696TMC3     O10294   3.349   1.191  13.251 -0.2137 -0.4853  0.2089
  696TMC3     H10295   3.125   1.193  13.570  1.8085  1.1561  0.7586
  696TMC3    H110296   3.254   1.382  13.220  1.5487  2.2843  2.1678
  696TMC3    H210297   2.899   1.516  13.413  0.3660  0.0536 -0.0872
  696TMC3    C710298   3.144   1.604  13.313 -0.4192 -0.4279 -0.2269
  696TMC3    C810299   2.995   1.409  13.638 -0.3272  0.1442  0.4938
  696TMC3    O110300   3.227   1.636  13.227  0.0997  0.2939 -0.7327
  696TMC3    O210301   2.975   1.529  13.650 -0.0020  0.2357  0.1799
  697MPD2     C10302   2.764   2.941  15.762 -0.7284  0.0211 -0.2988
  697MPD2    C110303   2.794   2.906  15.631 -0.7964  0.3798 -0.0492
  697MPD2    C210304   2.856   2.997  15.552 -0.4451 -0.1829 -0.0434
  697MPD2    C310305   2.892   3.122  15.600  0.1353 -0.2404  0.5274
  697MPD2    C410306   2.857   3.159  15.725  0.1846 -0.8411  0.2782
  697MPD2    C510307   2.799   3.064  15.805 -0.2267 -0.1928 -0.5035
  697MPD2     H10308   2.889   2.961  15.455 -1.7703 -0.6766 -0.3139
  697MPD2    H110309   2.893   3.251  15.770  0.9848 -0.3744 -1.3394
  697MPD2    H210310   2.733   2.866  15.834  0.5431  0.1741  0.4161
  697MPD2    H310311   2.776   3.092  15.908  1.6225 -2.1019  0.4293
  697MPD2     N10312   2.971   3.204  15.522 -1.0410 -0.6688  0.2082
  697MPD2    H510313   2.978   3.172  15.426  0.6667 -1.9163  0.7573
  697MPD2    N110314   2.773   2.780  15.569 -0.1608  0.4904  0.2137
  697MPD2    H710315   2.786   2.775  15.469  0.6025 -0.4039  0.3580
  698TMC3    C110316   3.112   3.373  15.447 -0.5263  0.0348  0.0056
  698TMC3    C210317   3.135   3.503  15.428 -0.1134 -0.4559 -0.4463
  698TMC3    C310318   3.234   3.537  15.346  0.1094 -0.2609  0.1519
  698TMC3    C410319   3.191   3.271  15.398  0.7024  0.0733  0.2705
  698TMC3    C510320   3.283   3.311  15.299  0.0638 -0.2902 -0.5090
  698TMC3    C610321   3.291   3.443  15.263 -0.1293  0.6786 -0.0907
  698TMC3     C10322   3.015   3.331  15.546  0.0841 -0.2222 -0.6439
  698TMC3     O10323   2.990   3.412  15.632  0.0629  0.0387  0.6517
  698TMC3     H10324   3.078   3.576  15.485  0.8025  0.7502 -1.1007
  698TMC3    H110325   3.188   3.173  15.445 -1.5156 -0.9196 -1.9370
  698TMC3    H210326   3.359   3.472  15.184 -0.5614  0.0056 -0.7069
  698TMC3    C710327   3.308   3.224  15.183  0.5906  0.2214  1.0075
  698TMC3    C810328   3.206   3.653  15.264 -0.0372  0.5467  0.5950
  698TMC3    O110329   3.216   3.148  15.150 -0.4154 -0.0445  0.5289
  698TMC3    O210330   3.270   3.754  15.292  0.0967  0.3346  0.1901
  699TMC3    C110331   2.940   1.192  13.052 -0.5718  0.5271  0.3287
  699TMC3    C210332   3.010   1.103  13.126 -0.9022 -0.7599 -0.7496
  699TMC3    C310333   2.953   1.034  13.231  1.0975  0.2084  0.4618
  699TMC3    C410334   2.815   1.228  13.085  0.1103 -0.2691 -0.3917
  699TMC3    C510335   2.771   1.173  13.203  0.5888  0.0049 -0.5453
  699TMC3    C610336   2.843   1.088  13.284 -0.0053  0.1776 -0.1083
  699TMC3     C10337   2.997   1.243  12.932  0.5449  0.0390 -0.6504
  699TMC3     O10338   2.915   1.266  12.844 -0.5688 -0.4680  0.1625
  699TMC3     H10339   3.105   1.069  13.086 -1.3069  1.5667 -3.5801
  699TMC3    H110340   2.756   1.297  13.027 -0.3380 -1.8943 -1.8639
  699TMC3    H210341   2.801   1.046  13.375  1.1928  1.0803  0.8595
  699TMC3    C710342   2.624   1.187  13.226  0.0943 -0.2643 -0.6277
  699TMC3    C810343   3.035   0.944  13.310  0.2246 -0.2366 -0.2156
  699TMC3    O110344   2.597   1.180  13.344  0.2459  0.0539 -0.5256
  699TMC3    O210345   3.007   0.924  13.427  0.7128 -0.1159  0.0617
  700TMC3    C110346   1.840   3.332  17.230 -0.2820  0.1532  0.6460
  700TMC3    C210347   1.902   3.209  17.230  0.8572 -0.2082  0.0872
  700TMC3    C310348   1.970   3.174  17.350  0.2633  0.7742  0.0063
  700TMC3    C410349   1.836   3.411  17.344 -0.1576 -0.2937  0.6850
  700TMC3    C510350   1.885   3.360  17.459  0.5599 -0.6955 -0.6879
  700TMC3    C610351   1.961   3.249  17.461  0.0095  0.2711 -0.0809
  700TMC3     C10352   1.839   3.390  17.096 -0.1754  0.0574 -0.1370
  700TMC3     O10353   1.782   3.327  17.008  0.3405 -0.2474 -0.1773
  700TMC3     H10354   1.934   3.167  17.135  0.7628 -1.9310  0.8065
  700TMC3    H110355   1.804   3.514  17.336 -1.8156 -0.8967 -0.3272
  700TMC3    H210356   2.019   3.216  17.546 -3.0111 -0.4211  1.6974
  700TMC3    C710357   1.921   3.442  17.574 -0.0883  1.0261  0.1344
  700TMC3    C810358   2.074   3.074  17.345 -0.4817 -0.0131  0.2610
  700TMC3    O110359   2.026   3.443  17.633  0.4044  0.1444 -0.1348
  700TMC3    O210360   2.165   3.077  17.427  0.7243  0.1759 -0.1141
  701TMC3    C110361   1.849   2.512  15.384  0.6050  0.3665 -0.1483
  701TMC3    C210362   1.834   2.502  15.248 -0.0182  0.3885 -0.0897
  701TMC3    C310363   1.927   2.565  15.166  0.1585  0.1882 -0.5168
  701TMC3    C410364   1.968   2.559  15.442  0.0296  0.1960 -0.3706
  701TMC3    C510365   2.048   2.631  15.359  0.2437  0.0874  0.0426
  701TMC3    C610366   2.026   2.639  15.225 -0.7519 -0.0255  0.5101
  701TMC3     C10367   1.736   2.476  15.469 -0.1237 -0.5143  0.1637
  701TMC3     O10368   1.641   2.417  15.417 -0.1133  0.0262 -0.3919
  701TMC3     H10369   1.738   2.474  15.206  0.5966 -2.5442  0.4686
  701TMC3    H110370   1.994   2.549  15.547  0.0380  0.6082 -0.3346
  701TMC3    H210371   2.098   2.697  15.167 -2.2821  0.3747 -0.9969
  701TMC3    C710372   2.151   2.711  15.418 -0.4787  1.2428 -0.5554
  701TMC3    C810373   1.954   2.508  15.034  0.5599 -0.0304  0.0683
  701TMC3    O110374   2.246   2.742  15.351 -0.2367  0.1766  0.0702
  701TMC3    O210375   2.060   2.551  14.982 -0.2101  0.1434 -0.0865
  702MPD2     C10376   1.395   3.856  10.540 -0.3182 -0.2196 -0.9709
  702MPD2    C110377   1.277   3.811  10.604  0.1545 -0.6822  0.0407
  702MPD2    C210378   1.238   3.683  10.568  0.2943  0.1993 -0.0529
  702MPD2    C310379   1.301   3.612  10.474 -0.3604 -0.7021  0.6044
  702MPD2    C410380   1.416   3.660  10.414  0.1032  0.5464  0.0501
  702MPD2    C510381   1.462   3.779  10.457  0.3066  0.5823 -0.3017
  702MPD2     H10382   1.160   3.633  10.624 -1.4676  1.8979 -1.0189
  702MPD2    H110383   1.466   3.598  10.340  1.3523  1.6777 -0.0673
  702MPD2    H210384   1.441   3.952  10.563 -1.9942  0.3761 -0.1069
  702MPD2    H310385   1.551   3.820  10.410  1.2367  0.6544  1.4971
  702MPD2     N10386   1.257   3.485  10.433  0.1054 -0.0012 -0.3766
  702MPD2    H510387   1.326   3.420  10.397 -0.8688  0.1017 -2.4410
  702MPD2    N110388   1.201   3.884  10.693 -0.0344 -0.0587  0.2201
  702MPD2    H710389   1.112   3.840  10.716  0.7363 -1.3989  0.6559
  703TMC3    C110390   1.023   3.543  10.430 -0.0994  0.1733 -0.0973
  703TMC3    C210391   0.908   3.538  10.508 -0.0529  0.3400  0.3181
  703TMC3    C310392   0.827   3.653  10.515  0.0582  0.0805 -0.1493
  703TMC3    C410393   1.042   3.652  10.349  0.5298  0.2713  0.5910
  703TMC3    C510394   0.956   3.760  10.355 -0.4963 -0.5259 -0.2745
  703TMC3    C610395   0.859   3.767  10.448 -0.3942 -0.5716  0.1078
  703TMC3     C10396   1.125   3.439  10.440  0.4589 -0.6193  0.1183
  703TMC3     O10397   1.098   3.320  10.432  0.4203 -0.5632  0.0454
  703TMC3     H10398   0.885   3.449  10.564 -0.9097  0.5465  0.3086
  703TMC3    H110399   1.119   3.641  10.274 -0.5292 -0.2480 -0.4164
  703TMC3    H210400   0.788   3.849  10.449 -2.2777 -2.2317  2.0742
  703TMC3    C710401   1.022   3.876  10.303  0.0136  0.1918  0.3974
  703TMC3    C810402   0.699   3.638  10.580 -0.4314 -0.1201 -0.2453
  703TMC3    O110403   1.098   3.857  10.207  0.5380 -0.1551  0.9970
  703TMC3    O210404   0.652   3.526  10.599 -0.1081  0.0725 -0.0254
  704TMC3    C110405   3.869   2.456  12.141  0.1749 -0.3177  0.5413
  704TMC3    C210406   3.825   2.479  12.269 -0.1241 -0.2815  0.8009
  704TMC3    C310407   3.828   2.362  12.351  0.1710  0.0017  0.0587
  704TMC3    C410408   3.913   2.339  12.089  0.0987  0.0638 -0.2830
  704TMC3    C510409   3.883   2.225  12.165 -0.0063  0.2975  0.4267
  704TMC3    C610410   3.852   2.238  12.296  0.1539  0.4716 -0.4380
  704TMC3     C10411   3.860   2.567  12.054 -0.3621  0.6721 -0.0563
  704TMC3     O10412   3.762   2.632  12.079  0.3770 -0.0177  0.1638
  704TMC3     H10413   3.810   2.582  12.299 -0.2883  0.6453 -2.4062
  704TMC3    H110414   3.942   2.327  11.985  0.5980  0.3325 -0.1779
  704TMC3    H210415   3.861   2.150  12.360  1.2052 -0.4323 -1.8285
  704TMC3    C710416   3.921   2.103  12.112 -0.7089  0.6486 -0.2625
  704TMC3    C810417   3.906   2.371  12.473  0.5312  0.3525  0.6928
  704TMC3    O110418   3.984   2.108  12.004  0.1061  0.4173 -0.5947
  704TMC3    O210419   3.922   2.271  12.542 -0.1313  0.2186  0.2826
  705MPD2     C10420   3.854   1.277  16.763  0.6192  0.1421  0.1215
  705MPD2    C110421   3.796   1.316  16.642 -0.9929 -0.1726  0.6690
  705MPD2    C210422   3.668   1.372  16.650  0.1182  0.2645  0.7178
  705MPD2    C310423   3.604   1.404  16.769 -0.0959  0.0588 -0.4273
  705MPD2    C410424   3.675   1.371  16.890 -0.2052  0.5249 -0.6909
  705MPD2    C510425   3.798   1.304  16.887 -0.6246 -0.1810 -0.3166
  705MPD2     H10426   3.619   1.404  16.558  0.8494 -1.4933 -0.2882
  705MPD2    H110427   3.632   1.391  16.987  2.3918  0.6568  0.4420
  705MPD2    H210428   3.950   1.227  16.770  0.9199  0.9083  1.5012
  705MPD2    H310429   3.863   1.286  16.971  0.5953 -2.2917 -1.7063
  705MPD2     N10430   3.468   1.444  16.786  0.0139  0.3838  0.5167
  705MPD2    H510431   3.444   1.449  16.885  1.3324 -0.3454  0.8712
  705MPD2    N110432   3.864   1.302  16.518 -0.3070 -0.0772  0.0220
  705MPD2    H710433   3.805   1.344  16.447 -0.0609 -2.4953 -1.6307
  706TMC3    C110434   4.101   1.088  16.169 -0.4966  0.6291  0.4148
  706TMC3    C210435   4.048   1.178  16.073 -0.3046 -0.4793 -0.3903
  706TMC3    C310436   3.975   1.288  16.124 -0.7576 -0.6993  0.3201
  706TMC3    C410437   4.068   1.095  16.305  0.4787  0.5204  0.3833
  706TMC3    C510438   3.999   1.207  16.350  0.0757 -0.0094  0.0045
  706TMC3    C610439   3.964   1.308  16.264  0.1421  0.0039  0.4690
  706TMC3     C10440   4.200   0.984  16.144  0.7161 -0.4925 -0.5344
  706TMC3     O10441   4.269   0.951  16.237 -0.1021  0.0436  0.4169
  706TMC3     H10442   4.062   1.169  15.966 -1.5763  0.8931 -0.6657
  706TMC3    H110443   4.109   1.024  16.375  1.5838  0.4513 -0.3343
  706TMC3    H210444   3.916   1.401  16.293  1.4245 -0.1632  3.1058
  706TMC3    C710445   3.972   1.220  16.489  0.6964  0.1571  0.2024
  706TMC3    C810446   3.928   1.401  16.049  0.0466  0.9734 -0.4004
  706TMC3    O110447   4.053   1.164  16.567 -0.2800 -0.9099 -0.1181
  706TMC3    O210448   3.834   1.464  16.097 -0.3474 -0.1673 -0.4314
  707TMC3    C110449   0.442   0.104   1.911  0.7400  0.4249 -0.7707
  707TMC3    C210450   0.514   0.065   2.018  0.0905 -0.3676  0.3121
  707TMC3    C310451   0.523   0.143   2.131 -0.6523 -0.2990  0.5105
  707TMC3    C410452   0.381   0.227   1.914  0.3075 -0.0299 -0.2641
  707TMC3    C510453   0.395   0.311   2.024  0.2675 -0.4440 -0.9222
  707TMC3    C610454   0.464   0.265   2.136 -1.0455  0.1273 -0.1198
  707TMC3     C10455   0.519   0.047   1.800 -0.0409 -0.1335  0.7759
  707TMC3     O10456   0.627   4.705   1.822  0.3201 -0.3094  0.2561
  707TMC3     H10457   0.553   4.686   2.020 -0.1049 -0.4529 -0.4070
  707TMC3    H110458   0.345   0.276   1.824 -2.1561 -1.0980  0.1366
  707TMC3    H210459   0.477   0.320   2.228 -1.3529  0.3663 -0.2192
  707TMC3    C710460   0.301   0.414   2.050 -0.1019 -0.3909  0.1640
  707TMC3    C810461   0.652   0.136   2.200 -0.2562  0.0033  0.5713
  707TMC3    O110462   0.292   0.468   2.156  0.2688  0.3217  0.5432
  707TMC3    O210463   0.662   0.209   2.297  0.0341 -0.3865  0.1376
  708MPD2     C10464   2.190   3.841  14.168  0.1850 -0.6275 -0.0124
  708MPD2    C110465   2.225   3.967  14.198  0.2280  0.1773  0.2028
  708MPD2    C210466   2.289   4.003  14.313  0.4014 -0.6165  0.3106
  708MPD2    C310467   2.307   3.906  14.412 -0.1161  0.3525  0.0028
  708MPD2    C410468   2.267   3.777  14.387 -0.0162  0.2505 -0.1183
  708MPD2    C510469   2.207   3.745  14.268 -0.5423 -0.1215 -0.1706
  708MPD2     H10470   2.327   4.104  14.327  2.0427 -1.4127  1.6122
  708MPD2    H110471   2.280   3.696  14.458  1.4442 -0.0781 -0.7490
  708MPD2    H210472   2.140   3.827  14.073  0.5691  0.8948 -0.4397
  708MPD2    H310473   2.184   3.641  14.247 -0.9340  0.3487 -2.1274
  708MPD2     N10474   2.345   3.940  14.548 -1.2381  0.3499 -0.4371
  708MPD2    H510475   2.326   3.869  14.618  0.5962  0.2531 -0.0295
  708MPD2    N110476   2.191   4.057  14.098  0.5726 -0.0689  0.5948
  708MPD2    H710477   2.153   4.015  14.013  1.4373 -0.8115  0.5807
  709TMC3    C110478   2.087   4.248  14.009  0.4222 -0.1837  0.0047
  709TMC3    C210479   2.047   4.170  13.910 -0.3810  0.3213 -0.1564
  709TMC3    C310480   1.914   4.175  13.888 -1.0629 -0.1489  0.4113
  709TMC3    C410481   2.006   4.343  14.068  0.3908 -0.4558  0.8235
  709TMC3    C510482   1.869   4.348  14.038  0.9440  0.4022 -0.4756
  709TMC3    C610483   1.825   4.258  13.942 -0.9447 -0.0714 -0.3990
  709TMC3     C10484   2.176   4.193  14.109  0.5817 -0.2449 -0.4189
  709TMC3     O10485   2.170   4.255  14.215 -0.0763 -0.1186  0.0197
  709TMC3     H10486   2.120   4.109  13.857  0.3423  1.9312 -1.0132
  709TMC3    H110487   2.049   4.427  14.122  1.1483 -0.7169  0.6345
  709TMC3    H210488   1.720   4.247  13.918 -1.1952  2.0257 -0.3073
  709TMC3    C710489   1.795   4.337  14.159  0.4733  0.6064 -0.6948
  709TMC3    C810490   1.850   4.103  13.772  0.5230  0.0333 -0.1240
  709TMC3    O110491   1.677   4.324  14.149 -0.4759  0.1049 -0.1874
  709TMC3    O210492   1.731   4.082  13.781 -0.5527  0.5081  0.4802
  710TMC3    C110493   2.249   0.949   0.879  0.1711  0.5040 -0.1324
  710TMC3    C210494   2.281   0.866   0.775  1.1001  0.6125 -0.7611
  710TMC3    C310495   2.406   0.881   0.708  0.1729 -0.1531 -0.2134
  710TMC3    C410496   2.341   1.050   0.924  0.0448 -0.7200 -0.1792
  710TMC3    C510497   2.456   1.071   0.850  0.1044 -0.1468 -0.0038
  710TMC3    C610498   2.486   0.986   0.748  0.0521 -0.7161 -0.2901
  710TMC3     C10499   2.113   0.970   0.904  0.0732  0.5620  0.5425
  710TMC3     O10500   2.038   0.911   0.831  0.2038  0.0990  0.1628
  710TMC3     H10501   2.211   0.793   0.734 -0.6180  1.7636  0.1483
  710TMC3    H110502   2.308   1.124   0.996  0.4887  0.5684 -1.3224
  710TMC3    H210503   2.574   0.997   0.686  0.4285  0.7816  0.5264
  710TMC3    C710504   2.566   1.119   0.933  0.1407  0.2752  1.3525
  710TMC3    C810505   2.490   0.764   0.686  0.5130  0.6715 -0.8579
  710TMC3    O110506   2.546   1.112   1.050 -0.9193  0.4362 -0.1397
  710TMC3    O210507   2.612   0.773   0.702  0.3187  0.3879 -0.2628
  711TMC3    C110508   2.858   1.423  14.758  0.4756  0.1306 -0.0755
  711TMC3    C210509   2.891   1.554  14.762  0.6932  0.0192 -0.1831
  711TMC3    C310510   3.021   1.581  14.798  0.6102  0.3477 -0.2657
  711TMC3    C410511   2.937   1.314  14.786  0.1749  0.7623  0.5051
  711TMC3    C510512   3.066   1.347  14.814  0.6876  0.3740  0.2397
  711TMC3    C610513   3.107   1.476  14.830  0.5740  0.0378 -0.1855
  711TMC3     C10514   2.756   1.380  14.665  0.4056  0.2372 -0.0629
  711TMC3     O10515   2.699   1.274  14.694 -0.5230 -0.1596  0.0177
  711TMC3     H10516   2.819   1.626  14.724 -1.4015 -1.8876  0.2337
  711TMC3    H110517   2.895   1.214  14.779  0.0137  0.6316  3.2393
  711TMC3    H210518   3.215   1.490  14.832  0.3953  1.4166 -0.6455
  711TMC3    C710519   3.166   1.242  14.821 -0.4337 -0.0347  0.0463
  711TMC3    C810520   3.054   1.722  14.817  0.0129 -0.9057  0.0807
  711TMC3    O110521   3.277   1.258  14.866  0.4880  0.4624  0.1769
  711TMC3    O210522   2.991   1.800  14.749 -0.2819  0.0568 -0.4082
  712MPD2     C10523   3.945   2.754  13.046 -0.0348  0.4843  0.9768
  712MPD2    C110524   3.991   2.661  13.135 -0.2832 -0.2130  0.7301
  712MPD2    C210525   4.044   2.697  13.254  0.4338 -0.2277  0.3906
  712MPD2    C310526   4.053   2.836  13.277 -0.2470  0.0422 -0.2287
  712MPD2    C410527   3.997   2.927  13.192 -0.1317 -0.6696 -0.3293
  712MPD2    C510528   3.937   2.885  13.082  0.7842  0.1381 -0.1522
  712MPD2     H10529   4.086   2.620  13.317  0.5038 -0.8101 -0.3599
  712MPD2    H110530   4.003   3.034  13.214 -0.7316 -0.4801 -1.0881
  712MPD2    H210531   3.894   2.724  12.954  2.7998 -1.3933  0.0261
  712MPD2    H310532   3.895   2.953  13.009 -1.0115  0.1437  0.8746
  712MPD2     N10533   4.125   2.894  13.387  0.0753 -0.4138  0.0959
  712MPD2    H510534   4.103   2.990  13.413 -0.0573 -0.5981  0.6587
  712MPD2    N110535   3.970   2.519  13.115 -0.4188 -0.0194 -0.0454
  712MPD2    H710536   3.981   2.462  13.198 -1.3781  1.0249  0.7998
  713TMC3    C110537   4.259   2.907  13.583  0.4722  0.2781 -0.0455
  713TMC3    C210538   4.391   2.891  13.604  0.1503  0.0535  0.6609
  713TMC3    C310539   4.462   2.996  13.658 -0.2526 -0.3445 -0.0064
  713TMC3    C410540   4.197   3.024  13.618  0.2833  0.2097  0.2875
  713TMC3    C510541   4.268   3.131  13.660  0.7681  0.1362 -0.5617
  713TMC3    C610542   4.411   3.117  13.679  0.4141  0.2192 -0.2529
  713TMC3     C10543   4.206   2.821  13.477  0.5062 -0.3420  0.0088
  713TMC3     O10544   4.245   2.705  13.473  0.0106 -0.0145  0.0577
  713TMC3     H10545   4.445   2.799  13.583  1.1836  0.0337  3.4124
  713TMC3    H110546   4.089   3.032  13.617  0.3520  0.3497 -3.2139
  713TMC3    H210547   4.465   3.202  13.721 -0.1456  1.4766 -2.0753
  713TMC3    C710548   4.210   3.252  13.711 -0.9970 -0.5111  1.5523
  713TMC3    C810549   4.616   3.002  13.636  0.0935 -0.1533  0.8595
  713TMC3    O110550   4.271   3.310  13.801  0.0013 -0.5162 -0.7310
  713TMC3    O210551   4.660   3.116  13.643 -0.3228  0.0217 -0.4354
  714MPD2     C10552   0.667   1.885   2.081  0.0899  0.9985 -0.3618
  714MPD2    C110553   0.713   1.782   1.999 -0.9116 -0.3012 -0.4423
  714MPD2    C210554   0.625   1.744   1.898  0.0059 -0.2733 -0.6866
  714MPD2    C310555   0.493   1.794   1.889  0.0289  0.2079  0.4730
  714MPD2    C410556   0.452   1.887   1.974 -0.1181 -0.3976 -0.0979
  714MPD2    C510557   0.541   1.936   2.072  0.3669  0.1694  0.2749
  714MPD2     H10558   0.642   1.652   1.843  0.8037 -0.2202 -0.5248
  714MPD2    H110559   0.355   1.934   1.965 -0.1120 -0.4897 -0.6712
  714MPD2    H210560   0.732   1.938   2.150  0.5903  0.6453 -0.5666
  714MPD2    H310561   0.515   2.015   2.142  1.1702  0.6458  0.0321
  714MPD2     N10562   0.419   1.747   1.771  0.3478  0.0957  0.4161
  714MPD2    H510563   0.471   1.694   1.701 -0.7457  1.2910 -1.3037
  714MPD2    N110564   0.842   1.727   2.013  0.0384 -0.7328  0.5903
  714MPD2    H710565   0.906   1.764   2.082 -1.5070  4.9752 -1.0867
  715TMC3    C110566   1.031   1.601   1.961 -0.2865  0.0933  0.7040
  715TMC3    C210567   1.099   1.500   1.897  0.7630  0.1310  0.1455
  715TMC3    C310568   1.236   1.504   1.908 -0.1751  0.0533  0.3681
  715TMC3    C410569   1.103   1.690   2.047 -0.2783 -0.7269  0.4741
  715TMC3    C510570   1.235   1.690   2.044  0.7430 -0.1844 -0.3161
  715TMC3    C610571   1.305   1.597   1.971 -0.3518  0.6419 -0.7409
  715TMC3     C10572   0.891   1.623   1.934  0.2974  0.2453  0.4109
  715TMC3     O10573   0.842   1.550   1.853  0.1427  0.3385 -0.0394
  715TMC3     H10574   1.052   1.414   1.851 -0.5453  1.2573 -0.6015
  715TMC3    H110575   1.061   1.784   2.083 -0.4889 -1.2357  1.5780
  715TMC3    H210576   1.412   1.593   1.956 -0.1693  1.2416  0.3857
  715TMC3    C710577   1.313   1.775   2.132 -0.2782  0.3904 -0.7285
  715TMC3    C810578   1.318   1.398   1.849  0.1269  0.0021 -0.7719
  715TMC3    O110579   1.431   1.764   2.112  0.7905 -0.1778 -0.1796
  715TMC3    O210580   1.285   1.340   1.749 -0.2228 -0.4133 -0.4512
  716MPD2     C10581   1.865   3.689   9.386  0.1192 -0.6333 -0.0018
  716MPD2    C110582   1.732   3.674   9.369  0.2394  0.2632  0.2295
  716MPD2    C210583   1.684   3.539   9.364  0.8224  0.6758  0.4180
  716MPD2    C310584   1.763   3.427   9.369  0.6534 -0.6239  0.1757
  716MPD2    C410585   1.901   3.446   9.373  0.0972 -0.5992  0.4802
  716MPD2    C510586   1.949   3.580   9.382  0.0435 -0.2355  0.0530
  716MPD2     H10587   1.580   3.514   9.347  0.3814  1.4793  2.0227
  716MPD2    H110588   1.965   3.359   9.377 -1.6512 -1.8122  1.8080
  716MPD2    H210589   1.910   3.788   9.388 -0.9152 -0.1753  0.6599
  716MPD2    H310590   2.055   3.597   9.374 -0.1524  0.3374 -1.3981
  716MPD2     N10591   1.705   3.299   9.353 -0.1043 -0.0433 -0.5424
  716MPD2    H510592   1.604   3.288   9.345 -0.0899 -0.9569  0.5353
  716MPD2    N110593   1.648   3.795   9.368 -0.2940  0.0055 -0.7702
  716MPD2    H710594   1.686   3.889   9.381  0.0504  0.3130 -4.0832
  717TMC3    C110595   1.691   3.061   9.353  0.4827  0.2242  0.2496
  717TMC3    C210596   1.599   3.054   9.252 -0.4335 -0.5359  0.4835
  717TMC3    C310597   1.572   2.926   9.204 -0.4347 -0.4929  0.0576
  717TMC3    C410598   1.746   2.948   9.403  0.1915  0.4848  0.5791
  717TMC3    C510599   1.701   2.826   9.369  0.6498  0.4843 -0.2866
  717TMC3    C610600   1.612   2.812   9.271  0.1788 -0.0492 -0.1856
  717TMC3     C10601   1.772   3.182   9.369  0.5114 -0.3988  0.1417
  717TMC3     O10602   1.881   3.154   9.420  0.5515  0.1861 -0.2554
  717TMC3     H10603   1.559   3.141   9.201  1.1102 -0.9606 -1.4468
  717TMC3    H110604   1.801   2.955   9.497  0.2551  0.0978  0.5697
  717TMC3    H210605   1.600   2.711   9.233  1.6755 -0.1986 -0.2677
  717TMC3    C710606   1.729   2.715   9.465 -0.2811  0.8047  0.3883
  717TMC3    C810607   1.476   2.921   9.094 -0.1417  0.0281 -0.1724
  717TMC3    O110608   1.822   2.739   9.542  0.5956 -0.3516 -0.1366
  717TMC3    O210609   1.468   3.017   9.012 -0.0419  0.7835 -0.1447
  718MPD2     C10610   0.630   3.251  12.112 -0.1898 -0.1272  0.9480
  718MPD2    C110611   0.676   3.279  12.237  0.6172 -0.3664  0.0581
  718MPD2    C210612   0.590   3.273  12.347  0.4059  0.4372 -0.3663
  718MPD2    C310613   0.453   3.247  12.329 -0.1243 -0.5312 -0.1434
  718MPD2    C410614   0.401   3.242  12.203 -0.1029  0.0642  0.2194
  718MPD2    C510615   0.489   3.247  12.101  0.6143  0.0705  1.2678
  718MPD2     H10616   0.623   3.289  12.448 -1.6825  0.3395  0.3431
  718MPD2    H110617   0.294   3.248  12.190 -0.1375  0.3873  0.6296
  718MPD2    H210618   0.694   3.263  12.026 -0.6615 -0.0233  0.6103
  718MPD2    H310619   0.441   3.257  12.004 -0.4054  3.2176  2.0798
  718MPD2     N10620   0.375   3.230  12.448  0.7057 -0.3814  0.5634
  718MPD2    H510621   0.435   3.210  12.528  0.0715  0.4428  1.2368
  718MPD2    N110622   0.813   3.280  12.262 -0.2798  0.7544 -0.0594
  718MPD2    H710623   0.834   3.263  12.360  1.6970  1.0862 -0.4265
  719TMC3    C110624   1.034   3.321  12.268  0.0795  0.1295  0.0765
  719TMC3    C210625   1.026   3.247  12.385  0.2310  0.0781 -0.3027
  719TMC3    C310626   1.058   3.302  12.507  0.2172 -0.2074 -1.1461
  719TMC3    C410627   1.076   3.449  12.263 -0.0184  1.0360 -0.1281
  719TMC3    C510628   1.088   3.505  12.386  0.0290  0.7935 -0.2646
  719TMC3    C610629   1.091   3.435  12.508  0.0347 -0.8513  0.1729
  719TMC3     C10630   0.916   3.310  12.182  0.2683 -0.2824 -0.4840
  719TMC3     O10631   0.910   3.354  12.066  0.3988 -0.6830 -0.1617
  719TMC3     H10632   0.979   3.149  12.386  0.1092  0.1503  2.1569
  719TMC3    H110633   1.058   3.506  12.172 -0.8239  3.1373  1.3526
  719TMC3    H210634   1.117   3.490  12.597 -2.2037 -1.0410  0.9581
  719TMC3    C710635   1.123   3.643  12.396  0.3557 -0.3529 -0.1780
  719TMC3    C810636   0.946   3.272  12.587  0.4339  0.3220 -0.3087
  719TMC3    O110637   1.098   3.698  12.504 -0.6752  0.3260  0.0680
  719TMC3    O210638   0.842   3.247  12.527  0.6680 -0.4471  0.1613
  720MPD2     C10639   0.032   0.068  13.400  0.5167  0.0624  0.0842
  720MPD2    C110640   4.660   4.701  13.448 -0.0153 -0.3171 -0.1562
  720MPD2    C210641   4.691   4.627  13.558 -0.3433 -0.5008 -0.3534
  720MPD2    C310642   0.087   4.642  13.624  0.0770 -0.7898  0.2713
  720MPD2    C410643   0.184   0.009  13.578  0.8056 -0.0822  0.3903
  720MPD2    C510644   0.157   0.075  13.464 -0.4244  0.0020 -0.3754
  720MPD2     H10645   4.620   4.563  13.609  3.0011 -3.2704  0.9270
  720MPD2    H110646   0.280   0.013  13.628  0.4087 -4.3300  1.4796
  720MPD2    H210647   0.018   0.129  13.312 -1.4778 -0.0522  0.3246
  720MPD2    H310648   0.232   0.144  13.426  2.2169 -2.4565  0.4154
  720MPD2     N10649   0.100   4.574  13.748  0.1108  0.3038  0.2830
  720MPD2    H510650   0.018   4.525  13.781 -0.7561  0.1564 -2.0780
  720MPD2    N110651   4.538   4.699  13.382  0.1169  0.0414 -0.7066
  720MPD2    H710652   4.520   0.049  13.313  0.6410  0.5520 -0.3210
  721TMC3    C110653   0.210   4.473  13.942  0.8242  0.5332 -0.1289
  721TMC3    C210654   0.096   4.491  14.012  0.4290 -0.1791  0.1633
  721TMC3    C310655   0.112   4.546  14.141 -0.3616  0.0892  1.0822
  721TMC3    C410656   0.333   4.474  13.998 -0.9114 -0.6901  0.5768
  721TMC3    C510657   0.345   4.528  14.120  0.6960 -0.4388 -0.3103
  721TMC3    C610658   0.236   4.562  14.198 -0.1186 -0.0009  0.6215
  721TMC3     C10659   0.215   4.554  13.816  0.0919  0.8484 -0.4175
  721TMC3     O10660   0.325   4.599  13.789  0.0334  0.1059  0.0471
  721TMC3     H10661   4.718   4.492  13.973  0.6881  1.0407 -0.4460
  721TMC3    H110662   0.424   4.464  13.939 -1.3466  0.9358 -0.3842
  721TMC3    H210663   0.239   4.615  14.293 -1.9445  1.0449  0.1056
  721TMC3    C710664   0.480   4.564  14.154 -0.8712  0.6143  0.5317
  721TMC3    C810665   0.002   4.619  14.191  0.0373  0.1289  0.4868
  721TMC3    O110666   0.575   4.563  14.075 -0.3696  0.2680 -0.0316
  721TMC3    O210667   4.643   4.655  14.109  0.0322 -0.2682  0.7208
  722MPD2     C10668   3.083   3.369  13.239  0.4664 -0.0882  0.1982
  722MPD2    C110669   3.058   3.502  13.255  0.9212  0.5621 -0.7675
  722MPD2    C210670   2.936   3.560  13.207  0.0895  0.5379  0.2330
  722MPD2    C310671   2.832   3.479  13.155 -0.1719  1.0681 -0.2460
  722MPD2    C410672   2.863   3.343  13.146  0.7846  0.1409 -0.7381
  722MPD2    C510673   2.987   3.292  13.182 -0.1674  0.2987 -0.3968
  722MPD2     H10674   2.909   3.664  13.212  3.0365  1.3681 -0.9797
  722MPD2    H110675   2.803   3.275  13.087  1.1626  0.0179 -0.9803
  722MPD2    H210676   3.179   3.319  13.248  0.3868 -0.6698 -2.0375
  722MPD2    H310677   3.013   3.189  13.164 -1.7746 -0.3724  1.1546
  722MPD2     N10678   2.724   3.539  13.092  0.3872  0.1483  0.9767
  722MPD2    H510679   2.738   3.635  13.064  0.1355 -0.4153 -1.0906
  722MPD2    N110680   3.152   3.591  13.311  0.0020  0.4194  0.7322
  722MPD2    H710681   3.126   3.688  13.295  3.0068  1.2423  0.8439
  723TMC3    C110682   2.549   3.574  12.956  0.6019  0.7209 -0.4095
  723TMC3    C210683   2.481   3.529  12.841  0.8350 -0.3587  0.5708
  723TMC3    C310684   2.468   3.623  12.741  0.0060  0.3469  0.3590
  723TMC3    C410685   2.563   3.709  12.990 -0.3719  0.1586 -0.0367
  723TMC3    C510686   2.518   3.805  12.894 -0.3595  0.1438 -0.3168
  723TMC3    C610687   2.482   3.760  12.769 -0.2118  0.2817  0.0936
  723TMC3     C10688   2.618   3.477  13.042 -0.3476 -0.9302 -0.1202
  723TMC3     O10689   2.585   3.361  13.051 -0.0882  0.4106  0.1694
  723TMC3     H10690   2.468   3.422  12.830  0.8219 -0.1613 -1.3137
  723TMC3    H110691   2.609   3.747  13.081  0.3726  0.3926 -0.5090
  723TMC3    H210692   2.461   3.827  12.686  2.0832  1.9663  0.8735
  723TMC3    C710693   2.513   3.946  12.936 -0.3643  0.2517 -0.2347
  723TMC3    C810694   2.473   3.571  12.608 -0.4120  0.0423 -0.2309
  723TMC3    O110695   2.590   3.977  13.026  0.2848  0.4320  0.2620
  723TMC3    O210696   2.522   3.650  12.524  0.2074  0.2244 -0.2304
  724TMC3    C110697   3.213   1.066   9.930  0.2583  0.2161 -0.1216
  724TMC3    C210698   3.215   1.163   9.832  0.1281  0.1800 -0.5945
  724TMC3    C310699   3.296   1.270   9.863 -0.2502 -0.7901 -0.2597
  724TMC3    C410700   3.305   1.067  10.036 -0.3093  0.2793  0.4363
  724TMC3    C510701   3.399   1.168  10.045  0.0106  0.6061 -0.5560
  724TMC3    C610702   3.390   1.279   9.963  0.6159  0.0749 -0.0212
  724TMC3     C10703   3.114   0.964   9.928 -0.3028 -0.7060 -0.1844
  724TMC3     O10704   3.118   0.883  10.016  0.1862 -0.4262 -0.6359
  724TMC3     H10705   3.138   1.180   9.757 -0.9543  1.8485  0.8990
  724TMC3    H110706   3.310   0.987  10.109  0.8789  1.3720  1.5413
  724TMC3    H210707   3.460   1.360   9.981  0.9718 -0.0452 -0.9074
  724TMC3    C710708   3.488   1.186  10.160 -0.5311 -0.8029 -0.6104
  724TMC3    C810709   3.321   1.368   9.760  0.8378  0.0532 -0.3963
  724TMC3    O110710   3.578   1.269  10.142 -0.0886  0.0562  0.1747
  724TMC3    O210711   3.299   1.337   9.645  0.1939  0.2143  0.0597
  725TMC3    C110712   0.130   0.229  12.658  0.1904  0.1080  0.0230
  725TMC3    C210713   0.006   0.292  12.639  0.3965  0.1518  0.5476
  725TMC3    C310714   4.621   0.251  12.705 -0.7286  0.6898  0.0401
  725TMC3    C410715   0.142   0.131  12.755  0.0219 -0.2598 -0.0848
  725TMC3    C510716   0.029   0.082  12.803 -0.4576 -0.0303 -0.0267
  725TMC3    C610717   4.632   0.140  12.784  0.0806 -0.4230  0.0427
  725TMC3     C10718   0.241   0.318  12.661 -0.9747  1.2430 -0.1676
  725TMC3     O10719   0.211   0.428  12.710 -0.1588 -0.0306 -0.3765
  725TMC3     H10720   0.007   0.375  12.568 -0.4377 -1.6374 -1.5474
  725TMC3    H110721   0.238   0.099  12.795  0.0844 -0.5054 -0.4264
  725TMC3    H210722   4.544   0.110  12.840 -0.6205  1.2189 -0.1847
  725TMC3    C710723   0.040   0.008  12.928 -0.9270 -0.4745  0.0956
  725TMC3    C810724   4.492   0.270  12.640  1.0914  0.0705 -0.6968
  725TMC3    O110725   0.001   0.048  13.037  0.4644 -0.5370  0.2722
  725TMC3    O210726   4.391   0.247  12.704  0.3455  0.1078  0.2685
  726MPD2     C10727   2.657   1.210  10.509 -0.2313  0.0371  0.6382
  726MPD2    C110728   2.548   1.286  10.543 -0.0775 -0.4065 -0.1631
  726MPD2    C210729   2.435   1.218  10.575 -0.0957  0.1303  0.0167
  726MPD2    C310730   2.441   1.085  10.610  0.3628 -0.3407 -0.8404
  726MPD2    C410731   2.553   1.011  10.590 -0.6012 -0.6966  0.2204
  726MPD2    C510732   2.663   1.078  10.535  0.6064 -0.5589  0.9183
  726MPD2     H10733   2.347   1.282  10.584 -1.3236 -1.4611 -0.7117
  726MPD2    H110734   2.556   0.905  10.612  0.7935 -0.9551 -1.1544
  726MPD2    H210735   2.749   1.250  10.466 -0.8816  0.4312 -0.3811
  726MPD2    H310736   2.743   1.019  10.492 -0.7836 -1.2212 -0.7553
  726MPD2     N10737   2.338   1.021  10.680  0.3136 -0.3356  0.2859
  726MPD2    H510738   2.359   0.926  10.708 -2.0351 -0.6640  0.8946
  726MPD2    N110739   2.539   1.423  10.512 -0.5419 -0.2716  0.1332
  726MPD2    H710740   2.447   1.465  10.523  0.0698  1.3825 -1.2321
  727TMC3    C110741   2.586   1.639  10.467 -0.8450  0.5145  0.6519
  727TMC3    C210742   2.659   1.737  10.524 -0.5536 -0.9946 -0.1804
  727TMC3    C310743   2.606   1.862  10.524  0.2593  0.2304 -0.3041
  727TMC3    C410744   2.461   1.647  10.406 -0.3334 -0.0593  0.5136
  727TMC3    C510745   2.416   1.781  10.406 -0.4782 -0.1346  0.0367
  727TMC3    C610746   2.483   1.889  10.467 -0.0647  1.0669  0.3203
  727TMC3     C10747   2.637   1.508  10.480  0.0035  0.0797  0.1840
  727TMC3     O10748   2.754   1.482  10.473  0.6073 -0.2589  0.2316
  727TMC3     H10749   2.754   1.722  10.574 -1.0594 -1.3022  0.6873
  727TMC3    H110750   2.412   1.570  10.348 -1.0877  0.2226  0.7877
  727TMC3    H210751   2.444   1.989  10.480 -2.1346  0.3218 -0.0271
  727TMC3    C710752   2.314   1.827  10.315 -0.1365  0.5647  0.5767
  727TMC3    C810753   2.685   1.970  10.589  0.6382 -0.2430  0.3533
  727TMC3    O110754   2.284   1.948  10.325 -0.1037 -0.7154  0.2177
  727TMC3    O210755   2.770   1.940  10.672 -0.2180 -0.2886 -0.0093
  728TMC3    C110756   1.963   0.663  15.604  0.4472 -0.0676 -0.0543
  728TMC3    C210757   2.080   0.731  15.606  0.1063  0.2503 -0.7187
  728TMC3    C310758   2.134   0.767  15.486 -0.2017  0.4844 -0.1534
  728TMC3    C410759   1.899   0.633  15.490  0.1653  0.1526  0.0202
  728TMC3    C510760   1.943   0.683  15.370 -0.5323 -0.0388 -0.1510
  728TMC3    C610761   2.071   0.736  15.370 -0.6189 -0.2836  0.2180
  728TMC3     C10762   1.919   0.602  15.724  0.0083 -0.6048  0.9703
  728TMC3     O10763   1.993   0.626  15.821 -0.0114 -0.4125 -0.3906
  728TMC3     H10764   2.142   0.741  15.695  1.7681  0.1427 -1.8621
  728TMC3    H110765   1.798   0.593  15.486 -0.0141  0.5346  0.6344
  728TMC3    H210766   2.105   0.781  15.278 -0.1526  1.0025  1.0101
  728TMC3    C710767   1.872   0.633  15.252  0.1657  0.5905  0.3037
  728TMC3    C810768   2.270   0.814  15.482 -0.3258  0.1161 -0.1191
  728TMC3    O110769   1.804   0.535  15.260  0.4236  0.5744  0.6509
  728TMC3    O210770   2.320   0.851  15.586 -0.4268  0.4687  0.0632
  729MPD2     C10771   4.076   1.647  16.380 -0.5422  0.2773  0.5752
  729MPD2    C110772   4.192   1.601  16.433  0.4780 -0.8094 -0.4372
  729MPD2    C210773   4.194   1.572  16.572  0.3061 -0.1831  0.1530
  729MPD2    C310774   4.083   1.603  16.660  0.3587 -0.7327  0.3093
  729MPD2    C410775   3.973   1.656  16.603  0.4054 -0.0870  0.1354
  729MPD2    C510776   3.973   1.666  16.463  0.3162  0.1911 -0.0933
  729MPD2     H10777   4.287   1.534  16.612  1.2250  0.7058 -1.1049
  729MPD2    H110778   3.889   1.686  16.664  0.4291 -0.7857  0.5149
  729MPD2    H210779   4.074   1.677  16.276 -0.5671  1.9387  1.0562
  729MPD2    H310780   3.887   1.719  16.425 -0.0322  0.5771  1.2393
  729MPD2     N10781   4.085   1.582  16.799 -0.0956  0.2160  0.4436
  729MPD2    H510782   4.027   1.651  16.847  1.7469  1.2065  1.2518
  729MPD2    N110783   4.301   1.582  16.343  0.7674 -0.0365  0.7458
  729MPD2    H710784   4.289   1.619  16.249 -1.0637 -0.4853  0.8118
  730TMC3    C110785   4.220   1.546  16.996  0.9973  0.2626 -0.7255
  730TMC3    C210786   4.322   1.476  17.056  0.2763  0.2015  0.5880
  730TMC3    C310787   4.403   1.537  17.146  0.0101  0.5601 -0.2020
  730TMC3    C410788   4.183   1.671  17.037  0.3767  0.1278 -0.4313
  730TMC3    C510789   4.263   1.726  17.131 -0.0301 -0.2535 -0.1218
  730TMC3    C610790   4.371   1.664  17.185 -0.0233  0.7232 -0.4486
  730TMC3     C10791   4.176   1.507  16.863 -0.2879 -0.1830 -0.2868
  730TMC3     O10792   4.232   1.409  16.819  0.1910 -0.0019 -0.4806
  730TMC3     H10793   4.364   1.387  17.009 -0.7621  0.7463 -1.3829
  730TMC3    H110794   4.102   1.729  16.994  0.2625  0.3533  0.0787
  730TMC3    H210795   4.428   1.716  17.262  0.6681  0.3813 -0.7233
  730TMC3    C710796   4.281   1.868  17.103 -0.6075  0.1215  0.4699
  730TMC3    C810797   4.543   1.526  17.098 -0.8876  0.5039  0.8404
  730TMC3    O110798   4.235   1.909  16.998 -0.1262 -0.1638  0.8350
  730TMC3    O210799   4.556   1.494  16.983 -0.0510  0.4988  0.6510
  731MPD2     C10800   3.922   3.892  12.463 -0.2881  0.1870  0.0737
  731MPD2    C110801   4.057   3.901  12.495 -0.1489 -0.3629 -0.1030
  731MPD2    C210802   4.096   3.847  12.624 -0.0747  0.6269  0.1776
  731MPD2    C310803   4.004   3.815  12.722 -0.5492  0.2387  0.4296
  731MPD2    C410804   3.867   3.809  12.684  0.3307 -0.1095  0.3039
  731MPD2    C510805   3.833   3.844  12.556  0.8013  0.0383 -0.0014
  731MPD2     H10806   4.198   3.865  12.657  0.0949  2.8220 -1.4513
  731MPD2    H110807   3.793   3.757  12.744 -0.4774 -1.1587 -1.6048
  731MPD2    H210808   3.879   3.906  12.364 -3.4113  1.4583  1.6060
  731MPD2    H310809   3.736   3.812  12.521  0.2584  1.5697  0.0850
  731MPD2     N10810   4.048   3.798  12.856  0.1016  0.6438  0.1438
  731MPD2    H510811   4.148   3.794  12.874  0.2596 -0.7782 -1.1012
  731MPD2    N110812   4.137   3.962  12.395  0.2281  0.1275 -0.4957
  731MPD2    H710813   4.083   3.994  12.315  1.1872  0.5520 -0.9674
  732TMC3    C110814   4.344   4.021  12.279 -0.4096 -0.3292  0.5622
  732TMC3    C210815   4.271   4.060  12.167 -0.2614  0.1567  0.2944
  732TMC3    C310816   4.331   4.077  12.044 -0.5832  0.0041  0.2603
  732TMC3    C410817   4.483   4.014  12.268 -0.1780  0.0200  0.0535
  732TMC3    C510818   4.538   4.031  12.145  0.4868  0.1833  0.2361
  732TMC3    C610819   4.469   4.065  12.036  0.5125 -0.0278  0.5707
  732TMC3     C10820   4.275   3.964  12.397 -0.5002  0.6817  0.2435
  732TMC3     O10821   4.349   3.923  12.482 -0.4455  0.8731  0.2125
  732TMC3     H10822   4.167   4.091  12.175 -0.9207 -1.8584 -0.4161
  732TMC3    H110823   4.535   3.973  12.354  0.6148 -0.2094 -0.5394
  732TMC3    H210824   4.526   4.074  11.944  0.4245 -0.9065  0.4225
  732TMC3    C710825   4.683   4.006  12.127  0.4741  0.2855 -0.3192
  732TMC3    C810826   4.264   4.132  11.929 -0.8970  0.4512 -0.6376
  732TMC3    O110827   4.717   3.950  12.021  0.5655  0.3502 -0.4734
  732TMC3    O210828   4.337   4.169  11.835  0.5636 -0.3599  0.3476
  733TMC3    C110829   0.109   3.060  12.756 -0.4209  0.0052 -0.0836
  733TMC3    C210830   0.116   3.108  12.630  0.1868 -0.5400  0.1485
  733TMC3    C310831   0.208   3.213  12.596 -0.2761 -0.2960  0.4669
  733TMC3    C410832   0.200   3.097  12.850 -0.4545 -0.0691  0.3697
  733TMC3    C510833   0.283   3.198  12.814 -0.5260 -0.6050  0.7767
  733TMC3    C610834   0.291   3.259  12.691  0.0547  1.0353 -0.2874
  733TMC3     C10835   4.695   3.056  12.800 -0.2870 -0.3116  0.6032
  733TMC3     O10836   4.619   3.123  12.733  0.6506  0.3957 -0.0901
  733TMC3     H10837   0.043   3.087  12.553  0.5359 -0.8112 -0.1141
  733TMC3    H110838   0.209   3.059  12.951  0.6004  0.2744  0.4030
  733TMC3    H210839   0.353   3.342  12.658 -1.6644  2.1264 -0.7731
  733TMC3    C710840   0.389   3.232  12.906  0.1363 -0.0391 -0.7147
  733TMC3    C810841   0.241   3.228  12.462 -0.5040  0.4953 -0.4837
  733TMC3    O110842   0.370   3.215  13.024  0.2666  0.2984 -0.1250
  733TMC3    O210843   0.153   3.216  12.381  0.4102  0.3144 -0.1548
  734MPD2     C10844   3.100   4.445  12.870  0.3125  0.2856  0.1295
  734MPD2    C110845   3.041   4.403  12.756 -0.1052 -0.7067 -0.5544
  734MPD2    C210846   3.028   4.491  12.652 -0.3284 -0.3521 -0.0630
  734MPD2    C310847   3.069   4.622  12.661  0.4923  0.2484  0.6868
  734MPD2    C410848   3.120   4.669  12.783 -0.5457  0.3880 -0.4782
  734MPD2    C510849   3.145   4.576  12.878 -0.7006 -0.3986 -0.2595
  734MPD2     H10850   2.992   4.469  12.552  0.4006  0.1412 -0.4341
  734MPD2    H110851   3.141   0.053  12.786 -0.2798  0.2511  2.5209
  734MPD2    H210852   3.117   4.379  12.955 -1.4022  0.0657  0.3099
  734MPD2    H310853   3.201   4.610  12.964 -0.6947 -0.0369 -0.4079
  734MPD2     N10854   3.004   4.702  12.564  0.6143  0.0965 -0.0578
  734MPD2    H510855   2.955   4.656  12.488  2.3041 -0.6490 -0.7036
  734MPD2    N110856   3.008   4.261  12.740  0.9049 -0.3961 -0.2007
  734MPD2    H710857   3.010   4.202  12.822 -0.8822 -2.5864 -1.7164
  735TMC3    C110858   2.914   4.068  12.648 -0.1937 -0.1523  0.1625
  735TMC3    C210859   2.780   4.063  12.682  0.1413  0.9215  0.1829
  735TMC3    C310860   2.695   3.990  12.602 -0.0654  0.1405  0.2168
  735TMC3    C410861   2.963   4.009  12.532 -1.2889  0.0468 -0.7709
  735TMC3    C510862   2.881   3.941  12.450 -0.4131  0.6017 -0.3356
  735TMC3    C610863   2.741   3.932  12.486  0.5425 -0.7836 -0.6348
  735TMC3     C10864   2.958   4.202  12.629 -0.2603  0.4751  0.1719
  735TMC3     O10865   2.925   4.250  12.524 -0.2755  0.9366 -0.4411
  735TMC3     H10866   2.751   4.123  12.768 -1.2966  1.6386 -0.8069
  735TMC3    H110867   3.067   4.024  12.507 -1.6668  2.3388 -0.9855
  735TMC3    H210868   2.678   3.881  12.415 -0.5289 -0.4441  0.0746
  735TMC3    C710869   2.933   3.900  12.318  0.4068  0.0155  0.1153
  735TMC3    C810870   2.585   4.075  12.569 -0.1045  0.6380 -0.0669
  735TMC3    O110871   2.984   3.985  12.246 -0.6130 -0.2566 -0.0445
  735TMC3    O210872   2.479   4.017  12.560 -0.4789  0.8321  0.2826
  736MPD2     C10873   2.916   3.561  12.188  0.2493 -0.4740 -0.1569
  736MPD2    C110874   2.928   3.703  12.180  0.1322  0.0513 -0.0204
  736MPD2    C210875   2.969   3.762  12.056 -0.1922  0.2097  0.4353
  736MPD2    C310876   2.995   3.676  11.950  0.2574  0.7407 -1.1279
  736MPD2    C410877   2.991   3.540  11.969  0.0155 -0.1786  0.4304
  736MPD2    C510878   2.947   3.480  12.084  0.2896  0.3559 -0.2417
  736MPD2     H10879   2.976   3.870  12.053  0.8556  0.1815  1.9354
  736MPD2    H110880   3.015   3.470  11.890  5.4273  2.2139 -0.0419
  736MPD2    H210881   2.897   3.515  12.284 -2.2241  0.5226 -0.1674
  736MPD2    H310882   2.957   3.373  12.088 -1.2643  0.2640  1.1974
  736MPD2     N10883   3.028   3.718  11.817  0.2711 -0.5078  0.3315
  736MPD2    H510884   3.052   3.642  11.755  1.6226 -1.1923  1.6884
  736MPD2    N110885   2.899   3.772  12.298  0.5129 -0.0147 -0.1791
  736MPD2    H710886   2.853   3.717  12.370  1.9925  2.0270  2.3185
  737TMC3    C110887   3.099   3.859  11.639  0.0517 -0.4624  0.6142
  737TMC3    C210888   3.081   3.975  11.570 -0.3602 -0.0686  0.3301
  737TMC3    C310889   3.154   3.989  11.458  0.1562  0.2876 -0.0112
  737TMC3    C410890   3.186   3.760  11.610  0.9520 -0.8043  0.8027
  737TMC3    C510891   3.270   3.791  11.512  0.5201  0.0785  0.7629
  737TMC3    C610892   3.266   3.912  11.439  0.9528 -0.1937 -0.3929
  737TMC3     C10893   3.023   3.847  11.762 -0.2737  0.3585  0.5414
  737TMC3     O10894   2.972   3.951  11.807 -0.4437  0.7137  0.0228
  737TMC3     H10895   3.003   4.044  11.599 -0.9718 -1.2806  1.5484
  737TMC3    H110896   3.208   3.682  11.682  0.8405 -0.2233  1.4652
  737TMC3    H210897   3.340   3.940  11.365 -1.0353 -2.0606 -3.0983
  737TMC3    C710898   3.371   3.682  11.471 -0.6425 -0.3402  0.5252
  737TMC3    C810899   3.103   4.053  11.336 -0.4731 -0.2874  0.1806
  737TMC3    O110900   3.372   3.572  11.526  0.4390  0.2415 -0.0676
  737TMC3    O210901   3.130   3.999  11.237 -0.4764 -0.2546 -0.1247
  738MPD2     C10902   3.010   3.682  14.954  0.3196 -0.3839 -0.6840
  738MPD2    C110903   3.120   3.703  15.039 -0.0217 -0.4321  0.3506
  738MPD2    C210904   3.213   3.799  15.006  0.7266 -0.2994  0.4727
  738MPD2    C310905   3.197   3.874  14.893  0.2153 -0.6506 -0.3239
  738MPD2    C410906   3.090   3.856  14.816 -0.2430  0.0998 -0.4855
  738MPD2    C510907   2.995   3.761  14.843 -1.2085  0.0104  0.0301
  738MPD2     H10908   3.310   3.795  15.052  0.9240  3.1889  0.3163
  738MPD2    H110909   3.072   3.916  14.727  0.1286  1.3397  0.2742
  738MPD2    H210910   2.942   3.602  14.983  0.9973 -0.4242  0.8248
  738MPD2    H310911   2.922   3.732  14.768  0.6485  0.0688 -1.8203
  738MPD2     N10912   3.288   3.972  14.853  0.1579  0.0774 -0.2434
  738MPD2    H510913   3.263   4.015  14.764 -0.6413 -2.9196 -1.4681
  738MPD2    N110914   3.130   3.624  15.154  0.4502  0.0406 -0.2983
  738MPD2    H710915   3.075   3.539  15.152  1.6595 -0.7141 -1.7802
  739TMC3    C110916   3.501   4.069  14.817  0.5285 -1.0130  0.3750
  739TMC3    C210917   3.479   4.040  14.681 -0.1547  0.1637 -0.3185
  739TMC3    C310918   3.525   4.120  14.585 -0.1178 -0.3688 -0.7639
  739TMC3    C410919   3.564   4.182  14.861  0.4760  0.5613 -0.1445
  739TMC3    C510920   3.606   4.259  14.757 -0.2072  0.1734 -0.4039
  739TMC3    C610921   3.586   4.234  14.626  0.0961  0.2402 -0.1854
  739TMC3     C10922   3.408   3.999  14.912  0.0695 -0.6433 -0.1606
  739TMC3     O10923   3.451   3.979  15.024  0.0203  0.0657  0.2159
  739TMC3     H10924   3.419   3.956  14.649  1.3992 -1.1322  0.1691
  739TMC3    H110925   3.578   4.205  14.966 -1.4220  1.6732 -0.1288
  739TMC3    H210926   3.626   4.301  14.551  3.3064 -1.1715  0.2726
  739TMC3    C710927   3.677   4.371  14.805  0.4390 -0.0528  0.0266
  739TMC3    C810928   3.510   4.083  14.446  0.4964  0.2599 -0.1253
  739TMC3    O110929   3.717   4.373  14.921 -0.0493 -1.3308 -0.0140
  739TMC3    O210930   3.450   3.983  14.414 -0.1932  0.2578 -0.1252
  740TMC3    C110931   3.924   0.183  14.069 -0.1353 -0.2043  0.1749
  740TMC3    C210932   3.929   0.084  14.166  0.3471  0.2392 -0.3125
  740TMC3    C310933   4.051   0.022  14.193 -0.1815 -0.4152  0.0716
  740TMC3    C410934   4.042   0.225  14.008 -0.1328 -0.2340  0.0665
  740TMC3    C510935   4.159   0.163  14.043  0.0419  0.1837  0.3090
  740TMC3    C610936   4.167   0.060  14.130  0.9539 -0.2865 -0.3063
  740TMC3     C10937   3.807   0.277  14.062 -0.0285 -0.4101 -0.3092
  740TMC3     O10938   3.807   0.373  13.979 -0.4327 -0.7377  0.0649
  740TMC3     H10939   3.840   0.051  14.219 -1.0865 -0.8394 -3.4030
  740TMC3    H110940   4.046   0.304  13.934 -1.0140 -0.1234  0.1318
  740TMC3    H210941   4.264   0.014  14.147  0.9524 -0.5930 -1.1713
  740TMC3    C710942   4.278   0.193  13.968 -0.8174 -0.1636 -1.0018
  740TMC3    C810943   4.051   4.652  14.306  0.1182 -0.0610  0.6843
  740TMC3    O110944   4.383   0.148  14.014 -0.2983 -0.4961  0.3363
  740TMC3    O210945   3.955   4.664  14.381 -0.2808 -0.8823  0.0279
  741TMC3    C110946   3.601   4.702  13.735 -0.1565  0.0383 -0.0657
  741TMC3    C210947   3.495   4.620  13.772 -0.4971  0.5400  0.0091
  741TMC3    C310948   3.531   4.523  13.867 -0.0310 -0.2853 -0.2588
  741TMC3    C410949   3.727   4.686  13.789  0.1696  0.3272  0.1305
  741TMC3    C510950   3.758   4.583  13.872  0.5955 -0.4109  0.2720
  741TMC3    C610951   3.655   4.506  13.925 -1.0254 -0.3974  0.3445
  741TMC3     C10952   3.584   0.087  13.640 -0.7964 -0.1187  0.1678
  741TMC3     O10953   3.681   0.110  13.576 -0.4155  0.0765 -0.3541
  741TMC3     H10954   3.401   4.611  13.719  0.2024 -2.8264 -0.6960
  741TMC3    H110955   3.807   0.033  13.767  0.5044  0.5046  1.9393
  741TMC3    H210956   3.680   4.415  13.977 -0.4661 -0.2852  0.2723
  741TMC3    C710957   3.894   4.550  13.923  0.4055 -0.3255 -0.3631
  741TMC3    C810958   3.429   4.436  13.906 -0.1816  0.2324  0.2598
  741TMC3    O110959   3.896   4.481  14.024  0.8174  0.2425 -0.3657
  741TMC3    O210960   3.339   4.412  13.822 -0.0958 -0.1087  0.0547
  742TMC3    C110961   3.386   2.874  15.310 -1.1471 -0.1757  0.1321
  742TMC3    C210962   3.304   2.860  15.200  0.6798  0.1777  0.3802
  742TMC3    C310963   3.357   2.825  15.081 -0.5413  0.6529 -0.3792
  742TMC3    C410964   3.519   2.845  15.304 -0.5652 -0.6039 -0.7302
  742TMC3    C510965   3.564   2.798  15.186 -0.0534  0.1592  0.1175
  742TMC3    C610966   3.484   2.784  15.072  0.5263 -0.4193 -0.1599
  742TMC3     C10967   3.320   2.917  15.432 -0.0308  0.1806 -0.6942
  742TMC3     O10968   3.200   2.891  15.439  0.0242 -0.4713 -0.3391
  742TMC3     H10969   3.201   2.891  15.204  0.1953 -1.6199  1.9577
  742TMC3    H110970   3.594   2.839  15.382 -1.0899 -1.3079 -0.2868
  742TMC3    H210971   3.530   2.756  14.978 -0.3062  0.1265 -0.7351
  742TMC3    C710972   3.708   2.782  15.164  0.3542  0.0808 -0.0787
  742TMC3    C810973   3.279   2.820  14.957  0.1318 -0.6025  0.1088
  742TMC3    O110974   3.748   2.708  15.076 -0.9079  0.3490  0.1866
  742TMC3    O210975   3.308   2.749  14.860 -0.5644  0.2139  0.5014
  743MPD2     C10976   1.724   4.415   2.321 -0.3804 -0.0712  0.6395
  743MPD2    C110977   1.714   4.323   2.216  0.2690 -0.1421 -0.4128
  743MPD2    C210978   1.831   4.247   2.204 -0.2553  0.5954  0.0511
  743MPD2    C310979   1.943   4.247   2.291  0.1709  0.0886  0.3128
  743MPD2    C410980   1.939   4.329   2.402 -0.5520 -0.6437  0.9192
  743MPD2    C510981   1.832   4.421   2.402 -0.0878 -0.0906 -0.0662
  743MPD2     H10982   1.827   4.177   2.122  1.6174  0.9967 -0.3641
  743MPD2    H110983   2.017   4.338   2.477  1.2059 -0.9934 -0.8524
  743MPD2    H210984   1.658   4.501   2.335  0.1960  0.5370 -0.3896
  743MPD2    H310985   1.828   4.497   2.479 -1.9135  0.2558 -0.5188
  743MPD2     N10986   2.064   4.173   2.265 -0.4926  0.0661  0.5795
  743MPD2    H510987   2.066   4.141   2.169  0.9764 -1.0612  0.9862
  743MPD2    N110988   1.601   4.330   2.134  0.4615  0.3363  0.2425
  743MPD2    H710989   1.539   4.406   2.161  0.3688  0.1143  0.6508
  744TMC3    C110990   1.461   4.301   1.943  0.0222  0.0708  0.2982
  744TMC3    C210991   1.354   4.355   2.011  0.3122 -0.2734  0.5185
  744TMC3    C310992   1.247   4.386   1.937  0.3294  0.6126 -0.7345
  744TMC3    C410993   1.450   4.281   1.807 -0.3180 -0.0133  0.6183
  744TMC3    C510994   1.340   4.313   1.739 -0.2453 -0.4970 -0.4685
  744TMC3    C610995   1.232   4.369   1.801 -0.4291 -0.1571 -0.4010
  744TMC3     C10996   1.589   4.270   2.007  0.6497  0.2191  0.4412
  744TMC3     O10997   1.663   4.197   1.947 -0.4810 -0.0195  0.0582
  744TMC3     H10998   1.365   4.364   2.119  2.7396 -0.5616  0.3073
  744TMC3    H110999   1.541   4.255   1.755  1.0932  0.5336  2.8315
  744TMC3    H211000   1.145   4.400   1.744 -0.8036 -1.0193 -0.2957
  744TMC3    C711001   1.343   4.278   1.600 -0.3348  0.3562  0.5709
  744TMC3    C811002   1.136   4.465   1.986  0.3662  0.4501 -0.7534
  744TMC3    O111003   1.456   4.247   1.552  0.5215  0.2300 -0.0190
  744TMC3    O211004   1.032   4.462   1.924 -0.0146 -0.1734 -0.3091
  745TMC3    C111005   3.869   2.338  13.005  0.1075 -0.5106 -0.1234
  745TMC3    C211006   3.791   2.323  13.121  0.1334  0.7997  0.0267
  745TMC3    C311007   3.671   2.261  13.110 -0.4369 -0.4853 -0.3586
  745TMC3    C411008   3.835   2.280  12.884  0.0547  0.4634 -0.0168
  745TMC3    C511009   3.712   2.218  12.876 -0.4650 -0.2501 -0.2632
  745TMC3    C611010   3.633   2.208  12.994 -0.5742  0.0841 -0.2704
  745TMC3     C11011   3.926   2.466  12.996  0.4144  0.2531 -0.6741
  745TMC3     O11012   3.909   2.510  12.881 -0.2923 -0.6184 -0.4641
  745TMC3     H11013   3.824   2.362  13.216  1.1986  2.4897 -1.0310
  745TMC3    H111014   3.895   2.292  12.795 -1.3190 -1.7585 -1.2541
  745TMC3    H211015   3.531   2.173  12.986 -0.6924  0.1164  1.0808
  745TMC3    C711016   3.630   2.272  12.771 -0.0307  0.2022 -0.2267
  745TMC3    C811017   3.582   2.250  13.226 -0.5288 -0.5937 -0.1754
  745TMC3    O111018   3.534   2.204  12.743 -0.1861  0.1786 -0.1297
  745TMC3    O211019   3.499   2.164  13.214  0.4393 -0.3093  0.2378
  746TMC3    C111020   1.117   4.153  11.049 -0.2296 -0.2633 -0.1736
  746TMC3    C211021   1.181   4.150  10.927 -0.4527  0.1070  0.3238
  746TMC3    C311022   1.136   4.058  10.838 -0.7598 -0.3216  0.2895
  746TMC3    C411023   1.006   4.084  11.069 -0.0301 -0.6209 -0.6078
  746TMC3    C511024   0.962   3.998  10.972 -0.1657  0.1278  0.9804
  746TMC3    C611025   1.022   3.984  10.854 -0.8090 -0.0166  1.1812
  746TMC3     C11026   1.159   4.255  11.142 -0.0103 -0.2496  0.6339
  746TMC3     O11027   1.071   4.303  11.214 -0.2622  0.3067  0.1150
  746TMC3     H11028   1.267   4.212  10.908  1.0936 -2.7241 -1.9986
  746TMC3    H111029   0.958   4.116  11.161 -0.6799  1.8701 -1.8373
  746TMC3    H211030   0.973   3.927  10.776  0.6971 -0.3720  0.4982
  746TMC3    C711031   0.866   3.892  11.002  0.1389 -0.3601  0.0271
  746TMC3    C811032   1.231   4.005  10.744 -0.8352 -0.2910  0.7154
  746TMC3    O111033   0.870   3.796  10.927  0.1623  0.0712 -0.6255
  746TMC3    O211034   1.339   4.066  10.741  0.3975 -1.2137 -0.5197
  747TMC3    C111035   4.015   3.922  10.690 -0.0458  0.6477  0.1923
  747TMC3    C211036   3.980   3.818  10.777 -1.0471  0.0824  0.1446
  747TMC3    C311037   3.947   3.854  10.903 -0.3300 -0.0054  0.0243
  747TMC3    C411038   4.006   4.057  10.728  0.2673  0.0045 -0.0287
  747TMC3    C511039   3.961   4.086  10.850  0.0549  0.3914 -0.0959
  747TMC3    C611040   3.926   3.989  10.943 -0.0051 -0.1540 -0.0447
  747TMC3     C11041   4.047   3.901  10.546  0.5332  0.1318  0.4199
  747TMC3     O11042   4.088   3.997  10.478  0.2987  0.0555  0.6784
  747TMC3     H11043   3.982   3.718  10.734 -0.0309  0.3648 -0.4657
  747TMC3    H111044   4.033   4.135  10.658  1.5832 -0.8926 -0.5248
  747TMC3    H211045   3.902   4.012  11.046  1.3716  1.5875 -0.1101
  747TMC3    C711046   3.907   4.212  10.877  0.1255 -0.5169  0.1406
  747TMC3    C811047   3.899   3.739  10.977  0.2728  0.1005  0.7881
  747TMC3    O111048   3.930   4.251  10.992  0.2733  0.1466  0.3676
  747TMC3    O211049   3.940   3.632  10.939 -0.0029  0.6440  0.6298
  748MPD2     C11050   4.707   1.277   2.269 -0.1975 -0.5767 -0.0078
  748MPD2    C111051   4.661   1.216   2.152  0.1083 -0.5930 -0.1884
  748MPD2    C211052   0.033   1.152   2.072 -0.3231 -0.4115  0.6432
  748MPD2    C311053   0.161   1.123   2.115 -0.0639  0.0838  0.0349
  748MPD2    C411054   0.207   1.188   2.232  0.1898  0.4446 -0.1901
  748MPD2    C511055   0.120   1.266   2.305  0.4732 -0.0150  0.4055
  748MPD2     H11056   0.008   1.099   1.982 -0.4583  0.1666  0.3390
  748MPD2    H111057   0.312   1.191   2.259 -0.0867 -0.2737  0.9557
  748MPD2    H211058   4.629   1.328   2.324 -0.0946 -2.4681  1.8916
  748MPD2    H311059   0.157   1.314   2.395  2.8594  0.1378 -0.6709
  748MPD2     N11060   0.250   1.048   2.034  0.6421 -0.3439 -0.0598
  748MPD2    H511061   0.233   1.051   1.934  0.3132  1.0872  0.0461
  748MPD2    N111062   4.517   1.193   2.138  0.3214  0.3923 -0.0195
  748MPD2    H711063   4.471   1.237   2.217 -0.4985  2.7593 -1.8014
  749TMC3    C111064   0.412   0.882   1.993  0.1362  0.5388 -0.3500
  749TMC3    C211065   0.483   0.784   2.055 -0.4180 -0.1979 -0.5646
  749TMC3    C311066   0.534   0.687   1.968 -0.3372 -0.1112  0.0692
  749TMC3    C411067   0.397   0.889   1.855 -0.1342 -0.1993  0.5665
  749TMC3    C511068   0.457   0.801   1.774 -0.0093  0.2171 -0.4219
  749TMC3    C611069   0.531   0.696   1.832  0.8484  0.2099 -0.1207
  749TMC3     C11070   0.351   0.970   2.085  0.1915 -0.2369 -0.1137
  749TMC3     O11071   0.393   0.964   2.199 -0.3217  0.1091  0.0064
  749TMC3     H11072   0.480   0.778   2.163 -0.8767 -0.4198 -0.5884
  749TMC3    H111073   0.348   0.974   1.809  1.4900  0.4394  0.0307
  749TMC3    H211074   0.575   0.619   1.770 -0.1226 -0.1862 -0.3149
  749TMC3    C711075   0.447   0.835   1.630 -0.6216 -0.2740 -0.7191
  749TMC3    C811076   0.632   0.604   2.036  0.0592 -0.3080  0.3519
  749TMC3    O111077   0.354   0.904   1.597 -0.5274 -0.3575 -0.3233
  749TMC3    O211078   0.626   0.606   2.157  0.2932  0.0770 -0.1628
  750MPD2     C11079   1.667   0.814  11.385 -0.3338  0.6389  0.4665
  750MPD2    C111080   1.545   0.839  11.328  0.3317  0.0702  0.7854
  750MPD2    C211081   1.476   0.730  11.272 -0.1675  0.9151 -0.3728
  750MPD2    C311082   1.530   0.606  11.262 -0.1489 -0.0297  0.4322
  750MPD2    C411083   1.656   0.580  11.314 -0.2197 -0.5366  0.5389
  750MPD2    C511084   1.721   0.690  11.365  0.9182  0.3856  0.5924
  750MPD2     H11085   1.389   0.755  11.212 -1.0304  0.3638  0.6445
  750MPD2    H111086   1.707   0.486  11.296 -0.6533 -0.4948 -0.9552
  750MPD2    H211087   1.728   0.894  11.426  1.2027 -0.7046  0.8034
  750MPD2    H311088   1.824   0.681  11.397  0.8734  0.8194  0.8550
  750MPD2     N11089   1.460   0.497  11.207 -0.3472 -0.1341  0.1632
  750MPD2    H511090   1.518   0.413  11.209  1.3659  1.0830  1.3507
  750MPD2    N111091   1.500   0.974  11.334 -0.0681  0.3008  0.2302
  750MPD2    H711092   1.566   1.043  11.370 -0.0470  1.3536 -1.8765
  751TMC3    C111093   1.294   0.361  11.104 -0.1688 -0.0936  0.7349
  751TMC3    C211094   1.161   0.332  11.103 -0.0899  0.5461  0.5928
  751TMC3    C311095   1.125   0.203  11.054  0.3541  0.3809 -0.7352
  751TMC3    C411096   1.389   0.266  11.078  0.3901 -0.1564 -0.9372
  751TMC3    C511097   1.354   0.142  11.050 -0.1227 -0.4963 -0.3699
  751TMC3    C611098   1.223   0.111  11.026  0.5187  0.7567  0.4661
  751TMC3     C11099   1.332   0.492  11.153  0.0966 -0.1781 -0.7329
  751TMC3     O11100   1.256   0.587  11.140  0.1731 -0.6316 -0.5091
  751TMC3     H11101   1.089   0.413  11.114  0.6429  1.5147 -1.6880
  751TMC3    H111102   1.492   0.295  11.064  2.3937 -5.6247  2.2289
  751TMC3    H211103   1.202   0.007  11.004 -0.4733  1.5554 -2.4525
  751TMC3    C711104   1.462   0.058  11.008  0.5790  0.3132 -0.0668
  751TMC3    C811105   0.996   0.146  11.094  0.2155  0.6536  0.3514
  751TMC3    O111106   1.572   0.098  11.044  0.0217  0.1307  0.3312
  751TMC3    O211107   0.977   0.029  11.075  0.0184 -0.3775  0.3902
  752TMC3    C111108   0.467   0.903  16.656 -0.5053  0.5286 -0.2155
  752TMC3    C211109   0.501   0.771  16.686 -0.2865  0.6012 -0.3564
  752TMC3    C311110   0.504   0.732  16.820  0.5402 -0.0014 -0.3795
  752TMC3    C411111   0.450   0.991  16.761  0.3651 -0.2133 -0.3876
  752TMC3    C511112   0.452   0.947  16.888  0.1799 -0.1003  0.8150
  752TMC3    C611113   0.483   0.818  16.924 -0.2264 -0.1867  0.3787
  752TMC3     C11114   0.450   0.936  16.518  0.2748  0.2686 -0.1753
  752TMC3     O11115   0.511   0.874  16.436  0.4466  0.1459 -0.0942
  752TMC3     H11116   0.513   0.704  16.601  0.1479  0.6365 -0.3186
  752TMC3    H111117   0.428   1.096  16.744 -0.6978 -0.8253 -2.8107
  752TMC3    H211118   0.502   0.784  17.025 -1.3900  1.7459  1.2534
  752TMC3    C711119   0.421   1.044  16.994 -0.0174  0.3887 -0.9735
  752TMC3    C811120   0.572   0.601  16.831  0.4555  0.6193  0.0743
  752TMC3    O111121   0.382   1.152  16.955  0.1122  0.1317 -0.5317
  752TMC3    O211122   0.601   0.538  16.733  0.2157  0.3066  0.4791
  753TMC3    C111123   2.595   2.751  13.500  0.3794  0.0276 -0.0550
  753TMC3    C211124   2.718   2.766  13.547  0.7200 -0.4507  0.4399
  753TMC3    C311125   2.804   2.664  13.520  0.6070 -1.2321  0.6791
  753TMC3    C411126   2.553   2.640  13.426  0.9728  0.2398  0.5816
  753TMC3    C511127   2.641   2.539  13.396  0.0565  0.0105  0.4504
  753TMC3    C611128   2.769   2.556  13.446  0.8511  0.5465 -0.4178
  753TMC3     C11129   2.495   2.859  13.513 -0.4027 -0.6341 -0.3486
  753TMC3     O11130   2.414   2.865  13.414 -0.2860  0.1843  0.4072
  753TMC3     H11131   2.738   2.864  13.588 -1.3549 -0.5850  1.7761
  753TMC3    H111132   2.453   2.632  13.385  1.8350 -0.9023 -1.3538
  753TMC3    H211133   2.841   2.475  13.455  0.6113  0.2944 -0.7750
  753TMC3    C711134   2.598   2.420  13.326 -0.5221  0.0990  0.4986
  753TMC3    C811135   2.924   2.652  13.601 -0.7858 -0.0075  0.1772
  753TMC3    O111136   2.481   2.387  13.330  0.7396 -0.0472  0.5021
  753TMC3    O211137   3.031   2.614  13.547 -0.4738  0.1269  0.1222
  754MPD2     C11138   1.402   1.081  13.255  0.5785  0.8294  0.3705
  754MPD2    C111139   1.353   0.954  13.265  0.2746 -0.1738  0.2443
  754MPD2    C211140   1.227   0.929  13.208  0.4221 -0.4641  0.1348
  754MPD2    C311141   1.142   1.034  13.185 -0.5931  0.0828  0.0929
  754MPD2    C411142   1.190   1.163  13.202  0.6334 -0.4958 -0.2340
  754MPD2    C511143   1.318   1.188  13.230  0.1988 -0.1568  0.2389
  754MPD2     H11144   1.191   0.833  13.173 -0.7841 -0.4796  1.3908
  754MPD2    H111145   1.121   1.245  13.185  1.2481 -0.2244 -1.4537
  754MPD2    H211146   1.502   1.102  13.291  0.6755  0.6152  0.2223
  754MPD2    H311147   1.359   1.287  13.242  0.7959  0.0457 -3.4854
  754MPD2     N11148   1.010   1.014  13.139  0.8978  0.0126  0.3346
  754MPD2    H511149   0.954   1.098  13.122  2.0603  0.7816  0.2945
  754MPD2    N111150   1.444   0.851  13.323  0.5947 -0.6352  0.3665
  754MPD2    H711151   1.537   0.890  13.336 -1.1040  2.8358  1.9319
  755MPD2     C11152   0.463   1.638  13.002 -0.5914 -0.8670  0.1231
  755MPD2    C111153   0.372   1.532  13.012  0.4059  0.4999 -0.6343
  755MPD2    C211154   0.424   1.405  13.013  0.3709 -0.4043  0.3629
  755MPD2    C311155   0.558   1.374  13.019  0.6301 -0.0611 -0.1102
  755MPD2    C411156   0.644   1.480  13.018 -0.2669 -0.2107  0.1933
  755MPD2    C511157   0.598   1.608  13.010 -0.2685  0.2164 -0.1349
  755MPD2     H11158   0.347   1.330  13.019  0.4176 -0.6514 -2.3859
  755MPD2    H111159   0.751   1.465  13.033 -0.3473 -0.0576  0.9153
  755MPD2    H211160   0.435   1.742  12.997 -1.3862 -1.0165  1.5348
  755MPD2    H311161   0.659   1.697  13.004 -0.1424  0.0200 -1.7914
  755MPD2     N11162   0.613   1.243  13.030  0.1862 -0.7894  0.0713
  755MPD2    H511163   0.714   1.237  13.037  0.1789  0.6474  1.4760
  755MPD2    N111164   0.231   1.556  13.002 -0.9375  0.4692  0.2415
  755MPD2    H711165   0.170   1.475  12.995 -1.1955  0.7208 -0.3693
  756MPD2     C11166   0.775   1.533   9.663  0.2549  0.2313 -0.1177
  756MPD2    C111167   0.749   1.424   9.746  0.0748  0.0426  0.4969
  756MPD2    C211168   0.622   1.373   9.750 -0.2335  1.0332 -0.0482
  756MPD2    C311169   0.514   1.432   9.686  0.0033  0.2643  0.3346
  756MPD2    C411170   0.544   1.534   9.601 -0.1212 -0.3812 -0.3926
  756MPD2    C511171   0.671   1.586   9.601  0.8678  0.0138 -0.9648
  756MPD2     H11172   0.609   1.291   9.819  1.8413 -0.9070 -1.9423
  756MPD2    H111173   0.467   1.591   9.550  1.5705  0.8695 -1.5558
  756MPD2    H211174   0.870   1.572   9.630  0.7587 -0.4523  0.5298
  756MPD2    H311175   0.686   1.673   9.538 -1.3797  1.3635  0.3237
  756MPD2     N11176   0.392   1.373   9.709  0.0658  0.0836  0.2938
  756MPD2    H511177   0.383   1.292   9.769  3.4699 -1.6916 -1.5850
  756MPD2    N111178   0.861   1.354   9.799 -0.1578  0.3989 -0.3011
  756MPD2    H711179   0.834   1.268   9.846  1.4336  0.5191  0.8138
  757MPD2     C11180   0.186   0.560   9.900  0.0207 -0.3919  0.5726
  757MPD2    C111181   0.295   0.635   9.855 -0.2705 -0.0629  0.2214
  757MPD2    C211182   0.281   0.770   9.835  0.0033  0.8402 -0.4767
  757MPD2    C311183   0.158   0.832   9.862  1.0444  0.1561 -0.2567
  757MPD2    C411184   0.052   0.755   9.901  0.2963  0.1027 -0.1796
  757MPD2    C511185   0.066   0.623   9.926  0.7010 -0.0154  0.7741
  757MPD2     H11186   0.369   0.820   9.797  0.5831 -1.2474 -1.9216
  757MPD2    H111187   4.675   0.799   9.909  0.5776  0.5330  1.0137
  757MPD2    H211188   0.198   0.457   9.932 -1.2635 -0.4799  0.7865
  757MPD2    H311189   4.701   0.567   9.957 -1.2052  0.4938 -3.6537
  757MPD2     N11190   0.149   0.976   9.842  1.0592 -0.0139  0.0207
  757MPD2    H511191   0.226   1.025   9.798  1.0929  0.3116  0.4475
  757MPD2    N111192   0.417   0.563   9.825  0.4205 -0.1732  0.0240
  757MPD2    H711193   0.412   0.462   9.833 -2.6076 -0.0639 -0.3147
  758MPD2     C11194   1.185   0.697  16.076 -0.0996 -0.1031 -0.3472
  758MPD2    C111195   1.265   0.666  16.181  0.7118  0.4833 -0.7417
  758MPD2    C211196   1.208   0.637  16.304 -0.2990 -0.7734  0.1476
  758MPD2    C311197   1.072   0.642  16.325 -0.5551  0.0913 -0.2558
  758MPD2    C411198   0.990   0.685  16.228 -0.1030  0.4984  0.3238
  758MPD2    C511199   1.048   0.709  16.108  0.1748 -0.6927  0.1251
  758MPD2     H11200   1.271   0.599  16.383 -0.4601 -0.6696  0.3278
  758MPD2    H111201   0.883   0.702  16.233  0.0434  1.0172  1.6191
  758MPD2    H211202   1.223   0.716  15.976 -1.5064  1.0767 -0.6635
  758MPD2    H311203   0.986   0.729  16.021  0.5933 -0.5504 -0.1388
  758MPD2     N11204   1.008   0.597  16.443  0.1225  0.0571  0.3036
  758MPD2    H511205   0.908   0.606  16.459  0.2119  1.1070  0.2916
  758MPD2    N111206   1.404   0.670  16.162 -0.2900  0.1685 -0.2095
  758MPD2    H711207   1.428   0.710  16.072  0.1843 -0.1402 -0.2187
  759MPD2     C11208   0.842   3.164   9.805  0.7639 -0.3154 -0.6024
  759MPD2    C111209   0.708   3.186   9.800  0.3587  0.0872  0.2367
  759MPD2    C211210   0.661   3.291   9.729  0.2087  0.4787  0.4402
  759MPD2    C311211   0.746   3.389   9.680 -0.0038 -0.1728 -0.4493
  759MPD2    C411212   0.880   3.371   9.682  0.5876  0.0016 -0.4669
  759MPD2    C511213   0.929   3.255   9.739 -0.5414  0.4230 -0.4775
  759MPD2     H11214   0.553   3.295   9.722  0.2447 -0.1576 -0.4489
  759MPD2    H111215   0.950   3.445   9.644 -0.5975  1.9853  1.1777
  759MPD2    H211216   0.890   3.088   9.867  0.2889  1.0183  1.3748
  759MPD2    H311217   1.034   3.236   9.756 -0.2047  1.0510 -1.8727
  759MPD2     N11218   0.684   3.503   9.621  0.0027 -0.0121  0.3140
  759MPD2    H511219   0.583   3.507   9.622 -0.0187  0.4388 -2.5573
  759MPD2    N111220   0.606   3.105   9.854  0.5408 -0.6636 -0.3296
  759MPD2    H711221   0.510   3.137   9.850  0.6001 -0.5421 -0.8128
  760MPD2     C11222   4.472   1.035  11.384  0.3423 -0.4647 -0.2442
  760MPD2    C111223   4.503   1.023  11.515  0.0685  0.2240  0.0770
  760MPD2    C211224   4.500   0.900  11.574  0.1506 -0.2021  0.1990
  760MPD2    C311225   4.458   0.783  11.497  1.0301 -0.7411 -0.4849
  760MPD2    C411226   4.425   0.805  11.366 -0.2544 -0.5936  0.4380
  760MPD2    C511227   4.424   0.931  11.312 -0.2937  0.4597  0.4512
  760MPD2     H11228   4.511   0.895  11.681  0.7017 -1.7288  0.0719
  760MPD2    H111229   4.399   0.723  11.301 -1.5575  1.1123 -1.2011
  760MPD2    H211230   4.471   1.133  11.337  2.0224 -0.6188 -0.6052
  760MPD2    H311231   4.405   0.946  11.206 -0.5729  0.8196  0.5517
  760MPD2     N11232   4.471   0.653  11.543 -0.4236  0.2966  0.0685
  760MPD2    H511233   4.429   0.578  11.489 -0.1441 -0.1480  0.4683
  760MPD2    N111234   4.547   1.141  11.580  0.1143 -0.1014  0.3484
  760MPD2    H711235   4.549   1.222  11.518  1.8495 -0.0475  0.4670
  761MPD2     C11236   0.507   0.178  11.272 -0.4427  0.0536 -0.6156
  761MPD2    C111237   0.572   0.078  11.203  0.7383 -0.5074 -1.1639
  761MPD2    C211238   0.708   0.098  11.181 -0.2182  0.1550  0.4257
  761MPD2    C311239   0.779   0.215  11.196 -0.5566  0.2490  1.5324
  761MPD2    C411240   0.703   0.319  11.256  0.0145 -0.7724  0.9295
  761MPD2    C511241   0.570   0.301  11.295  0.6532  0.2209  0.0879
  761MPD2     H11242   0.762   0.014  11.138 -0.5816 -0.8413  1.9376
  761MPD2    H111243   0.749   0.415  11.279 -1.0668 -0.1759  0.6276
  761MPD2    H211244   0.403   0.170  11.303 -0.5435  2.9987 -0.1776
  761MPD2    H311245   0.509   0.386  11.323  0.0088 -0.2498  0.1274
  761MPD2     N11246   0.910   0.237  11.144  0.3005  0.0034  0.1383
  761MPD2    H511247   0.937   0.335  11.152  0.4504  0.0660 -1.2616
  761MPD2    N111248   0.505   4.681  11.190  0.0466 -0.3313 -0.6120
  761MPD2    H711249   0.412   4.680  11.229  0.8694  0.0478  1.3613
  762MPD2     C11250   0.360   3.803  10.927 -0.4958  0.3398 -0.0662
  762MPD2    C111251   0.442   3.910  10.907 -0.6118 -0.1477 -0.0547
  762MPD2    C211252   0.543   3.890  10.811 -0.1365  0.1980 -0.8430
  762MPD2    C311253   0.555   3.770  10.735  0.8355 -0.4391 -0.5912
  762MPD2    C411254   0.466   3.667  10.761  0.6416  0.1000  0.2326
  762MPD2    C511255   0.371   3.685  10.854 -0.8509 -0.5961 -0.2285
  762MPD2     H11256   0.600   3.979  10.785  0.1561  0.4645  0.7069
  762MPD2    H111257   0.460   3.577  10.701 -0.3082  0.7077 -0.5940
  762MPD2    H211258   0.286   3.814  11.006  0.7410  0.6209  1.0529
  762MPD2    H311259   0.287   3.618  10.870 -0.5994 -0.7891  0.2503
  762MPD2     N11260   0.654   3.756  10.636  0.1209 -0.0093 -0.2001
  762MPD2    H511261   0.716   3.836  10.634  1.5850 -1.1294  0.5689
  762MPD2    N111262   0.419   4.025  10.986 -0.7023  0.0308  0.1657
  762MPD2    H711263   0.359   4.023  11.069 -1.7337 -0.2301 -0.5854
  763MPD2     C11264   2.763   0.828  16.220 -0.2931 -0.0871 -0.3344
  763MPD2    C111265   2.799   0.915  16.119  0.0777 -0.4168  0.3187
  763MPD2    C211266   2.864   1.030  16.148 -0.3782  0.1259  0.0589
  763MPD2    C311267   2.900   1.067  16.273  0.3048 -0.2765  0.1774
  763MPD2    C411268   2.854   0.985  16.376  0.6074 -0.0218 -0.3347
  763MPD2    C511269   2.783   0.871  16.353  0.0515 -0.1181 -0.0615
  763MPD2     H11270   2.882   1.096  16.064 -0.2648  0.7035  0.5398
  763MPD2    H111271   2.903   1.004  16.472 -0.6301  0.1785  0.2574
  763MPD2    H211272   2.702   0.740  16.204 -1.5591  0.6680  0.3706
  763MPD2    H311273   2.779   0.799  16.434 -1.2275  0.2150  0.1557
  763MPD2     N11274   2.945   1.192  16.305  0.2510 -0.2568 -0.2576
  763MPD2    H511275   2.939   1.223  16.402  2.4878 -2.5210  0.5815
  763MPD2    N111276   2.783   0.887  15.981  0.4461 -0.9108 -0.0157
  763MPD2    H711277   2.805   0.959  15.913 -0.7889  0.5646  1.1393
  764MPD2     C11278   0.037   1.451  17.433  0.8077  0.2949  0.0724
  764MPD2    C111279   0.126   1.558  17.460  0.3272  0.9403  0.7720
  764MPD2    C211280   0.124   1.606  17.592 -0.0117  0.6420  0.0362
  764MPD2    C311281   0.059   1.546   0.005 -0.1571 -0.4684  0.1607
  764MPD2    C411282   4.703   1.436  17.673 -0.1739 -0.1794  0.2785
  764MPD2    C511283   4.687   1.395  17.541 -0.1202  1.1076  0.5300
  764MPD2     H11284   0.181   1.696  17.610 -1.2971  1.1705  1.4032
  764MPD2    H111285   4.651   1.386   0.062  0.3256 -1.8251 -0.4310
  764MPD2    H211286   0.018   1.401  17.338  2.4378 -1.9673  0.9444
  764MPD2    H311287   4.615   1.315  17.530  0.7992 -0.0320  2.8254
  764MPD2     N11288   0.068   1.613   0.129 -0.2159  0.3429  0.4935
  764MPD2    H511289   0.111   1.705   0.123 -1.0799  0.5188 -2.7564
  764MPD2    N111290   0.205   1.629  17.368 -0.2983  0.2517  0.1825
  764MPD2    H711291   0.271   1.698  17.404  0.9280 -0.6310 -0.3903
  765MPD2     C11292   0.462   0.216  16.003 -0.3823  0.3033  0.4912
  765MPD2    C111293   0.567   0.308  16.017 -0.4848 -0.2161  0.1667
  765MPD2    C211294   0.697   0.262  16.007 -1.2000  0.2892 -0.3262
  765MPD2    C311295   0.725   0.135  15.964 -0.2343  0.2182  0.0625
  765MPD2    C411296   0.620   0.051  15.931  0.1042  0.8230  0.4942
  765MPD2    C511297   0.490   0.094  15.955  0.1800 -0.2065 -0.7986
  765MPD2     H11298   0.781   0.331  16.014 -0.2827 -0.8755  0.2874
  765MPD2    H111299   0.624   4.674  15.889  1.1959 -0.2881  3.2115
  765MPD2    H211300   0.356   0.236  16.016 -1.0836 -1.2802 -2.6281
  765MPD2    H311301   0.421   0.013  15.937 -0.9384  1.0092 -2.0159
  765MPD2     N11302   0.864   0.097  15.952  0.3813  0.2679 -0.0126
  765MPD2    H511303   0.932   0.162  15.991 -0.8051  0.7064  1.3425
  765MPD2    N111304   0.537   0.441  16.053 -0.8497  0.1658 -0.4745
  765MPD2    H711305   0.440   0.454  16.081  0.1932  0.7433  2.9560
  766MPD2     C11306   0.116   0.743  15.552 -0.4391  0.4044  0.4194
  766MPD2    C111307   0.243   0.702  15.573 -0.5692  0.0634 -0.2328
  766MPD2    C211308   0.315   0.638  15.476 -0.1870 -0.2508  0.0466
  766MPD2    C311309   0.266   0.612  15.352 -0.6717 -0.3412 -0.4812
  766MPD2    C411310   0.143   0.655  15.329 -0.5820  0.4977 -0.2302
  766MPD2    C511311   0.070   0.723  15.424  0.0121 -0.2649 -0.2144
  766MPD2     H11312   0.417   0.614  15.502 -0.2475 -1.4967 -0.8474
  766MPD2    H111313   0.089   0.638  15.236  1.8458 -2.7543 -1.0643
  766MPD2    H211314   0.055   0.788  15.629  0.0612 -1.4464  1.9150
  766MPD2    H311315   4.690   0.751  15.398  1.0159  1.3375 -2.4213
  766MPD2     N11316   0.345   0.564  15.242 -0.6041  0.6135 -0.0704
  766MPD2    H511317   0.297   0.571  15.153  1.5596  0.8827 -1.2179
  766MPD2    N111318   0.300   0.701  15.699 -0.9169  0.0166 -0.5432
  766MPD2    H711319   0.384   0.644  15.704  0.1423  1.6542  0.2225
  767MPD2     C11320   4.721   0.992  15.129  0.3144 -0.7711  0.3821
  767MPD2    C111321   0.107   0.922  15.094 -0.2457 -0.1531  0.1885
  767MPD2    C211322   0.101   0.819  15.009  0.4626  0.3591  0.0988
  767MPD2    C311323   4.704   0.779  14.953 -0.0121  0.4967 -0.2222
  767MPD2    C411324   4.592   0.851  14.986  0.7382  0.4803  0.0323
  767MPD2    C511325   4.603   0.954  15.073  0.1679  0.2496 -0.6725
  767MPD2     H11326   0.191   0.763  14.985  1.9294  2.0341  1.6517
  767MPD2    H111327   4.488   0.833  14.960  0.2536  0.7252  1.7638
  767MPD2    H211328   0.002   1.070  15.205 -1.6697 -0.8432  0.5391
  767MPD2    H311329   4.510   0.995  15.110 -0.4437 -0.4712 -1.4033
  767MPD2     N11330   4.705   0.673  14.867 -0.4936  0.1840 -0.1772
  767MPD2    H511331   0.074   0.628  14.860 -0.5473  0.0634 -0.0925
  767MPD2    N111332   0.238   0.969  15.148 -0.3229  1.0832 -0.4237
  767MPD2    H711333   0.243   1.049  15.211  3.6273 -0.7598  1.6479
  768MPD2     C11334   1.117   3.263  10.793 -0.5294  0.3432  1.0223
  768MPD2    C111335   1.072   3.272  10.922 -0.8226  0.1025 -0.8599
  768MPD2    C211336   1.153   3.322  11.021 -0.2430 -0.9531 -0.1453
  768MPD2    C311337   1.280   3.365  10.986  0.9739  0.1586 -0.6653
  768MPD2    C411338   1.323   3.373  10.854  0.7932  0.3430 -0.3165
  768MPD2    C511339   1.233   3.319  10.761 -0.6503 -0.3557 -0.4710
  768MPD2     H11340   1.117   3.339  11.121 -0.7094 -1.0058 -0.3062
  768MPD2    H111341   1.419   3.416  10.830  0.9040  0.5538  0.4881
  768MPD2    H211342   1.067   3.198  10.722  0.1620  1.7106 -0.7204
  768MPD2    H311343   1.264   3.298  10.659 -0.3828  0.4035 -0.5452
  768MPD2     N11344   1.376   3.392  11.080 -0.1879  0.5498 -0.8434
  768MPD2    H511345   1.467   3.414  11.042  0.3573 -0.6926 -0.2544
  768MPD2    N111346   0.949   3.222  10.964  0.3005  0.1480  0.2718
  768MPD2    H711347   0.929   3.240  11.062  0.7695 -0.1677  0.4262
  769MPD2     C11348   1.864   2.226  14.612  0.0256 -0.1867 -0.1170
  769MPD2    C111349   1.771   2.192  14.706  0.1808  0.0642 -0.0397
  769MPD2    C211350   1.776   2.258  14.832  0.4377 -0.5016 -0.3462
  769MPD2    C311351   1.879   2.348  14.862 -0.4652  0.3870 -0.4607
  769MPD2    C411352   1.982   2.368  14.772 -0.3886 -0.6388  0.7035
  769MPD2    C511353   1.969   2.303  14.652  1.2037 -0.5676 -0.0554
  769MPD2     H11354   1.704   2.229  14.908  0.1171  0.8266 -0.1373
  769MPD2    H111355   2.072   2.428  14.776 -1.1793  0.4947  1.5787
  769MPD2    H211356   1.883   2.174  14.519  0.2582 -1.2605  0.5276
  769MPD2    H311357   2.051   2.313  14.580  1.3421  0.6003  0.2602
  769MPD2     N11358   1.872   2.407  14.988 -0.0720  0.4171 -0.4836
  769MPD2    H511359   1.787   2.385  15.039  0.1324  0.5275 -0.1037
  769MPD2    N111360   1.664   2.109  14.661 -0.1909  0.1516  0.6114
  769MPD2    H711361   1.661   2.085  14.562 -1.4661  0.8693  0.4745
  770MPD2     C11362   1.153   1.465  15.095  0.7287 -0.6290  0.0715
  770MPD2    C111363   1.282   1.509  15.088 -0.4912  0.7440  0.3651
  770MPD2    C211364   1.306   1.619  15.011  0.0255 -0.6019 -0.3111
  770MPD2    C311365   1.205   1.685  14.943  0.1616 -0.1753 -0.7213
  770MPD2    C411366   1.074   1.632  14.948  0.3445 -0.6014  0.7918
  770MPD2    C511367   1.047   1.522  15.029 -0.8115 -0.6998  0.6595
  770MPD2     H11368   1.409   1.643  14.986 -0.1502  2.6001  2.0150
  770MPD2    H111369   0.988   1.680  14.903 -1.6812 -3.6533  1.4116
  770MPD2    H211370   1.124   1.396  15.173 -1.7717 -0.2732 -0.5448
  770MPD2    H311371   0.946   1.491  15.056 -1.4575  0.9359  0.0949
  770MPD2     N11372   1.244   1.786  14.853  0.1898 -0.2928  0.3919
  770MPD2    H511373   1.338   1.822  14.859  0.4008 -0.2202 -3.4609
  770MPD2    N111374   1.375   1.441  15.168 -0.1796 -0.1023  1.0183
  770MPD2    H711375   1.351   1.354  15.216 -0.6622 -0.0614  0.8499
  771MPD2     C11376   3.090   4.702  13.806  0.3981  0.0192  0.2638
  771MPD2    C111377   3.037   0.102  13.769  0.0518 -0.3582  0.5611
  771MPD2    C211378   2.911   0.091  13.703 -0.3026 -0.0882 -0.5818
  771MPD2    C311379   2.851   4.693  13.674  0.4967 -0.3069  0.2664
  771MPD2    C411380   2.917   4.575  13.705 -0.5082  0.2538 -0.1317
  771MPD2    C511381   3.031   4.586  13.778  0.5836 -0.0581  0.1308
  771MPD2     H11382   2.874   0.186  13.668  3.3424  1.7389  0.6047
  771MPD2    H111383   2.879   4.474  13.689  0.0853 -0.2960  2.0137
  771MPD2    H211384   3.183   4.690  13.860  0.2810 -0.0435  0.4526
  771MPD2    H311385   3.082   4.493  13.802  2.1748  0.4743 -1.1129
  771MPD2     N11386   2.732   4.686  13.611  0.1946  0.5664  0.0962
  771MPD2    H511387   2.683   0.053  13.608 -2.7191 -1.0763 -1.0991
  771MPD2    N111388   3.100   0.222  13.808 -0.3325 -0.5845 -0.8296
  771MPD2    H711389   3.054   0.306  13.773 -2.5589 -1.3442  0.3159
  772MPD2     C11390   2.837   0.709  13.650  0.5341 -0.3009 -0.0396
  772MPD2    C111391   2.834   0.658  13.782  0.0736 -1.0328  0.3520
  772MPD2    C211392   2.712   0.626  13.831  0.1984 -0.2798 -0.8779
  772MPD2    C311393   2.591   0.664  13.762  0.3392  0.0875  0.2040
  772MPD2    C411394   2.600   0.713  13.637  0.4063  0.7296 -0.8867
  772MPD2    C511395   2.725   0.732  13.581  0.7757 -0.0799  0.0792
  772MPD2     H11396   2.704   0.581  13.929 -0.8418 -1.4413 -1.4898
  772MPD2    H111397   2.510   0.732  13.579  0.9949  2.4625 -1.2213
  772MPD2    H211398   2.935   0.721  13.606 -0.9216  2.2162 -2.5568
  772MPD2    H311399   2.732   0.764  13.478 -0.8138 -0.2780 -0.0953
  772MPD2     N11400   2.465   0.638  13.813  0.1950 -0.0831  0.6195
  772MPD2    H511401   2.394   0.681  13.755  1.0099  1.3828  0.7058
  772MPD2    N111402   2.947   0.624  13.854  0.5968  0.0258  0.2690
  772MPD2    H711403   2.934   0.571  13.940  0.3431 -0.2961  0.0329
  773MPD2     C11404   1.972   1.378  17.641 -0.4559  0.4656 -0.3774
  773MPD2    C111405   1.939   1.250  17.619 -0.3281 -0.6683  0.1595
  773MPD2    C211406   2.001   1.154   0.004 -0.2385  0.1013 -0.1451
  773MPD2    C311407   2.097   1.181   0.104  0.2469 -0.1144  0.3606
  773MPD2    C411408   2.130   1.315   0.120  0.1288 -0.0279  0.1316
  773MPD2    C511409   2.074   1.414   0.042 -0.4808 -0.7329  0.2817
  773MPD2     H11410   1.994   1.049  17.671  0.8164 -0.6998  3.0706
  773MPD2    H111411   2.203   1.347   0.194  0.7408 -0.7109 -0.1761
  773MPD2    H211412   1.931   1.460  17.584 -0.2105  0.2407 -0.8774
  773MPD2    H311413   2.116   1.514   0.042 -0.8749 -0.5576 -0.4527
  773MPD2     N11414   2.153   1.074   0.174  0.0085 -0.1103 -0.5401
  773MPD2    H511415   2.122   0.981   0.145 -1.5664  0.5676 -1.0144
  773MPD2    N111416   1.841   1.222  17.521  0.4762  0.0010  0.7921
  773MPD2    H711417   1.799   1.303  17.479 -0.9052 -0.6992  0.8301
  774MPD2     C11418   1.360   4.611  13.611 -0.2643 -0.0827  0.6451
  774MPD2    C111419   1.301   4.701  13.695 -0.7123  0.0584 -0.0506
  774MPD2    C211420   1.240   0.090  13.640 -0.3978 -0.4018  0.7309
  774MPD2    C311421   1.248   0.120  13.501 -0.3608  0.6018  0.5389
  774MPD2    C411422   1.324   0.033  13.425 -0.2526 -0.2473 -1.0383
  774MPD2    C511423   1.385   4.646  13.480 -0.2764 -0.0027  0.3456
  774MPD2     H11424   1.184   0.163  13.698 -0.8865  0.1954 -0.4951
  774MPD2    H111425   1.350   0.053  13.321  0.6909  0.4229 -0.6672
  774MPD2    H211426   1.396   4.516  13.649  0.9667 -0.6612 -1.9672
  774MPD2    H311427   1.444   4.586  13.412  1.7201 -0.8426  2.8042
  774MPD2     N11428   1.204   0.245  13.451  0.3239  0.5845  0.4561
  774MPD2    H511429   1.147   0.307  13.507 -0.4506  2.2028 -2.0922
  774MPD2    N111430   1.300   4.670  13.834  0.0762  0.3094 -0.3922
  774MPD2    H711431   1.348   4.592  13.878 -0.1230 -0.7110 -1.9796
  775MPD2     C11432   1.944   2.119  15.311 -0.3929 -0.2505  0.1507
  775MPD2    C111433   1.986   2.170  15.435  0.9169  0.4929 -0.3552
  775MPD2    C211434   2.095   2.254  15.435  0.2738 -0.2352 -0.5128
  775MPD2    C311435   2.165   2.291  15.318 -0.9994  0.1180  0.3791
  775MPD2    C411436   2.120   2.242  15.195  0.6743  0.2076  0.5353
  775MPD2    C511437   2.009   2.162  15.200  0.0020 -0.4519  0.2898
  775MPD2     H11438   2.131   2.264  15.537 -2.8881 -1.0914  0.6826
  775MPD2    H111439   2.159   2.275  15.100 -0.1766 -2.2031 -0.6684
  775MPD2    H211440   1.867   2.043  15.303  0.0333 -0.3896 -2.5836
  775MPD2    H311441   1.977   2.119  15.105  1.1015  1.3997 -0.9221
  775MPD2     N11442   2.288   2.360  15.324  0.4513  0.0780  0.5307
  775MPD2    H511443   2.328   2.362  15.231 -2.2014 -2.4180 -0.6883
  775MPD2    N111444   1.919   2.133  15.557  0.6227  0.3975  0.4548
  775MPD2    H711445   1.841   2.068  15.549  1.8713 -1.0784  0.3062
  776MPD2     C11446   1.867   1.324  11.350  0.0292 -1.2424  0.7635
  776MPD2    C111447   1.778   1.424  11.323  0.2181  0.0948  0.3552
  776MPD2    C211448   1.824   1.554  11.310 -0.4301 -0.1309 -0.4315
  776MPD2    C311449   1.957   1.581  11.326 -0.3416  0.1119  0.6517
  776MPD2    C411450   2.041   1.478  11.359  0.3495 -0.2370 -0.3450
  776MPD2    C511451   1.999   1.351  11.367  0.5109 -0.0444  0.0198
  776MPD2     H11452   1.762   1.638  11.280 -1.1523 -0.8781 -1.0179
  776MPD2    H111453   2.147   1.500  11.370  0.4471 -1.3801  0.9298
  776MPD2    H211454   1.834   1.226  11.383 -1.8167 -0.6550  0.6720
  776MPD2    H311455   2.061   1.268  11.398  0.1315 -0.4518 -0.3057
  776MPD2     N11456   2.011   1.713  11.312  0.5900 -0.3213 -0.1507
  776MPD2    H511457   2.112   1.721  11.324  0.5831  0.4267 -0.6017
  776MPD2    N111458   1.641   1.382  11.326  0.6723 -0.6553 -0.5637
  776MPD2    H711459   1.619   1.285  11.346 -1.7557 -0.1935 -0.9829
  777MPD2     C11460   1.654   0.376   1.073 -0.4396  0.0333  0.1454
  777MPD2    C111461   1.567   0.285   1.136 -0.1874  0.4018  0.1572
  777MPD2    C211462   1.546   0.165   1.078 -0.1729  0.3780 -0.2265
  777MPD2    C311463   1.621   0.129   0.969  0.6385 -0.0163  0.1309
  777MPD2    C411464   1.714   0.216   0.912 -0.3076 -1.2911 -0.4955
  777MPD2    C511465   1.719   0.343   0.957  0.1555 -0.0972 -0.7003
  777MPD2     H11466   1.488   0.092   1.132  0.1150  1.1012  1.0630
  777MPD2    H111467   1.791   0.184   0.843  1.5203 -1.8947  1.8190
  777MPD2    H211468   1.677   0.470   1.122  2.0363 -0.0542 -0.8724
  777MPD2    H311469   1.801   0.401   0.915  0.0873 -0.2518 -1.0499
  777MPD2     N11470   1.605   4.716   0.921 -0.2883 -0.6300  0.1040
  777MPD2    H511471   1.525   4.660   0.950 -1.2308  0.5289 -0.2458
  777MPD2    N111472   1.509   0.305   1.267 -0.1889 -0.1957 -0.3072
  777MPD2    H711473   1.540   0.393   1.308  0.2868 -0.6350  0.2784
  778MPD2     C11474   2.616   4.502  15.523 -0.1697 -0.6363 -0.0399
  778MPD2    C111475   2.552   4.410  15.438  0.2058 -0.4657  0.5048
  778MPD2    C211476   2.595   4.412  15.308 -0.6059  0.7567 -0.3622
  778MPD2    C311477   2.691   4.500  15.261  0.0219  0.1106 -0.1072
  778MPD2    C411478   2.750   4.590  15.351  0.3272 -0.4208 -0.1070
  778MPD2    C511479   2.720   4.582  15.482  0.2258 -0.4884 -0.0861
  778MPD2     H11480   2.545   4.345  15.240 -0.0319  3.3096 -3.3212
  778MPD2    H111481   2.833   4.652  15.321 -3.1328  3.6761 -1.1916
  778MPD2    H211482   2.588   4.508  15.628 -1.6315 -0.6365 -0.4267
  778MPD2    H311483   2.772   4.640  15.558 -0.2200  1.7076 -1.4532
  778MPD2     N11484   2.737   4.494  15.125 -0.3138 -0.7195 -0.2519
  778MPD2    H511485   2.705   4.412  15.076  0.4234 -1.3802  0.3626
  778MPD2    N111486   2.456   4.318  15.481 -0.6587 -0.1013 -0.4034
  778MPD2    H711487   2.402   4.274  15.408  0.5204 -3.1747  0.5930
  779MPD2     C11488   2.693   3.506  14.369  0.0302  0.2037  0.1290
  779MPD2    C111489   2.804   3.515  14.294  0.0309 -0.5149 -0.0920
  779MPD2    C211490   2.816   3.608  14.194 -0.0413  0.1945 -0.1621
  779MPD2    C311491   2.706   3.692  14.171  0.4218  0.4179 -0.2270
  779MPD2    C411492   2.586   3.678  14.243 -0.1535 -0.2853 -0.1488
  779MPD2    C511493   2.585   3.585  14.350  0.5503  0.3647 -0.0839
  779MPD2     H11494   2.909   3.628  14.143 -0.6332  0.8951 -0.9578
  779MPD2    H111495   2.492   3.731  14.234 -1.6989 -3.2523 -1.2208
  779MPD2    H211496   2.680   3.438  14.453  0.3789  0.4615  0.3901
  779MPD2    H311497   2.498   3.583  14.414  1.8269 -2.9569  1.5448
  779MPD2     N11498   2.722   3.794  14.077  0.2022 -0.2336  0.0785
  779MPD2    H511499   2.819   3.820  14.065 -0.4062  1.8636 -0.2003
  779MPD2    N111500   2.912   3.430  14.309 -0.5401  0.6930 -0.1340
  779MPD2    H711501   2.973   3.415  14.229  0.5320  1.4608  0.5327
  780MPD2     C11502   1.134   3.138   0.648  0.1761 -0.1147 -0.2169
  780MPD2    C111503   1.168   3.065   0.535  1.0472 -0.1416 -0.5867
  780MPD2    C211504   1.274   3.112   0.462 -0.5301  0.1663  0.7873
  780MPD2    C311505   1.340   3.231   0.501 -0.0147  0.0796  0.5669
  780MPD2    C411506   1.303   3.296   0.618 -0.4128  0.2638  0.6319
  780MPD2    C511507   1.200   3.245   0.694  0.2636 -0.4465 -0.0305
  780MPD2     H11508   1.320   3.059   0.380 -1.1102 -0.1519  0.6602
  780MPD2    H111509   1.343   3.390   0.653 -1.1901  1.7999 -2.6254
  780MPD2    H211510   1.066   3.091   0.718 -0.7894  0.4083 -0.8092
  780MPD2    H311511   1.173   3.289   0.789  2.5721 -0.8806  0.8317
  780MPD2     N11512   1.457   3.269   0.428  0.0703 -0.0169 -0.1561
  780MPD2    H511513   1.493   3.201   0.361 -0.7744 -0.6898  0.0622
  780MPD2    N111514   1.117   2.936   0.511  0.1353 -0.5279  0.0709
  780MPD2    H711515   1.049   2.912   0.583 -1.2758  1.5506 -0.5768
  781MPD2     C11516   4.049   0.408  11.568  1.1437  0.0652  0.2367
  781MPD2    C111517   3.926   0.396  11.635  0.2611 -0.4077 -0.1725
  781MPD2    C211518   3.823   0.322  11.569 -0.7535  0.4856 -0.3253
  781MPD2    C311519   3.837   0.282  11.434 -0.1698 -0.4853  0.1237
  781MPD2    C411520   3.957   0.294  11.368 -0.2264  0.6150  0.1462
  781MPD2    C511521   4.060   0.350  11.441  0.0848  0.4640 -0.0007
  781MPD2     H11522   3.731   0.300  11.621  1.8766 -0.0028  4.1220
  781MPD2    H111523   3.964   0.264  11.264 -0.8337 -1.7311  0.7997
  781MPD2    H211524   4.138   0.452  11.610  0.1313  1.4765  0.9232
  781MPD2    H311525   4.153   0.362  11.387  0.9786 -1.4832  1.1176
  781MPD2     N11526   3.735   0.212  11.361  0.0139 -0.8858  0.3248
  781MPD2    H511527   3.754   0.182  11.266 -0.6807  2.4748 -0.8714
  781MPD2    N111528   3.903   0.435  11.767  0.5271  0.2851 -0.1145
  781MPD2    H711529   3.816   0.415  11.816 -0.1218 -0.7651 -1.7070
  782MPD2     C11530   1.829   0.324  10.465  0.1288 -0.3560 -0.1813
  782MPD2    C111531   1.943   0.317  10.542 -0.0078  0.0223  0.1694
  782MPD2    C211532   1.990   0.423  10.613 -0.3093 -0.4112  0.1222
  782MPD2    C311533   1.917   0.539  10.609 -0.0099  0.0438  0.3877
  782MPD2    C411534   1.805   0.547  10.535  0.7071 -0.7701 -0.2618
  782MPD2    C511535   1.760   0.442  10.456  1.1792 -0.2246  0.4372
  782MPD2     H11536   2.088   0.423  10.660 -0.4555 -0.4799  0.4219
  782MPD2    H111537   1.728   0.623  10.539  0.4848 -1.0683  1.0549
  782MPD2    H211538   1.799   0.239  10.407 -1.5540 -0.3502  0.6831
  782MPD2    H311539   1.674   0.460  10.392  0.3949  1.6084  1.9910
  782MPD2     N11540   1.962   0.645  10.699 -0.7482 -0.2299  0.0523
  782MPD2    H511541   2.047   0.626  10.752 -0.1742  2.4165  0.0452
  782MPD2    N111542   2.023   0.199  10.520 -0.7474 -0.5587 -0.0364
  782MPD2    H711543   1.985   0.120  10.469  1.1207 -0.3365 -1.7695
  783MPD2     C11544   1.479   4.480  10.802  0.9778 -0.0519  1.0422
  783MPD2    C111545   1.525   4.593  10.859  0.7258  0.2948 -0.1457
  783MPD2    C211546   1.665   4.622  10.849  0.0806 -0.4103 -0.0767
  783MPD2    C311547   1.745   4.535  10.780  0.2925  0.1529 -0.6464
  783MPD2    C411548   1.694   4.412  10.739 -0.7125 -0.0139  0.1584
  783MPD2    C511549   1.562   4.383  10.750 -0.5191 -0.3075 -0.1546
  783MPD2     H11550   1.702   4.709  10.903 -1.9350  0.2921  0.1763
  783MPD2    H111551   1.763   4.332  10.715 -1.5277  0.0253 -2.3237
  783MPD2    H211552   1.374   4.454  10.806  0.7085  0.4603 -2.7040
  783MPD2    H311553   1.535   4.279  10.736  0.1257 -0.0896 -3.0234
  783MPD2     N11554   1.883   4.566  10.759  0.0691 -0.2835  0.3039
  783MPD2    H511555   1.914   4.654  10.798 -1.1897  0.4730 -0.4296
  783MPD2    N111556   1.428   4.672  10.928  0.1615  0.0518 -0.1664
  783MPD2    H711557   1.332   4.639  10.925 -0.8400  3.0824 -1.1274
  784MPD2     C11558   4.654   1.322   1.371 -1.0644  0.2460 -0.4888
  784MPD2    C111559   4.590   1.430   1.425  0.0985  0.8480 -0.2757
  784MPD2    C211560   4.516   1.511   1.344 -1.0444 -0.1333  0.2856
  784MPD2    C311561   4.505   1.484   1.208 -1.5216  1.0155  0.5016
  784MPD2    C411562   4.568   1.368   1.161 -0.3324  0.3456  0.1416
  784MPD2    C511563   4.646   1.291   1.242  0.2582  0.2880 -0.0615
  784MPD2     H11564   4.462   1.596   1.384 -0.3650  0.7027 -0.5501
  784MPD2    H111565   4.561   1.342   1.056 -3.9818 -1.4780  0.8414
  784MPD2    H211566   4.708   1.260   1.442 -0.4022  1.7832  0.3492
  784MPD2    H311567   4.681   1.193   1.210 -0.6542  0.3995 -1.4318
  784MPD2     N11568   4.426   1.562   1.121  0.2577 -0.6775 -0.2763
  784MPD2    H511569   4.364   1.635   1.155 -0.7860 -2.3827  1.4846
  784MPD2    N111570   4.590   1.458   1.566  0.7357 -0.0395 -0.6119
  784MPD2    H711571   4.533   1.537   1.596 -0.7251 -0.8502 -1.2532
  785MPD2     C11572   3.998   4.474  10.367  0.1573  0.8430  0.0233
  785MPD2    C111573   3.904   4.531  10.279 -0.1246  0.4597 -0.4333
  785MPD2    C211574   3.829   4.451  10.197  0.0642  0.4394  0.0408
  785MPD2    C311575   3.839   4.319  10.191 -0.0175 -0.5190  0.1274
  785MPD2    C411576   3.923   4.255  10.288  0.1450  0.1792  0.4203
  785MPD2    C511577   4.007   4.334  10.367 -0.3635  0.6227 -0.4188
  785MPD2     H11578   3.751   4.501  10.141 -1.2760 -2.3836 -0.6231
  785MPD2    H111579   3.933   4.148  10.301 -0.7667 -0.1331 -1.4222
  785MPD2    H211580   4.053   4.533  10.440  0.9258 -2.1919  1.8815
  785MPD2    H311581   4.078   4.284  10.433 -0.5901 -1.1215 -1.4965
  785MPD2     N11582   3.756   4.253  10.096  0.0961  0.3734 -0.4337
  785MPD2    H511583   3.685   4.309  10.050 -0.3664  0.9267  0.9705
  785MPD2    N111584   3.893   4.670  10.264  0.3976 -0.2366  0.1675
  785MPD2    H711585   3.826   4.691  10.191  2.0341  1.2614 -0.8827
  786MPD2     C11586   2.924   3.019  14.654  0.4554  0.2730 -0.0681
  786MPD2    C111587   2.989   2.897  14.659 -0.3619  0.1515  0.1352
  786MPD2    C211588   3.071   2.863  14.766 -0.3426 -0.0046 -0.4133
  786MPD2    C311589   3.098   2.958  14.860 -0.0259  0.5993 -0.3061
  786MPD2    C411590   3.030   3.074  14.864 -0.2421 -0.6205 -0.2151
  786MPD2    C511591   2.942   3.100  14.760  0.5973 -0.6495 -0.4400
  786MPD2     H11592   3.106   2.761  14.755 -3.4542 -1.3426  1.9034
  786MPD2    H111593   3.057   3.145  14.941  1.6118  1.3704 -2.7315
  786MPD2    H211594   2.852   3.038  14.575 -1.9955 -0.4486  1.9666
  786MPD2    H311595   2.887   3.193  14.764  0.5858 -0.8069  3.5796
  786MPD2     N11596   3.194   2.932  14.959 -1.0684  0.1272  0.3912
  786MPD2    H511597   3.203   3.008  15.026 -0.7385  0.7945 -0.4106
  786MPD2    N111598   2.976   2.795  14.564  0.2836  0.5132  0.7263
  786MPD2    H711599   3.027   2.710  14.588 -0.7561 -0.6959 -1.3720
  787MPD2     C11600   3.265   2.439  14.804  0.1734 -0.0496 -0.2764
  787MPD2    C111601   3.270   2.382  14.678  0.1320  0.1046  0.1234
  787MPD2    C211602   3.370   2.292  14.651 -0.1395 -0.5997  0.0835
  787MPD2    C311603   3.461   2.257  14.744 -0.1357  0.2275 -0.6540
  787MPD2    C411604   3.457   2.320  14.870 -0.3267 -0.1537  0.0990
  787MPD2    C511605   3.364   2.416  14.894 -0.3938  0.1553 -0.1495
  787MPD2     H11606   3.365   2.243  14.555  0.3239 -1.2994  0.4133
  787MPD2    H111607   3.528   2.300  14.949 -1.0700 -1.0102  0.5535
  787MPD2    H211608   3.189   2.513  14.825  2.5295  1.9696  1.0791
  787MPD2    H311609   3.369   2.466  14.990 -1.7613 -0.3525  0.1860
  787MPD2     N11610   3.556   2.155  14.714  0.1514 -0.5006  0.4756
  787MPD2    H511611   3.553   2.122  14.618  3.3970  0.1730  0.1356
  787MPD2    N111612   3.170   2.406  14.588  0.0339 -0.4743 -0.0037
  787MPD2    H711613   3.088   2.451  14.627  0.2126  0.1253 -0.3164
  788MPD2     C11614   0.683   0.360   0.998 -0.1132 -0.0658 -0.3720
  788MPD2    C111615   0.567   0.406   0.945  0.6754  0.7378  0.4198
  788MPD2    C211616   0.566   0.519   0.866  0.3625 -0.2478  0.6105
  788MPD2    C311617   0.683   0.586   0.836  0.5397  0.6905 -0.4952
  788MPD2    C411618   0.800   0.532   0.889 -0.2794  0.2263  0.4161
  788MPD2    C511619   0.796   0.422   0.973 -0.2443  0.5986 -0.0352
  788MPD2     H11620   0.473   0.560   0.830  0.5799 -0.9870 -0.7685
  788MPD2    H111621   0.896   0.581   0.877 -1.1145  1.3850 -1.6099
  788MPD2    H211622   0.702   0.268   1.051  0.7181  0.7362  0.7433
  788MPD2    H311623   0.885   0.384   1.021  2.0027  5.2762 -0.5088
  788MPD2     N11624   0.690   0.696   0.750  0.3519 -0.0639  0.0225
  788MPD2    H511625   0.786   0.712   0.723  0.8106  0.8998  2.2010
  788MPD2    N111626   0.453   0.323   0.947  0.0602  0.2193 -0.2946
  788MPD2    H711627   0.393   0.347   0.869  1.4305 -1.3922 -1.8310
  789MPD2     C11628   0.460   0.091  16.827  0.1406 -0.9252  0.2526
  789MPD2    C111629   0.442   0.156  16.706  0.7344  0.7381 -0.3334
  789MPD2    C211630   0.353   0.260  16.696 -0.3953 -0.1640  0.2131
  789MPD2    C311631   0.289   0.315  16.807  0.5316  0.5570  0.0348
  789MPD2    C411632   0.311   0.248  16.930  0.4699 -0.2428  0.7316
  789MPD2    C511633   0.405   0.147  16.940 -0.3777 -0.4242  0.1646
  789MPD2     H11634   0.359   0.313  16.601  0.9157  1.2836  1.1112
  789MPD2    H111635   0.270   0.297  17.017 -1.0140  2.5113 -1.4876
  789MPD2    H211636   0.514   4.719  16.827 -0.2208 -1.1570 -2.8751
  789MPD2    H311637   0.417   0.099  17.036 -1.6700 -2.4124 -0.6741
  789MPD2     N11638   0.228   0.444  16.804 -0.3186 -0.2150  0.3191
  789MPD2    H511639   0.193   0.478  16.893  1.7631  0.5945  0.8493
  789MPD2    N111640   0.494   0.113  16.588  1.2523  0.6638 -0.6150
  789MPD2    H711641   0.459   0.162  16.506 -2.5558 -0.1697  0.4950
  790MPD2     C11642   1.579   3.114  13.455 -0.0040  0.5914  0.9161
  790MPD2    C111643   1.624   2.987  13.476  0.1611 -0.3214 -0.3780
  790MPD2    C211644   1.601   2.895  13.380 -0.0299 -0.2146  0.5854
  790MPD2    C311645   1.534   2.927  13.262 -1.1973 -0.0611 -0.0316
  790MPD2    C411646   1.482   3.048  13.245 -0.1654  0.2094 -0.3028
  790MPD2    C511647   1.511   3.144  13.340  0.0892  0.0363  0.1421
  790MPD2     H11648   1.628   2.792  13.400 -3.3613 -1.4651 -1.3591
  790MPD2    H111649   1.421   3.075  13.159  3.7044 -0.2498 -3.2135
  790MPD2    H211650   1.595   3.185  13.536  0.1093  1.4845  0.1106
  790MPD2    H311651   1.473   3.244  13.327  1.7067  0.6337  0.0322
  790MPD2     N11652   1.530   2.821  13.168 -0.3845  0.3746  0.4089
  790MPD2    H511653   1.564   2.730  13.199 -0.0355 -0.7422 -3.3016
  790MPD2    N111654   1.672   2.953  13.607  0.1909 -0.3838 -0.0113
  790MPD2    H711655   1.664   3.018  13.685 -0.2448  0.0016 -0.3786
  791MPD2     C11656   0.861   2.606  12.772  0.6476  0.6773 -0.6286
  791MPD2    C111657   0.961   2.512  12.777  0.0485 -0.5438 -0.2996
  791MPD2    C211658   0.927   2.395  12.708 -0.4639  0.8153  0.3603
  791MPD2    C311659   0.803   2.368  12.648  0.3537  0.1256  0.6107
  791MPD2    C411660   0.713   2.466  12.645  0.2744 -0.7293  0.0005
  791MPD2    C511661   0.749   2.586  12.700  0.1886  0.0956  0.4997
  791MPD2     H11662   1.000   2.317  12.691 -1.1021  0.4396 -0.7351
  791MPD2    H111663   0.611   2.457  12.609 -0.6235 -0.9099  2.5905
  791MPD2    H211664   0.883   2.705  12.812  0.1982  0.3710  0.3599
  791MPD2    H311665   0.678   2.668  12.704  0.6481  0.4840  0.7399
  791MPD2     N11666   0.788   2.239  12.589 -0.0771  0.1328 -0.1030
  791MPD2    H511667   0.856   2.169  12.619  1.3690  1.1098 -1.0767
  791MPD2    N111668   1.086   2.553  12.834  0.2816 -0.5818  0.0955
  791MPD2    H711669   1.079   2.628  12.902 -0.5071  1.4777 -2.2319
  792MPD2     C11670   2.132   1.415  11.048 -0.0302  0.4165  0.3335
  792MPD2    C111671   2.017   1.475  11.004 -0.4589 -0.2652  0.4756
  792MPD2    C211672   1.906   1.392  10.987  0.3358 -0.6852  0.0924
  792MPD2    C311673   1.908   1.260  11.014 -0.0985  0.7129 -0.0231
  792MPD2    C411674   2.030   1.208  11.054  0.0426 -0.0160  0.6097
  792MPD2    C511675   2.143   1.277  11.068 -0.2898 -0.2900  0.4152
  792MPD2     H11676   1.813   1.428  10.945 -0.1065  0.2824  1.8855
  792MPD2    H111677   2.030   1.105  11.088  2.0149  0.7373  2.9035
  792MPD2    H211678   2.221   1.474  11.066  0.6158 -0.2510 -0.6990
  792MPD2    H311679   2.231   1.228  11.107  2.3590  3.6169 -0.6165
  792MPD2     N11680   1.794   1.170  11.016  0.4663  0.0854 -0.5765
  792MPD2    H511681   1.812   1.075  11.048 -0.0746 -0.1929 -1.1028
  792MPD2    N111682   2.016   1.604  10.968  0.0056 -0.0965 -0.1560
  792MPD2    H711683   2.100   1.660  10.979 -0.6633  0.7307  0.8238
  793MPD2     C11684   0.969   1.036  10.475  0.1923  0.8892  0.1638
  793MPD2    C111685   1.092   1.094  10.449 -0.1717 -0.1753 -0.8648
  793MPD2    C211686   1.173   1.115  10.555 -0.4427  0.1553  0.7459
  793MPD2    C311687   1.140   1.064  10.676 -1.0304 -0.0323 -0.0596
  793MPD2    C411688   1.016   1.002  10.697  0.5838  0.1721 -0.3525
  793MPD2    C511689   0.935   0.993  10.595 -0.4635 -0.0628  0.6738
  793MPD2     H11690   1.271   1.161  10.558  0.5706 -1.9235 -0.2131
  793MPD2    H111691   0.975   0.980  10.794  1.7335  2.1958  0.5993
  793MPD2    H211692   0.898   1.025  10.394  1.0138 -0.0140 -0.4298
  793MPD2    H311693   0.833   0.958  10.609 -1.0053  0.6711 -1.5140
  793MPD2     N11694   1.235   1.070  10.783 -0.6565  0.9762 -0.2378
  793MPD2    H511695   1.322   1.117  10.759  0.0069  0.3839  1.0252
  793MPD2    N111696   1.135   1.126  10.320  0.2560  0.0628 -0.3382
  793MPD2    H711697   1.220   1.181  10.315 -0.7000  1.6916  1.4967
  794MPD2     C11698   1.520   0.738  16.853  0.6202  0.3950 -0.1407
  794MPD2    C111699   1.447   0.838  16.901  0.1508  1.0380 -0.0466
  794MPD2    C211700   1.335   0.878  16.831 -0.4620  0.1611  0.1340
  794MPD2    C311701   1.297   0.822  16.712 -0.4214 -0.1183  0.5620
  794MPD2    C411702   1.370   0.720  16.663 -0.0992 -0.3649  0.0207
  794MPD2    C511703   1.486   0.681  16.734  0.4065  0.2525 -0.4277
  794MPD2     H11704   1.282   0.966  16.865 -2.2560 -1.0599  0.5178
  794MPD2    H111705   1.343   0.671  16.571 -1.2016 -0.5475  0.4367
  794MPD2    H211706   1.611   0.702  16.900  0.4743 -1.2309 -1.0819
  794MPD2    H311707   1.545   0.606  16.681 -2.0825 -1.9537 -0.0755
  794MPD2     N11708   1.178   0.856  16.641  0.2560 -0.0382  0.0596
  794MPD2    H511709   1.175   0.813  16.549  1.3801 -0.1672  0.0808
  794MPD2    N111710   1.476   0.907  17.021 -0.0447 -0.0490 -0.1198
  794MPD2    H711711   1.404   0.975  17.042  1.4502  1.1743  1.0505
  795MPD2     C11712   3.838   3.594  13.793 -0.2942 -1.0635 -0.2318
  795MPD2    C111713   3.832   3.556  13.664  0.2337 -0.1284  0.3838
  795MPD2    C211714   3.908   3.448  13.624  0.3277 -1.0939  0.1329
  795MPD2    C311715   4.010   3.400  13.703  0.4532 -0.3911 -0.2993
  795MPD2    C411716   4.034   3.464  13.820 -0.1216  0.0994 -0.2494
  795MPD2    C511717   3.940   3.552  13.874 -0.5345  0.0335 -0.1431
  795MPD2     H11718   3.887   3.397  13.530 -2.4656  0.3942 -0.0598
  795MPD2    H111719   4.124   3.452  13.880  1.4758  0.4534 -2.5852
  795MPD2    H211720   3.775   3.670  13.837 -1.0806 -0.7149 -1.9733
  795MPD2    H311721   3.967   3.594  13.970  0.0770 -0.7283  0.0225
  795MPD2     N11722   4.094   3.299  13.647  0.1385 -0.3018 -0.4748
  795MPD2    H511723   4.049   3.254  13.568 -1.6981  0.3632  0.1763
  795MPD2    N111724   3.718   3.588  13.592 -0.0862 -0.2502 -0.3999
  795MPD2    H711725   3.696   3.520  13.519  0.5845 -0.9845  0.0847
  796MPD2     C11726   3.132   0.578  15.538  0.6479  0.3070  0.7129
  796MPD2    C111727   3.149   0.642  15.665 -1.2833 -0.1325 -0.6450
  796MPD2    C211728   3.221   0.758  15.673  0.2544 -0.1850  0.3511
  796MPD2    C311729   3.275   0.823  15.563 -0.4643 -0.1080  0.0950
  796MPD2    C411730   3.270   0.758  15.437 -0.9389 -0.5892 -0.5871
  796MPD2    C511731   3.200   0.634  15.430 -0.1096  0.5209 -0.4402
  796MPD2     H11732   3.239   0.808  15.767 -3.5105 -1.1509  1.5728
  796MPD2    H111733   3.319   0.785  15.343  0.2279 -1.9615 -0.3807
  796MPD2    H211734   3.074   0.486  15.529 -1.8226  1.8866  0.4940
  796MPD2    H311735   3.185   0.587  15.334  0.1582 -1.6541  0.5788
  796MPD2     N11736   3.369   0.927  15.587  0.1680  0.9598 -0.7775
  796MPD2    H511737   3.384   0.941  15.686  0.1263 -1.1060 -0.4633
  796MPD2    N111738   3.082   0.585  15.778  0.4589 -0.0557 -0.1062
  796MPD2    H711739   3.046   0.490  15.771 -1.0291  0.4241  0.7973
  797MPD2     C11740   3.524   0.317  17.315  0.7019  0.3111  0.9480
  797MPD2    C111741   3.556   0.448  17.354  0.3403 -0.5564  0.0783
  797MPD2    C211742   3.494   0.555  17.292 -0.3003 -0.1368  0.0843
  797MPD2    C311743   3.396   0.538  17.195 -0.2526  0.0046 -0.1386
  797MPD2    C411744   3.365   0.410  17.167  0.6485  0.1912  0.5242
  797MPD2    C511745   3.428   0.297  17.219 -0.5534 -0.1348  0.4968
  797MPD2     H11746   3.518   0.653  17.330 -2.6954 -0.1966  1.7927
  797MPD2    H111747   3.283   0.389  17.099  1.6413 -3.9080  0.5725
  797MPD2    H211748   3.576   0.232  17.359 -1.1780 -1.4612 -0.2503
  797MPD2    H311749   3.402   0.200  17.177  0.4451  0.0563 -0.5704
  797MPD2     N11750   3.325   0.643  17.134  0.2737  0.0223 -0.6331
  797MPD2    H511751   3.268   0.626  17.052 -1.6485 -0.7286  0.8541
  797MPD2    N111752   3.652   0.482  17.444 -0.1597  0.8510  0.4691
  797MPD2    H711753   3.644   0.571  17.492 -2.0011  0.7926  0.2952
  798MPD2     C11754   3.612   1.215  17.426 -0.1057  0.1312 -0.5694
  798MPD2    C111755   3.542   1.103  17.406  0.2899 -0.2313  0.0518
  798MPD2    C211756   3.597   0.991  17.470  0.0422  0.1490 -0.0910
  798MPD2    C311757   3.713   0.988  17.542  0.1835 -0.4501  0.5186
  798MPD2    C411758   3.776   1.110  17.567 -0.5737 -0.8162 -0.5333
  798MPD2    C511759   3.724   1.219  17.504  0.0813  0.2020  0.1298
  798MPD2     H11760   3.554   0.895  17.444 -1.6285  0.8858 -0.0259
  798MPD2    H111761   3.865   1.117  17.628 -0.5503 -1.1989 -0.5251
  798MPD2    H211762   3.580   1.312  17.390  2.4477  0.7320 -1.2539
  798MPD2    H311763   3.779   1.312  17.507 -3.0387  2.0244  0.6905
  798MPD2     N11764   3.757   0.859  17.579 -0.1113  0.8216  0.3487
  798MPD2    H511765   3.712   0.785  17.526  1.4005 -1.1698  1.8845
  798MPD2    N111766   3.434   1.085  17.315 -0.1815 -0.0762  0.2185
  798MPD2    H711767   3.394   0.992  17.313 -1.0193  0.3248 -1.2081
  799MPD2     C11768   3.477   1.635  14.745  0.6262  0.2477  0.1424
  799MPD2    C111769   3.455   1.576  14.626  0.1599 -0.7485  0.2816
  799MPD2    C211770   3.385   1.635  14.526  0.0451 -0.2858  0.1721
  799MPD2    C311771   3.361   1.771  14.534  0.1313  0.2620 -0.2704
  799MPD2    C411772   3.404   1.838  14.650  0.3163  0.5467 -0.4161
  799MPD2    C511773   3.449   1.769  14.756 -0.1447 -0.2810 -0.3126
  799MPD2     H11774   3.345   1.568  14.451 -1.3606 -0.0296  0.6875
  799MPD2    H111775   3.363   1.936  14.670 -1.1161 -0.0880 -0.1797
  799MPD2    H211776   3.504   1.574  14.831  3.1406 -0.9801 -1.5220
  799MPD2    H311777   3.463   1.818  14.852  0.7750  0.8842 -1.0507
  799MPD2     N11778   3.278   1.849  14.447  0.0144  0.4138 -0.7952
  799MPD2    H511779   3.266   1.947  14.471  1.6721  0.7133 -1.2441
  799MPD2    N111780   3.482   1.434  14.611 -0.0382  0.4158  0.2273
  799MPD2    H711781   3.467   1.389  14.521 -0.1052  0.0329  0.4292
  800MPD2     C11782   3.384   2.525  13.611 -0.3061 -0.0500 -0.1044
  800MPD2    C111783   3.514   2.560  13.593  0.1108  0.2481 -0.3111
  800MPD2    C211784   3.593   2.497  13.500  0.1380 -0.1496 -0.3217
  800MPD2    C311785   3.530   2.404  13.416  0.4920 -0.2068  0.1698
  800MPD2    C411786   3.397   2.371  13.431  0.1776  0.5467 -0.5977
  800MPD2    C511787   3.327   2.441  13.522  0.3766  0.4749 -0.1615
  800MPD2     H11788   3.698   2.518  13.486  0.4845 -1.2193  0.7227
  800MPD2    H111789   3.349   2.297  13.368 -0.9639  0.0069  0.9189
  800MPD2    H211790   3.314   2.571  13.680  1.0301 -1.5150  2.2421
  800MPD2    H311791   3.220   2.425  13.525  0.7123 -2.1927 -2.2277
  800MPD2     N11792   3.613   2.348  13.315  0.5583  0.2941  0.6680
  800MPD2    H511793   3.703   2.391  13.297  0.3383 -0.0367 -1.2453
  800MPD2    N111794   3.561   2.670  13.669  0.4491 -0.1854  0.2832
  800MPD2    H711795   3.487   2.711  13.725 -1.7782 -3.0791 -0.5592
  801MPD2     C11796   3.388   3.386  13.727 -0.7587  0.2157 -0.3502
  801MPD2    C111797   3.504   3.377  13.794  0.3787  0.6168  0.3781
  801MPD2    C211798   3.527   3.483  13.883  0.1392 -0.4783  0.2038
  801MPD2    C311799   3.436   3.594  13.892 -0.0045 -0.1233  0.0724
  801MPD2    C411800   3.325   3.601  13.810  0.7520  0.1077 -0.3334
  801MPD2    C511801   3.307   3.494  13.724  0.4904 -0.6358 -0.8150
  801MPD2     H11802   3.600   3.468  13.962  0.0189  1.9936  0.7643
  801MPD2    H111803   3.243   3.671  13.801 -0.1689 -0.7171  1.8409
  801MPD2    H211804   3.362   3.309  13.655  3.9264  1.3271 -3.2088
  801MPD2    H311805   3.225   3.495  13.654 -1.7193  0.3526  1.7796
  801MPD2     N11806   3.446   3.682  14.003 -0.0811 -0.0332  0.0957
  801MPD2    H511807   3.358   3.729  14.022  0.9724  1.3792  1.4250
  801MPD2    N111808   3.598   3.268  13.785  0.1624 -0.6832  0.9526
  801MPD2    H711809   3.686   3.268  13.836  1.6093  0.6899 -1.5375
  802MPD2     C11810   2.880   2.981  17.564  0.3423  0.7626 -0.2010
  802MPD2    C111811   2.952   3.095  17.556 -0.0509 -0.1405  0.2372
  802MPD2    C211812   3.054   3.114  17.463 -0.6100  0.4313 -0.7475
  802MPD2    C311813   3.083   3.011  17.371 -0.0264  0.3082 -0.3786
  802MPD2    C411814   3.005   2.896  17.383 -0.0282  0.0961 -0.0289
  802MPD2    C511815   2.910   2.875  17.479 -0.4519 -0.2375 -0.1810
  802MPD2     H11816   3.113   3.204  17.472  1.5601 -1.0531 -0.0292
  802MPD2    H111817   3.015   2.806  17.323  2.1909 -0.9049  1.8484
  802MPD2    H211818   2.817   2.951  17.647 -0.9859  3.7773 -0.1208
  802MPD2    H311819   2.847   2.787  17.482  0.4791 -0.8411  1.9264
  802MPD2     N11820   3.183   3.031  17.267 -0.1247  0.7927  0.0734
  802MPD2    H511821   3.241   3.112  17.286 -0.0445  1.5377 -3.4005
  802MPD2    N111822   2.941   3.201  17.653  0.2128 -0.1213  0.3109
  802MPD2    H711823   2.999   3.282  17.638 -0.0147  0.4061  2.3458
  803MPD2     C11824   4.396   2.355  11.749 -0.2865  0.9561  0.8141
  803MPD2    C111825   4.493   2.298  11.837  0.5391  0.0081  0.5038
  803MPD2    C211826   4.506   2.165  11.829 -0.0580 -0.4507 -0.6138
  803MPD2    C311827   4.428   2.084  11.749  0.5989  0.3196  0.9231
  803MPD2    C411828   4.329   2.132  11.672  0.0814 -0.1043  0.2269
  803MPD2    C511829   4.315   2.269  11.679 -0.1287  0.2180 -0.3135
  803MPD2     H11830   4.584   2.124  11.892 -0.8228 -1.0898 -0.0834
  803MPD2    H111831   4.260   2.072  11.615  1.5146 -0.4721 -1.1280
  803MPD2    H211832   4.390   2.462  11.730  0.9176  0.8461 -0.2765
  803MPD2    H311833   4.230   2.313  11.627 -1.3537 -1.7895 -0.0254
  803MPD2     N11834   4.443   1.942  11.761  0.6621  0.2106  0.1349
  803MPD2    H511835   4.367   1.887  11.724  2.1850 -0.9219 -1.3088
  803MPD2    N111836   4.584   2.371  11.918 -0.5164  0.1218  0.3685
  803MPD2    H711837   4.655   2.320  11.970  0.8155  0.3327 -1.2262
  804MPD2     C11838   4.153   3.509  16.917 -0.3399 -0.2376 -0.1151
  804MPD2    C111839   4.201   3.503  17.046 -0.3621 -0.0398 -0.0324
  804MPD2    C211840   4.276   3.598  17.101  0.5021  0.1149  0.9139
  804MPD2    C311841   4.313   3.704  17.018  0.5086  0.0007 -0.2584
  804MPD2    C411842   4.263   3.714  16.891  1.1961 -1.0873  0.1352
  804MPD2    C511843   4.183   3.616  16.841 -0.5225  0.7862 -1.0072
  804MPD2     H11844   4.305   3.591  17.205 -1.2377  2.0384  1.5117
  804MPD2    H111845   4.290   3.801  16.832 -1.4092  0.8714  1.8095
  804MPD2    H211846   4.100   3.428  16.868  0.4790 -1.3068  0.7630
  804MPD2    H311847   4.156   3.607  16.736  1.1126 -0.1149 -1.3491
  804MPD2     N11848   4.399   3.801  17.070  0.1879 -0.3899 -0.1632
  804MPD2    H511849   4.405   3.810  17.171  1.3225 -1.7530 -0.1089
  804MPD2    N111850   4.186   3.388  17.126  0.2207 -0.2941  0.8030
  804MPD2    H711851   4.219   3.388  17.222 -0.7223  3.4354  1.1473
  805MPD2     C11852   3.167   1.988  14.902 -0.8510 -0.4943  0.0397
  805MPD2    C111853   3.204   1.862  14.955 -0.2773 -0.4464 -0.2493
  805MPD2    C211854   3.283   1.860  15.074  0.1845 -0.1876  0.3983
  805MPD2    C311855   3.310   1.984  15.137  0.2983  0.3166  0.3878
  805MPD2    C411856   3.276   2.101  15.087  0.0550  0.2311 -0.1117
  805MPD2    C511857   3.207   2.100  14.967  0.0597 -0.1607  0.4023
  805MPD2     H11858   3.302   1.765  15.122  1.0883 -0.2644 -0.1113
  805MPD2    H111859   3.297   2.190  15.145 -0.4979 -0.2268  0.7850
  805MPD2    H211860   3.112   1.997  14.809 -2.0775  0.3844  0.8487
  805MPD2    H311861   3.181   2.191  14.914  1.4823 -0.6054 -1.0507
  805MPD2     N11862   3.384   1.982  15.256  0.2704 -0.7070 -0.1341
  805MPD2    H511863   3.425   1.891  15.274 -2.5993 -2.2806 -1.4899
  805MPD2    N111864   3.154   1.739  14.911  0.5315 -0.7562  0.4353
  805MPD2    H711865   3.183   1.661  14.969 -0.2497 -1.0747  0.3891
  806MPD2     C11866   3.761   1.816   0.533  0.1276 -0.0775  0.2601
  806MPD2    C111867   3.646   1.811   0.611  0.6205 -0.6775  0.0608
  806MPD2    C211868   3.527   1.871   0.552 -0.1194 -0.4575  0.0648
  806MPD2    C311869   3.517   1.936   0.427  0.6954  0.3435  0.6381
  806MPD2    C411870   3.636   1.927   0.353  0.6225  0.9638 -0.5961
  806MPD2    C511871   3.752   1.872   0.403  0.2161  0.3364 -0.2253
  806MPD2     H11872   3.446   1.891   0.621 -0.1636 -0.7709  0.1020
  806MPD2    H111873   3.639   1.960   0.250  2.6704  0.4693 -0.6825
  806MPD2    H211874   3.857   1.778   0.565 -0.1790 -0.0812  1.1702
  806MPD2    H311875   3.842   1.871   0.342 -1.3057 -2.6761 -2.4020
  806MPD2     N11876   3.392   1.986   0.386 -0.6529 -0.0448  0.0181
  806MPD2    H511877   3.314   1.971   0.450 -0.1282 -3.1665 -0.0466
  806MPD2    N111878   3.652   1.742   0.738 -0.0812 -0.2290 -0.4786
  806MPD2    H711879   3.745   1.711   0.767 -0.6882 -2.2052 -0.6384
  807MPD2     C11880   3.181   1.679   1.495  1.0510 -0.0134  0.5141
  807MPD2    C111881   3.290   1.593   1.472  0.7232  0.7063  0.2105
  807MPD2    C211882   3.312   1.480   1.543 -0.7558 -0.0123 -0.1619
  807MPD2    C311883   3.230   1.446   1.653  0.0081 -0.8171 -0.0623
  807MPD2    C411884   3.116   1.528   1.677 -0.0840  0.1237  0.3354
  807MPD2    C511885   3.093   1.639   1.595 -0.9205  0.1570  0.3492
  807MPD2     H11886   3.396   1.415   1.520 -2.1880 -1.9700  0.1227
  807MPD2    H111887   3.042   1.511   1.755  0.6405  2.1308  1.4672
  807MPD2    H211888   3.167   1.773   1.444 -0.9879  1.1472  3.2142
  807MPD2    H311889   3.015   1.709   1.621  0.8313  1.8378  1.0552
  807MPD2     N11890   3.254   1.328   1.723 -0.3075 -0.6515  0.0089
  807MPD2    H511891   3.340   1.277   1.704 -0.0515 -0.2875  0.1927
  807MPD2    N111892   3.379   1.613   1.363  0.3441 -0.1769  0.0861
  807MPD2    H711893   3.450   1.541   1.356 -0.5559 -0.7157 -3.4663
  808MPD2     C11894   4.127   2.394   9.770  0.5922 -0.7780  0.7682
  808MPD2    C111895   4.068   2.452   9.884  0.0292 -0.9690  0.1922
  808MPD2    C211896   4.121   2.574   9.921  0.3836 -0.6347  0.1124
  808MPD2    C311897   4.238   2.624   9.864  0.1237 -0.6708  0.5155
  808MPD2    C411898   4.303   2.557   9.773  0.3462  0.2202 -0.0532
  808MPD2    C511899   4.242   2.456   9.717 -0.6502  0.0262 -0.4698
  808MPD2     H11900   4.064   2.628   9.995  4.0044 -0.5531  2.8588
  808MPD2    H111901   4.397   2.594   9.734  1.1274  0.6070  2.2126
  808MPD2    H211902   4.096   2.297   9.732 -1.0646  1.2986 -3.1862
  808MPD2    H311903   4.302   2.399   9.647  0.9342  0.6472  0.3926
  808MPD2     N11904   4.301   2.748   9.899 -0.2319  0.3199 -0.3649
  808MPD2    H511905   4.383   2.772   9.844 -0.9838  1.9921 -0.7667
  808MPD2    N111906   3.947   2.410   9.948  0.6011  0.0248  0.4662
  808MPD2    H711907   3.903   2.463  10.023  1.4446 -0.9321  1.6342
  809MPD2     C11908   4.429   3.600   9.455  1.5386 -0.2157  0.3559
  809MPD2    C111909   4.498   3.484   9.450 -0.2410 -0.5988 -0.7159
  809MPD2    C211910   4.479   3.395   9.557 -0.2785  0.2755  0.2598
  809MPD2    C311911   4.384   3.409   9.654 -0.7592 -0.1846 -0.2645
  809MPD2    C411912   4.315   3.523   9.653  0.1132  0.4912  0.2057
  809MPD2    C511913   4.330   3.619   9.549  0.4459 -0.1670 -0.0205
  809MPD2     H11914   4.550   3.314   9.570 -1.2824 -0.3785  1.7038
  809MPD2    H111915   4.245   3.527   9.736  1.8868 -1.6835  1.7772
  809MPD2    H211916   4.444   3.683   9.386  0.3912  1.0131  1.5723
  809MPD2    H311917   4.280   3.715   9.545  3.1434  1.2015 -1.2159
  809MPD2     N11918   4.369   3.316   9.754  0.2931  0.7204 -0.7335
  809MPD2    H511919   4.314   3.355   9.830 -0.9460  0.4573 -1.4923
  809MPD2    N111920   4.587   3.466   9.338 -0.0894 -0.1328  0.3995
  809MPD2    H711921   4.574   3.536   9.266 -3.1879  0.0016  1.0897
  810MPD2     C11922   3.535   1.546  10.311  0.1459  0.0900  0.4371
  810MPD2    C111923   3.454   1.552  10.416  0.6816 -0.0714  0.2473
  810MPD2    C211924   3.463   1.661  10.508  0.2698 -0.2980  0.6602
  810MPD2    C311925   3.563   1.756  10.485 -0.9693  0.0859 -0.2958
  810MPD2    C411926   3.648   1.738  10.385  0.5416 -0.8510  0.0480
  810MPD2    C511927   3.630   1.638  10.284 -0.2700 -0.1607 -0.3602
  810MPD2     H11928   3.402   1.661  10.597 -1.2125 -1.3944 -0.3637
  810MPD2    H111929   3.726   1.812  10.374 -0.3393 -0.0929 -1.1514
  810MPD2    H211930   3.525   1.470  10.235 -1.0887 -1.0399  1.7470
  810MPD2    H311931   3.700   1.633  10.202 -0.6940  3.0559 -0.9354
  810MPD2     N11932   3.565   1.882  10.546 -0.6041  0.1834  0.2367
  810MPD2    H511933   3.643   1.939  10.514  1.8386 -1.9018  2.5293
  810MPD2    N111934   3.359   1.450  10.428  1.0829 -0.0058  0.2583
  810MPD2    H711935   3.349   1.383  10.352  0.4071  0.2545  0.1157
  811MPD2     C11936   2.619   1.221  10.161  0.2709 -0.3685  0.0408
  811MPD2    C111937   2.753   1.264  10.169  0.0362  0.4181 -0.3688
  811MPD2    C211938   2.784   1.398  10.162 -0.1414  0.4079  0.4806
  811MPD2    C311939   2.677   1.484  10.135  0.6541  0.1326 -0.4359
  811MPD2    C411940   2.543   1.440  10.130 -0.5303  0.2010  0.2876
  811MPD2    C511941   2.520   1.304  10.144  0.2659 -0.2130  0.7173
  811MPD2     H11942   2.884   1.439  10.170  0.8019 -1.9091  0.7971
  811MPD2    H111943   2.460   1.509  10.122  0.3265  1.4480  1.9809
  811MPD2    H211944   2.600   1.116  10.176 -1.9350  0.0192 -0.0615
  811MPD2    H311945   2.420   1.263  10.140  0.6171 -1.3799  4.5800
  811MPD2     N11946   2.716   1.623  10.121 -0.3043 -0.1505 -0.0332
  811MPD2    H511947   2.807   1.647  10.159 -0.2173 -0.8683  0.2069
  811MPD2    N111948   2.857   1.180  10.225  0.2312  0.0243 -1.0072
  811MPD2    H711949   2.823   1.095  10.270 -2.9516 -0.2572 -3.9500
  812MPD2     C11950   1.649   2.030  12.799 -0.8497 -0.2168 -0.5424
  812MPD2    C111951   1.778   2.004  12.755  0.1041  0.6819 -0.2139
  812MPD2    C211952   1.840   1.893  12.813  0.2239  0.3104 -0.0256
  812MPD2    C311953   1.774   1.804  12.897 -0.4361  0.6443  0.0890
  812MPD2    C411954   1.639   1.835  12.935  0.2237 -0.5275 -0.3123
  812MPD2    C511955   1.577   1.944  12.870 -0.4189 -0.4003 -0.2268
  812MPD2     H11956   1.944   1.873  12.794  0.0470  0.0145 -0.6816
  812MPD2    H111957   1.592   1.769  13.007 -2.1768  1.3732 -0.1667
  812MPD2    H211958   1.596   2.122  12.778  0.0627  0.1799 -1.1582
  812MPD2    H311959   1.474   1.972  12.893 -0.0354  0.5630  0.3458
  812MPD2     N11960   1.843   1.691  12.939 -0.3171  0.1406 -0.1811
  812MPD2    H511961   1.942   1.693  12.920 -0.2257  1.3431  0.3901
  812MPD2    N111962   1.844   2.102  12.674  0.2928 -0.3094  0.0498
  812MPD2    H711963   1.792   2.186  12.654 -1.8488 -1.4285  0.9303
  813MPD2     C11964   1.438   4.163  12.774  0.2786 -0.2910  0.2789
  813MPD2    C111965   1.541   4.127  12.860 -0.2350 -0.0686  0.4491
  813MPD2    C211966   1.508   4.077  12.987  0.2660 -0.4082  0.1781
  813MPD2    C311967   1.375   4.066  13.033 -0.2265  0.0810  0.5013
  813MPD2    C411968   1.280   4.112  12.944 -0.3699  0.1584 -0.3526
  813MPD2    C511969   1.305   4.161  12.813  0.0674 -0.8147  0.4695
  813MPD2     H11970   1.588   4.048  13.054  0.6576 -0.7282 -0.4334
  813MPD2    H111971   1.174   4.104  12.967 -0.0806 -2.3871  0.1024
  813MPD2    H211972   1.462   4.177  12.669 -1.1014  0.4587  0.0619
  813MPD2    H311973   1.221   4.193  12.753  0.2866  0.5381  0.8842
  813MPD2     N11974   1.346   4.023  13.170  0.2328 -0.0328  0.1029
  813MPD2    H511975   1.423   3.993  13.229  0.0544  0.8536  0.7782
  813MPD2    N111976   1.674   4.151  12.821 -0.1376  0.2984  0.1144
  813MPD2    H711977   1.686   4.204  12.736  1.5254  0.4579  0.4452
  814MPD2     C11978   1.857   0.168  12.347  0.8360 -0.5903 -0.6210
  814MPD2    C111979   1.868   0.229  12.220  0.6496  0.0939  0.6560
  814MPD2    C211980   1.919   0.354  12.211  0.0830 -0.5891 -0.0903
  814MPD2    C311981   1.974   0.418  12.318  0.3299  0.6216 -0.5764
  814MPD2    C411982   1.976   0.349  12.441 -0.1635  0.8820  0.4199
  814MPD2    C511983   1.913   0.232  12.453  0.0378 -0.0294  0.1501
  814MPD2     H11984   1.896   0.403  12.117  1.7103  2.3152  1.0278
  814MPD2    H111985   1.998   0.398  12.535  2.5380 -1.9510  1.2635
  814MPD2    H211986   1.812   0.071  12.365 -2.0164  0.8402 -0.0857
  814MPD2    H311987   1.895   0.188  12.550  1.9992  0.1296  0.5906
  814MPD2     N11988   2.024   0.550  12.307  0.0256 -0.3437  0.3200
  814MPD2    H511989   2.051   0.589  12.396  1.1038 -1.1314  0.3442
  814MPD2    N111990   1.798   0.181  12.110  0.5846 -0.2148  0.5224
  814MPD2    H711991   1.794   0.243  12.029 -0.3938 -0.2421  0.5536
  815MPD2     C11992   2.292   3.954  11.478 -0.0647  0.0372 -0.3653
  815MPD2    C111993   2.290   3.837  11.557  0.1813  0.2133  0.0484
  815MPD2    C211994   2.236   3.851  11.685  0.3314  0.3071  0.7423
  815MPD2    C311995   2.190   3.972  11.739 -0.1163  0.2180 -0.2970
  815MPD2    C411996   2.199   4.086  11.655  0.1529  0.4740 -0.3292
  815MPD2    C511997   2.245   4.070  11.524 -0.2082 -0.5801  0.0432
  815MPD2     H11998   2.224   3.765  11.750  1.9108 -0.0886  0.5031
  815MPD2    H111999   2.171   4.182  11.697  0.5353 -0.0683  1.1587
  815MPD2    H212000   2.329   3.960  11.376 -0.0450 -2.3787 -0.5162
  815MPD2    H312001   2.247   4.156  11.458  0.8232 -0.1608  0.6311
  815MPD2     N12002   2.129   3.970  11.872  0.5386 -0.1884  0.6397
  815MPD2    H512003   2.137   3.878  11.914  4.8057  0.5606  1.4361
  815MPD2    N112004   2.342   3.717  11.499  0.1360  0.1494  0.1182
  815MPD2    H712005   2.380   3.729  11.405  2.0051  0.2139  0.8739
  816MPD2     C12006   2.046   2.779  17.137  0.0211 -0.5419  0.3053
  816MPD2    C112007   2.118   2.867  17.215  0.1522  1.1046 -0.3664
  816MPD2    C212008   2.254   2.846  17.238  0.2936  0.0926 -0.1122
  816MPD2    C312009   2.320   2.731  17.184 -0.5301  0.1839 -0.0888
  816MPD2    C412010   2.240   2.638  17.121  0.2526 -0.0439 -1.1275
  816MPD2    C512011   2.109   2.663  17.095 -0.1558  0.0585 -0.4094
  816MPD2     H12012   2.313   2.923  17.285  3.7354 -2.7103  0.1856
  816MPD2    H112013   2.280   2.544  17.087 -0.2818  0.2997 -2.6812
  816MPD2    H212014   1.942   2.776  17.108 -0.0265 -0.0368  0.4167
  816MPD2    H312015   2.059   2.598  17.025 -0.6405 -0.8441  0.7791
  816MPD2     N12016   2.462   2.726  17.192 -0.1919  0.1151 -0.0528
  816MPD2    H512017   2.514   2.807  17.223 -0.1604  0.1814 -0.2777
  816MPD2    N112018   2.042   2.973  17.261 -0.4694 -0.2075 -0.2624
  816MPD2    H712019   1.948   2.974  17.221 -0.7832  1.0683  0.4816
  817MPD2     C12020   1.418   4.099   9.821  0.5748 -0.4410 -0.0915
  817MPD2    C112021   1.538   4.147   9.779 -0.1590  0.1011 -0.6192
  817MPD2    C212022   1.560   4.282   9.756 -0.7817  0.4455  0.1460
  817MPD2    C312023   1.454   4.369   9.772  0.5344 -0.5358 -0.1107
  817MPD2    C412024   1.331   4.326   9.822  0.0010  0.2136 -0.2637
  817MPD2    C512025   1.313   4.190   9.843 -0.8534 -0.0808  0.0830
  817MPD2     H12026   1.646   4.315   9.700 -1.0635 -3.2024 -2.4288
  817MPD2    H112027   1.241   4.382   9.842  0.1676  0.9024 -1.4389
  817MPD2    H212028   1.389   3.996   9.837  1.6338 -0.7846 -0.3458
  817MPD2    H312029   1.223   4.153   9.890  0.5828 -2.4506  0.9752
  817MPD2     N12030   1.485   4.502   9.748  0.3312  0.5042 -0.4260
  817MPD2    H512031   1.583   4.527   9.756  0.5567 -0.5580  0.1260
  817MPD2    N112032   1.650   4.058   9.747  0.3296 -0.2519  0.7631
  817MPD2    H712033   1.732   4.108   9.712  0.2796 -1.0405 -0.4996
  818MPD2     C12034   0.797   3.597  10.107 -0.1201 -0.5933  0.2392
  818MPD2    C112035   0.724   3.507  10.181  0.4528 -0.2001 -0.1923
  818MPD2    C212036   0.764   3.375  10.201  0.3241 -0.1830  0.1090
  818MPD2    C312037   0.890   3.336  10.154  0.2583 -0.6322  0.9064
  818MPD2    C412038   0.968   3.431  10.094  0.1712  0.2163  0.0697
  818MPD2    C512039   0.922   3.556  10.062  0.5965 -0.2098 -0.5278
  818MPD2     H12040   0.708   3.310  10.267 -0.0796 -0.3027 -0.3475
  818MPD2    H112041   1.065   3.403  10.054  0.5853  1.5846  0.1156
  818MPD2    H212042   0.768   3.701  10.094  0.6722 -0.5462 -1.0781
  818MPD2    H312043   0.978   3.627  10.002 -0.9543  1.6723  0.2547
  818MPD2     N12044   0.938   3.205  10.172  0.0342  0.4274  0.2537
  818MPD2    H512045   1.035   3.174  10.163  0.3887  1.0930  1.7203
  818MPD2    N112046   0.597   3.540  10.243  0.1988 -0.0657 -0.3942
  818MPD2    H712047   0.565   3.476  10.314  0.6025 -0.6859 -0.7634
  819MPD2     C12048   3.874   1.245  15.403  0.0560  0.0087  0.5952
  819MPD2    C112049   3.912   1.106  15.418 -0.0762  0.2382 -0.2447
  819MPD2    C212050   4.023   1.074  15.494  0.4506  0.6286 -0.4795
  819MPD2    C312051   4.094   1.172  15.560  0.1300 -0.6174 -0.2696
  819MPD2    C412052   4.053   1.302  15.552  0.5099 -0.0184  0.4650
  819MPD2    C512053   3.947   1.335  15.477  0.2896 -0.0752 -0.2222
  819MPD2     H12054   4.053   0.970  15.499  2.1299  0.9947 -3.0478
  819MPD2    H112055   4.105   1.388  15.593 -1.4211  1.6419 -0.5281
  819MPD2    H212056   3.788   1.277  15.345 -0.7267 -0.7685  1.3116
  819MPD2    H312057   3.920   1.440  15.470 -0.2263 -0.1641  0.4020
  819MPD2     N12058   4.218   1.138  15.625 -0.1830 -0.4487 -0.3776
  819MPD2    H512059   4.263   1.050  15.600 -0.6879 -0.6135 -0.6997
  819MPD2    N112060   3.840   1.006  15.342  0.0803 -0.9190  0.5036
  819MPD2    H712061   3.768   1.036  15.277 -0.1258 -1.2573  0.5798
  820MPD2     C12062   3.103   0.897  14.720 -0.6366 -0.4189 -0.6457
  820MPD2    C112063   3.174   1.000  14.782  0.0392 -0.3985 -1.9119
  820MPD2    C212064   3.280   0.969  14.855 -0.0548 -0.3920  0.1593
  820MPD2    C312065   3.324   0.836  14.874 -0.9271  0.5092  0.0470
  820MPD2    C412066   3.252   0.735  14.805  0.3949  0.1275 -0.2097
  820MPD2    C512067   3.140   0.768  14.737 -0.2576 -0.3852  0.1722
  820MPD2     H12068   3.335   1.048  14.905  2.0162 -1.8178  0.1406
  820MPD2    H112069   3.287   0.633  14.796  0.0542  0.0563 -0.7503
  820MPD2    H212070   3.016   0.917  14.658 -3.4580 -0.9951  3.1639
  820MPD2    H312071   3.082   0.693  14.685 -1.1648 -0.3366  1.0975
  820MPD2     N12072   3.430   0.789  14.954 -0.3817 -0.3729  0.4799
  820MPD2    H512073   3.441   0.688  14.957 -0.4453 -0.4087 -0.7931
  820MPD2    N112074   3.116   1.128  14.769 -0.3399  0.2806 -0.4964
  820MPD2    H712075   3.030   1.134  14.716 -0.6810  0.0924  0.0410
  821MPD2     C12076   3.554   2.441  12.534  0.2127  0.3960 -0.1739
  821MPD2    C112077   3.638   2.474  12.632 -0.7197 -0.3277 -0.3925
  821MPD2    C212078   3.686   2.601  12.633 -0.7838 -0.0247 -0.9735
  821MPD2    C312079   3.651   2.698  12.538  0.5855  0.5978 -0.1664
  821MPD2    C412080   3.576   2.655  12.431 -0.2357 -0.3448  0.3918
  821MPD2    C512081   3.539   2.525  12.430  0.1488  0.4244  0.0465
  821MPD2     H12082   3.746   2.630  12.719 -0.6834 -4.2839  0.3972
  821MPD2    H112083   3.564   2.717  12.343  1.3222 -1.9900 -0.9632
  821MPD2    H212084   3.507   2.343  12.543  0.4525  0.2906 -0.0626
  821MPD2    H312085   3.496   2.492  12.336 -1.4363  0.9274  0.6036
  821MPD2     N12086   3.704   2.830  12.540 -0.4062 -0.4254  0.3244
  821MPD2    H512087   3.712   2.880  12.452 -1.8513  0.2213  0.5698
  821MPD2    N112088   3.669   2.395  12.745 -0.0861  0.5156 -0.0071
  821MPD2    H712089   3.749   2.432  12.795 -1.0639  0.2273  1.7701
  822MPD2     C12090   4.480   2.797  15.640 -0.3095  0.3153 -0.2143
  822MPD2    C112091   4.576   2.832  15.734  0.3349  0.4987  0.3211
  822MPD2    C212092   4.555   2.944  15.807 -0.1370 -0.0764 -0.3973
  822MPD2    C312093   4.437   3.012  15.803 -1.0774  0.0137 -0.1942
  822MPD2    C412094   4.336   2.975  15.714  0.0610 -0.0407  0.0260
  822MPD2    C512095   4.366   2.873  15.630 -0.8774  0.4505 -0.8575
  822MPD2     H12096   4.632   2.969  15.880  0.4052  0.3299 -1.1087
  822MPD2    H112097   4.251   3.037  15.691  0.1495  0.4765  1.0906
  822MPD2    H212098   4.495   2.709  15.579 -0.4381  0.4097 -0.3810
  822MPD2    H312099   4.294   2.836  15.557  1.2874  0.8001 -3.1902
  822MPD2     N12100   4.421   3.123  15.896 -0.1693  0.2568 -0.0372
  822MPD2    H512101   4.328   3.150  15.926  0.2883  0.5505  1.0821
  822MPD2    N112102   4.689   2.762  15.768 -0.1250 -0.5296  0.0113
  822MPD2    H712103   0.014   2.805  15.847  0.7181 -0.7039 -0.4014
  823MPD2     C12104   4.402   3.346  16.739 -0.8664 -0.1487 -0.3694
  823MPD2    C112105   4.407   3.267  16.629  0.1381 -0.0404  0.5674
  823MPD2    C212106   4.438   3.134  16.647  0.4679  0.0966  0.0103
  823MPD2    C312107   4.449   3.071  16.766  0.3045  0.0003 -0.0256
  823MPD2    C412108   4.430   3.149  16.877  0.2043  0.0756  0.4024
  823MPD2    C512109   4.410   3.283  16.862  0.2723  0.2625 -0.1520
  823MPD2     H12110   4.447   3.071  16.559  2.7834 -0.1012  0.4129
  823MPD2    H112111   4.435   3.109  16.977  3.2688 -0.1978  0.1150
  823MPD2    H212112   4.380   3.452  16.740  0.4702  0.1272 -0.5515
  823MPD2    H312113   4.408   3.342  16.953 -0.1711 -0.5462  0.3553
  823MPD2     N12114   4.483   2.929  16.789 -0.2010 -0.1186  0.5285
  823MPD2    H512115   4.492   2.908  16.888 -1.6577  1.0973  0.9115
  823MPD2    N112116   4.401   3.337  16.500  0.0446 -0.0256  0.4642
  823MPD2    H712117   4.407   3.438  16.506  3.4919 -0.1294 -1.6960
  824MPD2     C12118   0.176   1.921  15.774 -0.3686 -1.0029 -0.4613
  824MPD2    C112119   0.281   1.997  15.740  0.3704  0.1408  0.1592
  824MPD2    C212120   0.397   1.939  15.694  0.2117  0.2342 -0.3063
  824MPD2    C312121   0.401   1.802  15.660  0.2095 -0.4025 -0.1549
  824MPD2    C412122   0.294   1.723  15.694 -0.3177  0.1583 -0.3337
  824MPD2    C512123   0.187   1.787  15.751 -0.0612 -0.3892 -0.0775
  824MPD2     H12124   0.488   1.998  15.690  2.2313 -2.9225 -1.6165
  824MPD2    H112125   0.282   1.620  15.664 -0.4670  0.0514  0.1006
  824MPD2    H212126   0.079   1.956  15.806  0.4604 -0.0972  1.0478
  824MPD2    H312127   0.107   1.721  15.784  0.3563  0.8710  3.4984
  824MPD2     N12128   0.515   1.752  15.598  0.1882 -0.3737 -0.7007
  824MPD2    H512129   0.562   1.831  15.556 -0.3475 -0.6701 -1.8714
  824MPD2    N112130   0.273   2.138  15.755 -0.2669  0.2131 -0.2507
  824MPD2    H712131   0.361   2.188  15.760 -0.4332  0.6030 -1.0474
  825MPD2     C12132   1.220   1.885  15.220  0.6628  0.5069  0.1551
  825MPD2    C112133   1.087   1.885  15.186 -0.0655 -0.4332  0.2257
  825MPD2    C212134   1.035   1.988  15.107 -1.0905 -0.5034 -0.2921
  825MPD2    C312135   1.118   2.081  15.042 -0.6923 -0.1912 -0.2621
  825MPD2    C412136   1.253   2.082  15.083  0.5335 -0.7608  0.0091
  825MPD2    C512137   1.297   1.985  15.173  0.1323 -0.3247  0.9387
  825MPD2     H12138   0.929   1.987  15.083 -1.2495 -1.0163  0.4294
  825MPD2    H112139   1.308   2.172  15.062 -1.0822 -0.5419 -3.2782
  825MPD2    H212140   1.262   1.808  15.283  0.1426 -0.6359 -0.8853
  825MPD2    H312141   1.400   1.999  15.205  1.0427 -1.4372 -1.4919
  825MPD2     N12142   1.076   2.189  14.949 -0.5242  0.7613  0.0638
  825MPD2    H512143   1.152   2.238  14.903  0.6194 -0.0507  1.1036
  825MPD2    N112144   1.002   1.794  15.251 -0.0362 -0.1383 -0.0457
  825MPD2    H712145   1.048   1.731  15.316 -0.7853 -2.4321 -1.7490
  826MPD2     C12146   0.140   1.424  13.322  0.2522  0.6129 -0.2451
  826MPD2    C112147   0.217   1.533  13.336 -0.2364  0.5910 -0.0360
  826MPD2    C212148   0.154   1.650  13.373  0.0595 -0.0368  0.0219
  826MPD2    C312149   0.014   1.655  13.377  0.3313  0.7776 -0.3428
  826MPD2    C412150   4.654   1.542  13.356 -0.0931 -0.5226  0.2124
  826MPD2    C512151   0.001   1.428  13.329  0.6586 -0.2432 -0.1958
  826MPD2     H12152   0.210   1.735  13.410  2.1657 -1.4821  0.1620
  826MPD2    H112153   4.546   1.539  13.355 -0.1055  0.5071 -2.1412
  826MPD2    H212154   0.181   1.325  13.311 -1.6940  0.1465 -3.3504
  826MPD2    H312155   4.666   1.337  13.316 -0.0126  0.2210 -0.4890
  826MPD2     N12156   4.672   1.772  13.399  0.1664 -0.6993  0.0404
  826MPD2    H512157   4.575   1.770  13.431 -0.5578 -0.2080 -2.1696
  826MPD2    N112158   0.358   1.522  13.342  0.5874 -0.0828  0.5100
  826MPD2    H712159   0.396   1.428  13.333  0.3471  0.1132 -2.4719
  827MPD2     C12160   1.280   2.853  10.068  0.0061  0.6170  0.0187
  827MPD2    C112161   1.265   2.743  10.146  0.1342  0.4752  0.1317
  827MPD2    C212162   1.201   2.633  10.100  0.1064 -0.5935  0.2706
  827MPD2    C312163   1.144   2.625   9.978 -0.3815 -0.4588 -0.4592
  827MPD2    C412164   1.162   2.739   9.898  0.3329  0.0867 -0.1654
  827MPD2    C512165   1.226   2.850   9.944  0.0033 -0.2929 -0.6517
  827MPD2     H12166   1.192   2.542  10.159 -1.0731 -0.6054  0.0643
  827MPD2    H112167   1.134   2.746   9.794 -1.8545  2.5754  0.5636
  827MPD2    H212168   1.339   2.936  10.106  1.2413  0.9224 -2.5409
  827MPD2    H312169   1.242   2.937   9.882 -0.1757 -0.1967 -0.5625
  827MPD2     N12170   1.084   2.508   9.926  0.1348 -0.1198 -0.5711
  827MPD2    H512171   1.078   2.431   9.993 -3.8927 -0.1575 -0.9469
  827MPD2    N112172   1.331   2.740  10.279 -0.2351  0.3113  0.1844
  827MPD2    H712173   1.371   2.827  10.314  2.8983 -0.8599 -0.5173
  828MPD2     C12174   4.308   2.865  12.466 -0.3223 -0.3774  0.0597
  828MPD2    C112175   4.332   2.868  12.326  0.0451 -0.6447  0.6787
  828MPD2    C212176   4.462   2.870  12.286  0.0546  0.2331  0.5126
  828MPD2    C312177   4.569   2.881  12.382  0.0013  0.5930 -0.4585
  828MPD2    C412178   4.540   2.881  12.513  0.4911  0.6442  0.2841
  828MPD2    C512179   4.411   2.869  12.554  0.7181 -0.5378  0.3700
  828MPD2     H12180   4.476   2.872  12.179  2.7485  0.1187  0.8631
  828MPD2    H112181   4.619   2.882  12.587 -0.4940 -0.8972  1.3497
  828MPD2    H212182   4.214   2.858  12.519 -1.4081 -0.3134 -1.8399
  828MPD2    H312183   4.381   2.870  12.658  2.1658  1.2429  0.7548
  828MPD2     N12184   4.707   2.896  12.341 -0.3841 -0.2099 -0.1930
  828MPD2    H512185   0.051   2.896  12.418 -2.0414 -0.5085  1.2390
  828MPD2    N112186   4.230   2.879  12.233  0.1140  0.2372 -0.1459
  828MPD2    H712187   4.258   2.897  12.137 -1.4393 -3.1886 -1.2265
  829MPD2     C12188   4.401   3.114  11.482 -0.0080 -0.5154 -0.2575
  829MPD2    C112189   4.265   3.120  11.459  0.2321 -0.1436  0.3383
  829MPD2    C212190   4.178   3.102  11.569  0.0744 -0.4129  0.4051
  829MPD2    C312191   4.227   3.090  11.698 -0.4742  0.1510 -0.6636
  829MPD2    C412192   4.368   3.098  11.722  0.2877 -0.3028  0.1574
  829MPD2    C512193   4.451   3.103  11.607  0.1838  0.4784  0.4010
  829MPD2     H12194   4.071   3.099  11.559  0.2490 -2.1337 -0.9353
  829MPD2    H112195   4.413   3.087  11.820 -0.5232  1.1413  0.6877
  829MPD2    H212196   4.473   3.115  11.401 -0.0350 -2.1388 -0.3132
  829MPD2    H312197   4.559   3.109  11.620  0.2713 -2.4887  0.9696
  829MPD2     N12198   4.150   3.069  11.809  0.2016  0.0610  0.8536
  829MPD2    H512199   4.203   3.039  11.890  2.5138  0.4768 -0.4827
  829MPD2    N112200   4.225   3.118  11.323 -0.2289 -0.0472 -0.7061
  829MPD2    H712201   4.295   3.121  11.248 -0.1267  0.3239 -0.5961
  830MPD2     C12202   0.341   1.068  15.573  0.4214 -0.2058  0.1614
  830MPD2    C112203   0.224   1.133  15.534  0.0756  0.0444  0.2586
  830MPD2    C212204   0.235   1.232  15.437 -0.0114  0.2676 -0.1474
  830MPD2    C312205   0.350   1.273  15.383  0.3854  0.5671 -0.5475
  830MPD2    C412206   0.470   1.210  15.425 -0.3981 -0.2937 -0.3411
  830MPD2    C512207   0.463   1.109  15.519 -0.0977  0.1144 -0.5531
  830MPD2     H12208   0.149   1.287  15.401  0.5027  0.0374 -1.7630
  830MPD2    H112209   0.566   1.232  15.378  0.4219 -0.8943  1.0721
  830MPD2    H212210   0.338   0.993  15.651  0.7537 -0.3337  0.0545
  830MPD2    H312211   0.548   1.058  15.563 -0.4434  1.6850  1.9409
  830MPD2     N12212   0.360   1.374  15.286 -0.2397  0.2274 -0.2224
  830MPD2    H512213   0.454   1.402  15.260 -0.7045  0.4599 -1.6889
  830MPD2    N112214   0.112   1.101  15.614 -0.8498  0.1313 -0.2798
  830MPD2    H712215   0.126   1.043  15.697 -3.3000  1.9537  1.4063
  831MPD2     C12216   0.170   3.223  16.210  0.3211  0.2241  0.5034
  831MPD2    C112217   0.151   3.119  16.117  0.3796 -0.6823 -0.1752
  831MPD2    C212218   0.039   3.036  16.141  0.1391  0.7882  0.4962
  831MPD2    C312219   4.680   3.048  16.249  0.1772  0.4267 -0.1112
  831MPD2    C412220   4.709   3.152  16.335 -0.0534  0.0590  0.6521
  831MPD2    C512221   0.098   3.231  16.324  0.6345  0.1274 -0.0785
  831MPD2     H12222   0.011   2.968  16.060 -2.4357  0.3532  1.7370
  831MPD2    H112223   4.651   3.164  16.425 -2.5428  0.7115 -1.0163
  831MPD2    H212224   0.248   3.297  16.192 -0.8314  1.6328  1.3816
  831MPD2    H312225   0.106   3.304  16.404 -0.1538 -2.4823  2.3971
  831MPD2     N12226   4.558   2.980  16.262 -0.0472 -0.0744  0.4707
  831MPD2    H512227   4.487   3.001  16.332 -0.4889  1.8372 -0.5400
  831MPD2    N112228   0.239   3.112  16.010  0.4349  0.8804  0.7344
  831MPD2    H712229   0.304   3.189  15.998  0.0295  1.0244 -0.4450
  832MPD2     C12230   3.050   3.684  17.232 -0.2019  0.1898 -0.0063
  832MPD2    C112231   3.024   3.807  17.284 -0.3578 -0.7250 -0.3019
  832MPD2    C212232   2.921   3.879  17.244  0.3152  0.1692 -0.2682
  832MPD2    C312233   2.828   3.824  17.155  0.0820 -0.6087  0.1010
  832MPD2    C412234   2.848   3.704  17.099  0.5572 -0.5079 -0.2511
  832MPD2    C512235   2.968   3.636  17.130 -0.0022  0.8251  0.1297
  832MPD2     H12236   2.884   3.966  17.298 -1.4578  2.2044 -4.7584
  832MPD2    H112237   2.775   3.672  17.025  1.5463 -1.2528 -0.9091
  832MPD2    H212238   3.140   3.634  17.264  0.3478  0.6726 -0.7992
  832MPD2    H312239   2.977   3.536  17.089 -0.7448  1.0277 -0.5343
  832MPD2     N12240   2.711   3.889  17.110 -0.1958 -0.5391  0.5340
  832MPD2    H512241   2.639   3.828  17.075  0.2059  0.4445 -1.9727
  832MPD2    N112242   3.101   3.853  17.392  0.3304 -0.1175  0.6821
  832MPD2    H712243   3.174   3.792  17.428  4.1236  3.3380 -1.1300
  833MPD2     C12244   0.569   0.640  12.336 -0.0783 -0.1184  0.5352
  833MPD2    C112245   0.525   0.670  12.210  0.8989  0.4418  0.5203
  833MPD2    C212246   0.543   0.578  12.112  0.4976 -0.3499 -0.8180
  833MPD2    C312247   0.610   0.457  12.136 -0.9499 -0.3741 -0.3597
  833MPD2    C412248   0.653   0.433  12.262 -0.0347 -0.6412  0.1283
  833MPD2    C512249   0.627   0.518  12.362 -1.0407  0.0959 -0.4641
  833MPD2     H12250   0.506   0.606  12.014 -1.5692  3.1166  0.9343
  833MPD2    H112251   0.691   0.334  12.285  0.6089  0.0171  1.9043
  833MPD2    H212252   0.567   0.710  12.419 -1.1097  2.5321 -1.7331
  833MPD2    H312253   0.655   0.494  12.464 -1.8736  2.3274  0.3097
  833MPD2     N12254   0.623   0.357  12.037  0.2697 -0.3472 -0.3003
  833MPD2    H512255   0.655   0.267  12.071  1.4421 -0.1235 -0.8304
  833MPD2    N112256   0.452   0.788  12.182 -0.1254  0.2883  0.2580
  833MPD2    H712257   0.419   0.811  12.089 -0.2139  0.3097  0.2949
  834MPD2     C12258   0.151   4.236  11.862 -0.1322  0.0668 -0.5023
  834MPD2    C112259   0.126   4.289  11.736  0.5259 -0.5454  0.6737
  834MPD2    C212260   0.188   4.413  11.702 -0.1652  0.3246 -0.3855
  834MPD2    C312261   0.254   4.487  11.797 -0.0178 -0.1671 -0.6819
  834MPD2    C412262   0.261   4.437  11.930  0.3639 -0.4695  0.3116
  834MPD2    C512263   0.219   4.311  11.957 -0.0047 -0.3066 -0.0531
  834MPD2     H12264   0.172   4.446  11.600 -0.2512  0.4895 -0.3186
  834MPD2    H112265   0.302   4.503  12.006 -0.8364  1.2684 -0.5764
  834MPD2    H212266   0.114   4.135  11.876  0.8606 -0.1405  0.6605
  834MPD2    H312267   0.221   4.280  12.060  1.2339  0.6693  0.2095
  834MPD2     N12268   0.308   4.611  11.761  0.4092  0.1790  0.1609
  834MPD2    H512269   0.257   4.663  11.690 -0.7826 -0.9610  0.1902
  834MPD2    N112270   0.059   4.206  11.643 -0.7298 -0.5804 -0.5260
  834MPD2    H712271   0.029   4.119  11.686 -0.3651 -0.4179  0.0619
  835MPD2     C12272   0.410   2.447  10.931 -0.5664  0.4185 -0.3500
  835MPD2    C112273   0.375   2.575  10.893 -0.6704  0.2315 -0.2775
  835MPD2    C212274   0.361   2.672  10.995 -0.1610 -0.4637  0.3318
  835MPD2    C312275   0.391   2.642  11.131 -0.4927  0.4107 -0.4602
  835MPD2    C412276   0.431   2.518  11.163 -0.1438 -0.4049 -0.3031
  835MPD2    C512277   0.434   2.419  11.063  0.5636  0.8986  0.4811
  835MPD2     H12278   0.333   2.773  10.966 -1.3615 -0.9999 -0.3433
  835MPD2    H112279   0.454   2.493  11.266  0.3404 -1.2904 -0.6281
  835MPD2    H212280   0.421   2.367  10.859 -0.9848  0.0532 -0.0097
  835MPD2    H312281   0.462   2.317  11.087  1.3055  0.8199 -0.7192
  835MPD2     N12282   0.385   2.732  11.241  0.0171 -0.3818  0.1237
  835MPD2    H512283   0.416   2.695  11.330 -1.1035  0.5166  0.8843
  835MPD2    N112284   0.361   2.615  10.763  0.3232 -0.7362 -0.2321
  835MPD2    H712285   0.326   2.710  10.759  1.2742 -0.3737  0.2811
  836MPD2     C12286   0.115   3.504  11.218 -0.0938 -0.0822 -0.3425
  836MPD2    C112287   0.084   3.417  11.318 -0.7727 -0.3244  0.2629
  836MPD2    C212288   4.692   3.444  11.393  0.3227 -0.0187  0.0934
  836MPD2    C312289   4.593   3.536  11.353 -0.5905  0.2319  0.4706
  836MPD2    C412290   4.624   3.618  11.248  0.5646  0.0986 -0.0493
  836MPD2    C512291   0.023   3.605  11.188 -0.3342  0.1872 -0.3187
  836MPD2     H12292   4.666   3.390  11.484  1.3816 -0.0212  0.3968
  836MPD2    H112293   4.563   3.698  11.207  0.0808  0.3880  1.2244
  836MPD2    H212294   0.210   3.502  11.167 -0.7536  0.1953 -1.5796
  836MPD2    H312295   0.043   3.669  11.103 -0.2503  0.2054 -0.2855
  836MPD2     N12296   4.472   3.560  11.418 -0.4891 -0.5180  0.3488
  836MPD2    H512297   4.402   3.618  11.373  0.2133 -0.9826 -1.3372
  836MPD2    N112298   0.179   3.323  11.360 -0.2201 -0.6076  0.1609
  836MPD2    H712299   0.259   3.324  11.297 -0.3464  1.3470  0.0352
  837MPD2     C12300   3.220   2.110  10.297 -0.4068  0.0673 -0.5586
  837MPD2    C112301   3.129   2.188  10.227 -0.2413 -0.8493  0.1452
  837MPD2    C212302   3.171   2.301  10.158  0.1538  0.1951  0.1705
  837MPD2    C312303   3.304   2.333  10.144 -0.4654  0.5723  0.1779
  837MPD2    C412304   3.394   2.258  10.218 -0.1911 -0.0462  0.2424
  837MPD2    C512305   3.354   2.147  10.296  0.7767 -0.3168  0.0814
  837MPD2     H12306   3.102   2.360  10.099 -0.4256 -2.1565 -1.5164
  837MPD2    H112307   3.500   2.280  10.220 -1.0270  3.9940  0.6385
  837MPD2    H212308   3.189   2.025  10.357  0.4303  1.4475  1.7971
  837MPD2    H312309   3.433   2.104  10.357 -1.0065 -2.0761  1.1400
  837MPD2     N12310   3.345   2.448  10.064  0.0434  0.3016 -0.3633
  837MPD2    H512311   3.266   2.507  10.038 -1.5154 -2.1699 -1.2554
  837MPD2    N112312   2.990   2.150  10.217  0.4390 -0.2503  0.1065
  837MPD2    H712313   2.941   2.220  10.162 -1.3761  0.4951  2.6516
  838MPD2     C12314   1.352   0.926  11.693  0.1746 -0.4957 -0.2018
  838MPD2    C112315   1.393   0.860  11.808  0.1973 -0.7326  0.5783
  838MPD2    C212316   1.314   0.766  11.863 -0.2607  0.1968  0.1553
  838MPD2    C312317   1.186   0.748  11.814 -0.1754 -0.0209  0.5237
  838MPD2    C412318   1.151   0.797  11.692 -0.3398  0.2567  0.4953
  838MPD2    C512319   1.230   0.896  11.631 -0.0736  0.0147  0.6110
  838MPD2     H12320   1.352   0.707  11.946 -0.6490  2.0156  1.6305
  838MPD2    H112321   1.056   0.777  11.644 -0.2033  0.0315  0.3216
  838MPD2    H212322   1.411   1.005  11.649 -0.6804  0.1065 -0.2715
  838MPD2    H312323   1.202   0.936  11.534  1.5429 -0.5434 -0.0969
  838MPD2     N12324   1.103   0.663  11.890 -0.1828 -0.3219  0.1366
  838MPD2    H512325   1.136   0.650  11.985  0.3173 -1.2952 -0.1684
  838MPD2    N112326   1.521   0.865  11.871  0.4770  0.1863  0.5556
  838MPD2    H712327   1.536   0.805  11.951 -0.9111 -1.6478 -0.5780
  839MPD2     C12328   1.276   0.359  12.050 -0.1318 -0.6704  0.6154
  839MPD2    C112329   1.323   0.374  11.919 -0.4881  0.2984 -0.1110
  839MPD2    C212330   1.455   0.409  11.910 -0.0957  0.0333 -0.2589
  839MPD2    C312331   1.530   0.453  12.019  0.2662 -0.5324  0.1528
  839MPD2    C412332   1.475   0.442  12.145 -0.7754 -0.1238 -0.2032
  839MPD2    C512333   1.349   0.398  12.161  0.2470 -0.5131 -0.4684
  839MPD2     H12334   1.495   0.426  11.811 -2.1377 -2.0659 -1.4483
  839MPD2    H112335   1.537   0.483  12.224 -0.5831 -0.3703 -0.2268
  839MPD2    H212336   1.170   0.342  12.066 -0.6716  1.5299 -0.5321
  839MPD2    H312337   1.299   0.394  12.258  1.6080  0.4210  0.2641
  839MPD2     N12338   1.653   0.515  12.010  0.4238  0.4567  0.3986
  839MPD2    H512339   1.695   0.551  12.094 -0.5303 -1.0462  1.5253
  839MPD2    N112340   1.248   0.346  11.805  0.2846  0.0986 -0.1980
  839MPD2    H712341   1.289   0.356  11.713 -0.8041  1.0432 -0.5856
  840MPD2     C12342   1.883   3.018  10.299  0.1073  0.0919 -0.6964
  840MPD2    C112343   1.842   3.011  10.437 -0.3401 -0.8169  0.6320
  840MPD2    C212344   1.881   3.118  10.525  0.5280 -0.0548  0.4782
  840MPD2    C312345   1.962   3.217  10.489 -0.1260 -0.0652  0.5603
  840MPD2    C412346   1.999   3.221  10.356 -0.3334 -0.2003  0.7030
  840MPD2    C512347   1.962   3.118  10.270 -0.3522 -0.1399 -0.4548
  840MPD2     H12348   1.863   3.101  10.631 -1.2834 -1.5755 -0.0629
  840MPD2    H112349   2.055   3.305  10.316  0.4556 -1.7148 -1.3665
  840MPD2    H212350   1.854   2.943  10.226  1.2947  0.2091 -1.2744
  840MPD2    H312351   1.992   3.131  10.166 -0.0208 -0.0765 -0.3511
  840MPD2     N12352   1.997   3.335  10.565  0.7177  0.5700  0.3610
  840MPD2    H512353   2.045   3.414  10.524 -0.9382 -0.1725 -3.0421
  840MPD2    N112354   1.754   2.903  10.466  0.9145 -0.2111 -0.1967
  840MPD2    H712355   1.741   2.840  10.388 -2.0683  1.2352 -0.8799
  841MPD2     C12356   1.490   3.344  14.571  0.2037  0.6162 -0.3672
  841MPD2    C112357   1.573   3.232  14.559  0.1548  0.2271  0.3163
  841MPD2    C212358   1.698   3.233  14.615  0.1599  0.4539  1.0352
  841MPD2    C312359   1.744   3.332  14.697  0.1039 -0.1033  0.3445
  841MPD2    C412360   1.666   3.444  14.706 -0.4896 -0.7799 -0.9939
  841MPD2    C512361   1.540   3.451  14.642 -0.1167  0.2829 -0.4908
  841MPD2     H12362   1.754   3.140  14.610 -2.1792 -0.9487  0.8408
  841MPD2    H112363   1.697   3.520  14.777 -1.1563 -0.2128 -1.3120
  841MPD2    H212364   1.393   3.351  14.523 -0.1644 -0.2718  0.2382
  841MPD2    H312365   1.476   3.537  14.658 -2.0394 -0.9924 -1.2638
  841MPD2     N12366   1.874   3.305  14.765 -0.0028 -0.3127 -0.2428
  841MPD2    H512367   1.921   3.221  14.733  0.4515  0.8373 -2.6545
  841MPD2    N112368   1.539   3.118  14.488  0.7001  0.1284 -0.1365
  841MPD2    H712369   1.602   3.039  14.498  2.8547  1.9383  0.3891
  842MPD2     C12370   2.223   4.636  16.852 -0.8559  0.2953  0.7258
  842MPD2    C112371   2.110   4.599  16.921  0.3325  0.2988 -0.1403
  842MPD2    C212372   2.119   4.520  17.028  0.3610 -0.0893 -0.7032
  842MPD2    C312373   2.241   4.471  17.069 -0.2510 -0.3661  0.4288
  842MPD2    C412374   2.361   4.504  17.010  0.0984 -0.6926 -0.5965
  842MPD2    C512375   2.346   4.588  16.898  0.3728 -0.4159 -1.2433
  842MPD2     H12376   2.031   4.508  17.090  2.3276 -1.2075  1.8681
  842MPD2    H112377   2.458   4.472  17.046  1.0356  1.4371 -1.2695
  842MPD2    H212378   2.225   4.689  16.757  0.2339 -0.6519  0.2200
  842MPD2    H312379   2.434   4.631  16.851  0.0699  1.1962 -0.3284
  842MPD2     N12380   2.263   4.392  17.184 -0.5665  0.1571 -0.4644
  842MPD2    H512381   2.357   4.381  17.220 -0.3595  1.7898 -0.5162
  842MPD2    N112382   2.000   4.664  16.878  0.0712 -0.2104 -0.1945
  842MPD2    H712383   2.008   0.005  16.800 -1.4521  0.4916  0.2206
  843MPD2     C12384   3.823   0.562   0.329  0.5939  0.1701  0.8265
  843MPD2    C112385   3.914   0.459   0.323 -0.2164 -0.3883  0.2392
  843MPD2    C212386   4.047   0.480   0.304  0.2439 -0.6486 -0.4385
  843MPD2    C312387   4.096   0.608   0.305 -0.1908  0.1482 -0.1600
  843MPD2    C412388   4.010   0.710   0.324  0.6276 -0.1346 -0.0063
  843MPD2    C512389   3.873   0.696   0.321 -0.0848  0.2646  0.2334
  843MPD2     H12390   4.110   0.393   0.289 -0.1690 -0.5763 -2.6184
  843MPD2    H112391   4.049   0.810   0.309 -0.6813  0.3520 -0.0686
  843MPD2    H212392   3.715   0.550   0.322  0.5572  0.0586  1.6302
  843MPD2    H312393   3.816   0.787   0.313  0.8713  0.8631  0.2995
  843MPD2     N12394   4.237   0.630   0.279 -0.1763 -0.5232 -0.4696
  843MPD2    H512395   4.269   0.727   0.279 -4.1187  0.7609  0.0105
  843MPD2    N112396   3.871   0.325   0.312  0.1459 -0.1728  0.5541
  843MPD2    H712397   3.935   0.255   0.278  0.6813  0.5423  0.0819
  844MPD2     C12398   2.665   3.839  16.482  0.2852  0.5861 -0.0248
  844MPD2    C112399   2.716   3.730  16.548 -0.6707  0.3842 -0.1581
  844MPD2    C212400   2.805   3.747  16.654 -0.5479  0.3406 -0.6143
  844MPD2    C312401   2.834   3.876  16.699 -0.3777  0.0563 -0.6193
  844MPD2    C412402   2.788   3.982  16.621  0.0762  0.0315 -0.1373
  844MPD2    C512403   2.700   3.962  16.524  0.4848  0.0080 -0.1106
  844MPD2     H12404   2.845   3.660  16.706  3.1370  3.0228  1.0521
  844MPD2    H112405   2.818   4.084  16.640  1.7800 -0.4466 -0.3029
  844MPD2    H212406   2.593   3.828  16.402 -0.6610  3.4451  0.4399
  844MPD2    H312407   2.650   4.046  16.477  0.6435  0.0026 -0.2861
  844MPD2     N12408   2.928   3.885  16.805 -0.7951 -0.2597 -0.5346
  844MPD2    H512409   2.977   3.802  16.838  1.4344  0.0505 -3.1223
  844MPD2    N112410   2.698   3.595  16.513  0.3310  1.0232 -0.4153
  844MPD2    H712411   2.721   3.518  16.576  2.0866  2.2015  0.3734
  845MPD2     C12412   3.320   4.693  17.313  0.6219  0.5214 -0.8575
  845MPD2    C112413   3.205   4.630  17.368  0.5297  0.3261 -0.2418
  845MPD2    C212414   3.178   4.497  17.344 -0.0903 -0.3437 -0.1080
  845MPD2    C312415   3.263   4.430  17.256 -0.1279  0.2203  0.3584
  845MPD2    C412416   3.380   4.487  17.211 -0.8872  0.7060 -0.3052
  845MPD2    C512417   3.411   4.618  17.246 -0.5972 -0.5128  0.6151
  845MPD2     H12418   3.086   4.456  17.382  0.3208 -1.9200 -0.8080
  845MPD2    H112419   3.456   4.443  17.148 -0.3263  0.5623  0.4674
  845MPD2    H212420   3.337   0.074  17.340 -1.3977  0.6969 -0.2322
  845MPD2    H312421   3.510   4.653  17.218 -1.4631  2.3718  1.0831
  845MPD2     N12422   3.215   4.300  17.214 -0.5172  0.4777  0.2550
  845MPD2    H512423   3.118   4.277  17.231 -0.6612  1.9114  1.3871
  845MPD2    N112424   3.122   4.717  17.437  0.2081 -0.2822 -0.0972
  845MPD2    H712425   3.159   0.089  17.449  2.1214 -1.1231  0.6703
  846MPD2     C12426   4.542   0.322  13.547  0.1261 -0.2708 -0.1913
  846MPD2    C112427   4.413   0.363  13.539  0.4117  0.3615  0.0341
  846MPD2    C212428   4.321   0.344  13.637  0.5578 -0.0031 -0.1412
  846MPD2    C312429   4.352   0.266  13.742  0.2611  0.3111 -0.3015
  846MPD2    C412430   4.477   0.209  13.749  0.4498 -0.3175  0.2346
  846MPD2    C512431   4.576   0.241  13.657 -0.2494  0.3813 -0.7024
  846MPD2     H12432   4.225   0.394  13.628 -0.2501 -1.3778  0.7826
  846MPD2    H112433   4.498   0.147  13.835 -0.7212 -1.6762 -0.4547
  846MPD2    H212434   4.617   0.348  13.473  0.2326  2.4840  0.8576
  846MPD2    H312435   4.672   0.192  13.661 -0.1389  0.5552 -1.1303
  846MPD2     N12436   4.259   0.253  13.848  0.2157  0.1166  0.2754
  846MPD2    H512437   4.165   0.282  13.821 -0.7012 -1.7437  1.4066
  846MPD2    N112438   4.373   0.438  13.431  0.3957 -0.0058  0.3615
  846MPD2    H712439   4.281   0.479  13.440  1.3131  2.5910 -2.1324
  847MPD2     C12440   4.180   1.036  14.115 -0.2288 -0.2194  0.6816
  847MPD2    C112441   4.263   1.138  14.143 -0.4776 -0.0062 -0.8462
  847MPD2    C212442   4.362   1.115  14.233 -0.2346 -0.6742  0.4881
  847MPD2    C312443   4.370   0.994  14.299 -0.8145 -0.0001 -0.4845
  847MPD2    C412444   4.285   0.890  14.274 -0.1557  0.2203 -0.1238
  847MPD2    C512445   4.187   0.909  14.177  0.0478 -1.2225 -0.1223
  847MPD2     H12446   4.432   1.196  14.254  0.2385 -0.4015 -2.1976
  847MPD2    H112447   4.287   0.801  14.336  0.6276 -0.0334 -0.5122
  847MPD2    H212448   4.113   1.041  14.030  0.8887 -0.3191 -0.1976
  847MPD2    H312449   4.113   0.831  14.160 -0.6828 -0.6517  0.4422
  847MPD2     N12450   4.475   0.994  14.395 -0.0038 -0.0358 -0.9202
  847MPD2    H512451   4.540   1.072  14.392 -1.0727  0.9119  0.4769
  847MPD2    N112452   4.258   1.267  14.086 -0.6180 -0.4237 -0.2295
  847MPD2    H712453   4.327   1.336  14.116 -3.3278  1.4759  1.6318
  848MPD2     C12454   2.567   4.305  16.478  0.1619  0.0182 -0.0649
  848MPD2    C112455   2.577   4.378  16.596 -0.6844 -0.4688  1.0004
  848MPD2    C212456   2.608   4.514  16.588 -0.4316 -0.2065 -0.3772
  848MPD2    C312457   2.636   4.568  16.463  0.0442  0.4780  0.6489
  848MPD2    C412458   2.612   4.495  16.350 -0.6054 -0.6525 -0.2013
  848MPD2    C512459   2.575   4.364  16.355 -0.2511  0.7262  0.1745
  848MPD2     H12460   2.605   4.580  16.674 -2.5713 -1.8259  0.8168
  848MPD2    H112461   2.631   4.531  16.250  0.1022  0.9988  0.5319
  848MPD2    H212462   2.544   4.199  16.476  0.3699 -0.0873  2.8519
  848MPD2    H312463   2.555   4.303  16.268 -1.2547  0.5662  0.5149
  848MPD2     N12464   2.664   4.707  16.444  0.1229  0.1639 -0.2686
  848MPD2    H512465   2.678   0.022  16.350 -2.4617  1.0411 -0.3040
  848MPD2    N112466   2.547   4.327  16.724  0.0375 -0.5274 -0.1562
  848MPD2    H712467   2.582   4.381  16.803 -1.5811 -0.1135  0.2636
  849MPD2     C12468   1.709   4.291  14.441 -0.0992  0.0018 -0.7285
  849MPD2    C112469   1.831   4.254  14.389 -0.5223 -0.4201 -0.7104
  849MPD2    C212470   1.931   4.199  14.472 -0.7957 -0.4020 -0.2479
  849MPD2    C312471   1.908   4.178  14.604 -0.4340 -1.1007 -0.1755
  849MPD2    C412472   1.782   4.200  14.657  0.2853 -0.5554 -0.4508
  849MPD2    C512473   1.684   4.253  14.570 -0.3787  0.6161 -0.2977
  849MPD2     H12474   2.035   4.179  14.447 -1.0794 -3.9641  1.3747
  849MPD2    H112475   1.764   4.196  14.764  2.1581 -1.7996 -0.1826
  849MPD2    H212476   1.630   4.341  14.386 -0.2393 -1.4108 -1.7980
  849MPD2    H312477   1.586   4.280  14.606  0.2963  0.1073  1.9481
  849MPD2     N12478   2.019   4.144  14.678 -0.1058  0.1298  0.1011
  849MPD2    H512479   2.107   4.131  14.629  1.2186  0.7813  2.2882
  849MPD2    N112480   1.878   4.294  14.261  0.0580  0.0773 -0.5873
  849MPD2    H712481   1.978   4.287  14.243  0.1675 -0.0587  0.0456
  850MPD2     C12482   4.463   2.241  14.537  0.0724  0.8809 -0.2484
  850MPD2    C112483   4.465   2.326  14.648 -0.2680 -0.0470  0.6407
  850MPD2    C212484   4.584   2.338  14.713  0.3076  0.7970 -0.1248
  850MPD2    C312485   4.690   2.252  14.681 -0.2415  0.2488  0.1676
  850MPD2    C412486   4.686   2.175  14.567  0.6918  0.0282 -0.2617
  850MPD2    C512487   4.573   2.176  14.486  0.1206  0.5038  0.4371
  850MPD2     H12488   4.589   2.412  14.792  0.7951  0.1292  0.4814
  850MPD2    H112489   0.053   2.115  14.552 -0.7015 -2.2311  0.4097
  850MPD2    H212490   4.368   2.227  14.488  1.0217 -1.4610 -1.4146
  850MPD2    H312491   4.572   2.115  14.396  1.9789  1.3411 -0.1629
  850MPD2     N12492   0.085   2.240  14.759 -0.0719  0.4762 -1.0039
  850MPD2    H512493   0.167   2.201  14.714 -0.3478 -0.3547 -0.7824
  850MPD2    N112494   4.341   2.375  14.676 -0.4691  0.0190 -0.2214
  850MPD2    H712495   4.275   2.384  14.599  0.8826  3.0562 -1.0292
  851MPD2     C12496   0.181   2.306  15.361 -0.0555  0.9410 -0.2478
  851MPD2    C112497   0.093   2.254  15.266 -0.1251 -0.2786 -0.2794
  851MPD2    C212498   0.124   2.122  15.228 -0.0076 -0.0484  0.3406
  851MPD2    C312499   0.245   2.061  15.265 -0.1628 -0.2772 -0.5686
  851MPD2    C412500   0.332   2.126  15.355  0.0568  0.0481  0.0453
  851MPD2    C512501   0.292   2.244  15.407 -0.0608  0.3888 -0.3790
  851MPD2     H12502   0.065   2.069  15.156 -0.7315  1.4131 -0.1408
  851MPD2    H112503   0.412   2.068  15.400  0.2877 -0.1954 -0.6817
  851MPD2    H212504   0.169   2.406  15.401  1.0999 -0.0236  2.5370
  851MPD2    H312505   0.357   2.300  15.473 -1.5556  0.8259  0.7122
  851MPD2     N12506   0.264   1.939  15.208  0.3033 -0.3009  0.2540
  851MPD2    H512507   0.194   1.910  15.140  0.3010 -0.0507  0.1471
  851MPD2    N112508   4.701   2.331  15.232  0.5722 -0.0544  0.1682
  851MPD2    H712509   4.695   2.430  15.252  0.0457 -0.1944  0.7025
  852MPD2     C12510   4.005   4.002   9.445 -0.1830  0.2363 -0.0971
  852MPD2    C112511   4.009   4.036   9.578  0.0675  0.2557 -0.0233
  852MPD2    C212512   4.123   4.085   9.631  0.3421 -0.3898 -0.2082
  852MPD2    C312513   4.239   4.099   9.558 -0.4499 -0.8816  0.6496
  852MPD2    C412514   4.234   4.044   9.427  0.2714 -1.1469  0.1474
  852MPD2    C512515   4.120   4.007   9.371 -0.2692 -0.5058  0.2783
  852MPD2     H12516   4.140   4.111   9.735 -1.3564  2.3443 -0.6053
  852MPD2    H112517   4.312   4.070   9.357  0.2014 -1.3574 -0.0055
  852MPD2    H212518   3.915   3.969   9.395  1.1688 -1.5554 -1.3819
  852MPD2    H312519   4.110   3.967   9.271 -1.2952  2.1037 -0.6816
  852MPD2     N12520   4.338   4.184   9.608  0.1472 -0.3725 -0.0232
  852MPD2    H512521   4.306   4.234   9.690 -1.4717  1.3108 -1.6836
  852MPD2    N112522   3.896   4.044   9.667 -0.3034  0.2314  0.0586
  852MPD2    H712523   3.906   4.081   9.761 -1.6600 -0.4388  0.4655
  853MPD2     C12524   1.580   4.491  12.563 -0.1240  0.3303  0.4240
  853MPD2    C112525   1.442   4.472  12.558 -1.1710  0.1223 -0.9326
  853MPD2    C212526   1.379   4.418  12.446 -0.2612  0.1873 -0.2916
  853MPD2    C312527   1.453   4.394  12.333  0.1593  0.6315 -0.1399
  853MPD2    C412528   1.590   4.424  12.337  0.0363  0.1213  0.2611
  853MPD2    C512529   1.654   4.466  12.452 -0.7083 -0.2568 -0.5021
  853MPD2     H12530   1.273   4.398  12.452 -0.3432  1.0118  1.0463
  853MPD2    H112531   1.657   4.422  12.252 -1.7585 -0.4620 -1.1281
  853MPD2    H212532   1.633   4.531  12.649 -1.0355  0.4785  0.9255
  853MPD2    H312533   1.761   4.472  12.467 -0.8307 -0.9759  0.6307
  853MPD2     N12534   1.401   4.347  12.208  0.1237  0.1196 -0.0935
  853MPD2    H512535   1.468   4.337  12.132  1.2314 -1.5031  1.0711
  853MPD2    N112536   1.376   4.510  12.673  0.2429  0.3867  0.1362
  853MPD2    H712537   1.419   4.535  12.762 -0.5206  0.0746  0.5872
  854MPD2     C12538   3.625   0.550  12.686 -0.0006 -0.0597  0.4207
  854MPD2    C112539   3.521   0.501  12.765  0.5567  0.6831  0.3054
  854MPD2    C212540   3.549   0.394  12.855  0.4395  1.5843  0.3912
  854MPD2    C312541   3.681   0.347  12.869 -0.6344  0.3293  0.1604
  854MPD2    C412542   3.781   0.405  12.797  0.1676 -0.9022 -0.3963
  854MPD2    C512543   3.747   0.501  12.708  0.1533  0.2436 -0.5849
  854MPD2     H12544   3.471   0.364  12.924 -0.0370 -0.3138 -0.9650
  854MPD2    H112545   3.882   0.366  12.801  0.7744  0.9084  2.1048
  854MPD2    H212546   3.618   0.624  12.607  2.0199  0.9709  1.2182
  854MPD2    H312547   3.823   0.528  12.636  0.2848 -1.9879 -1.2922
  854MPD2     N12548   3.723   0.253  12.965  0.7029  0.0665  0.2952
  854MPD2    H512549   3.822   0.234  12.958  0.5588 -0.4629 -0.3126
  854MPD2    N112550   3.390   0.547  12.744 -0.0923 -0.0076  0.1068
  854MPD2    H712551   3.388   0.622  12.675  0.1202  0.3012  0.4317
  855MPD2     C12552   3.108   4.445  13.422  0.5863 -0.5900 -0.3468
  855MPD2    C112553   3.222   4.384  13.461  0.5507 -0.4209 -0.7414
  855MPD2    C212554   3.347   4.443  13.425  0.5542  0.0548  0.4007
  855MPD2    C312555   3.354   4.549  13.337  0.4816 -0.2613  0.0905
  855MPD2    C412556   3.234   4.603  13.288  0.1079 -0.8759  0.4265
  855MPD2    C512557   3.119   4.552  13.339 -0.3641  0.5571  0.3660
  855MPD2     H12558   3.434   4.396  13.471 -0.1954 -2.0071 -0.2880
  855MPD2    H112559   3.225   4.685  13.218  1.7868 -0.7508  0.3518
  855MPD2    H212560   3.010   4.406  13.445  0.0145  0.0636 -1.6945
  855MPD2    H312561   3.032   4.607  13.307  0.4241  0.9129 -1.1839
  855MPD2     N12562   3.473   4.608  13.291  0.3893 -0.4791  0.1280
  855MPD2    H512563   3.468   4.692  13.234 -0.1409  0.5103  1.6288
  855MPD2    N112564   3.214   4.273  13.555 -0.0042 -0.5104 -0.0249
  855MPD2    H712565   3.299   4.244  13.601 -1.1414 -1.5812  1.3916
  856MPD2     C12566   0.317   0.520  13.640 -0.1721 -0.0887  0.3429
  856MPD2    C112567   0.399   0.609  13.708 -0.2932  1.0130  0.4357
  856MPD2    C212568   0.359   0.737  13.718 -0.4005 -0.1551  0.6254
  856MPD2    C312569   0.244   0.786  13.656 -0.0521  0.4370 -0.7184
  856MPD2    C412570   0.165   0.693  13.589  0.3479  0.1940 -0.3315
  856MPD2    C512571   0.202   0.560  13.588  0.4487 -0.6430 -0.1635
  856MPD2     H12572   0.424   0.809  13.766  1.1330 -1.2828  0.2359
  856MPD2    H112573   0.076   0.724  13.536  0.9100  2.8242  0.3043
  856MPD2    H212574   0.344   0.415  13.629 -3.4287 -0.8226 -0.5456
  856MPD2    H312575   0.141   0.484  13.539  1.7237 -2.3565  0.9081
  856MPD2     N12576   0.196   0.916  13.659 -0.3140 -0.2419  0.3408
  856MPD2    H512577   0.116   0.936  13.600 -0.8520 -0.0741  1.1324
  856MPD2    N112578   0.530   0.581  13.759  0.0351  0.4824  0.0449
  856MPD2    H712579   0.571   0.663  13.803  1.5756  0.4020 -1.2606
  857MPD2     C12580   2.535   3.181  12.275  1.3088  0.2842  0.3984
  857MPD2    C112581   2.487   3.131  12.391 -0.1978 -0.3502 -0.2676
  857MPD2    C212582   2.448   3.219  12.490  0.3697 -0.7477  0.3315
  857MPD2    C312583   2.482   3.352  12.487  0.4144  0.2385  0.3883
  857MPD2    C412584   2.540   3.396  12.377 -0.1701  0.0769  0.6904
  857MPD2    C512585   2.568   3.312  12.269  0.3258 -0.3282  0.1156
  857MPD2     H12586   2.410   3.181  12.584 -2.8344  2.3781  0.2554
  857MPD2    H112587   2.585   3.495  12.371 -2.4864  1.1001  0.1435
  857MPD2    H212588   2.558   3.105  12.200  0.3398 -0.0407  0.4193
  857MPD2    H312589   2.634   3.347  12.190 -1.5676  0.1762 -1.2341
  857MPD2     N12590   2.446   3.435  12.598 -0.4773  0.1127  0.1206
  857MPD2    H512591   2.407   3.390  12.680  0.7008  0.2517  0.7521
  857MPD2    N112592   2.484   2.987  12.396 -0.0955  0.0599 -0.3415
  857MPD2    H712593   2.499   2.931  12.313 -0.1314  1.3645 -1.2334
  858MPD2     C12594   2.694   1.617  16.707 -0.3496 -0.1395  0.3637
  858MPD2    C112595   2.832   1.640  16.700 -0.1026 -0.1346  0.0952
  858MPD2    C212596   2.890   1.716  16.806  0.5143  0.3915 -0.0483
  858MPD2    C312597   2.811   1.771  16.910 -0.9999  0.1237 -0.6087
  858MPD2    C412598   2.676   1.753  16.899  0.2337 -0.2404 -0.4476
  858MPD2    C512599   2.621   1.680  16.800 -0.8895 -0.4535 -0.3837
  858MPD2     H12600   2.996   1.737  16.798  0.0742  2.0396 -1.5465
  858MPD2    H112601   2.606   1.786  16.974 -1.5989 -0.8927 -1.8534
  858MPD2    H212602   2.640   1.553  16.637  1.4864 -1.0079 -0.2500
  858MPD2    H312603   2.515   1.665  16.811 -0.9065  0.0650  0.1109
  858MPD2     N12604   2.862   1.851  17.021 -0.6236 -0.0984 -0.0118
  858MPD2    H512605   2.797   1.890  17.088  0.5872 -0.9243  1.6585
  858MPD2    N112606   2.897   1.595  16.585  0.0761  0.5675 -0.4294
  858MPD2    H712607   2.837   1.543  16.522  0.8790 -0.8066 -0.0529
  859MPD2     C12608   1.708   3.961  15.415  0.3588 -0.1008 -0.1982
  859MPD2    C112609   1.769   3.982  15.538  0.4324  0.8721  0.0263
  859MPD2    C212610   1.808   3.878  15.616  0.1344 -0.0661 -0.4278
  859MPD2    C312611   1.803   3.752  15.567 -0.3135  0.4348 -0.2237
  859MPD2    C412612   1.747   3.728  15.446  0.5813  0.3350 -0.1763
  859MPD2    C512613   1.700   3.832  15.373 -0.5540 -0.2622  0.4065
  859MPD2     H12614   1.851   3.900  15.713  2.1511 -1.9645 -0.8861
  859MPD2    H112615   1.724   3.627  15.414  1.8586  0.2288 -0.7707
  859MPD2    H212616   1.669   4.039  15.350 -0.8766 -0.2337  0.3787
  859MPD2    H312617   1.658   3.809  15.275 -0.0353  0.4796  0.0114
  859MPD2     N12618   1.848   3.637  15.642 -0.9304 -0.0951 -0.0255
  859MPD2    H512619   1.845   3.548  15.594 -1.5759 -0.1397  0.0889
  859MPD2    N112620   1.766   4.116  15.582  0.2756  0.3218  0.2782
  859MPD2    H712621   1.732   4.182  15.512 -0.5991  1.6900  2.0089
  860MPD2     C12622   4.074   4.286  11.761 -0.7615  0.1721 -0.4744
  860MPD2    C112623   4.035   4.208  11.865  0.3874  0.3440  0.7050
  860MPD2    C212624   3.901   4.211  11.901  0.2564  0.0166  0.2911
  860MPD2    C312625   3.804   4.285  11.839  0.6597 -0.6912 -1.2203
  860MPD2    C412626   3.845   4.370  11.738  0.1575  0.2715 -0.6687
  860MPD2    C512627   3.976   4.358  11.696  0.6449  0.2612 -0.1026
  860MPD2     H12628   3.872   4.148  11.985 -0.7646  0.4499  0.2625
  860MPD2    H112629   3.782   4.429  11.673 -0.6987 -0.4584 -0.5026
  860MPD2    H212630   4.174   4.297  11.720  0.1890 -1.5831  1.3538
  860MPD2    H312631   4.003   4.426  11.617  0.2253  2.5626  1.7407
  860MPD2     N12632   3.672   4.283  11.896  0.1841 -0.1844 -0.6175
  860MPD2    H512633   3.656   4.219  11.973 -0.0321  0.8079  0.1508
  860MPD2    N112634   4.129   4.140  11.946 -0.1932  0.5447  0.0136
  860MPD2    H712635   4.103   4.095  12.033  0.7876  0.2208  0.1374
  861MPD2     C12636   2.853   2.650  10.851 -0.6762  0.9583  0.5588
  861MPD2    C112637   2.763   2.554  10.898  0.1797 -0.2189 -0.7620
  861MPD2    C212638   2.653   2.528  10.826 -0.2317  0.3003  0.4560
  861MPD2    C312639   2.632   2.589  10.703 -0.6627  0.1910 -0.3002
  861MPD2    C412640   2.726   2.676  10.653 -0.8725 -0.3226 -0.0125
  861MPD2    C512641   2.838   2.706  10.725 -0.7819 -0.5394  0.1894
  861MPD2     H12642   2.589   2.447  10.860 -0.8204  0.5940  0.0587
  861MPD2    H112643   2.711   2.720  10.555  0.3826 -2.6728 -1.2574
  861MPD2    H212644   2.941   2.680  10.907  0.9211 -1.2283 -0.7521
  861MPD2    H312645   2.912   2.774  10.686  0.7448 -1.6860  1.0809
  861MPD2     N12646   2.512   2.594  10.622 -0.1086 -1.0296  0.2699
  861MPD2    H512647   2.511   2.658  10.543  3.7019  0.4272  1.4089
  861MPD2    N112648   2.768   2.495  11.029  0.6530 -0.2640  0.1749
  861MPD2    H712649   2.700   2.427  11.059 -0.8996  0.4469 -1.7472
  862MPD2     C12650   2.025   2.570  10.043  0.7799  0.2264  0.9564
  862MPD2    C112651   2.075   2.513  10.156  0.6587 -0.9161  0.2095
  862MPD2    C212652   2.029   2.391  10.195  0.3888  0.1605 -0.2245
  862MPD2    C312653   1.935   2.322  10.128  0.6435 -0.2741 -0.0946
  862MPD2    C412654   1.885   2.376  10.007 -0.5812  0.3156  0.8614
  862MPD2    C512655   1.933   2.495   9.967 -0.2172  0.2527  0.1030
  862MPD2     H12656   2.078   2.337  10.275  0.4537  0.5877  0.0225
  862MPD2    H112657   1.814   2.321   9.947 -1.0290 -0.0755  1.7506
  862MPD2    H212658   2.055   2.667  10.007  3.1504 -0.6261  0.5956
  862MPD2    H312659   1.924   2.525   9.864  0.8134 -1.5463 -0.5099
  862MPD2     N12660   1.899   2.190  10.161  0.2431 -0.5594  0.4655
  862MPD2    H512661   1.829   2.140  10.107 -1.6742  1.7711  0.7988
  862MPD2    N112662   2.154   2.583  10.254 -1.0097  0.4361  1.0397
  862MPD2    H712663   2.190   2.525  10.329  0.5667  0.0719  0.0012
  863MPD2     C12664   1.505   0.328  16.819 -0.5954  0.2902 -0.0460
  863MPD2    C112665   1.402   0.346  16.914  0.1908 -0.2348  0.8034
  863MPD2    C212666   1.442   0.383  17.040  0.3443  0.1088  0.2431
  863MPD2    C312667   1.571   0.399  17.086  0.0918  0.1070  0.2180
  863MPD2    C412668   1.666   0.389  16.988  0.0994  0.3644  0.0143
  863MPD2    C512669   1.632   0.361  16.854  0.4975  1.0285 -0.0509
  863MPD2     H12670   1.370   0.378  17.121  1.1023  2.9484  1.0744
  863MPD2    H112671   1.770   0.407  17.013  0.1976  1.6039 -1.2760
  863MPD2    H212672   1.485   0.303  16.716  0.4266 -1.3400  0.1441
  863MPD2    H312673   1.702   0.372  16.772  2.4332  1.2865  1.6502
  863MPD2     N12674   1.613   0.447  17.214  0.2566 -0.1221 -0.8876
  863MPD2    H512675   1.711   0.473  17.220  0.4249 -0.8685 -0.4595
  863MPD2    N112676   1.262   0.341  16.869 -0.9378  0.4390 -0.3911
  863MPD2    H712677   1.256   0.333  16.769 -2.2490 -1.0197 -0.1884
  864MPD2     C12678   2.023   1.310  16.947  0.1091 -0.1073  0.9444
  864MPD2    C112679   1.946   1.386  16.861 -0.4600 -0.3122  0.0950
  864MPD2    C212680   1.990   1.515  16.832 -0.2407 -0.1449  0.1851
  864MPD2    C312681   2.102   1.566  16.897 -0.1702 -0.1694  0.0909
  864MPD2    C412682   2.180   1.490  16.976  0.0540  0.4138  0.4429
  864MPD2    C512683   2.142   1.360  17.007 -0.0933  0.1597  0.2573
  864MPD2     H12684   1.944   1.569  16.751 -1.8386 -0.8919  0.5994
  864MPD2    H112685   2.268   1.523  17.031 -0.4961 -0.7996  2.0527
  864MPD2    H212686   1.989   1.213  16.979 -0.6155  0.2453  1.2394
  864MPD2    H312687   2.204   1.302  17.074 -0.9905 -2.3620 -1.1047
  864MPD2     N12688   2.148   1.698  16.869  0.1307  0.6806 -0.5105
  864MPD2    H512689   2.231   1.722  16.921  0.5183 -0.0070 -0.8106
  864MPD2    N112690   1.841   1.320  16.792 -0.0278 -0.1693  0.1515
  864MPD2    H712691   1.808   1.232  16.830  0.2009  0.4972  1.8643
  865MPD2     C12692   1.915   2.492  16.247  0.3472 -0.3055  0.6425
  865MPD2    C112693   1.904   2.353  16.252 -0.0356  0.2331  0.8900
  865MPD2    C212694   1.927   2.292  16.377  0.4192 -0.0337 -0.6725
  865MPD2    C312695   1.992   2.362  16.476 -0.5814 -0.8918 -0.5840
  865MPD2    C412696   2.017   2.500  16.465  0.1302 -0.9281  0.1770
  865MPD2    C512697   1.977   2.560  16.348 -0.2621  0.6763 -0.1464
  865MPD2     H12698   1.922   2.184  16.384  0.4792  0.1828  2.8588
  865MPD2    H112699   2.066   2.559  16.542 -0.2857 -1.6481  1.0027
  865MPD2    H212700   1.881   2.542  16.157 -1.8938 -2.6176  0.2068
  865MPD2    H312701   1.991   2.667  16.346 -0.0739  0.6281 -1.0605
  865MPD2     N12702   2.015   2.305  16.607 -0.2185 -0.3011  0.2790
  865MPD2    H512703   2.046   2.367  16.681  3.1824  0.1550 -1.5238
  865MPD2    N112704   1.852   2.284  16.134  0.0821  0.7788  0.8595
  865MPD2    H712705   1.841   2.341  16.051  2.5373  1.6970  1.1443
  866MPD2     C12706   3.065   3.057  11.448  0.1320  0.1904  0.7059
  866MPD2    C112707   3.073   3.017  11.320 -0.3453 -0.0537  0.3615
  866MPD2    C212708   2.970   3.053  11.237 -0.7387  0.5660  0.3343
  866MPD2    C312709   2.864   3.128  11.277 -0.3997 -0.3588 -0.6124
  866MPD2    C412710   2.856   3.172  11.408 -0.3566 -0.4253  0.1850
  866MPD2    C512711   2.960   3.131  11.492  0.0856  0.4232 -0.0952
  866MPD2     H12712   2.964   3.019  11.134  2.0653 -1.3560  0.8170
  866MPD2    H112713   2.774   3.229  11.452 -0.3014  1.2518 -1.8706
  866MPD2    H212714   3.135   3.026  11.524  0.5572 -3.2860 -1.1023
  866MPD2    H312715   2.967   3.157  11.597 -0.4375  1.3246 -0.2754
  866MPD2     N12716   2.742   3.117  11.208  0.3569  0.1885  0.2007
  866MPD2    H512717   2.654   3.116  11.259  0.0872  0.5243 -0.2589
  866MPD2    N112718   3.181   2.938  11.278 -0.3326 -0.3609 -0.9258
  866MPD2    H712719   3.244   2.907  11.351 -0.7388 -1.5853 -1.0986
  867MPD2     C12720   0.548   1.484  16.387 -0.2759 -0.1092 -0.2998
  867MPD2    C112721   0.590   1.413  16.499  0.9178  0.2420  0.9858
  867MPD2    C212722   0.543   1.461  16.626 -0.5571 -0.2242 -0.4805
  867MPD2    C312723   0.472   1.577  16.635  0.7614  0.9184 -0.1972
  867MPD2    C412724   0.442   1.646  16.524  0.1180  0.2853  0.0513
  867MPD2    C512725   0.471   1.598  16.400 -0.1435 -0.2961 -0.7992
  867MPD2     H12726   0.576   1.414  16.718  0.7283 -0.1771 -0.9164
  867MPD2    H112727   0.391   1.741  16.533 -1.7190 -0.7323  0.3661
  867MPD2    H212728   0.591   1.462  16.290  0.6122 -1.6846  0.4619
  867MPD2    H312729   0.450   1.663  16.316  1.7114  0.2586 -0.8404
  867MPD2     N12730   0.440   1.614  16.771  0.1158  0.0080 -0.2648
  867MPD2    H512731   0.464   1.555  16.850 -1.8684 -2.2553 -1.3741
  867MPD2    N112732   0.659   1.291  16.482  0.1350 -0.0615  0.0068
  867MPD2    H712733   0.678   1.262  16.387  3.7699 -0.1305  0.7346
  868MPD2     C12734   2.345   1.172  12.993 -0.3344  0.6974  0.8453
  868MPD2    C112735   2.409   1.198  13.112  0.7886  0.4948  0.2831
  868MPD2    C212736   2.325   1.215  13.222 -0.7261  0.3552  0.0387
  868MPD2    C312737   2.186   1.208  13.209 -0.1924  0.3219  0.2579
  868MPD2    C412738   2.127   1.181  13.082  0.3678 -0.8797  0.3278
  868MPD2    C512739   2.212   1.150  12.982  0.3407  0.8918 -0.3036
  868MPD2     H12740   2.365   1.228  13.321 -1.5022 -1.1415  0.5545
  868MPD2    H112741   2.022   1.176  13.056  0.6240  1.3362 -1.1450
  868MPD2    H212742   2.402   1.161  12.901 -1.4909 -0.4016  0.2596
  868MPD2    H312743   2.173   1.126  12.883  1.5811  0.9145 -0.7999
  868MPD2     N12744   2.113   1.233  13.330 -0.0562 -0.1573  0.4318
  868MPD2    H512745   2.174   1.249  13.410  1.2580  0.0457 -0.6158
  868MPD2    N112746   2.549   1.196  13.109  0.2731 -0.3075  0.3733
  868MPD2    H712747   2.593   1.185  13.019 -0.7913 -0.3955 -0.1369
  869MPD2     C12748   2.882   3.845   1.311 -0.1988 -0.4699  0.5987
  869MPD2    C112749   2.877   3.948   1.394  0.3726  0.7709 -0.0511
  869MPD2    C212750   2.906   4.074   1.353  0.2134  0.1186  0.4628
  869MPD2    C312751   2.928   4.096   1.220  0.1982 -0.2381 -0.2869
  869MPD2    C412752   2.913   3.989   1.131  0.1201  0.1433 -0.1657
  869MPD2    C512753   2.897   3.863   1.180 -0.7423 -0.6471 -0.0160
  869MPD2     H12754   2.933   4.154   1.422  2.0632  0.6682 -0.8860
  869MPD2    H112755   2.939   3.995   1.026  1.3325  2.3906  0.2556
  869MPD2    H212756   2.861   3.748   1.356 -2.5062 -0.0798  0.3622
  869MPD2    H312757   2.900   3.783   1.107 -2.9695 -1.6121  0.9395
  869MPD2     N12758   2.970   4.219   1.163  0.6010  0.2944  0.3216
  869MPD2    H512759   2.979   4.223   1.062  1.0936 -0.7534  0.3231
  869MPD2    N112760   2.857   3.911   1.534  0.4462 -0.2364  0.0010
  869MPD2    H712761   2.833   3.815   1.559 -1.4632  0.4968  0.9820
  870MPD2     C12762   2.537   2.649   1.160  0.4886 -0.0472 -0.4744
  870MPD2    C112763   2.654   2.717   1.191  0.5169 -0.5195  0.0184
  870MPD2    C212764   2.753   2.734   1.092 -0.3068 -0.1346 -0.1991
  870MPD2    C312765   2.727   2.702   0.955 -0.2111  0.2860  0.2757
  870MPD2    C412766   2.604   2.637   0.925  0.6476  0.0110 -0.3498
  870MPD2    C512767   2.514   2.611   1.028  0.4247 -0.8269  0.8496
  870MPD2     H12768   2.838   2.799   1.111 -1.2240  1.4506 -1.5083
  870MPD2    H112769   2.585   2.604   0.824  0.5553  1.5528 -0.8308
  870MPD2    H212770   2.458   2.619   1.228  0.7459  0.1491 -0.0883
  870MPD2    H312771   2.419   2.564   1.003  0.9216 -0.6589 -1.3375
  870MPD2     N12772   2.819   2.744   0.853 -0.5623 -0.1230  0.0961
  870MPD2    H512773   2.905   2.787   0.885 -0.6402  0.8284 -0.9735
  870MPD2    N112774   2.674   2.752   1.330  0.2853  0.0117 -0.5529
  870MPD2    H712775   2.596   2.728   1.390  0.1107  0.7022 -0.5009
  871MPD2     C12776   4.593   2.420  16.198  0.2428 -0.8380  0.3218
  871MPD2    C112777   4.590   2.361  16.320 -0.3166  0.2548 -0.1263
  871MPD2    C212778   4.608   2.222  16.323 -0.1555 -0.2928 -0.8336
  871MPD2    C312779   4.608   2.151  16.202  0.0927  0.5099 -0.2847
  871MPD2    C412780   4.608   2.213  16.079  0.5907  0.8508 -0.2980
  871MPD2    C512781   4.600   2.349  16.076  0.1679  0.2189  0.1442
  871MPD2     H12782   4.625   2.170  16.417 -1.4741  0.2317 -0.3077
  871MPD2    H112783   4.612   2.162  15.983 -2.5077 -1.3919  0.7574
  871MPD2    H212784   4.585   2.528  16.195 -1.3241 -0.9045  1.6658
  871MPD2    H312785   4.596   2.405  15.983 -1.4705 -1.5318 -0.8530
  871MPD2     N12786   4.630   2.013  16.215  0.1998 -0.4217  0.4669
  871MPD2    H512787   4.629   1.984  16.312  0.4482 -3.6892 -0.4789
  871MPD2    N112788   4.585   2.438  16.434 -0.1388  0.6512  0.3396
  871MPD2    H712789   4.603   2.536  16.417 -0.9973  1.1338  2.1607
  872MPD2     C12790   0.820   4.689  14.512  0.4087 -0.3742 -0.0740
  872MPD2    C112791   0.835   4.664  14.382 -0.1005  0.2560  0.3387
  872MPD2    C212792   0.729   4.650  14.300  0.3872 -0.0905  0.1285
  872MPD2    C312793   0.604   4.643  14.353  0.3116  0.0323  0.7211
  872MPD2    C412794   0.583   4.659  14.486  0.1192 -0.0414 -0.1365
  872MPD2    C512795   0.698   4.685  14.565  0.1032  0.4644 -0.6062
  872MPD2     H12796   0.745   4.644  14.193  2.5641 -1.5234  0.5290
  872MPD2    H112797   0.487   4.642  14.534  0.0630  0.5380 -0.0412
  872MPD2    H212798   0.909   4.708  14.571 -1.9953  2.2083  2.7189
  872MPD2    H312799   0.678   4.695  14.671 -1.3279 -1.9880 -0.6416
  872MPD2     N12800   0.485   4.610  14.283 -0.0378  0.5736 -0.6061
  872MPD2    H512801   0.399   4.622  14.336 -0.4867  0.8733 -1.3996
  872MPD2    N112802   0.960   4.666  14.317  0.1936 -0.0377  0.3663
  872MPD2    H712803   0.957   4.653  14.216  1.8846 -0.0525  0.3251
  873MPD2     C12804   2.005   0.106   1.110 -0.1581  0.3839 -0.8703
  873MPD2    C112805   2.066   0.110   1.233 -0.3215 -0.0780  0.0749
  873MPD2    C212806   2.162   0.009   1.263  0.2510 -0.1441  0.1471
  873MPD2    C312807   2.192   4.643   1.161  0.4063 -0.2011 -0.4734
  873MPD2    C412808   2.135   4.658   1.035 -0.0443  0.4550 -0.4713
  873MPD2    C512809   2.047   0.031   1.010 -0.1379  0.2267 -0.4270
  873MPD2     H12810   2.206   0.007   1.363 -1.6091 -0.6007  0.9648
  873MPD2    H112811   2.162   4.603   0.946 -3.6172  0.4434 -1.5715
  873MPD2    H212812   1.940   0.190   1.087  0.4906  1.2390  0.4582
  873MPD2    H312813   1.991   0.047   0.919 -2.2811  0.4739  0.9515
  873MPD2     N12814   2.292   4.539   1.161  0.2197  0.4594 -0.4241
  873MPD2    H512815   2.303   4.492   1.072 -0.1859 -0.1622 -0.1514
  873MPD2    N112816   2.029   0.219   1.316  0.2908  0.4227 -0.5578
  873MPD2    H712817   1.957   0.281   1.281 -0.6894 -0.7615 -0.6587
  874MPD2     C12818   1.995   0.416  16.293 -0.3570  0.3055 -0.3376
  874MPD2    C112819   2.029   0.345  16.400 -0.5240 -0.2800  0.5603
  874MPD2    C212820   2.164   0.331  16.427  0.0478  0.0626 -0.3074
  874MPD2    C312821   2.262   0.370  16.339 -0.2889 -0.2644 -0.6739
  874MPD2    C412822   2.217   0.428  16.221 -0.2668  0.2220 -0.0200
  874MPD2    C512823   2.091   0.461  16.205  0.1525  0.2734 -0.4621
  874MPD2     H12824   2.204   0.278  16.513 -0.7426 -0.5033 -0.2889
  874MPD2    H112825   2.284   0.461  16.142  1.1400 -2.4630  0.0521
  874MPD2    H212826   1.889   0.427  16.275 -0.6988 -1.9306  0.3000
  874MPD2    H312827   2.059   0.496  16.108  1.3355 -1.5258 -1.5236
  874MPD2     N12828   2.395   0.356  16.369  0.1410  0.1126  0.2635
  874MPD2    H512829   2.426   0.304  16.451 -2.0515 -1.5802  0.0173
  874MPD2    N112830   1.925   0.287  16.476 -0.1144  0.1635 -0.4243
  874MPD2    H712831   1.831   0.301  16.439 -0.9875 -0.9238  1.3976
  875MPD2     C12832   3.535   3.099  14.766 -0.1539 -0.6079 -0.3765
  875MPD2    C112833   3.405   3.150  14.786  0.2710 -0.5132 -0.2926
  875MPD2    C212834   3.382   3.185  14.914 -0.0360  0.1606  0.4607
  875MPD2    C312835   3.476   3.177  15.019 -0.1991 -0.1488 -0.3104
  875MPD2    C412836   3.604   3.144  14.989  0.7031  0.5880 -0.8647
  875MPD2    C512837   3.627   3.105  14.863  0.4830  0.3225  0.0218
  875MPD2     H12838   3.281   3.220  14.933 -0.9601 -2.0884 -0.3172
  875MPD2    H112839   3.680   3.125  15.063 -0.1954  1.9321  0.4149
  875MPD2    H212840   3.567   3.059  14.671 -0.5844  0.8784 -1.1405
  875MPD2    H312841   3.724   3.059  14.850 -0.2461 -1.4430  0.8161
  875MPD2     N12842   3.438   3.220  15.147  0.2018  0.3320  0.2205
  875MPD2    H512843   3.512   3.263  15.202  1.2017 -0.0905 -0.7891
  875MPD2    N112844   3.303   3.164  14.690  0.0092 -0.0493 -0.1986
  875MPD2    H712845   3.234   3.238  14.698 -0.8523 -0.8758  0.1189
  876MPD2     C12846   2.152   4.415  16.565 -0.2096  0.1528  0.7283
  876MPD2    C112847   2.207   4.395  16.444  0.2624  0.1548 -0.8311
  876MPD2    C212848   2.260   4.273  16.409 -0.2624 -0.7258  0.1011
  876MPD2    C312849   2.240   4.160  16.491  0.2352  0.2442  0.7742
  876MPD2    C412850   2.174   4.176  16.611  0.1233  0.4303  0.3895
  876MPD2    C512851   2.127   4.303  16.641 -0.0347 -0.0091  0.4563
  876MPD2     H12852   2.313   4.268  16.315  0.5765 -1.3596  0.5979
  876MPD2    H112853   2.154   4.097  16.682 -0.0860  0.2216  0.1000
  876MPD2    H212854   2.106   4.510  16.589 -0.1780 -0.1096  1.7975
  876MPD2    H312855   2.070   4.308  16.733 -1.2891  2.0748 -0.4171
  876MPD2     N12856   2.295   4.039  16.448  0.5282 -0.3108  0.5285
  876MPD2    H512857   2.354   4.039  16.366  0.3163  3.4975  0.3773
  876MPD2    N112858   2.211   4.494  16.341  0.1656  0.2163  0.3170
  876MPD2    H712859   2.267   4.473  16.260 -2.5511  0.2198 -1.5508
  877MPD2     C12860   1.830   0.142  15.729 -0.2495 -0.2293 -0.0821
  877MPD2    C112861   1.963   0.178  15.732  0.2748  0.2259  0.7291
  877MPD2    C212862   2.024   0.227  15.623 -0.0695 -0.2734 -0.2239
  877MPD2    C312863   1.957   0.227  15.506 -0.1348  0.5217  0.3030
  877MPD2    C412864   1.826   0.186  15.504  0.0996 -0.0457  0.5141
  877MPD2    C512865   1.763   0.142  15.619 -0.0952  0.3559 -0.5048
  877MPD2     H12866   2.127   0.260  15.631  0.2613 -1.0812 -1.1472
  877MPD2    H112867   1.785   0.193  15.403  1.4763 -0.9387 -0.0956
  877MPD2    H212868   1.771   0.122  15.818 -3.1888  1.1314 -1.7052
  877MPD2    H312869   1.659   0.114  15.624  1.0476 -3.2502  3.1586
  877MPD2     N12870   2.010   0.286  15.386  0.4953  0.2104  0.6668
  877MPD2    H512871   1.954   0.274  15.302  0.2481  1.2108  0.6871
  877MPD2    N112872   2.048   0.174  15.847 -0.0100  0.5020  0.1726
  877MPD2    H712873   2.133   0.230  15.847  1.7831 -2.1898  0.0609
  878MPD2     C12874   1.830   3.918  13.296 -0.5794 -0.3345  0.5250
  878MPD2    C112875   1.936   4.006  13.307 -0.3177  0.6943 -0.3359
  878MPD2    C212876   1.980   4.051  13.429  0.0810 -0.4176  0.2710
  878MPD2    C312877   1.903   4.027  13.538 -0.2933  0.4275 -0.2549
  878MPD2    C412878   1.788   3.954  13.527  0.2880  0.3723  0.4411
  878MPD2    C512879   1.760   3.894  13.411 -0.0574 -0.2926  0.3761
  878MPD2     H12880   2.068   4.113  13.430 -0.9531  1.0172  1.4850
  878MPD2    H112881   1.731   3.925  13.614 -2.3075 -0.2330 -1.4556
  878MPD2    H212882   1.794   3.882  13.200 -1.9785  1.2598  0.4479
  878MPD2    H312883   1.674   3.830  13.393 -0.1729 -0.3959  1.2717
  878MPD2     N12884   1.938   4.089  13.663  0.1553 -0.2278  0.1161
  878MPD2    H512885   2.029   4.131  13.677 -0.3628  1.6313 -2.2983
  878MPD2    N112886   1.984   4.055  13.179 -0.0533  0.0158 -0.1216
  878MPD2    H712887   1.941   4.015  13.097 -1.8801  0.3949  0.6560
  879MPD2     C12888   2.682   1.185  17.213 -0.0150 -0.9336 -0.0903
  879MPD2    C112889   2.695   1.073  17.304 -0.5465  0.0818 -0.3460
  879MPD2    C212890   2.601   0.970  17.307 -0.4729  0.2624 -0.4836
  879MPD2    C312891   2.490   0.979  17.227 -0.8022 -0.3321 -0.3419
  879MPD2    C412892   2.473   1.083  17.147 -0.7436 -0.2878  0.1285
  879MPD2    C512893   2.572   1.180  17.134  0.4410  0.3264 -0.2288
  879MPD2     H12894   2.620   0.884  17.371 -1.1546  0.2761 -0.2568
  879MPD2    H112895   2.388   1.087  17.079  1.0122 -1.2413 -2.1491
  879MPD2    H212896   2.751   1.266  17.191  0.0519 -0.0678  3.2565
  879MPD2    H312897   2.553   1.250  17.053 -0.2201 -0.0035 -0.3618
  879MPD2     N12898   2.395   0.867  17.213  0.3391  0.6921  0.0924
  879MPD2    H512899   2.321   0.894  17.149 -0.8658 -0.8579  0.8276
  879MPD2    N112900   2.815   1.057  17.383  0.1954  0.3523 -0.0092
  879MPD2    H712901   2.824   0.989  17.457 -0.6712  2.2318  1.8297
  880MPD2     C12902   4.339   2.326   0.383 -0.2162 -0.7726 -1.0032
  880MPD2    C112903   4.254   2.338   0.487  0.3887 -0.5897 -0.5915
  880MPD2    C212904   4.231   2.228   0.566  0.1571  0.7331  0.2208
  880MPD2    C312905   4.305   2.115   0.551  0.2262  1.2988 -0.1387
  880MPD2    C412906   4.390   2.100   0.437  0.0052  0.7523  0.3507
  880MPD2    C512907   4.405   2.209   0.353 -0.0824  0.4983  0.0374
  880MPD2     H12908   4.168   2.239   0.653  0.6195 -0.3009  0.6769
  880MPD2    H112909   4.453   2.013   0.427 -3.3455 -1.8669  2.1682
  880MPD2    H212910   4.352   2.416   0.324 -2.8296  0.8987  0.9638
  880MPD2    H312911   4.477   2.217   0.273 -0.9286  1.0681 -0.6760
  880MPD2     N12912   4.283   2.012   0.646 -0.1923  0.4309 -0.1858
  880MPD2    H512913   4.210   2.028   0.715  0.2079  0.1125  0.3162
  880MPD2    N112914   4.204   2.470   0.507  0.3023 -0.2697  0.3138
  880MPD2    H712915   4.225   2.534   0.431  1.4367 -0.9810  0.0268
  881MPD2     C12916   4.078   3.289   0.002 -1.3209  0.6631 -0.3129
  881MPD2    C112917   4.111   3.162  17.666 -0.7160 -0.3271 -0.3861
  881MPD2    C212918   4.123   3.077   0.086  0.4030 -0.4341  0.0100
  881MPD2    C312919   4.070   3.115   0.212  0.3313  0.2575 -0.1787
  881MPD2    C412920   4.030   3.252   0.228  0.1162 -1.0172  0.8811
  881MPD2    C512921   4.033   3.342   0.127 -0.3745 -0.5096  0.3598
  881MPD2     H12922   4.177   2.983   0.083  0.1660 -0.4839 -2.7028
  881MPD2    H112923   3.991   3.294   0.320  1.9069  3.1694 -0.3059
  881MPD2    H212924   4.060   3.354  17.608 -2.7714  0.1008 -0.4420
  881MPD2    H312925   4.008   3.447   0.129  1.9265  0.0582  0.0134
  881MPD2     N12926   4.073   3.034   0.326 -0.2225  0.0746 -0.0410
  881MPD2    H512927   4.044   3.071   0.416 -1.2557 -2.0045  0.4832
  881MPD2    N112928   4.168   3.136  17.539  0.5776  0.1552  0.0323
  881MPD2    H712929   4.162   3.221  17.484  1.8979  0.7280  0.7581
  882MPD2     C12930   1.857   0.342  14.674  0.3886  0.0366 -0.2834
  882MPD2    C112931   1.861   0.254  14.780  0.5335 -0.4408 -0.2721
  882MPD2    C212932   1.784   0.136  14.780  0.9416 -0.1285 -0.5359
  882MPD2    C312933   1.714   0.106  14.670 -0.2992  0.3876  0.0223
  882MPD2    C412934   1.698   0.196  14.565  0.1670  0.0931  0.0496
  882MPD2    C512935   1.771   0.314  14.574 -0.5657 -0.2187  0.0471
  882MPD2     H12936   1.780   0.073  14.867  2.0407  0.9186  0.2867
  882MPD2    H112937   1.648   0.166  14.473  0.0810  0.5269 -0.0426
  882MPD2    H212938   1.921   0.428  14.672  0.9295 -0.3600  0.0991
  882MPD2    H312939   1.771   0.383  14.491 -1.2100  0.0563  0.2763
  882MPD2     N12940   1.633   4.709  14.657  0.1222  0.4193  0.1615
  882MPD2    H512941   1.591   4.701  14.565  1.0907  1.6646 -0.3900
  882MPD2    N112942   1.950   0.273  14.884 -0.3933  0.7639  0.1882
  882MPD2    H712943   1.947   0.203  14.957  0.4509 -1.3895 -1.8339
  883MPD2     C12944   3.736   0.742  16.007 -0.1357 -0.2178 -0.2542
  883MPD2    C112945   3.810   0.645  15.942  0.1734 -0.1072 -0.2640
  883MPD2    C212946   3.925   0.599  16.006 -0.7612 -0.2510 -0.0897
  883MPD2    C312947   3.965   0.650  16.131 -0.2323  0.0045 -0.3872
  883MPD2    C412948   3.884   0.739  16.194  0.9394 -0.3528 -0.1876
  883MPD2    C512949   3.769   0.779  16.134 -0.0923  0.6647  0.1747
  883MPD2     H12950   3.985   0.525  15.954  0.2079  0.3743  0.1371
  883MPD2    H112951   3.905   0.784  16.290 -1.3629 -4.6299  2.3506
  883MPD2    H212952   3.646   0.784  15.963 -0.4552  0.1599  0.7706
  883MPD2    H312953   3.716   0.858  16.186 -0.0536  1.1679 -0.5430
  883MPD2     N12954   4.090   0.616  16.184  0.0055  0.1325 -0.2776
  883MPD2    H512955   4.153   0.572  16.117  1.0932 -0.0432  0.8585
  883MPD2    N112956   3.777   0.601  15.813  0.7434 -0.6527  0.2392
  883MPD2    H712957   3.843   0.532  15.779  1.5973 -0.5325  1.6510
  884MPD2     C12958   1.302   0.785  15.253  0.0202  0.5445  0.1656
  884MPD2    C112959   1.286   0.912  15.200 -0.5018 -0.3866 -0.5165
  884MPD2    C212960   1.154   0.953  15.169  0.0901 -0.3040 -0.2748
  884MPD2    C312961   1.045   0.867  15.193 -0.3831  0.2200 -0.3468
  884MPD2    C412962   1.068   0.750  15.258 -0.0295 -0.2761 -0.8628
  884MPD2    C512963   1.193   0.707  15.280  0.6206  0.2006 -0.1998
  884MPD2     H12964   1.147   1.040  15.105 -2.4897  0.1513  0.6295
  884MPD2    H112965   0.987   0.680  15.279 -2.3321  2.3938 -0.8107
  884MPD2    H212966   1.400   0.744  15.275 -0.1736 -0.5930 -1.1456
  884MPD2    H312967   1.197   0.612  15.332  0.8417 -0.7838 -2.0433
  884MPD2     N12968   0.921   0.924  15.161  0.5380  0.4221  0.0117
  884MPD2    H512969   0.921   1.016  15.119  3.7435  0.8120  0.9026
  884MPD2    N112970   1.397   1.002  15.175  0.3096  0.2532 -0.5439
  884MPD2    H712971   1.371   1.079  15.114 -0.6029 -0.4995 -1.1028
  885MPD2     C12972   4.427   1.567   0.432  0.7260  0.8702  0.4740
  885MPD2    C112973   4.418   1.437   0.395 -0.2421  0.2597  0.3537
  885MPD2    C212974   4.404   1.402   0.263 -0.2198 -0.3143  0.3730
  885MPD2    C312975   4.365   1.507   0.172 -0.0853 -0.7503 -0.4756
  885MPD2    C412976   4.368   1.637   0.211  0.1576 -0.9165 -0.0246
  885MPD2    C512977   4.402   1.671   0.340  0.1310  0.4826 -0.1730
  885MPD2     H12978   4.406   1.302   0.219  1.1870 -0.2123  0.1912
  885MPD2    H112979   4.329   1.719   0.152  0.4724  0.9383  2.3134
  885MPD2    H212980   4.440   1.594   0.536  1.5683  1.3911  0.2326
  885MPD2    H312981   4.394   1.774   0.375  0.6945 -0.3633  2.4060
  885MPD2     N12982   4.337   1.471   0.037 -0.2244  0.1897 -0.1467
  885MPD2    H512983   4.336   1.373   0.013  1.1857 -0.3636  2.0777
  885MPD2    N112984   4.449   1.336   0.492  0.2494 -0.6433  0.3167
  885MPD2    H712985   4.468   1.376   0.584 -0.6770 -0.2385  0.3337
  886MPD2     C12986   0.597   3.944  15.103  0.5286  0.0826 -0.4116
  886MPD2    C112987   0.680   3.991  15.207 -0.4895  0.4174  0.5026
  886MPD2    C212988   0.683   4.124  15.247  0.6408  0.6492 -0.6520
  886MPD2    C312989   0.627   4.225  15.167  0.1381  0.0925 -0.1381
  886MPD2    C412990   0.544   4.182  15.066 -0.3131 -0.0307 -0.2297
  886MPD2    C512991   0.541   4.049  15.033 -0.2690  0.1713  0.2032
  886MPD2     H12992   0.754   4.147  15.325 -1.9559 -1.1783  2.2126
  886MPD2    H112993   0.493   4.255  15.005  0.7115 -1.2864 -2.5792
  886MPD2    H212994   0.608   3.851  15.049 -0.9415 -0.7897  0.7811
  886MPD2    H312995   0.479   4.023  14.948 -0.0340  1.8402 -0.4775
  886MPD2     N12996   0.633   4.358  15.209  0.1144  0.8125  0.5757
  886MPD2    H512997   0.604   4.425  15.138  1.2571  0.7213  0.0202
  886MPD2    N112998   0.774   3.912  15.271  0.3613  0.1998 -0.1212
  886MPD2    H712999   0.832   3.957  15.342 -0.3402  0.3567  0.3520
  887MPD2     C13000   1.371   4.008  15.684 -0.3744 -0.5372 -0.0669
  887MPD2    C113001   1.249   4.042  15.619 -1.1194  0.1324  0.7299
  887MPD2    C213002   1.209   4.174  15.620 -0.3259  0.0372 -0.4366
  887MPD2    C313003   1.281   4.268  15.680 -0.2912  0.0164 -0.2641
  887MPD2    C413004   1.390   4.235  15.751  0.6536  0.7650  0.2828
  887MPD2    C513005   1.437   4.110  15.752 -0.4927  0.2047  0.0435
  887MPD2     H13006   1.115   4.196  15.571 -0.2463 -0.5770 -0.8681
  887MPD2    H113007   1.439   4.302  15.820  1.2855  1.2319 -0.6109
  887MPD2    H213008   1.410   3.907  15.686 -0.6210 -0.6035  1.1281
  887MPD2    H313009   1.532   4.089  15.800 -0.7057  0.8370  0.7506
  887MPD2     N13010   1.238   4.406  15.672  0.0678  0.1926  0.1085
  887MPD2    H513011   1.149   4.431  15.629  0.4132  0.1754 -0.6120
  887MPD2    N113012   1.169   3.951  15.548  0.1815  0.3916  0.5556
  887MPD2    H713013   1.088   4.000  15.513 -1.5213 -1.3458  2.1039
  888MPD2     C13014   3.253   4.263  15.064 -0.0184 -0.4891  0.2782
  888MPD2    C113015   3.343   4.337  15.130 -0.7826 -0.4444 -0.0470
  888MPD2    C213016   3.373   4.465  15.093  0.0909  0.0273 -0.2407
  888MPD2    C313017   3.327   4.511  14.966  0.5155  0.0272  0.4915
  888MPD2    C413018   3.264   4.417  14.884 -0.6167 -0.5240  0.5513
  888MPD2    C513019   3.225   4.298  14.939 -0.3661 -0.4749  0.0417
  888MPD2     H13020   3.422   4.534  15.159  0.5477  0.9026 -1.5009
  888MPD2    H113021   3.244   4.431  14.779  0.2784  0.4302  0.5148
  888MPD2    H213022   3.232   4.161  15.095 -0.8223 -0.3359  0.2584
  888MPD2    H313023   3.171   4.222  14.883 -0.3984 -1.0873  0.9128
  888MPD2     N13024   3.335   4.643  14.927 -0.1245  0.2651  0.1992
  888MPD2    H513025   3.376   4.713  14.987 -0.9761  0.7776  0.1908
  888MPD2    N113026   3.409   4.287  15.242  0.6307  0.4611  0.1289
  888MPD2    H713027   3.497   4.331  15.267  0.8185 -0.9646  1.9496
  889MPD2     C13028   2.332   4.234  12.796  0.0648  0.1606  0.4193
  889MPD2    C113029   2.408   4.170  12.884  0.2343  1.2147 -1.1358
  889MPD2    C213030   2.424   4.236  13.005 -0.0699  0.6941  0.1482
  889MPD2    C313031   2.395   4.373  13.023  0.6270  0.3486 -0.8208
  889MPD2    C413032   2.341   4.449  12.923  0.3684 -0.3589  0.0815
  889MPD2    C513033   2.311   4.372  12.812 -0.3642 -0.5703 -0.6231
  889MPD2     H13034   2.470   4.176  13.083 -0.5457  0.3087  0.1344
  889MPD2    H113035   2.312   4.553  12.934  1.3511 -0.0877  0.0562
  889MPD2    H213036   2.315   4.185  12.701 -0.1489  1.7190 -0.3527
  889MPD2    H313037   2.274   4.419  12.722  1.9509 -0.3433 -1.4543
  889MPD2     N13038   2.405   4.423  13.148  0.1507  0.0157 -0.3487
  889MPD2    H513039   2.444   4.359  13.216 -0.6036  1.1849  1.1855
  889MPD2    N113040   2.431   4.027  12.863 -0.0718 -0.1485  0.3174
  889MPD2    H713041   2.384   3.989  12.781 -0.1357 -1.9180  1.1878
  890MPD2     C13042   1.761   0.656  14.758  0.5484  0.2067 -0.4840
  890MPD2    C113043   1.869   0.742  14.777  0.0823 -0.3506  0.1370
  890MPD2    C213044   1.917   0.759  14.909  0.2497  0.1973 -0.2226
  890MPD2    C313045   1.850   0.706  15.018 -0.3139  0.4806 -0.0032
  890MPD2    C413046   1.741   0.623  14.995  0.3705  0.1589 -1.1354
  890MPD2    C513047   1.705   0.595  14.868  0.0213  0.2243 -0.0128
  890MPD2     H13048   2.004   0.822  14.929 -0.7383  2.1812 -2.1282
  890MPD2    H113049   1.688   0.567  15.071  0.4399  2.2498  0.4455
  890MPD2    H213050   1.726   0.646  14.656 -1.1907  1.3168  0.0004
  890MPD2    H313051   1.618   0.534  14.844  1.8024 -2.2283 -0.2401
  890MPD2     N13052   1.902   0.726  15.147  0.7469 -0.1165 -0.3792
  890MPD2    H513053   1.969   0.801  15.160  0.8529 -0.2724 -0.0242
  890MPD2    N113054   1.928   0.805  14.660 -0.2238 -0.0337 -0.2805
  890MPD2    H713055   1.897   0.784  14.565 -2.5947 -0.1753  0.5236
  891MPD2     C13056   0.265   3.547  16.497 -0.1692  0.0675 -0.0479
  891MPD2    C113057   0.239   3.676  16.527  0.3622  0.6047 -0.3436
  891MPD2    C213058   0.349   3.759  16.538  0.1932 -0.6712 -0.1375
  891MPD2    C313059   0.483   3.714  16.540 -0.0445  0.5590 -0.2124
  891MPD2    C413060   0.505   3.586  16.509 -0.3605 -0.0517  0.4665
  891MPD2    C513061   0.393   3.505  16.489  0.2934  0.2119  0.0522
  891MPD2     H13062   0.326   3.865  16.547 -1.1429 -1.2968  3.5344
  891MPD2    H113063   0.605   3.556  16.480 -0.3679 -1.1334  1.5424
  891MPD2    H213064   0.182   3.487  16.464  2.5638 -2.4005 -2.3947
  891MPD2    H313065   0.399   3.400  16.462  1.3498  0.6342 -1.3398
  891MPD2     N13066   0.579   3.815  16.549 -0.1788 -0.0428  0.8933
  891MPD2    H513067   0.546   3.910  16.565  1.1821  0.3495  1.3812
  891MPD2    N113068   0.104   3.725  16.526  0.3221 -0.3082  0.9352
  891MPD2    H713069   0.031   3.672  16.479 -0.3117  1.8137 -0.5036
  892MPD2     C13070   1.147   0.521  14.936  0.4313 -0.0101 -0.2238
  892MPD2    C113071   1.052   0.419  14.943 -0.7105 -0.1976  0.1561
  892MPD2    C213072   1.095   0.291  14.931 -0.1285  0.3976  0.0493
  892MPD2    C313073   1.223   0.269  14.889 -0.1472  0.3654 -0.5333
  892MPD2    C413074   1.319   0.377  14.880 -0.1729 -0.4152 -0.5041
  892MPD2    C513075   1.280   0.505  14.904  0.7317 -0.3733 -0.0135
  892MPD2     H13076   1.017   0.215  14.939  0.5372 -0.1507  1.3468
  892MPD2    H113077   1.423   0.357  14.855  0.4500  0.0534  1.6516
  892MPD2    H213078   1.129   0.623  14.969 -0.6047  1.2860 -4.8211
  892MPD2    H313079   1.352   0.586  14.910  1.1310 -0.5844 -1.8624
  892MPD2     N13080   1.260   0.137  14.845  0.4105 -0.5751 -0.5463
  892MPD2    H513081   1.351   0.126  14.801  0.9267 -0.2972  0.4569
  892MPD2    N113082   0.922   0.439  14.984 -0.9865  0.3558 -0.2793
  892MPD2    H713083   0.864   0.358  15.005  0.0303 -0.6200 -1.1950
  893MPD2     C13084   2.346   2.797   0.700  0.2277 -0.2610 -0.0740
  893MPD2    C113085   2.354   2.912   0.779  0.5789 -0.0010  0.1148
  893MPD2    C213086   2.247   3.004   0.782  0.2867  0.8766 -0.5614
  893MPD2    C313087   2.133   2.978   0.710  0.6421  0.4508  0.1794
  893MPD2    C413088   2.121   2.856   0.639 -0.0343 -0.1028 -0.0274
  893MPD2    C513089   2.228   2.771   0.630 -0.2091 -0.6689 -0.3254
  893MPD2     H13090   2.261   3.100   0.830  0.2891  0.2388  0.7074
  893MPD2    H113091   2.033   2.828   0.583 -0.5244  0.1709  0.6092
  893MPD2    H213092   2.429   2.727   0.691  0.3452 -0.1126 -0.1528
  893MPD2    H313093   2.220   2.688   0.561 -2.7553 -0.3281 -0.4521
  893MPD2     N13094   2.024   3.065   0.719 -0.2576  0.3451  0.2201
  893MPD2    H513095   1.938   3.035   0.673 -0.7611  1.0984  0.6629
  893MPD2    N113096   2.472   2.928   0.863  0.2880  0.0460  0.0768
  893MPD2    H713097   2.552   2.868   0.844  2.2854  1.9058  2.4918
  894MPD2     C13098   0.773   1.130   1.576 -0.5915  0.6262 -0.2659
  894MPD2    C113099   0.763   1.239   1.658  0.4060  0.1645 -0.8404
  894MPD2    C213100   0.673   1.337   1.631  0.0449  0.2102 -0.3428
  894MPD2    C313101   0.572   1.317   1.535 -1.1897  0.3867 -0.3095
  894MPD2    C413102   0.592   1.216   1.440  0.1252  0.8820 -0.5379
  894MPD2    C513103   0.690   1.121   1.465  0.2906 -0.2101  0.3376
  894MPD2     H13104   0.671   1.425   1.696  0.8861 -0.1113  0.1208
  894MPD2    H113105   0.522   1.196   1.360 -0.6172  1.5738 -0.0690
  894MPD2    H213106   0.848   1.053   1.593 -1.3927 -0.1645 -0.3143
  894MPD2    H313107   0.698   1.040   1.394 -1.7593  0.0782 -0.2386
  894MPD2     N13108   0.477   1.421   1.515  0.6699  0.1217 -0.6103
  894MPD2    H513109   0.496   1.506   1.567  2.1625  1.0704 -2.7194
  894MPD2    N113110   0.852   1.268   1.762 -0.1296  0.2469  0.0408
  894MPD2    H713111   0.836   1.354   1.812  0.9386  1.4903 -1.7395
  895MPD2     C13112   0.512   3.880  13.860  0.5049  0.2549  0.2405
  895MPD2    C113113   0.460   3.885  13.737  0.0515  0.9744  0.8669
  895MPD2    C213114   0.484   3.784  13.648 -0.0111  0.8621  0.0983
  895MPD2    C313115   0.584   3.688  13.678 -0.7029  0.1113 -0.2102
  895MPD2    C413116   0.641   3.684  13.807  0.1300 -0.4711 -0.1344
  895MPD2    C513117   0.601   3.781  13.896  0.2392  0.6851  0.1301
  895MPD2     H13118   0.440   3.780  13.549  0.6823 -0.9118 -0.1521
  895MPD2    H113119   0.712   3.610  13.839 -0.1172 -0.5891  0.1469
  895MPD2    H213120   0.468   3.949  13.930  0.8117 -1.6018  2.2524
  895MPD2    H313121   0.636   3.797  13.997  1.2228  0.6374 -0.1986
  895MPD2     N13122   0.605   3.590  13.579 -0.3015 -0.0662 -0.0482
  895MPD2    H513123   0.551   3.593  13.493  1.0560 -0.0068 -0.8964
  895MPD2    N113124   0.369   3.987  13.702 -0.1792 -0.1655  0.7084
  895MPD2    H713125   0.328   3.970  13.611 -0.3449  2.2131  0.3385
  896MPD2     C13126   1.608   2.288   2.117 -0.5586 -0.4692 -0.0264
  896MPD2    C113127   1.615   2.218   1.999 -0.3325 -0.3718 -0.6539
  896MPD2    C213128   1.497   2.176   1.950  0.5642  0.5920 -0.2094
  896MPD2    C313129   1.378   2.194   2.019  0.1983  0.1061 -0.7451
  896MPD2    C413130   1.378   2.249   2.146  0.0317  0.4566 -0.6871
  896MPD2    C513131   1.496   2.301   2.185  0.0064 -0.5341  0.1758
  896MPD2     H13132   1.489   2.117   1.860  0.8013 -0.8948  0.7255
  896MPD2    H113133   1.287   2.283   2.196  0.5316  2.8133 -1.3891
  896MPD2    H213134   1.695   2.335   2.161 -1.1242  1.0090 -0.4816
  896MPD2    H313135   1.502   2.365   2.273  0.2828  1.2480 -1.1281
  896MPD2     N13136   1.265   2.155   1.953  0.6254  0.4883 -0.1857
  896MPD2    H513137   1.274   2.122   1.858  0.7478 -1.1096  0.3798
  896MPD2    N113138   1.742   2.207   1.939  0.1764  0.8713 -0.4013
  896MPD2    H713139   1.821   2.263   1.968  0.6330 -0.6977  1.3738
  897MPD2     C13140   3.374   3.063   9.940 -0.6550  1.4543 -0.4402
  897MPD2    C113141   3.438   3.070  10.064  0.1326  0.4847 -0.0462
  897MPD2    C213142   3.384   3.132  10.172  0.1288 -0.9299  0.0505
  897MPD2    C313143   3.261   3.193  10.160  0.0542  0.0894  0.1961
  897MPD2    C413144   3.193   3.173  10.041 -0.5860 -0.0571 -0.0656
  897MPD2    C513145   3.248   3.112   9.930  0.3323  0.1825 -0.2674
  897MPD2     H13146   3.422   3.124  10.273  1.6784 -0.4238 -0.4955
  897MPD2    H113147   3.092   3.210  10.027 -2.2752 -4.1995  1.1080
  897MPD2    H213148   3.411   3.020   9.848 -2.0635 -1.0344  0.1427
  897MPD2    H313149   3.194   3.091   9.839  0.6890  2.4354 -1.0016
  897MPD2     N13150   3.211   3.251  10.278 -0.7204  0.3568  0.4100
  897MPD2    H513151   3.279   3.246  10.353 -1.0710  0.8217  0.7653
  897MPD2    N113152   3.573   3.024  10.065 -0.2857  0.2168  0.1344
  897MPD2    H713153   3.612   2.982   9.981 -0.7988 -1.0893  0.5445
  898MPD2     C13154   1.717   4.433  17.522  0.4265 -0.1406  1.1954
  898MPD2    C113155   1.613   4.475  17.599 -0.3464  0.4125  0.2835
  898MPD2    C213156   1.481   4.473  17.547  0.2862  0.6292  0.7716
  898MPD2    C313157   1.450   4.445  17.416  0.4261  0.5967 -0.9471
  898MPD2    C413158   1.560   4.399  17.341 -0.0826 -0.2398  0.2477
  898MPD2    C513159   1.688   4.392  17.394  1.1487 -0.3028  0.1592
  898MPD2     H13160   1.397   4.500  17.609 -2.3930  1.0598 -3.0598
  898MPD2    H113161   1.558   4.372  17.236 -0.1099 -1.6329  0.6048
  898MPD2    H213162   1.822   4.420  17.548  0.6203 -3.0725 -1.0362
  898MPD2    H313163   1.770   4.357  17.333 -0.0302  1.0057 -2.1446
  898MPD2     N13164   1.320   4.453  17.369  0.3634  0.5521 -0.6789
  898MPD2    H513165   1.255   4.488  17.439  1.7981  0.7569  0.5449
  898MPD2    N113166   1.633   4.506   0.044  0.4208  0.0649  0.7670
  898MPD2    H713167   1.552   4.516   0.105 -1.7164 -4.4450 -1.3227
  899MPD2     C13168   1.395   0.307   0.299  0.3292 -0.2405  0.7032
  899MPD2    C113169   1.446   0.419   0.239 -0.9684 -0.8367 -0.6051
  899MPD2    C213170   1.410   0.539   0.301 -1.1827  0.1808  0.2723
  899MPD2    C313171   1.311   0.552   0.396  0.1121  0.2692 -0.0264
  899MPD2    C413172   1.260   0.434   0.445  0.1554  0.1882  0.5113
  899MPD2    C513173   1.307   0.318   0.399  0.3084 -0.1170  0.1459
  899MPD2     H13174   1.469   0.627   0.276 -2.1466  0.7301 -0.0998
  899MPD2    H113175   1.178   0.436   0.516  1.1043  1.0013  1.5989
  899MPD2    H213176   1.425   0.209   0.263 -3.1057 -0.8678 -0.4555
  899MPD2    H313177   1.265   0.226   0.440  1.3528 -0.7802 -0.2862
  899MPD2     N13178   1.260   0.675   0.437  0.1124  0.5173 -0.3119
  899MPD2    H513179   1.182   0.669   0.500  1.3590 -0.4615  1.1341
  899MPD2    N113180   1.529   0.407   0.122  0.1693 -0.4030 -0.3459
  899MPD2    H713181   1.534   0.318   0.072  0.1610  0.1547 -1.3341
  900MPD2     C13182   1.555   2.004  12.303  0.1746  0.3605  0.4523
  900MPD2    C113183   1.474   1.935  12.394 -0.2246 -0.2424 -0.4419
  900MPD2    C213184   1.337   1.946  12.368 -0.2812  1.1618 -0.2452
  900MPD2    C313185   1.287   2.002  12.250  0.2354  0.6123  0.9253
  900MPD2    C413186   1.377   2.065  12.161  0.2260  0.2441 -0.0526
  900MPD2    C513187   1.508   2.056  12.189 -0.1690 -0.1705  0.3857
  900MPD2     H13188   1.267   1.905  12.440 -0.2368 -0.9420 -1.4241
  900MPD2    H113189   1.350   2.110  12.066 -1.8100 -0.9396 -0.0430
  900MPD2    H213190   1.661   2.011  12.324  0.3126  1.6296 -0.6112
  900MPD2    H313191   1.582   2.109  12.129 -1.1971  1.4108  0.5081
  900MPD2     N13192   1.149   2.012  12.236  0.7612  0.3137  0.4805
  900MPD2    H513193   1.095   1.949  12.295  1.2592  0.5457  1.1917
  900MPD2    N113194   1.524   1.864  12.501  0.2762  0.3600  0.0628
  900MPD2    H713195   1.623   1.845  12.494  0.7951  2.2616  2.1049
  901MPD2     C13196   1.175   0.936  12.817  0.0582 -0.2472 -0.0651
  901MPD2    C113197   1.304   0.933  12.875 -0.3602  0.3191  0.0738
  901MPD2    C213198   1.370   1.053  12.905 -0.5137 -0.1120 -0.2202
  901MPD2    C313199   1.313   1.175  12.875 -0.2854 -0.4632  0.6567
  901MPD2    C413200   1.186   1.176  12.833  0.2124 -0.1669  0.1294
  901MPD2    C513201   1.118   1.058  12.804 -0.6684  0.1340 -0.0698
  901MPD2     H13202   1.474   1.049  12.936 -1.3488  1.5358  2.7338
  901MPD2    H113203   1.127   1.266  12.822 -2.6949 -2.2691 -1.3499
  901MPD2    H213204   1.115   0.853  12.780 -2.0941  1.2571  0.0674
  901MPD2    H313205   1.017   1.067  12.766  0.7696  2.1813 -3.3466
  901MPD2     N13206   1.400   1.291  12.884 -0.4329 -0.3110  0.0714
  901MPD2    H513207   1.498   1.280  12.908 -0.7713  0.4770  1.8726
  901MPD2    N113208   1.360   0.808  12.891 -0.7026 -0.1655 -0.2395
  901MPD2    H713209   1.289   0.736  12.887  0.2290 -1.1789  1.5166
  902MPD2     C13210   0.180   4.553  13.131 -0.6953  0.0939 -0.0557
  902MPD2    C113211   0.186   4.538  12.995 -0.2409 -0.4294  0.0019
  902MPD2    C213212   0.271   4.445  12.936 -1.5016 -0.6637 -0.0760
  902MPD2    C313213   0.342   4.357  13.017 -0.1759  0.3909 -0.0843
  902MPD2    C413214   0.323   4.370  13.157 -0.5048 -0.6500 -0.0417
  902MPD2    C513215   0.251   4.465  13.213 -0.3471 -0.0855 -0.4940
  902MPD2     H13216   0.265   4.435  12.828 -1.9635  1.0100 -0.2101
  902MPD2    H113217   0.373   4.305  13.228 -0.8643  0.8424  1.5770
  902MPD2    H213218   0.112   4.623  13.178 -0.7226  0.1550 -0.1868
  902MPD2    H313219   0.242   4.485  13.319  0.2177  0.1719 -0.4906
  902MPD2     N13220   0.416   4.246  12.973  0.1211  0.6808  0.1130
  902MPD2    H513221   0.448   4.184  13.047 -1.5136 -2.2254 -1.5888
  902MPD2    N113222   0.115   4.617  12.899  0.0131 -0.0231  0.0266
  902MPD2    H713223   0.136   4.603  12.801 -3.4557  0.0284 -0.7203
  903MPD2     C13224   0.455   3.951  12.253 -0.1324  0.1862 -0.2309
  903MPD2    C113225   0.385   3.981  12.368 -0.1522 -0.0499 -0.2059
  903MPD2    C213226   0.249   4.008  12.357 -0.8350 -0.3484 -0.4942
  903MPD2    C313227   0.184   3.999  12.237 -0.3356 -0.1880 -0.2167
  903MPD2    C413228   0.261   3.986  12.119  0.5554  0.3435 -0.4386
  903MPD2    C513229   0.397   3.959  12.130 -0.0553 -0.4427  0.1927
  903MPD2     H13230   0.197   4.041  12.446  0.5823 -0.8837  0.5347
  903MPD2    H113231   0.221   3.986  12.018  1.8143  1.1912 -0.9301
  903MPD2    H213232   0.560   3.926  12.260  0.0883  0.9023 -1.0207
  903MPD2    H313233   0.461   3.942  12.043  0.0979  3.0158 -0.3958
  903MPD2     N13234   0.046   4.030  12.236 -0.1043 -0.6406  0.4043
  903MPD2    H513235   0.016   4.085  12.316  0.4546  2.4741 -1.5458
  903MPD2    N113236   0.452   4.008  12.490  0.3247  0.0121  0.0735
  903MPD2    H713237   0.416   4.071  12.560  1.6514 -1.1507  1.7890
  904MPD2     C13238   0.130   3.145  13.987  0.4077 -0.6255 -0.5585
  904MPD2    C113239   0.179   3.271  14.002 -0.1414 -0.6766 -0.9017
  904MPD2    C213240   0.313   3.296  14.017  0.5637  0.4326 -0.7371
  904MPD2    C313241   0.401   3.190  14.006  0.3000  0.3515 -0.3397
  904MPD2    C413242   0.360   3.058  13.981  0.3128  0.2605  0.2948
  904MPD2    C513243   0.227   3.040  13.972 -0.3247 -0.4266  0.3488
  904MPD2     H13244   0.342   3.399  14.038  1.6243 -0.3148  1.4568
  904MPD2    H113245   0.430   2.974  13.978  1.2283  1.0453 -0.2322
  904MPD2    H213246   0.024   3.126  13.970  0.0806 -1.1230  2.1335
  904MPD2    H313247   0.187   2.940  13.972 -0.1810 -0.4865  0.1004
  904MPD2     N13248   0.540   3.222  14.025 -0.1920  0.1378  0.1531
  904MPD2    H513249   0.565   3.316  14.054  3.1876 -0.7995  0.3342
  904MPD2    N113250   0.096   3.386  13.992  0.7959 -0.3385 -1.1121
  904MPD2    H713251   0.147   3.474  13.988  0.6596 -0.2475 -0.8822
  905MPD2     C13252   4.593   3.281  13.349  0.3441 -0.1427  0.3646
  905MPD2    C113253   4.657   3.391  13.405  0.1218  0.2797 -0.8664
  905MPD2    C213254   0.073   3.407  13.379  0.0708 -0.1165  0.4726
  905MPD2    C313255   0.134   3.316  13.293  0.0930 -0.2216  0.8019
  905MPD2    C413256   0.074   3.210  13.241 -0.2304  0.6507 -0.4350
  905MPD2    C513257   4.664   3.192  13.269  0.3615  0.2567  0.0887
  905MPD2     H13258   0.122   3.481  13.440  0.6110 -0.2451  0.1975
  905MPD2    H113259   0.131   3.130  13.196 -2.7718  0.1004 -2.6700
  905MPD2    H213260   4.488   3.259  13.364  0.4366 -0.7762  0.0922
  905MPD2    H313261   4.614   3.102  13.237 -5.0749  2.7451  1.5170
  905MPD2     N13262   0.269   3.317  13.271 -0.8317  0.1127  0.2071
  905MPD2    H513263   0.306   3.245  13.211  2.3786  2.9850 -1.2745
  905MPD2    N113264   4.581   3.461  13.506  0.1033 -0.4355  0.2584
  905MPD2    H713265   4.489   3.424  13.529 -0.0948  1.0538  1.8724
  906MPD2     C13266   2.015   3.600  11.376 -0.4064  0.0327 -0.5899
  906MPD2    C113267   1.994   3.502  11.276  0.3594 -0.0433  0.3205
  906MPD2    C213268   1.976   3.377  11.325 -0.4434 -0.6480  0.2483
  906MPD2    C313269   1.979   3.343  11.460 -0.2232 -0.1740 -0.0096
  906MPD2    C413270   2.002   3.434  11.553 -0.4046  0.2044 -0.0052
  906MPD2    C513271   2.010   3.565  11.509  0.3502 -0.1314 -0.5826
  906MPD2     H13272   1.962   3.305  11.246 -1.9604 -0.0960  0.0128
  906MPD2    H113273   2.011   3.421  11.660  2.1230 -0.3568 -0.2904
  906MPD2    H213274   2.042   3.701  11.348 -0.5049  0.0862 -0.4893
  906MPD2    H313275   2.030   3.642  11.583  1.5950 -1.4145  0.4074
  906MPD2     N13276   1.954   3.211  11.505  0.9027  0.0753 -0.4309
  906MPD2    H513277   1.965   3.208  11.605 -1.4702  1.9268 -0.1123
  906MPD2    N113278   1.998   3.516  11.135 -0.2341  0.2609  0.3545
  906MPD2    H713279   1.977   3.434  11.081 -1.7835  0.7719  0.2029
  907MPD2     C13280   0.860   2.865  15.252 -0.4113  0.1508  0.8083
  907MPD2    C113281   0.869   2.728  15.273  0.5008  0.5547  0.6588
  907MPD2    C213282   0.878   2.673  15.397  0.9865 -0.3478 -0.2365
  907MPD2    C313283   0.871   2.761  15.508  0.3219  0.3942  0.0538
  907MPD2    C413284   0.844   2.897  15.492 -0.3697  0.4041 -0.1246
  907MPD2    C513285   0.845   2.945  15.366 -0.1913 -1.3635  0.0988
  907MPD2     H13286   0.888   2.567  15.415 -0.6716 -0.7443 -1.6479
  907MPD2    H113287   0.821   2.965  15.573 -1.4462  1.4075 -1.2591
  907MPD2    H213288   0.859   2.911  15.154 -3.6475 -0.0531  0.7375
  907MPD2    H313289   0.824   3.047  15.337  0.7231 -1.0408  0.5617
  907MPD2     N13290   0.880   2.704  15.636 -0.0317  0.1875 -0.6821
  907MPD2    H513291   0.908   2.606  15.631 -0.6145  0.0046 -0.3816
  907MPD2    N113292   0.864   2.640  15.161 -0.2054  0.2193 -0.4549
  907MPD2    H713293   0.894   2.545  15.179  1.4830  0.6321 -1.0160
  908MPD2     C13294   3.967   2.573   9.455  0.5768 -0.0600 -0.1354
  908MPD2    C113295   3.874   2.545   9.554  0.0785  0.3476 -0.0884
  908MPD2    C213296   3.859   2.636   9.659  0.5627  0.0697  0.7246
  908MPD2    C313297   3.947   2.740   9.686 -0.1555  0.1677 -0.7211
  908MPD2    C413298   4.053   2.750   9.597  0.2785 -0.2523 -0.2256
  908MPD2    C513299   4.053   2.678   9.480  0.3711 -0.7792  0.3947
  908MPD2     H13300   3.773   2.629   9.724 -1.0529 -1.3232 -1.5830
  908MPD2    H113301   4.134   2.818   9.620 -0.5981  0.6269  0.3004
  908MPD2    H213302   3.965   2.515   9.363 -0.3266 -1.2377  0.6252
  908MPD2    H313303   4.123   2.699   9.400 -1.5491  1.3146 -0.7488
  908MPD2     N13304   3.923   2.832   9.794  0.1175  0.1932 -0.7511
  908MPD2    H513305   3.845   2.810   9.855  1.7638  0.8457  1.5987
  908MPD2    N113306   3.772   2.445   9.542  0.0902 -0.7845  0.4043
  908MPD2    H713307   3.706   2.434   9.619  0.4929  1.4446  1.0768
  909MPD2     C13308   3.895   1.240  11.820 -0.0357 -0.3576  0.7023
  909MPD2    C113309   3.931   1.368  11.773  0.5880  0.2248 -0.4218
  909MPD2    C213310   3.853   1.474  11.811  0.1832 -0.3376  0.1505
  909MPD2    C313311   3.749   1.459  11.891 -0.4072 -0.7553 -0.1409
  909MPD2    C413312   3.710   1.330  11.935 -0.3913  0.4487 -0.3135
  909MPD2    C513313   3.794   1.221  11.907  0.2436 -0.2696  0.1221
  909MPD2     H13314   3.882   1.573  11.778  2.2198 -1.2325 -0.7760
  909MPD2    H113315   3.628   1.311  12.003 -0.4218  0.2176 -0.4136
  909MPD2    H213316   3.952   1.152  11.792  1.7541  1.2924 -0.8553
  909MPD2    H313317   3.767   1.127  11.955 -1.2267  0.0642 -0.0571
  909MPD2     N13318   3.692   1.580  11.932  0.3900  0.1997 -0.7249
  909MPD2    H513319   3.731   1.666  11.895 -2.1392  1.2079 -1.0368
  909MPD2    N113320   4.026   1.393  11.670 -0.5104  0.1527 -0.3377
  909MPD2    H713321   4.032   1.489  11.637 -1.6214  0.5257  0.5189
  910MPD2     C13322   0.474   3.484  16.025  0.7337  1.0854 -0.5012
  910MPD2    C113323   0.528   3.402  15.925 -0.1687 -0.8986  0.4860
  910MPD2    C213324   0.445   3.374  15.814  0.7011 -0.2191 -0.3953
  910MPD2    C313325   0.323   3.445  15.792 -0.0543 -0.5521 -0.3483
  910MPD2    C413326   0.280   3.528  15.897 -0.0010 -0.3346 -0.7872
  910MPD2    C513327   0.353   3.546  16.010  0.5315  0.4588 -0.2859
  910MPD2     H13328   0.478   3.304  15.738  1.0162 -0.3587 -0.1289
  910MPD2    H113329   0.191   3.590  15.892 -1.2405 -2.2168 -2.2786
  910MPD2    H213330   0.530   3.518  16.112 -0.0710 -1.7893  1.1363
  910MPD2    H313331   0.324   3.612  16.091  0.0927  0.0843 -0.1386
  910MPD2     N13332   0.247   3.444  15.677  0.1323  0.5275 -0.3692
  910MPD2    H513333   0.157   3.490  15.683  0.9034  2.2055 -1.5701
  910MPD2    N113334   0.638   3.322  15.948 -0.4836  0.0102 -0.4840
  910MPD2    H713335   0.655   3.242  15.888  0.0031 -0.0966 -0.2059
  911MPD2     C13336   3.153   3.615  16.466  0.0553 -0.3792 -0.3465
  911MPD2    C113337   3.229   3.726  16.492  0.9792 -0.4072 -0.5415
  911MPD2    C213338   3.172   3.850  16.471  0.1082 -0.3443 -0.2511
  911MPD2    C313339   3.048   3.861  16.405  0.1537 -0.0281  0.2255
  911MPD2    C413340   2.985   3.749  16.369 -0.3049  0.4171  1.0317
  911MPD2    C513341   3.033   3.628  16.404 -0.3589  0.0025 -0.0921
  911MPD2     H13342   3.238   3.933  16.493  1.1853 -0.6834 -2.1524
  911MPD2    H113343   2.889   3.757  16.320  0.0288  0.5615  0.4064
  911MPD2    H213344   3.196   3.516  16.478 -1.0227 -0.9458 -1.1453
  911MPD2    H313345   2.982   3.538  16.373  1.8302 -0.8646 -1.1902
  911MPD2     N13346   3.000   3.979  16.349  0.0145 -0.8714 -0.2008
  911MPD2    H513347   2.914   3.970  16.296 -0.6568  1.0018  0.5672
  911MPD2    N113348   3.352   3.700  16.558  0.0290 -0.0249  0.6094
  911MPD2    H713349   3.394   3.609  16.574  0.0059  0.0300  0.9780
  912MPD2     C13350   2.891   3.814  15.784  0.1205 -0.4889 -0.0878
  912MPD2    C113351   2.844   3.848  15.904  0.2317 -0.4691 -0.2052
  912MPD2    C213352   2.795   3.750  15.990  0.2912  0.2089  0.4669
  912MPD2    C313353   2.814   3.616  15.962 -0.0436 -0.1559 -0.5657
  912MPD2    C413354   2.877   3.581  15.852 -0.2201 -0.4704  0.4392
  912MPD2    C513355   2.919   3.678  15.764  0.1250  0.0632  0.6516
  912MPD2     H13356   2.744   3.769  16.083  0.0326 -1.4098  0.6670
  912MPD2    H113357   2.897   3.477  15.829  1.7663 -0.1723  0.8042
  912MPD2    H213358   2.937   3.888  15.719 -0.7860 -1.4468 -1.8282
  912MPD2    H313359   2.982   3.644  15.682  1.7458  0.3925  1.7431
  912MPD2     N13360   2.762   3.524  16.057 -0.8947  0.1664 -0.3714
  912MPD2    H513361   2.708   3.571  16.128  0.5414 -1.2435  1.6413
  912MPD2    N113362   2.856   3.983  15.945 -0.6563  0.1721  0.4873
  912MPD2    H713363   2.906   4.047  15.884 -0.3988 -0.0464  0.4716
  913MPD2     C13364   2.894   0.032  10.055 -0.1485 -0.7719  0.1092
  913MPD2    C113365   2.983   0.126  10.107  0.0390  0.4345 -0.1734
  913MPD2    C213366   2.999   0.243  10.035 -0.0495 -0.0051 -0.4671
  913MPD2    C313367   2.953   0.255   9.910  0.4204  0.6763 -0.0561
  913MPD2    C413368   2.859   0.169   9.867  0.4214 -0.0459 -0.1227
  913MPD2    C513369   2.832   0.060   9.943  0.4374 -0.8836  0.5455
  913MPD2     H13370   3.071   0.315  10.073  1.7395 -1.8321 -0.3851
  913MPD2    H113371   2.798   0.187   9.779  1.2770 -1.4580 -1.0098
  913MPD2    H213372   2.865   4.662  10.104 -2.3558 -0.4556 -0.5868
  913MPD2    H313373   2.744   0.003   9.913  0.8518 -0.6340 -1.1174
  913MPD2     N13374   2.997   0.359   9.818 -0.2189 -0.1978 -0.5117
  913MPD2    H513375   2.962   0.357   9.722 -1.0583  1.8811 -0.2374
  913MPD2    N113376   3.028   0.107  10.243  0.1698 -0.5221  0.2699
  913MPD2    H713377   3.009   0.014  10.278 -1.9408  0.1434  0.8830
  914MPD2     C13378   1.041   0.207  12.399  0.3488 -0.0502 -0.2658
  914MPD2    C113379   1.043   0.345  12.412  0.2099  0.1537 -0.5484
  914MPD2    C213380   1.118   0.400  12.517 -0.4393  0.6246 -0.8532
  914MPD2    C313381   1.196   0.321  12.601  0.1494  0.8875 -0.2429
  914MPD2    C413382   1.184   0.182  12.589 -0.4993 -0.0231 -0.0879
  914MPD2    C513383   1.105   0.131  12.489 -0.6507  0.1794  0.7947
  914MPD2     H13384   1.128   0.506  12.536  0.6047 -0.1985  3.0705
  914MPD2    H113385   1.243   0.113  12.648  0.5783  0.5532 -0.4930
  914MPD2    H213386   0.974   0.162  12.327 -0.4531 -0.1164  0.5166
  914MPD2    H313387   1.089   0.024  12.480  1.4218 -0.2036  1.7308
  914MPD2     N13388   1.260   0.382  12.706  0.1520  0.9086  0.2604
  914MPD2    H513389   1.261   0.483  12.706  2.2004  0.8946 -0.9760
  914MPD2    N113390   0.988   0.421  12.310 -0.5625 -0.0587 -0.5923
  914MPD2    H713391   0.956   0.369  12.229 -0.5686 -0.8883 -0.0511
  915MPD2     C13392   4.538   0.719  15.839 -0.1165 -0.2927  0.6297
  915MPD2    C113393   4.437   0.760  15.760 -0.4780  0.2270 -0.5481
  915MPD2    C213394   4.328   0.833  15.812 -0.7705 -0.2936 -0.8058
  915MPD2    C313395   4.322   0.872  15.950 -0.1752  0.1137  0.3126
  915MPD2    C413396   4.433   0.843  16.022  0.6277  0.9061 -0.2678
  915MPD2    C513397   4.539   0.770  15.969  0.5042  1.2603  0.2033
  915MPD2     H13398   4.243   0.859  15.751 -0.9475  1.2782  0.0942
  915MPD2    H113399   4.455   0.885  16.120 -1.4218  1.1160  0.1099
  915MPD2    H213400   4.620   0.658  15.804  0.8381  1.6151 -0.4829
  915MPD2    H313401   4.626   0.749  16.030  0.8947  0.4286 -0.6565
  915MPD2     N13402   4.211   0.945  16.006 -0.1754  0.0447 -0.3591
  915MPD2    H513403   4.134   0.966  15.943 -0.3593  2.7439  0.7853
  915MPD2    N113404   4.434   0.722  15.626  0.3373  0.2742 -0.6030
  915MPD2    H713405   4.494   0.647  15.593 -1.2947 -0.5218 -1.8280
  916MPD2     C13406   2.490   3.966  15.880 -0.1527  0.6796 -0.5566
  916MPD2    C113407   2.457   3.835  15.914  0.6834  0.1919  0.5577
  916MPD2    C213408   2.484   3.731  15.822 -0.2365 -0.4690  0.5377
  916MPD2    C313409   2.550   3.751  15.698 -0.0758 -0.2814 -0.1018
  916MPD2    C413410   2.586   3.880  15.673  0.6981  0.2063 -0.3032
  916MPD2    C513411   2.557   3.987  15.756  0.8703 -0.4191  0.0153
  916MPD2     H13412   2.461   3.629  15.851  2.0338 -0.6095  1.8056
  916MPD2    H113413   2.639   3.904  15.582  0.4056  0.0743 -0.5046
  916MPD2    H213414   2.457   4.046  15.945 -0.8964 -0.4779  0.4795
  916MPD2    H313415   2.584   4.085  15.719 -0.1483 -0.7351 -1.5586
  916MPD2     N13416   2.578   3.635  15.616  0.0589 -0.2186  0.0733
  916MPD2    H513417   2.554   3.545  15.656  0.8568 -0.4416  0.0571
  916MPD2    N113418   2.391   3.816  16.038 -0.1434 -0.5110 -0.4625
  916MPD2    H713419   2.386   3.901  16.093  0.2685 -0.5915 -0.3052
  917MPD2     C13420   2.574   0.727  11.017  0.5028  0.8940 -0.4248
  917MPD2    C113421   2.566   0.813  11.129  0.5896 -0.0658  0.3042
  917MPD2    C213422   2.576   0.949  11.100 -0.1792 -0.7434  0.3789
  917MPD2    C313423   2.603   0.992  10.973  0.5779  0.6016 -0.8372
  917MPD2    C413424   2.621   0.909  10.872 -0.4666  0.1666  0.6411
  917MPD2    C513425   2.600   0.771  10.896 -0.4021 -0.2851  0.1290
  917MPD2     H13426   2.568   1.026  11.176 -1.3621  1.4763 -1.9987
  917MPD2    H113427   2.668   0.930  10.777  0.7590 -0.5760  1.0949
  917MPD2    H213428   2.558   0.620  11.021  0.6009  0.8306 -1.6770
  917MPD2    H313429   2.607   0.698  10.816 -0.7981 -0.0616 -0.1068
  917MPD2     N13430   2.627   1.128  10.942 -0.5042 -0.4630 -0.2630
  917MPD2    H513431   2.662   1.144  10.848  3.5075 -0.7140  1.2140
  917MPD2    N113432   2.536   0.765  11.254  0.1546  0.1666  0.2479
  917MPD2    H713433   2.498   0.671  11.251 -0.8206  0.6390 -1.9330
  918MPD2     C13434   2.459   1.364  12.090  0.8444 -1.0284 -0.0471
  918MPD2    C113435   2.577   1.329  12.036  0.2071  0.0399  0.3229
  918MPD2    C213436   2.587   1.215  11.962 -0.7623  0.8759  0.1427
  918MPD2    C313437   2.479   1.136  11.922  0.1285 -0.4290 -0.3127
  918MPD2    C413438   2.354   1.177  11.971  0.7722 -0.1404  0.2079
  918MPD2    C513439   2.348   1.297  12.051 -0.0553  0.5269  0.5848
  918MPD2     H13440   2.685   1.193  11.921 -1.2637 -0.2569 -0.4604
  918MPD2    H113441   2.262   1.125  11.946  1.6276 -1.9391  0.7676
  918MPD2    H213442   2.446   1.451  12.153  1.9748 -0.0012 -1.2427
  918MPD2    H313443   2.252   1.321  12.094  1.4273  1.4265  3.3536
  918MPD2     N13444   2.504   1.025  11.836 -0.1192 -0.5701  0.4620
  918MPD2    H513445   2.590   1.014  11.784  0.2965  0.8565  0.8605
  918MPD2    N113446   2.698   1.381  12.076 -0.1372  0.8303  0.6323
  918MPD2    H713447   2.782   1.331  12.049 -1.4221 -1.4839  0.9529
  919MPD2     C13448   2.895   4.359  11.321 -0.4559 -0.5871  0.7866
  919MPD2    C113449   2.959   4.250  11.272  0.2232  0.6996 -0.5849
  919MPD2    C213450   2.952   4.229  11.133 -0.2693 -0.7585 -0.2494
  919MPD2    C313451   2.888   4.317  11.049 -0.1079 -0.1943 -0.2485
  919MPD2    C413452   2.840   4.431  11.104  0.3281  0.5643  0.5317
  919MPD2    C513453   2.832   4.445  11.240  0.6495  0.2073 -0.0612
  919MPD2     H13454   2.992   4.137  11.092  3.3270  0.4914  0.4741
  919MPD2    H113455   2.804   4.508  11.037 -3.7533 -2.8778 -1.2765
  919MPD2    H213456   2.895   4.380  11.427 -2.3330  2.4765  0.1821
  919MPD2    H313457   2.775   4.525  11.285 -0.1292 -0.5960  0.3910
  919MPD2     N13458   2.890   4.307  10.908 -0.4804 -0.2830  0.5112
  919MPD2    H513459   2.867   4.389  10.853 -2.1122 -0.0177  1.5995
  919MPD2    N113460   3.034   4.169  11.363 -0.0548 -0.2088  0.0167
  919MPD2    H713461   3.034   4.199  11.460 -2.3835  3.6888 -1.1971
  920MPD2     C13462   2.155   4.432  10.260  0.6763 -0.2603  0.4706
  920MPD2    C113463   2.178   4.296  10.255  0.7304  0.1480 -0.1691
  920MPD2    C213464   2.294   4.239  10.305 -0.4102 -0.2580  0.4117
  920MPD2    C313465   2.398   4.319  10.353  0.0882  0.0501 -0.6040
  920MPD2    C413466   2.379   4.454  10.350 -0.2320  0.7858 -0.8805
  920MPD2    C513467   2.261   4.506  10.304  0.0448 -0.1373 -0.3219
  920MPD2     H13468   2.319   4.133  10.301 -0.5813 -0.2708 -0.3948
  920MPD2    H113469   2.445   4.526  10.397 -1.3027  1.0146  0.2607
  920MPD2    H213470   2.062   4.482  10.236 -0.0077 -1.7611 -0.0029
  920MPD2    H313471   2.245   4.612  10.323  1.6965  0.1101 -0.2980
  920MPD2     N13472   2.516   4.256  10.409 -0.1427  0.2884  0.1107
  920MPD2    H513473   2.522   4.155  10.416 -2.6731 -0.0192 -2.1861
  920MPD2    N113474   2.069   4.208  10.232 -0.3536  0.0117 -0.4381
  920MPD2    H713475   2.077   4.111  10.261 -1.3020 -0.0194 -0.2801
  921MPD2     C13476   4.194   4.221  16.845 -0.1157 -0.2015  0.1200
  921MPD2    C113477   4.207   4.101  16.787  0.4750 -1.0140 -0.3768
  921MPD2    C213478   4.104   4.008  16.787  0.2696  0.2352  0.5463
  921MPD2    C313479   3.984   4.026  16.849 -0.2330 -0.5682 -0.0118
  921MPD2    C413480   3.977   4.145  16.917  0.2789 -0.3639  0.2106
  921MPD2    C513481   4.080   4.236  16.923  0.7824  0.0601 -0.1022
  921MPD2     H13482   4.121   3.920  16.726  2.6173  0.7261  0.4961
  921MPD2    H113483   3.887   4.181  16.967  0.8427  1.9979 -0.4862
  921MPD2    H213484   4.268   4.300  16.846  0.9220 -1.1892  1.6892
  921MPD2    H313485   4.064   4.326  16.982  0.2590 -1.2284  1.7291
  921MPD2     N13486   3.878   3.928  16.836 -0.3684 -0.1445  0.6419
  921MPD2    H513487   3.789   3.951  16.878 -0.7620 -1.6386  0.6273
  921MPD2    N113488   4.323   4.059  16.719  0.3461 -0.4527 -0.1643
  921MPD2    H713489   4.313   3.970  16.671  1.9107 -0.5644 -0.2893
  922MPD2     C13490   0.044   1.963  16.958  1.3202  0.0958  0.3273
  922MPD2    C113491   4.714   1.981  17.085 -0.2688  0.0009 -0.2436
  922MPD2    C213492   4.668   1.867  17.147  0.5972 -0.1493 -0.9399
  922MPD2    C313493   4.651   1.749  17.083 -0.0641 -0.8837  0.1234
  922MPD2    C413494   4.685   1.741  16.946 -0.6320 -0.3893 -0.0858
  922MPD2    C513495   0.027   1.847  16.890 -0.6674  0.1837  0.0626
  922MPD2     H13496   4.631   1.866  17.248  2.1792 -0.6269 -0.3666
  922MPD2    H113497   4.698   1.645  16.898 -1.4880 -0.0329 -1.0308
  922MPD2    H213498   0.086   2.048  16.905  0.8858  0.7730  1.0685
  922MPD2    H313499   0.066   1.843  16.789 -1.1905  2.4845 -0.2151
  922MPD2     N13500   4.607   1.630  17.158  0.7195 -0.5798  0.2438
  922MPD2    H513501   4.577   1.643  17.254  0.6456 -1.8711  0.4014
  922MPD2    N113502   4.717   2.099  17.159  0.0797 -0.4390 -0.0374
  922MPD2    H713503   4.672   2.093  17.249  0.7566 -0.6467  0.2859
  923MPD2     C13504   1.108   2.728   8.805 -0.2226 -0.3150 -0.1726
  923MPD2    C113505   1.133   2.863   8.838  0.2467  0.0143 -0.9079
  923MPD2    C213506   1.234   2.891   8.929 -0.7882  0.0081 -0.1259
  923MPD2    C313507   1.289   2.788   9.002 -0.1168  0.0854  0.3998
  923MPD2    C413508   1.248   2.659   8.975 -0.9891 -0.7923  0.1178
  923MPD2    C513509   1.162   2.626   8.879  0.3883 -0.3288 -0.8410
  923MPD2     H13510   1.260   2.994   8.949 -0.9680 -0.4821  2.5711
  923MPD2    H113511   1.296   2.580   9.032 -0.8514 -1.8936 -1.5293
  923MPD2    H213512   1.056   2.703   8.713 -0.3424  0.8878 -0.4197
  923MPD2    H313513   1.143   2.523   8.849  1.5591 -0.5272 -0.9240
  923MPD2     N13514   1.394   2.809   9.094  0.3655 -0.0890  0.5085
  923MPD2    H513515   1.411   2.725   9.149  0.8424 -0.4701 -0.2112
  923MPD2    N113516   1.067   2.960   8.759 -0.5067 -1.1310  0.2434
  923MPD2    H713517   0.982   2.931   8.712 -0.9960 -1.2354  1.1951
  924MPD2     C13518   0.814   1.980  16.011 -0.1935 -0.0678 -0.2575
  924MPD2    C113519   0.926   2.022  16.079  0.6560 -0.2381 -1.2213
  924MPD2    C213520   1.006   2.125  16.025 -0.6847 -0.5318 -0.1123
  924MPD2    C313521   0.967   2.174  15.896  0.2105 -0.2248 -0.0616
  924MPD2    C413522   0.858   2.126  15.832 -0.9799 -0.1037 -0.0299
  924MPD2    C513523   0.780   2.025  15.891 -0.1795  0.1661  0.4745
  924MPD2     H13524   1.082   2.179  16.080  1.5984 -1.1232 -2.6361
  924MPD2    H113525   0.827   2.148  15.730  0.3852 -0.5192 -0.5350
  924MPD2    H213526   0.741   1.917  16.061  0.0359  0.3195  0.5704
  924MPD2    H313527   0.696   1.978  15.841  1.1569 -1.4317 -0.2882
  924MPD2     N13528   1.021   2.292  15.837 -0.3370 -0.2994 -0.8121
  924MPD2    H513529   0.991   2.321  15.744  1.5814  1.3713 -0.9029
  924MPD2    N113530   0.940   1.980  16.212 -0.3545  0.5584  0.3135
  924MPD2    H713531   0.868   1.926  16.259 -0.1047 -1.3838 -1.5319
  925MPD2     C13532   4.521   0.041  14.352  0.0558  0.0619  1.1244
  925MPD2    C113533   4.622   4.687  14.404  0.2812 -0.4597  0.0760
  925MPD2    C213534   4.611   4.663  14.541 -0.0694 -0.2896  0.2827
  925MPD2    C313535   4.501   4.705  14.623  0.7537 -0.1059 -0.2579
  925MPD2    C413536   4.409   0.072  14.571  0.1269 -0.1715 -0.1982
  925MPD2    C513537   4.424   0.095  14.438 -0.0484  0.4816  0.5468
  925MPD2     H13538   4.685   4.598  14.586  0.8656  1.5129  1.3395
  925MPD2    H113539   4.329   0.120  14.627 -0.3291 -0.1434 -0.8704
  925MPD2    H213540   4.506   0.062  14.247  0.7652 -1.8615  0.6407
  925MPD2    H313541   4.360   0.166  14.386  0.7016  1.9157  1.5638
  925MPD2     N13542   4.477   4.668  14.762  0.1385 -0.3178 -0.0757
  925MPD2    H513543   4.388   4.686  14.807  0.1670 -0.2882 -0.0316
  925MPD2    N113544   4.717   4.623  14.326 -0.4031 -0.0355  0.3258
  925MPD2    H713545   0.069   4.573  14.375 -0.7173 -2.2943 -1.5203
  926MPD2     C13546   3.343   2.614  13.186 -0.9315  0.2849  0.1608
  926MPD2    C113547   3.306   2.747  13.202  0.3790 -0.6098  0.0777
  926MPD2    C213548   3.347   2.847  13.114  0.1738  0.1317  0.3348
  926MPD2    C313549   3.450   2.807  13.020 -0.4266 -0.2491 -0.2657
  926MPD2    C413550   3.489   2.675  13.008 -0.2488  1.0982  0.3449
  926MPD2    C513551   3.437   2.585  13.090  0.4334 -0.0160 -0.1762
  926MPD2     H13552   3.313   2.950  13.113  0.2928  0.1661 -0.4150
  926MPD2    H113553   3.565   2.646  12.936  0.1148 -0.6714  1.4372
  926MPD2    H213554   3.295   2.538  13.245  2.7115 -0.7394  1.8058
  926MPD2    H313555   3.465   2.481  13.080 -2.2631 -0.5479 -2.0690
  926MPD2     N13556   3.528   2.899  12.946  0.8702 -0.1419 -0.2626
  926MPD2    H513557   3.612   2.866  12.901  2.5655  1.3360  1.8520
  926MPD2    N113558   3.226   2.776  13.314  0.2095  0.4536 -0.1177
  926MPD2    H713559   3.215   2.709  13.389 -1.0526  0.1619 -0.5704
  927MPD2     C13560   2.406   0.435   0.531  0.5236  0.8094  0.1751
  927MPD2    C113561   2.478   0.537   0.581  0.5095 -0.5064 -0.0676
  927MPD2    C213562   2.613   0.526   0.564 -0.2906  0.4575 -0.0997
  927MPD2    C313563   2.673   0.422   0.494 -0.1795  0.0832  0.1160
  927MPD2    C413564   2.593   0.326   0.428 -0.2405  0.8058 -0.4801
  927MPD2    C513565   2.460   0.332   0.457 -0.3664  0.4237  0.8928
  927MPD2     H13566   2.684   0.599   0.603 -0.8168  0.2504  1.2248
  927MPD2    H113567   2.626   0.250   0.358 -0.9430 -0.0216  0.0821
  927MPD2    H213568   2.297   0.436   0.538  0.2077 -0.6425 -4.4238
  927MPD2    H313569   2.386   0.257   0.432  0.2507 -0.5181  1.8782
  927MPD2     N13570   2.817   0.426   0.476  0.5662 -0.3993  0.7344
  927MPD2    H513571   2.870   0.502   0.518  0.7123  0.5042 -1.1210
  927MPD2    N113572   2.416   0.655   0.641 -0.0163  0.0281 -0.4298
  927MPD2    H713573   2.315   0.659   0.635 -0.0804 -1.0244 -0.1168
  928MPD2     C13574   1.081   4.210   1.349  0.1505 -0.1052  0.3130
  928MPD2    C113575   1.206   4.242   1.394  0.5453  0.2072 -0.2977
  928MPD2    C213576   1.310   4.242   1.303  0.0812  1.1567  0.0216
  928MPD2    C313577   1.293   4.225   1.169  0.2491 -0.3413  0.4637
  928MPD2    C413578   1.168   4.200   1.129 -0.3359  0.1023  0.3094
  928MPD2    C513579   1.061   4.191   1.215  0.1205 -0.3315  0.5951
  928MPD2     H13580   1.411   4.257   1.339  0.2771 -0.7306  0.2655
  928MPD2    H113581   1.143   4.203   1.023  0.3550 -1.2692  0.1098
  928MPD2    H213582   1.000   4.202   1.421 -0.5468 -0.5116 -0.5062
  928MPD2    H313583   0.958   4.186   1.180 -0.0944  1.5351  0.9491
  928MPD2     N13584   1.393   4.248   1.073 -0.4921 -0.4289 -0.4647
  928MPD2    H513585   1.361   4.224   0.980 -0.1438  1.1375 -0.9894
  928MPD2    N113586   1.220   4.269   1.537 -0.4017  0.9749 -0.1966
  928MPD2    H713587   1.134   4.283   1.589 -2.1616  0.6269 -3.0571
  929MPD2     C13588   1.319   2.984  10.945 -0.2432 -0.1073 -0.5135
  929MPD2    C113589   1.184   2.941  10.944 -0.1506 -0.6018 -0.5596
  929MPD2    C213590   1.128   2.918  10.814  0.1463  0.2605 -0.0508
  929MPD2    C313591   1.199   2.953  10.703  0.1086  0.4082  0.2270
  929MPD2    C413592   1.330   2.998  10.713  0.4993  0.0369 -0.3136
  929MPD2    C513593   1.394   2.991  10.833  0.3308 -0.0845  0.1486
  929MPD2     H13594   1.020   2.903  10.807  0.1187  0.2340  0.4306
  929MPD2    H113595   1.395   3.027  10.631  0.8022 -1.5062 -0.6252
  929MPD2    H213596   1.370   2.986  11.041 -0.4019 -1.6701 -0.3888
  929MPD2    H313597   1.503   2.998  10.837  0.3322 -0.1030  0.1465
  929MPD2     N13598   1.147   2.942  10.570  0.2458  0.7921  0.0533
  929MPD2    H513599   1.192   2.984  10.489 -0.1618  0.3847 -0.3855
  929MPD2    N113600   1.108   2.932  11.067 -0.4825 -0.2393  0.1737
  929MPD2    H713601   1.137   2.986  11.148  0.8024 -1.5766  0.6271
  930MPD2     C13602   3.113   1.358  14.124  0.1169  0.1927 -0.8491
  930MPD2    C113603   3.167   1.436  14.022  0.0485 -0.5458 -0.2010
  930MPD2    C213604   3.116   1.420  13.891 -0.5633  0.5853  0.0492
  930MPD2    C313605   3.021   1.321  13.861 -0.4377  0.0208  0.1980
  930MPD2    C413606   2.985   1.234  13.963  0.3077  0.3366  0.0293
  930MPD2    C513607   3.026   1.252  14.095  0.7173  0.1223  0.1686
  930MPD2     H13608   3.154   1.480  13.810  1.2895 -2.0659 -1.0650
  930MPD2    H113609   2.917   1.153  13.941  1.2168 -0.3273 -0.3474
  930MPD2    H213610   3.143   1.379  14.226 -0.9384 -1.2689 -0.2415
  930MPD2    H313611   2.989   1.185  14.171  0.3278 -0.1127 -0.2283
  930MPD2     N13612   2.964   1.314  13.734 -0.3140 -0.1982  0.0716
  930MPD2    H513613   2.929   1.221  13.714 -0.7966 -0.1218  0.5573
  930MPD2    N113614   3.265   1.526  14.054  0.0883  0.1008 -0.2972
  930MPD2    H713615   3.289   1.532  14.153 -1.2483  2.7489 -0.1141
  931MPD2     C13616   2.906   1.149   0.811  0.5429  0.1959 -0.2642
  931MPD2    C113617   2.816   1.141   0.909  0.4058  0.0802 -0.7723
  931MPD2    C213618   2.850   1.113   1.041  0.1741  0.4590 -0.3665
  931MPD2    C313619   2.977   1.076   1.071 -0.0766 -0.7033  0.2111
  931MPD2    C413620   3.071   1.095   0.971  0.4763  0.2436 -0.9022
  931MPD2    C513621   3.033   1.125   0.837 -0.4889  0.0377 -0.2296
  931MPD2     H13622   2.764   1.109   1.108  2.6957  0.0373  2.8445
  931MPD2    H113623   3.177   1.079   0.985 -0.3308 -0.9824  3.8185
  931MPD2    H213624   2.887   1.185   0.710 -1.6321 -1.0106 -0.2888
  931MPD2    H313625   3.111   1.140   0.763 -0.0444  2.1892  0.6712
  931MPD2     N13626   3.021   1.037   1.200 -0.1903  0.1071  0.6964
  931MPD2    H513627   3.116   1.002   1.203 -0.3851 -0.6625 -1.8851
  931MPD2    N113628   2.681   1.138   0.864 -0.3917 -0.4912  0.1019
  931MPD2    H713629   2.674   1.143   0.762  0.4303  0.6524  0.1085
  932MPD2     C13630   4.224   3.843  11.661  0.3117  0.4591  0.4413
  932MPD2    C113631   4.361   3.839  11.692 -0.1435  0.7419 -0.1158
  932MPD2    C213632   4.396   3.794  11.818 -0.2576  0.3604  0.1058
  932MPD2    C313633   4.297   3.749  11.908  0.7822  0.0478 -0.0560
  932MPD2    C413634   4.164   3.764  11.877 -0.1689  0.5098 -0.2503
  932MPD2    C513635   4.128   3.799  11.750 -0.0322  0.0892  0.1871
  932MPD2     H13636   4.500   3.785  11.847 -0.3518  2.4961  1.1111
  932MPD2    H113637   4.088   3.730  11.947  1.6921  1.8503  2.4590
  932MPD2    H213638   4.183   3.870  11.564  0.6292 -1.3281 -0.1929
  932MPD2    H313639   4.021   3.807  11.740  0.1584  1.8503 -0.4545
  932MPD2     N13640   4.330   3.695  12.035 -0.5753 -0.2109 -0.2808
  932MPD2    H513641   4.260   3.692  12.109 -0.2684 -0.7103 -0.0091
  932MPD2    N113642   4.455   3.871  11.594  0.3182  0.2174 -0.1196
  932MPD2    H713643   4.553   3.873  11.622  0.4799 -2.2440 -0.5250
  933MPD2     C13644   1.127   4.680   2.287  0.1146  0.2737 -0.2972
  933MPD2    C113645   1.086   4.629   2.165 -0.4340  0.0548  0.7021
  933MPD2    C213646   0.959   4.665   2.114  0.3701 -0.4344  0.1526
  933MPD2    C313647   0.873   0.028   2.188 -0.8984  0.4071 -0.5357
  933MPD2    C413648   0.920   0.080   2.307  0.0055  0.2458 -0.2150
  933MPD2    C513649   1.042   0.034   2.357  0.4064  0.0679  0.0689
  933MPD2     H13650   0.925   4.633   2.016 -1.2018 -1.4757  1.0305
  933MPD2    H113651   0.850   0.137   2.368 -0.7507  0.5005 -1.3107
  933MPD2    H213652   1.222   4.657   2.332  0.3556 -0.4736 -1.1789
  933MPD2    H313653   1.079   0.076   2.450 -0.2126 -0.7426  0.6750
  933MPD2     N13654   0.749   0.061   2.139  0.6944 -0.3531  0.1857
  933MPD2    H513655   0.719   0.017   2.052  1.2119 -3.2184  1.4489
  933MPD2    N113656   1.174   4.537   2.099 -0.2878 -0.1303  0.3568
  933MPD2    H713657   1.272   4.542   2.126  0.2695 -0.6906 -1.4867
  934MPD2     C13658   1.414   2.101   2.517 -0.1616  0.6403 -0.0302
  934MPD2    C113659   1.501   2.040   2.422  0.6309 -0.7050  0.1312
  934MPD2    C213660   1.446   1.950   2.330  0.0088 -0.1461 -0.1288
  934MPD2    C313661   1.310   1.922   2.331 -0.3298 -1.1042  0.3445
  934MPD2    C413662   1.232   1.980   2.430 -0.0402  0.7092 -0.0158
  934MPD2    C513663   1.277   2.071   2.520  0.2040  0.5431 -0.3436
  934MPD2     H13664   1.514   1.894   2.268 -0.3268 -1.0048  0.2649
  934MPD2    H113665   1.126   1.963   2.422  0.2920 -2.0899  1.4338
  934MPD2    H213666   1.448   2.163   2.599  0.2771  0.9022 -0.4176
  934MPD2    H313667   1.215   2.116   2.596  0.9726  2.6049 -0.9286
  934MPD2     N13668   1.247   1.839   2.235 -0.6830  0.5367 -0.4716
  934MPD2    H513669   1.147   1.828   2.246 -0.4483  0.9336  2.0316
  934MPD2    N113670   1.634   2.082   2.396  0.2516  0.2841  0.4094
  934MPD2    H713671   1.680   2.037   2.317  0.2594 -0.7941  1.0209
  935MPD2     C13672   1.667   1.029   1.931 -0.0752 -0.1912 -0.3103
  935MPD2    C113673   1.599   1.058   1.816  0.6512  0.2824  0.3536
  935MPD2    C213674   1.508   1.170   1.820  0.0038  0.0260 -0.4508
  935MPD2    C313675   1.493   1.246   1.934 -0.6275 -0.0768  0.0970
  935MPD2    C413676   1.577   1.223   2.039 -0.2941  0.1910 -0.0522
  935MPD2    C513677   1.655   1.109   2.033  0.5352 -0.2588 -0.4696
  935MPD2     H13678   1.451   1.190   1.730 -0.5421  0.6221  0.0230
  935MPD2    H113679   1.567   1.269   2.136  0.6951  0.4314 -0.0640
  935MPD2    H213680   1.728   0.942   1.950 -0.4683 -0.5172 -0.5543
  935MPD2    H313681   1.717   1.073   2.115 -0.5412 -1.7977 -0.3395
  935MPD2     N13682   1.400   1.351   1.945 -0.5835  0.4206  0.9219
  935MPD2    H513683   1.412   1.403   2.032  0.5469  3.1956 -0.9005
  935MPD2    N113684   1.619   0.993   1.690  0.5968  0.5890  0.0222
  935MPD2    H713685   1.554   1.016   1.616 -2.8759  0.1296  2.9210
  936MPD2     C13686   0.653   3.325  13.010 -0.0550 -0.0125  0.9684
  936MPD2    C113687   0.629   3.277  12.881 -0.2195  0.3694  1.0511
  936MPD2    C213688   0.726   3.275  12.787  0.2033 -0.3566 -0.0256
  936MPD2    C313689   0.858   3.318  12.812  0.6062  0.1580 -0.4098
  936MPD2    C413690   0.879   3.369  12.943 -0.0033 -0.5928 -0.4257
  936MPD2    C513691   0.780   3.365  13.042 -0.5249  0.1406  0.1779
  936MPD2     H13692   0.690   3.252  12.687 -0.1898 -1.9553  0.4806
  936MPD2    H113693   0.976   3.408  12.969 -1.0515  0.2732  2.1639
  936MPD2    H213694   0.570   3.327  13.081  0.3902  1.3356  1.4460
  936MPD2    H313695   0.795   3.405  13.142  0.8273 -0.4294  0.1996
  936MPD2     N13696   0.965   3.313  12.720  0.0443 -0.8296  0.6316
  936MPD2    H513697   1.062   3.329  12.748  0.1517 -0.4496  0.0314
  936MPD2    N113698   0.504   3.235  12.834 -0.4127 -0.2669  0.4907
  936MPD2    H713699   0.493   3.196  12.741  0.5499 -0.0892  0.3012
  937MPD2     C13700   3.596   3.527  11.328 -0.4710  1.1264  0.0641
  937MPD2    C113701   3.584   3.664  11.330 -0.9082 -0.6555  0.3032
  937MPD2    C213702   3.654   3.735  11.242  0.7019  0.2996  0.3445
  937MPD2    C313703   3.746   3.670  11.155  0.1308  0.3067  0.7873
  937MPD2    C413704   3.758   3.538  11.149 -0.4357 -0.5050  0.0330
  937MPD2    C513705   3.680   3.473  11.245  0.1165  0.1705 -0.6822
  937MPD2     H13706   3.660   3.842  11.255 -0.4167  0.5685 -1.3925
  937MPD2    H113707   3.807   3.487  11.067  0.1944  0.6413 -0.3037
  937MPD2    H213708   3.538   3.459  11.389  0.9052 -0.2651 -0.1548
  937MPD2    H313709   3.686   3.365  11.239 -2.6820 -0.1203  1.9476
  937MPD2     N13710   3.812   3.769  11.074  0.0499 -0.5446 -0.3075
  937MPD2    H513711   3.788   3.867  11.085 -2.8482 -1.2941  0.0851
  937MPD2    N113712   3.469   3.729  11.383  0.4517 -0.7567  0.6106
  937MPD2    H713713   3.466   3.827  11.358 -2.9307 -0.5796  1.6999
  938MPD2     C13714   0.589   0.808   1.139 -0.8195 -0.4896 -0.4788
  938MPD2    C113715   0.519   0.907   1.201  0.5483  0.1603  0.1920
  938MPD2    C213716   0.488   0.892   1.336 -0.0697  0.3344 -0.3414
  938MPD2    C313717   0.544   0.787   1.406  0.7093  0.0028 -0.1126
  938MPD2    C413718   0.612   0.692   1.344  0.2664 -0.9944  0.8996
  938MPD2    C513719   0.642   0.702   1.210 -0.5118 -0.0656 -0.5212
  938MPD2     H13720   0.430   0.969   1.384 -0.7766  0.7968 -1.9425
  938MPD2    H113721   0.669   0.621   1.403  0.2123 -0.0112  2.1452
  938MPD2    H213722   0.618   0.798   1.035 -2.0320  0.3869 -0.9003
  938MPD2    H313723   0.706   0.625   1.169  0.3006  0.1684  0.3129
  938MPD2     N13724   0.543   0.771   1.546  0.3643 -0.1416 -0.5232
  938MPD2    H513725   0.607   0.712   1.598 -1.5311 -0.0062  1.9624
  938MPD2    N113726   0.488   1.025   1.136 -0.4035  0.3025 -0.0955
  938MPD2    H713727   0.428   1.092   1.184 -0.2649 -0.7951  1.6103
  939MPD2     C13728   1.931   1.430   0.953  0.8608  0.6322 -0.2863
  939MPD2    C113729   1.888   1.508   0.851  0.3450 -0.2088  0.2056
  939MPD2    C213730   1.970   1.531   0.741  0.3590 -0.4799 -0.8033
  939MPD2    C313731   2.082   1.455   0.719  1.0910  0.4101 -0.0874
  939MPD2    C413732   2.125   1.364   0.815  0.0285 -0.5723 -0.5412
  939MPD2    C513733   2.050   1.354   0.931 -0.1979 -0.1416 -0.1677
  939MPD2     H13734   1.946   1.605   0.665 -1.7182 -1.4786 -1.1075
  939MPD2    H113735   2.225   1.323   0.818  1.0565  1.9387 -0.3966
  939MPD2    H213736   1.878   1.415   1.047  0.7711  1.2018 -0.2464
  939MPD2    H313737   2.091   1.293   1.011 -0.9949 -1.7993 -1.0177
  939MPD2     N13738   2.154   1.487   0.601  0.0633 -0.3969  0.2161
  939MPD2    H513739   2.126   1.568   0.547 -4.8505 -1.6403  0.9361
  939MPD2    N113740   1.759   1.560   0.860  0.2440 -0.1248  0.1647
  939MPD2    H713741   1.710   1.540   0.946  0.2012 -1.7472 -0.2289
  940MPD2     C13742   0.999   2.971  12.687  0.4124  0.7321 -0.0734
  940MPD2    C113743   1.116   2.944  12.755 -0.2803 -0.1064 -1.0485
  940MPD2    C213744   1.222   2.885  12.685  0.5404 -0.0707 -0.2410
  940MPD2    C313745   1.205   2.838  12.558 -0.6036 -0.8062 -0.2673
  940MPD2    C413746   1.095   2.867  12.495  0.1257  0.9148  0.1633
  940MPD2    C513747   0.988   2.930  12.554  0.5629  1.3312 -0.3545
  940MPD2     H13748   1.309   2.866  12.746  1.8736  0.9313 -1.8196
  940MPD2    H113749   1.088   2.855  12.387  1.6281 -2.7206  0.4985
  940MPD2    H213750   0.920   3.030  12.733  0.7348  1.6711 -0.7139
  940MPD2    H313751   0.898   2.953  12.498  0.6991 -0.5243 -1.3086
  940MPD2     N13752   1.306   2.766  12.489 -0.3237 -0.7220 -0.1097
  940MPD2    H513753   1.276   2.709  12.411  2.6123 -2.4606 -0.0076
  940MPD2    N113754   1.151   2.996  12.884  0.3945  0.1702  0.2617
  940MPD2    H713755   1.248   2.984  12.912  1.1295  0.7944 -2.0377
  941MPD2     C13756   0.326   1.488  10.091  0.1453  0.3413  0.6665
  941MPD2    C113757   0.412   1.389  10.123  0.5640  1.1886 -0.2872
  941MPD2    C213758   0.365   1.266  10.155  0.3407 -0.4645  0.1838
  941MPD2    C313759   0.234   1.231  10.152  0.1265  0.3475 -0.4537
  941MPD2    C413760   0.144   1.335  10.131  0.6681 -0.0973  0.0567
  941MPD2    C513761   0.189   1.459  10.101 -0.1688 -0.1525 -0.1465
  941MPD2     H13762   0.431   1.185  10.185  1.4322  0.5233  0.4220
  941MPD2    H113763   0.036   1.328  10.138  0.7072 -0.4293  0.3237
  941MPD2    H213764   0.351   1.590  10.068  3.2444 -1.1150 -2.2697
  941MPD2    H313765   0.115   1.538  10.092  0.7685  0.6233 -1.0232
  941MPD2     N13766   0.180   1.105  10.185  0.3692 -0.2679 -0.7731
  941MPD2    H513767   0.089   1.089  10.143  0.1658 -2.0991  0.3923
  941MPD2    N113768   0.551   1.405  10.129  0.0811 -0.3115  0.0631
  941MPD2    H713769   0.602   1.322  10.157 -1.3189 -0.9743  0.6291
  942MPD2     C13770   0.488   3.162   8.619 -0.1836  0.2268 -0.1574
  942MPD2    C113771   0.527   3.233   8.730  0.1179 -0.5145  0.2668
  942MPD2    C213772   0.616   3.180   8.821 -0.1268  0.1812  0.3778
  942MPD2    C313773   0.668   3.056   8.797  0.5062 -0.5198  0.4335
  942MPD2    C413774   0.636   2.990   8.683  0.5502  0.0816  1.0726
  942MPD2    C513775   0.544   3.038   8.592  0.1521 -0.4411 -0.3083
  942MPD2     H13776   0.646   3.241   8.905  1.4482 -1.1763  0.8008
  942MPD2    H113777   0.683   2.896   8.655  2.4411  2.0124 -2.1008
  942MPD2    H213778   0.412   3.199   8.551  0.9144  2.6578 -0.0825
  942MPD2    H313779   0.519   2.972   8.510  0.6429 -0.2897 -0.5796
  942MPD2     N13780   0.755   3.001   8.880 -0.0080  0.0034  0.9405
  942MPD2    H513781   0.779   2.903   8.871 -0.1070 -0.0950  1.7386
  942MPD2    N113782   0.461   3.358   8.753  0.0030  0.4749  0.1377
  942MPD2    H713783   0.399   3.390   8.679 -2.1089  1.2130  2.2348
  943MPD2     C13784   3.999   1.939   9.978 -0.3381 -0.1193 -0.1326
  943MPD2    C113785   3.941   1.816   9.994 -0.5188 -0.3350 -0.0263
  943MPD2    C213786   3.945   1.755  10.118  0.4706  0.0938  0.4475
  943MPD2    C313787   3.999   1.823  10.227 -0.1875  0.2986 -0.8583
  943MPD2    C413788   4.049   1.946  10.213 -0.5101  0.1753  0.9297
  943MPD2    C513789   4.045   2.004  10.093  0.2459  0.0508  0.7377
  943MPD2     H13790   3.911   1.654  10.137  0.1199  0.0278 -0.5330
  943MPD2    H113791   4.091   2.000  10.298 -1.4554  0.3393  1.2887
  943MPD2    H213792   4.002   1.993   9.884 -1.0492 -1.6257 -1.0313
  943MPD2    H313793   4.067   2.109  10.079  0.8702 -0.3999 -1.6581
  943MPD2     N13794   4.003   1.769  10.353 -0.0679  0.4036  0.0602
  943MPD2    H513795   4.042   1.825  10.429 -3.3134  0.9177  1.3254
  943MPD2    N113796   3.895   1.754   9.881  0.4477 -0.0960  0.1490
  943MPD2    H713797   3.896   1.795   9.788  1.5000  0.2499  0.3124
  944MPD2     C13798   3.363   0.794  10.766 -0.1189 -0.5334  0.6986
  944MPD2    C113799   3.501   0.801  10.769  0.5071  0.6075  0.4672
  944MPD2    C213800   3.559   0.860  10.885  0.6122 -0.4582  0.1585
  944MPD2    C313801   3.481   0.916  10.984  0.2145  0.1987 -0.6545
  944MPD2    C413802   3.344   0.911  10.970  0.7818  0.0126 -0.0042
  944MPD2    C513803   3.285   0.852  10.863 -0.5908 -0.3586  0.1312
  944MPD2     H13804   3.663   0.882  10.908  0.0534  0.6871  1.5766
  944MPD2    H113805   3.273   0.969  11.029  0.2201  1.5264 -2.1753
  944MPD2    H213806   3.312   0.747  10.683 -0.3626 -0.5155  0.8377
  944MPD2    H313807   3.177   0.856  10.854 -0.6118 -0.4960  0.3148
  944MPD2     N13808   3.547   0.984  11.094 -0.4062 -0.0376  0.2846
  944MPD2    H513809   3.648   0.994  11.100 -0.2101 -1.2814 -0.9578
  944MPD2    N113810   3.572   0.735  10.670 -0.0881  0.9024  0.1004
  944MPD2    H713811   3.518   0.710  10.588 -2.6102  3.3870  1.0112
    1TCq1    O113812   2.466   1.636  14.609 -0.6588 -0.3346 -0.3284
    1TCq1    C113813   2.352   1.590  14.549  0.1952 -0.2340  0.9368
    1TCq1    O213814   2.280   1.497  14.584 -0.0998  0.0866 -0.3438
    1TCq1    C213815   2.297   1.684  14.454 -0.3305 -0.6370  0.3236
    1TCq1    C313816   2.263   1.641  14.330 -1.1372 -0.0857  1.2025
    1TCq1    C413817   2.247   1.746  14.237 -0.1250  0.2593  0.2542
    1TCq1    C513818   2.269   1.879  14.273 -0.3839 -0.1536  0.0514
    1TCq1    C613819   2.283   1.909  14.404  0.0754 -0.5539  0.2424
    1TCq1    C713820   2.305   1.815  14.491 -0.3123  0.2006  0.7727
    1TCq1    C813821   2.276   2.050  14.442 -0.2498  0.2463 -0.2310
    1TCq1    O413822   2.202   2.123  14.376 -0.3589  0.1054  0.2415
    1TCq1    C913823   2.231   1.714  14.102  0.2452 -0.1739 -0.2201
    1TCq1    O513824   2.274   1.794  14.017  0.5893  0.4407 -0.3025
    1TCq1    O613825   2.187   1.603  14.071  0.3030 -0.1633 -0.3859
    1TCq1    H113826   2.525   1.692  14.554 -0.4812  1.2935  1.5346
    1TCq1    H213827   2.259   1.536  14.304  1.4491  0.6688 -2.1659
    1TCq1    H313828   2.265   1.956  14.197  2.9385  1.6381  1.7114
    1TCq1    H413829   2.319   1.837  14.596 -1.7473  0.0242  1.0043
    2MPD2     C13830   2.361   2.444  14.765 -0.7865 -1.1238 -0.7251
    2MPD2    C113831   2.311   2.445  14.632 -0.8201 -0.2666  0.1646
    2MPD2    C213832   2.312   2.321  14.558  0.3001 -0.4545 -0.7642
    2MPD2    C313833   2.342   2.204  14.624 -0.2893 -0.3690 -0.5095
    2MPD2    C413834   2.381   2.206  14.756  0.8013 -0.0957 -0.1546
    2MPD2    C513835   2.387   2.326  14.828  0.5446 -0.4247 -0.0409
    2MPD2     H13836   2.273   2.321  14.457 -0.5690 -0.1708 -0.4288
    2MPD2    H113837   2.395   2.107  14.798 -1.3939 -0.9525 -1.4524
    2MPD2    H213838   2.377   2.536  14.820 -1.6453 -1.7067  0.4897
    2MPD2    H313839   2.429   2.325  14.927 -3.0897 -0.3804  1.4889
    2MPD2     N13840   2.327   2.075  14.568 -0.3597 -0.0377  0.3709
    2MPD2    H513841   2.365   2.000  14.625  0.4808 -0.3068 -0.5318
    2MPD2    N113842   2.265   2.561  14.560 -0.1904 -0.4355  0.2853
    2MPD2    H713843   2.227   2.555  14.466 -1.5374  3.0270  0.6173
    3TMC2    C113844   2.222   2.777  14.509 -0.1583 -0.1819 -0.0228
    3TMC2    C213845   2.143   2.880  14.538  1.3625  0.5149 -0.7541
    3TMC2    C313846   2.072   2.944  14.436 -0.2884 -0.2664 -0.1536
    3TMC2    C413847   2.239   2.744  14.373 -0.6957 -0.0591  0.3323
    3TMC2    C513848   2.169   2.813  14.282 -0.1988  0.4139  0.2830
    3TMC2    C613849   2.079   2.915  14.305 -0.1327 -0.0927  0.4387
    3TMC2     C13850   2.263   2.684  14.615  0.5610  0.4019  0.5438
    3TMC2     O13851   2.300   2.725  14.725  0.2798  0.5059  0.7059
    3TMC2     H13852   2.143   2.922  14.638  0.6879  0.8373 -0.8902
    3TMC2    H113853   2.303   2.667  14.331 -1.8923  0.8848 -3.2106
    3TMC2    H213854   2.050   2.983  14.225  0.5930 -0.6887 -0.3347
    3TMC2    C713855   2.183   2.768  14.141  0.3624  0.8932  0.2821
    3TMC2    C813856   2.025   3.076  14.471 -0.6415  0.0843  0.6595
    3TMC2    O113857   2.246   2.665  14.125  0.3643 -0.0620  0.2171
    3TMC2    O213858   2.059   3.135  14.573  0.9731  0.6188 -0.5847
    3TMC2    O513859   1.964   3.136  14.374 -0.2055  0.4361  0.0359
    3TMC2    H513860   1.911   3.082  14.312  3.3445 -1.1775 -1.6094
    4MPD2     C13861   1.338   3.722  13.647 -0.0672  0.2932  0.4069
    4MPD2    C113862   1.313   3.640  13.532  0.2514  0.3128 -0.8987
    4MPD2    C213863   1.419   3.562  13.499  0.0033  0.3190 -0.2069
    4MPD2    C313864   1.546   3.578  13.554  0.0326 -0.4853 -0.8549
    4MPD2    C413865   1.564   3.643  13.673 -0.8875  0.8501  0.5990
    4MPD2    C513866   1.458   3.710  13.716  0.6721  0.2504 -0.3507
    4MPD2     H13867   1.411   3.508  13.406  0.7378 -0.3096  0.1007
    4MPD2    H113868   1.657   3.640  13.727 -0.7562  0.3644  0.3486
    4MPD2    H213869   1.266   3.793  13.687 -0.5210  0.5156 -0.7820
    4MPD2    H313870   1.469   3.763  13.810 -2.0113  0.7883 -0.3325
    4MPD2     N13871   1.659   3.513  13.500  0.1584  0.0360 -0.3402
    4MPD2    H513872   1.637   3.471  13.411  0.8798  1.3511 -1.1403
    4MPD2    N113873   1.185   3.653  13.464  0.0276 -0.3973  0.1919
    4MPD2    H713874   1.116   3.705  13.516  0.9801  0.9500  0.1081
    5TCq2    C113875   1.787   3.513  13.552 -0.5343  0.7030  0.3191
    5TCq2    O213876   1.839   3.565  13.649 -0.3493 -0.5225  0.0547
    5TCq2    C213877   1.874   3.412  13.484 -0.2503 -0.5010  0.0368
    5TCq2    C313878   1.833   3.374  13.359  0.5294 -0.1373 -0.3741
    5TCq2    C413879   1.880   3.248  13.324  0.0622  0.4113 -0.1934
    5TCq2    C513880   1.955   3.174  13.412  0.1915  0.2454  0.3709
    5TCq2    C613881   1.987   3.214  13.537 -0.6979  0.7294  0.4154
    5TCq2    C713882   1.941   3.335  13.575 -1.0739  0.5998 -0.4860
    5TCq2    C813883   1.993   3.113  13.642 -0.3526 -0.3688  0.2196
    5TCq2    O413884   1.940   3.150  13.747  0.1637  0.0848  0.4556
    5TCq2    C913885   1.843   3.190  13.195  0.4164  0.0675 -0.1951
    5TCq2    O513886   1.919   3.098  13.164 -0.0030 -0.0868 -0.2865
    5TCq2    O613887   1.788   3.262  13.107 -0.0591  0.3178 -0.0291
    5TCq2    H213888   1.776   3.428  13.285 -0.2323 -1.6566 -0.9008
    5TCq2    H313889   1.962   3.070  13.382 -0.8155  0.4615 -0.5976
    5TCq2    H413890   1.969   3.378  13.671  1.7372  0.3292 -1.1977
    6MPD1     C13891   0.306   0.582  13.167 -0.1480 -0.1976  0.4494
    6MPD1    C113892   0.242   0.488  13.083 -0.2700 -0.2205 -0.5387
    6MPD1    C213893   0.276   0.351  13.086  0.0553 -0.4422  0.6546
    6MPD1    C313894   0.361   0.304  13.189  0.1178  0.0977  0.2180
    6MPD1    C413895   0.414   0.389  13.279  0.3282 -0.8742  0.2766
    6MPD1    C513896   0.394   0.529  13.261 -0.2262  0.3509  0.7515
    6MPD1     H13897   0.229   0.278  13.022 -0.6126  0.2944  0.3002
    6MPD1    H113898   0.486   0.347  13.349  3.8250 -0.0170 -2.7510
    6MPD1    H213899   0.298   0.690  13.159 -0.8707 -0.4009 -1.5921
    6MPD1    H313900   0.447   0.589  13.335  1.4850 -1.3065  0.8527
    6MPD1     N13901   0.412   0.177  13.212  0.1873  0.3021  0.0600
    6MPD1    H513902   0.458   0.160  13.301 -0.9011 -1.6302  0.2424
    6MPD1    N113903   0.161   0.537  12.980  0.5945  0.1684 -0.0501
    6MPD1    H613904   0.106   0.462  12.939  0.4062  0.0958  0.3346
    6MPD1    H713905   0.104   0.616  13.010 -0.0093 -0.8587  1.5084
    7MPD2     C13906   0.662   4.260  13.635  0.5412  0.4164  0.3846
    7MPD2    C113907   0.681   4.250  13.497 -0.4850 -0.6355  0.3358
    7MPD2    C213908   0.718   4.125  13.449 -0.3405 -0.3761  0.0356
    7MPD2    C313909   0.741   4.018  13.530  0.7667 -0.8742 -0.1512
    7MPD2    C413910   0.730   4.036  13.665 -0.2079  0.1762 -0.5775
    7MPD2    C513911   0.686   4.152  13.712  0.0406 -0.9547 -0.1305
    7MPD2     H13912   0.741   4.127  13.343  3.1574 -2.1405  0.7845
    7MPD2    H113913   0.763   3.955  13.730  0.1385  0.6534 -0.1656
    7MPD2    H213914   0.635   4.352  13.685  1.4265  0.7068  0.3195
    7MPD2    H313915   0.671   4.155  13.820  0.2114  1.5585 -0.1789
    7MPD2     N13916   0.776   3.893  13.482  0.4687 -0.2760  0.1263
    7MPD2    H513917   0.812   3.825  13.548 -1.2809 -1.3067  0.0181
    7MPD2    N113918   0.677   4.359  13.403 -0.2309  1.1507  0.3054
    7MPD2    H713919   0.685   4.324  13.308 -2.0463  0.5716  0.3527
    8TMC3    C113920   0.810   3.721  13.311 -0.1530 -0.3488 -0.1462
    8TMC3    C213921   0.935   3.690  13.366 -0.2269 -0.6916  0.3114
    8TMC3    C313922   1.037   3.657  13.281  0.6926  0.0382  0.1819
    8TMC3    C413923   0.797   3.713  13.177  0.6623  0.5487 -0.2902
    8TMC3    C513924   0.898   3.677  13.099  0.1095  0.0995  0.5115
    8TMC3    C613925   1.022   3.665  13.146  0.2527 -0.3669 -0.1348
    8TMC3     C13926   0.765   3.853  13.347  0.6612  1.4786  0.2187
    8TMC3     O13927   0.735   3.918  13.249 -0.0652  0.3249 -0.5567
    8TMC3     H13928   0.945   3.686  13.474  1.3269 -0.0921  0.1895
    8TMC3    H113929   0.697   3.705  13.135  0.5987  1.1857 -0.2646
    8TMC3    H213930   1.100   3.619  13.087  1.5043  1.4648  0.1125
    8TMC3    C713931   0.910   3.748  12.975  0.1644  0.6343 -0.2432
    8TMC3    C813932   1.166   3.621  13.335 -0.2943  0.0503 -0.4252
    8TMC3    O113933   0.971   3.712  12.876  0.2102  0.0680  0.0134
    8TMC3    O213934   1.252   3.597  13.247  0.3761  0.2586  0.1667
    9TMC3    C113935   0.504   4.692  13.137 -0.4910  0.1229 -0.2904
    9TMC3    C213936   0.566   4.637  13.032  0.1758  0.4523  0.3077
    9TMC3    C313937   0.660   4.541  13.055  0.4349 -0.3909  0.3897
    9TMC3    C413938   0.537   4.657  13.270 -0.2956 -0.6640  0.3183
    9TMC3    C513939   0.629   4.561  13.285  0.9738  0.9336  0.0948
    9TMC3    C613940   0.699   4.509  13.183  0.0304 -0.1448  0.0975
    9TMC3     C13941   0.414   0.083  13.111  0.5302  0.2255  0.1825
    9TMC3     O13942   0.378   0.095  12.992  0.3218  0.2460 -0.2475
    9TMC3     H13943   0.549   4.656  12.927  0.8995 -0.0032  0.1076
    9TMC3    H113944   0.496   4.707  13.357 -1.9710 -2.0210  0.3237
    9TMC3    H213945   0.800   4.469  13.191 -0.5012 -1.6857 -0.8339
    9TMC3    C713946   0.641   4.490  13.417 -0.0756 -0.4388 -0.2553
    9TMC3    C813947   0.715   4.461  12.943  0.2967  0.1253  0.8160
    9TMC3    O113948   0.603   4.542  13.521 -0.4753 -0.0901 -0.2057
    9TMC3    O213949   0.736   4.503  12.831 -0.7669 -0.4472 -0.0091
   10MPD2     C13950   0.910   4.002  12.800 -1.0875  0.0479 -0.0383
   10MPD2    C113951   0.854   3.993  12.923 -0.3520  0.1315 -0.3303
   10MPD2    C213952   0.805   4.101  12.989  0.3060  0.3774 -0.6316
   10MPD2    C313953   0.804   4.224  12.925 -0.0401 -0.8158  0.4337
   10MPD2    C413954   0.856   4.235  12.796 -0.1049  0.4419  0.4091
   10MPD2    C513955   0.905   4.118  12.735  0.0081 -0.3817 -0.4185
   10MPD2     H13956   0.767   4.099  13.090  0.1692 -1.9436 -0.7230
   10MPD2    H113957   0.876   4.328  12.743  0.8419  0.1494  0.2389
   10MPD2    H213958   0.947   3.915  12.747  0.1030 -0.0450  0.9412
   10MPD2    H313959   0.942   4.124  12.633 -0.5884  1.0950 -0.5605
   10MPD2     N13960   0.741   4.336  12.996 -0.1336  0.2598 -0.0284
   10MPD2    H513961   0.711   4.323  13.092 -2.4292 -1.4619 -0.9837
   10MPD2    N113962   0.850   3.872  12.999 -0.2136 -0.4879  0.0454
   10MPD2    H713963   0.814   3.895  13.091 -0.7249 -0.4007 -0.1752
   11MPD2     C13964   2.149   2.688  13.858 -0.2131  0.9770  0.7166
   11MPD2    C113965   2.131   2.817  13.908 -0.4918 -0.0218  0.2220
   11MPD2    C213966   2.111   2.920  13.823 -0.8662  0.2469  0.3346
   11MPD2    C313967   2.095   2.900  13.689 -0.2016 -0.3843 -0.8457
   11MPD2    C413968   2.113   2.777  13.635  0.6349  0.0322 -0.4868
   11MPD2    C513969   2.139   2.669  13.717  0.3107  0.0748  0.0253
   11MPD2     H13970   2.096   3.018  13.867  1.0555  0.8551 -0.3496
   11MPD2    H113971   2.103   2.763  13.528 -0.4660  0.3339 -0.4241
   11MPD2    H213972   2.155   2.601  13.923 -0.0755 -1.4179 -2.5113
   11MPD2    H313973   2.161   2.570  13.679 -0.6533 -1.0334  2.3921
   11MPD2     N13974   2.054   2.999  13.599 -0.3562 -0.3142 -0.4553
   11MPD2    H513975   2.054   2.984  13.499  0.9950 -1.8315 -0.2297
   11MPD2    N113976   2.131   2.853  14.048 -0.0507  0.5526  0.4915
   11MPD2    H713977   2.098   2.947  14.067 -2.1674 -0.4338  1.6700
    1MPD1     C13978   0.027   0.057  16.631  0.3695  0.3588  0.6116
    1MPD1    C113979   4.655   0.144  16.685  0.0370  0.6152  0.3680
    1MPD1    C213980   4.529   0.148  16.631 -0.1507 -0.8053 -0.0646
    1MPD1    C313981   4.497   0.072  16.520  0.6790 -0.2001  0.4747
    1MPD1    C413982   4.586   4.702  16.473 -0.2805  0.4660 -0.0847
    1MPD1    C513983   4.709   4.699  16.529 -0.3106  0.0839 -0.3290
    1MPD1     H13984   4.463   0.222  16.675  1.3147  0.0558  0.6558
    1MPD1    H113985   4.581   4.650  16.378 -1.5892  1.8692 -0.7946
    1MPD1    H213986   0.132   0.065  16.655  0.2152  1.5151  0.8872
    1MPD1    H313987   0.061   4.643  16.474 -0.3157 -1.9721  1.7440
    1MPD1     N13988   4.369   0.070  16.453  0.6999  0.3551  0.1840
    1MPD1    H513989   4.364   0.005  16.376  4.2084 -2.0266  1.9474
    1MPD1    N113990   4.683   0.225  16.794  0.0956 -0.4186 -0.3769
    1MPD1    H613991   4.646   0.316  16.768 -2.8695 -2.3488 -3.0049
    1MPD1    H713992   0.061   0.235  16.804 -0.1232  1.0128  0.4137
    2MPD1     C13993   4.358   4.533  15.678 -0.1847 -0.5458  0.2863
    2MPD1    C113994   4.395   4.487  15.806 -0.1338  0.8829 -0.4856
    2MPD1    C213995   4.347   4.558  15.912  0.6313  0.1601 -0.3611
    2MPD1    C313996   4.256   4.663  15.901 -0.6563 -0.4334  0.2465
    2MPD1    C413997   4.213   4.705  15.776  0.5778  0.3802  0.1365
    2MPD1    C513998   4.264   4.638  15.663 -0.2288 -0.6684  0.3088
    2MPD1     H13999   4.370   4.530  16.014 -1.0425 -0.0785 -0.0490
    2MPD1    H114000   4.151   0.069  15.758  1.8912  1.0641 -1.1608
    2MPD1    H214001   4.396   4.482  15.590 -2.9554 -0.6650 -0.8301
    2MPD1    H314002   4.227   4.673  15.568 -1.3903 -1.1477  0.5801
    2MPD1     N14003   4.217   4.721  16.022  0.1880 -0.0658 -0.6052
    2MPD1    H514004   4.257   4.678  16.105  0.9042 -0.5796 -1.2133
    2MPD1    N114005   4.505   4.400  15.827 -0.9321  0.0149 -0.0577
    2MPD1    H614006   4.521   4.334  15.751  1.2825  0.7069 -0.1911
    2MPD1    H714007   4.506   4.357  15.919 -0.5953 -0.7662 -0.4286
    3TMC3    C114008   4.103   0.159  16.163  0.5199  0.5718 -0.4391
    3TMC3    C214009   3.978   0.219  16.180 -0.3436  0.0594  0.0475
    3TMC3    C314010   3.953   0.254  16.312  0.0867  0.2104 -0.5159
    3TMC3    C414011   4.194   0.142  16.255 -0.2057  0.4949 -0.0122
    3TMC3    C514012   4.162   0.170  16.383 -0.0321 -0.3924  0.3108
    3TMC3    C614013   4.045   0.234  16.418  0.6618 -0.0904  0.1249
    3TMC3     C14014   4.124   0.102  16.027 -0.2546 -0.1964 -0.0408
    3TMC3     O14015   4.065   0.160  15.937 -1.3826 -0.1534 -0.1864
    3TMC3     H14016   3.895   0.216  16.110 -0.3499  2.2075 -0.0349
    3TMC3    H114017   4.294   0.109  16.232 -0.8471 -0.4951 -1.4370
    3TMC3    H214018   4.033   0.272  16.519 -2.3763 -1.5660  0.3376
    3TMC3    C714019   4.261   0.154  16.484 -0.3291 -0.1611 -0.1375
    3TMC3    C814020   3.828   0.327  16.352  0.1426  0.4712  0.8074
    3TMC3    O114021   4.242   0.219  16.587  0.2561 -0.0636  0.2627
    3TMC3    O214022   3.835   0.380  16.463 -0.6795 -0.3148  0.2506
    4MPD1     C14023   3.417   0.629  16.227  0.1401  0.3814 -0.7059
    4MPD1    C114024   3.459   0.568  16.112  0.5203  0.1176 -0.1476
    4MPD1    C214025   3.559   0.471  16.120 -0.1183  0.7023  0.1644
    4MPD1    C314026   3.636   0.452  16.236 -0.1102 -0.2656  0.9074
    4MPD1    C414027   3.592   0.518  16.348 -0.2945 -0.8203 -0.4611
    4MPD1    C514028   3.480   0.602  16.342  0.1054 -1.3554 -0.1568
    4MPD1     H14029   3.588   0.407  16.037  2.2765  0.0160  1.5270
    4MPD1    H114030   3.632   0.510  16.449  0.9334 -1.4957 -0.9978
    4MPD1    H214031   3.335   0.700  16.226 -0.3055 -0.1107  0.4637
    4MPD1    H314032   3.452   0.652  16.434 -0.2502  1.1981 -1.6580
    4MPD1     N14033   3.743   0.361  16.246  0.3513 -0.2784 -0.4912
    4MPD1    H514034   3.770   0.316  16.159  0.2842  0.0374 -0.6741
    4MPD1    N114035   3.391   0.599  15.993 -0.5121 -0.4254  0.2303
    4MPD1    H614036   3.342   0.687  15.986  0.9106  0.2684 -0.9339
    4MPD1    H714037   3.454   0.596  15.913 -1.4968 -3.1368 -0.4570
    1TCq1    O114038   1.137   2.614  11.668  0.1477 -0.0733  0.2558
    1TCq1    C114039   1.061   2.707  11.610  0.1007  0.1791 -0.1538
    1TCq1    O214040   1.008   2.697  11.498  0.2373  0.0853 -0.2005
    1TCq1    C214041   1.103   2.828  11.680  0.5925  0.1950  0.8014
    1TCq1    C314042   1.084   2.941  11.606  0.8742  0.3961  0.7844
    1TCq1    C414043   1.116   3.061  11.666 -0.3108 -0.2899 -0.0664
    1TCq1    C514044   1.133   3.077  11.798  0.2488  0.1696 -0.0432
    1TCq1    C614045   1.147   2.962  11.873  0.7196  0.4235 -0.5118
    1TCq1    C714046   1.125   2.838  11.814  0.2788  0.1414 -0.2804
    1TCq1    C814047   1.196   2.971  12.006 -0.2759  0.0611 -0.3729
    1TCq1    O414048   1.170   2.873  12.075 -0.3134 -0.0292 -0.3366
    1TCq1    C914049   1.064   3.174  11.595 -0.4690 -0.6083  0.0283
    1TCq1    O514050   1.025   3.153  11.473  0.1270  0.1706  0.0914
    1TCq1    O614051   1.061   3.282  11.661  1.1812  0.0355  0.5088
    1TCq1    H114052   1.202   2.652  11.732  0.5846  1.6717 -1.2322
    1TCq1    H214053   1.066   2.936  11.499 -1.3197  0.8320  1.1408
    1TCq1    H314054   1.127   3.173  11.848  0.7165  0.2438 -0.1249
    1TCq1    H414055   1.149   2.749  11.872  1.1354  0.5233 -0.0477
    2MPD1     C14056   1.380   3.264  12.372 -0.3803 -0.2235 -0.2888
    2MPD1    C114057   1.405   3.337  12.255  0.2450 -0.7963  0.0672
    2MPD1    C214058   1.355   3.280  12.138 -0.4434  0.2099  0.3010
    2MPD1    C314059   1.314   3.144  12.138  0.6975 -0.0200  0.5326
    2MPD1    C414060   1.311   3.070  12.259 -0.2873 -0.0108 -0.1632
    2MPD1    C514061   1.337   3.134  12.378 -0.0519 -0.6652 -0.4883
    2MPD1     H14062   1.346   3.326  12.040  0.9783 -1.3045 -0.5319
    2MPD1    H114063   1.289   2.964  12.265  2.4855 -0.4962  1.4348
    2MPD1    H214064   1.394   3.316  12.466  1.8967 -1.2723 -0.0473
    2MPD1    H314065   1.323   3.080  12.471  0.7881  0.0150  0.0343
    2MPD1     N14066   1.259   3.090  12.019  0.2618  0.1254 -0.4109
    2MPD1    H514067   1.271   3.149  11.937  1.4199  0.5740  0.0848
    2MPD1    N114068   1.426   3.476  12.269 -0.6202 -0.0212  0.2643
    2MPD1    H614069   1.475   3.506  12.353  1.4759 -0.1615 -0.9087
    2MPD1    H714070   1.460   3.514  12.181 -1.5784 -0.4008 -0.2721
    1TCq1    O114071   3.471   1.259   1.212  0.6989  0.6471 -0.0147
    1TCq1    C114072   3.579   1.283   1.292  0.7396 -0.2912 -0.1226
    1TCq1    O214073   3.600   1.387   1.348 -0.3561  0.2708  0.0496
    1TCq1    C214074   3.679   1.175   1.286 -0.0559 -0.4815 -0.1180
    1TCq1    C314075   3.699   1.096   1.176 -0.2315 -0.2206 -0.0287
    1TCq1    C414076   3.814   1.022   1.157  0.5522 -0.3207 -0.3550
    1TCq1    C514077   3.907   1.020   1.258  0.0454  0.0647 -0.4881
    1TCq1    C614078   3.890   1.097   1.366 -0.1400  0.6384 -0.0136
    1TCq1    C714079   3.777   1.184   1.379  0.1449 -0.0901 -0.3490
    1TCq1    C814080   3.997   1.125   1.457 -0.6786 -0.2991  0.4479
    1TCq1    O414081   3.978   1.201   1.548  0.2098 -0.3290 -0.0490
    1TCq1    C914082   3.872   0.980   1.028  0.3317 -0.1371 -0.4338
    1TCq1    O514083   3.984   0.916   1.031  0.0102 -0.1003  0.1095
    1TCq1    O614084   3.811   1.030   0.933  0.4551 -0.4954  0.0843
    1TCq1    H114085   3.433   1.171   1.234  1.2918  0.2364 -0.6435
    1TCq1    H214086   3.641   1.117   1.087 -0.4297  0.1516  0.1843
    1TCq1    H314087   3.998   0.963   1.250 -0.8560 -1.4496  0.0078
    1TCq1    H414088   3.779   1.274   1.439 -2.5470  0.3221 -0.8528
    2MPD1     C14089   4.487   1.059   1.612 -0.3285 -0.6753  0.0758
    2MPD1    C114090   4.464   0.982   1.501 -0.5608  0.4824 -0.2779
    2MPD1    C214091   4.331   0.975   1.456  0.1213  0.2787 -0.7194
    2MPD1    C314092   4.240   1.067   1.494  0.1405 -0.2237 -0.8537
    2MPD1    C414093   4.261   1.142   1.609 -0.8742  0.1611  0.3458
    2MPD1    C514094   4.395   1.144   1.668  0.5854 -0.1877  0.2065
    2MPD1     H14095   4.294   0.907   1.380 -1.7933  0.4992  0.0127
    2MPD1    H114096   4.187   1.204   1.657 -0.2193  1.2115 -0.0111
    2MPD1    H214097   4.584   1.063   1.661  0.1566 -0.9636 -0.8647
    2MPD1    H314098   4.416   1.195   1.761 -1.8554 -1.8824  1.7122
    2MPD1     N14099   4.120   1.059   1.424 -0.4903  0.6978  0.5876
    2MPD1    H514100   4.121   0.997   1.344 -0.6680  0.7269  0.5626
    2MPD1    N114101   4.566   0.896   1.443  0.3748  0.0427 -0.3993
    2MPD1    H614102   4.659   0.927   1.471 -0.3516  0.9076  1.0450
    2MPD1    H714103   4.551   0.905   1.343  1.3657  1.3122 -0.4275
    1MPD1     C14104   1.963   3.054  12.145  0.4769  0.3998  0.0871
    1MPD1    C114105   2.076   3.060  12.065 -0.5389  0.2386 -0.0453
    1MPD1    C214106   2.160   3.169  12.082 -0.3271 -0.0636  0.1127
    1MPD1    C314107   2.132   3.259  12.184  0.4907  0.6574 -0.1642
    1MPD1    C414108   2.022   3.251  12.267  0.7353  0.3623 -0.5130
    1MPD1    C514109   1.937   3.149  12.246 -0.5371  0.3677 -0.3546
    1MPD1     H14110   2.250   3.183  12.022 -0.2947  0.8242  0.3683
    1MPD1    H114111   2.009   3.322  12.348  1.6461  1.4368 -1.3112
    1MPD1    H214112   1.890   2.974  12.141 -0.4326  1.1880  0.6781
    1MPD1    H314113   1.846   3.134  12.302 -0.4026 -1.3331 -0.5771
    1MPD1     N14114   2.218   3.374  12.180 -0.0445 -0.4384  0.6273
    1MPD1    H514115   2.303   3.373  12.125 -1.3046  1.2411 -1.3399
    1MPD1    N114116   2.097   2.968  11.959 -0.1770 -0.2480 -1.0094
    1MPD1    H614117   2.044   2.882  11.970 -0.8518  0.5587  1.9588
    1MPD1    H714118   2.198   2.951  11.966 -0.1255 -0.2817 -1.7491
    2MPD1     C14119   1.170   3.799  11.268  0.0580 -0.3281 -0.2132
    2MPD1    C114120   1.243   3.910  11.306  0.0626 -0.1241 -0.2467
    2MPD1    C214121   1.345   3.948  11.219  0.6929 -0.4814  1.0859
    2MPD1    C314122   1.376   3.879  11.105 -0.1100 -0.0828  0.0413
    2MPD1    C414123   1.306   3.760  11.081 -0.6535  0.3628 -0.3322
    2MPD1    C514124   1.198   3.724  11.158  0.5348 -0.2759 -0.2507
    2MPD1     H14125   1.404   4.035  11.243 -1.4789  1.8130 -1.9357
    2MPD1    H114126   1.334   3.700  10.994  1.5432 -0.3058  0.8305
    2MPD1    H214127   1.081   3.769  11.323 -0.6879  0.0894 -1.1964
    2MPD1    H314128   1.136   3.637  11.139 -2.0651  0.8133  3.2575
    2MPD1     N14129   1.471   3.914  11.008 -0.1047 -0.2759 -0.1901
    2MPD1    H514130   1.501   3.832  10.957  1.7601  1.0881 -1.2831
    2MPD1    N114131   1.200   3.997  11.405  0.3027  0.5915  0.5852
    2MPD1    H614132   1.275   4.054  11.444  0.8715 -0.2010  0.6399
    2MPD1    H714133   1.163   3.953  11.489 -1.0893 -1.8065 -1.3159
    3MPD1     C14134   1.710   3.407  10.374 -0.0493 -0.1088 -0.0778
    3MPD1    C114135   1.638   3.401  10.494 -0.6935  0.0975  0.9155
    3MPD1    C214136   1.655   3.500  10.593  0.1075 -0.6632 -0.3649
    3MPD1    C314137   1.757   3.594  10.582 -0.0162  0.5551 -0.6198
    3MPD1    C414138   1.830   3.591  10.459  0.1440 -0.6119 -0.0482
    3MPD1    C514139   1.809   3.501  10.358 -0.1734 -0.9298 -0.6387
    3MPD1     H14140   1.585   3.488  10.675  0.8386  0.1873  0.3730
    3MPD1    H114141   1.905   3.668  10.448  0.5563 -1.0716 -0.4496
    3MPD1    H214142   1.703   3.342  10.287 -0.4008 -0.5434  0.2749
    3MPD1    H314143   1.865   3.514  10.266  2.6311 -1.9463  0.9197
    3MPD1     N14144   1.760   3.701  10.678 -0.0177  0.1976  0.0173
    3MPD1    H514145   1.707   3.688  10.764  1.5370  0.9317  1.0723
    3MPD1    N114146   1.525   3.316  10.499 -0.5040  0.0007  0.6623
    3MPD1    H614147   1.554   3.229  10.455 -1.1265 -0.5522  1.3475
    3MPD1    H714148   1.488   3.300  10.593 -0.4747  1.8408  0.9824
    4MPD2     C14149   2.311   4.185  12.162 -0.2748 -0.1180  0.0254
    4MPD2    C114150   2.389   4.092  12.095 -0.3183  0.0347  0.4090
    4MPD2    C214151   2.441   4.119  11.968 -0.3536 -0.2024 -0.4379
    4MPD2    C314152   2.431   4.242  11.906 -0.1478  0.1280 -0.6455
    4MPD2    C414153   2.361   4.337  11.976 -0.0804 -0.6169  0.2809
    4MPD2    C514154   2.298   4.304  12.099  0.6357  0.3765  0.2655
    4MPD2     H14155   2.502   4.033  11.940  0.1817 -0.5294  1.7071
    4MPD2    H114156   2.351   4.436  11.932  1.4981 -0.4061  0.3948
    4MPD2    H214157   2.262   4.172  12.258  2.2160  0.8668  1.4212
    4MPD2    H314158   2.235   4.382  12.140 -0.9280 -2.0804  2.5525
    4MPD2     N14159   2.496   4.270  11.780  0.2054  0.0138  0.6256
    4MPD2    H514160   2.475   4.359  11.737  0.6072 -0.1332  0.1304
    4MPD2    N114161   2.424   3.974  12.158 -0.1788 -1.0060 -0.1516
    4MPD2    H714162   2.496   3.926  12.105  0.3322 -0.5201  0.1015
    5TMC3    C114163   2.401   3.782  12.283  0.8797 -0.5260 -1.1804
    5TMC3    C214164   2.297   3.690  12.300 -0.3079 -0.0676 -0.0405
    5TMC3    C314165   2.298   3.585  12.222  0.4496  0.5683 -0.2429
    5TMC3    C414166   2.507   3.744  12.211 -0.4402  0.4540  0.6742
    5TMC3    C514167   2.503   3.642  12.121  0.0793  0.4933  0.6408
    5TMC3    C614168   2.390   3.563  12.120 -0.5143 -0.1433 -0.6431
    5TMC3     C14169   2.365   3.922  12.268  0.3168 -0.3439 -0.0957
    5TMC3     O14170   2.263   3.956  12.325 -0.1083  0.0751 -0.5306
    5TMC3     H14171   2.213   3.713  12.364 -0.2773 -1.1370  0.3866
    5TMC3    H114172   2.596   3.806  12.202  1.0216 -1.6554  0.4858
    5TMC3    H214173   2.372   3.491  12.041 -0.3040 -0.6355 -0.2384
    5TMC3    C714174   2.557   3.684  11.991 -0.8040  0.1542 -0.0620
    5TMC3    C814175   2.197   3.486  12.250  0.0053  0.1182 -1.0414
    5TMC3    O114176   2.580   3.804  11.979  0.0325 -0.3466  0.2161
    5TMC3    O214177   2.109   3.516  12.331  0.1760  0.4793 -0.6064
    6TMC3    C114178   1.653   4.018  10.928 -0.1737  0.9202 -0.3858
    6TMC3    C214179   1.674   3.921  10.827 -0.5004 -0.2599 -0.0021
    6TMC3    C314180   1.795   3.910  10.771  0.6733  0.5526 -0.1620
    6TMC3    C414181   1.755   4.089  10.969  0.2015 -0.0366  0.6144
    6TMC3    C514182   1.870   4.098  10.894  0.7181 -0.2915 -0.2249
    6TMC3    C614183   1.886   4.014  10.787  0.0926 -0.0845 -0.5913
    6TMC3     C14184   1.532   4.030  11.001  0.8271 -0.0078  0.2858
    6TMC3     O14185   1.504   4.137  11.048  0.1746 -0.0683 -0.3728
    6TMC3     H14186   1.590   3.861  10.794 -0.7341  0.7703 -1.2966
    6TMC3    H114187   1.734   4.157  11.051  0.7068  2.0456 -0.9945
    6TMC3    H214188   1.980   4.010  10.734  1.3231 -1.0307  1.6562
    6TMC3    C714189   1.988   4.165  10.956 -0.1984 -0.6006 -0.1837
    6TMC3    C814190   1.836   3.815  10.676  0.6444 -0.4091 -0.1663
    6TMC3    O114191   1.994   4.172  11.077 -0.5756  0.1203  0.4650
    6TMC3    O214192   1.914   3.852  10.593 -0.8050 -0.6285  0.1915
    7MPD2     C14193   2.694   3.655  11.503  0.0231  0.1150 -0.2415
    7MPD2    C114194   2.666   3.755  11.583  0.6637 -0.1079 -0.5156
    7MPD2    C214195   2.633   3.730  11.712  0.6270 -0.7180  0.2426
    7MPD2    C314196   2.615   3.603  11.761 -0.1010 -0.0297  0.2152
    7MPD2    C414197   2.643   3.495  11.682  0.2013 -0.0289 -0.1294
    7MPD2    C514198   2.678   3.525  11.551 -0.2749 -0.1031  0.7534
    7MPD2     H14199   2.629   3.819  11.772 -1.1887 -2.4469  2.6806
    7MPD2    H114200   2.612   3.397  11.715  0.0567  0.0447 -0.0454
    7MPD2    H214201   2.733   3.652  11.403 -1.1610  1.2417 -0.7399
    7MPD2    H314202   2.691   3.441  11.483  2.8188  0.6582  0.3867
    7MPD2     N14203   2.562   3.583  11.892  0.0075 -0.5223 -0.5572
    7MPD2    H514204   2.534   3.490  11.922  0.5488 -0.1560  1.0521
    7MPD2    N114205   2.671   3.890  11.548  0.1140 -0.1531 -0.3845
    7MPD2    H714206   2.659   3.952  11.628  1.8276 -1.2431  0.7159
    8TMC3    C114207   2.708   4.082  11.430 -0.4635  0.1721  0.0583
    8TMC3    C214208   2.631   4.137  11.332  0.3307  0.1000 -0.1287
    8TMC3    C314209   2.528   4.222  11.373  0.3975 -0.1311  0.0578
    8TMC3    C414210   2.705   4.126  11.552  0.3785  0.1517 -0.1780
    8TMC3    C514211   2.617   4.225  11.592  0.1221 -0.1434 -0.8588
    8TMC3    C614212   2.524   4.271  11.503  0.3031  0.0045  0.9290
    8TMC3     C14213   2.702   3.935  11.427 -0.3407 -0.4381  0.6895
    8TMC3     O14214   2.716   3.875  11.322 -0.4786 -0.1257  0.1244
    8TMC3     H14215   2.649   4.099  11.232 -2.3023  1.1783 -1.0065
    8TMC3    H114216   2.783   4.103  11.624  0.4722 -0.7066 -0.5557
    8TMC3    H214217   2.430   4.316  11.535 -0.1656 -0.1994 -0.1406
    8TMC3    C714218   2.564   4.176  11.713 -0.4236 -0.2730 -0.0423
    8TMC3    C814219   2.430   4.281  11.279  0.2558 -0.6763  0.4205
    8TMC3    O114220   2.601   4.062  11.747  0.1060 -0.2058  0.7095
    8TMC3    O214221   2.324   4.331  11.309  0.3463  0.1598 -0.2509
    9MPD2     C14222   2.502   4.259  10.918 -0.0605 -0.5324 -0.4183
    9MPD2    C114223   2.421   4.260  11.031  0.6172 -0.6042  0.0218
    9MPD2    C214224   2.283   4.236  11.022 -0.1148 -0.1604 -0.6435
    9MPD2    C314225   2.232   4.213  10.895 -0.0697 -0.0456 -0.4983
    9MPD2    C414226   2.311   4.218  10.779 -0.1408  0.5586 -0.0378
    9MPD2    C514227   2.443   4.243  10.795 -0.1192 -0.0677  0.2715
    9MPD2     H14228   2.218   4.237  11.109  0.7690 -1.1652  0.0342
    9MPD2    H114229   2.273   4.176  10.687  0.5382  0.5794 -0.3265
    9MPD2    H214230   2.607   4.276  10.935 -0.4725  0.7546  0.7909
    9MPD2    H314231   2.509   4.243  10.710 -0.6770  2.4038 -0.1641
    9MPD2     N14232   2.094   4.172  10.870  0.2389 -0.5762 -0.9533
    9MPD2    H514233   2.081   4.155  10.771 -0.2021 -0.4268 -0.9176
    9MPD2    N114234   2.486   4.281  11.156  0.0769  0.0675 -0.2685
    9MPD2    H714235   2.587   4.281  11.165 -0.1183  1.7595  1.9935
    1MPD1     C14236   1.586   2.854  16.465  0.6168  0.1932 -0.0191
    1MPD1    C114237   1.579   2.856  16.601 -0.0815  0.4664 -0.5642
    1MPD1    C214238   1.699   2.872  16.673 -0.0260 -0.7514 -0.1247
    1MPD1    C314239   1.824   2.861  16.606  0.2191  0.7167  0.1744
    1MPD1    C414240   1.819   2.832  16.474  0.6629 -0.4563 -0.5161
    1MPD1    C514241   1.706   2.845  16.400  0.4723 -0.1339  0.0680
    1MPD1     H14242   1.695   2.892  16.779  3.1144  2.3410 -0.5714
    1MPD1    H114243   1.913   2.830  16.419  1.9415  0.0785  1.6348
    1MPD1    H214244   1.500   2.849  16.399 -0.0834  2.3331  0.7391
    1MPD1    H314245   1.707   2.818  16.295  1.5354  0.3328 -0.0406
    1MPD1     N14246   1.947   2.880  16.673  0.3295  0.2690 -0.3589
    1MPD1    H514247   2.018   2.870  16.601 -1.1097  0.7073 -1.8373
    1MPD1    N114248   1.451   2.867  16.663  0.6539  0.1048 -0.2128
    1MPD1    H614249   1.374   2.822  16.613 -0.7442  1.4159  0.7587
    1MPD1    H714250   1.437   2.840  16.760  0.5572 -0.5818 -0.4153
    2MPD1     C14251   2.873   2.589  16.699 -0.3493  0.2905 -0.4009
    2MPD1    C114252   2.883   2.726  16.674 -0.0269 -0.6216  0.4609
    2MPD1    C214253   2.768   2.804  16.703  0.0096 -0.2689  0.5078
    2MPD1    C314254   2.653   2.749  16.745  0.9235 -0.2881  1.3588
    2MPD1    C414255   2.653   2.617  16.779  0.0127  0.3275 -0.4235
    2MPD1    C514256   2.763   2.542  16.756 -0.1735  0.6552 -0.1389
    2MPD1     H14257   2.777   2.910  16.682 -1.7991 -0.2846 -0.3449
    2MPD1    H114258   2.572   2.580  16.841 -0.6097  0.2935 -1.2451
    2MPD1    H214259   2.957   2.521  16.693 -1.3358 -0.8300 -1.4015
    2MPD1    H314260   2.758   2.439  16.789  0.4191  1.7015  3.2058
    2MPD1     N14261   2.539   2.831  16.768 -0.0701 -0.0860 -0.2319
    2MPD1    H514262   2.558   2.931  16.774 -3.6936  0.5706  0.0601
    2MPD1    N114263   2.990   2.790  16.611  0.2390  0.0208 -0.4145
    2MPD1    H614264   3.010   2.882  16.650  0.0632  0.2525 -0.8742
    2MPD1    H714265   3.072   2.729  16.611  0.7668  0.7388 -0.8624
    3TCq2    C114266   2.410   2.790  16.775  0.6892  0.2179  0.4550
    3TCq2    O214267   2.363   2.677  16.766 -0.2886  0.5399  0.4299
    3TCq2    C214268   2.318   2.897  16.820  0.2251 -0.8028  0.5963
    3TCq2    C314269   2.358   2.994  16.907  0.1453 -0.4406  0.3101
    3TCq2    C414270   2.268   3.089  16.949  0.2653  0.2047  0.1267
    3TCq2    C514271   2.139   3.071  16.913  0.5251 -0.0172 -0.4510
    3TCq2    C614272   2.104   2.974  16.823  0.1860  0.4653 -0.9039
    3TCq2    C714273   2.195   2.884  16.773 -0.5007 -0.7457 -0.0569
    3TCq2    C814274   1.962   2.937  16.798  0.1616 -0.9009 -0.7247
    3TCq2    O414275   1.883   2.980  16.882  0.2978  0.2972 -0.0364
    3TCq2    C914276   2.296   3.186  17.052  0.2099 -0.6197 -1.2087
    3TCq2    O514277   2.205   3.268  17.071 -0.8176 -0.2385  0.3028
    3TCq2    O614278   2.397   3.169  17.124  0.2964  0.2493  0.1051
    3TCq2    H214279   2.461   2.996  16.942 -0.4849  0.6357  2.0953
    3TCq2    H314280   2.060   3.123  16.964  2.0050  1.7549  0.0249
    3TCq2    H414281   2.169   2.809  16.698 -0.6687 -0.0883 -0.6550
    1TCq1    O114282   0.547   0.949  12.593 -0.1227  0.6179 -0.0833
    1TCq1    C114283   0.527   1.063  12.653 -0.5637  1.0329 -0.2773
    1TCq1    O214284   0.608   1.140  12.704 -0.7632  0.7155 -0.2878
    1TCq1    C214285   0.384   1.107  12.642  0.6068 -0.1680 -0.4074
    1TCq1    C314286   0.292   1.008  12.677  0.3729  0.1374 -0.0754
    1TCq1    C414287   0.162   1.045  12.688  0.3412 -0.5765  0.3256
    1TCq1    C514288   0.123   1.171  12.677 -0.0622  0.6433 -0.0089
    1TCq1    C614289   0.208   1.264  12.635 -0.1967 -0.2137 -0.1395
    1TCq1    C714290   0.345   1.239  12.627 -0.2410  0.2081  0.1071
    1TCq1    C814291   0.161   1.402  12.617 -0.5139  0.2059  0.5122
    1TCq1    O414292   0.042   1.421  12.624  0.0915  1.0873  0.3444
    1TCq1    C914293   0.071   0.944  12.733 -0.0866 -0.4327 -0.1136
    1TCq1    O514294   0.117   0.849  12.798  0.3477  0.1335  0.0606
    1TCq1    O614295   4.670   0.957  12.702 -0.7052 -0.1622  0.1459
    1TCq1    H114296   0.478   0.927  12.527 -0.4014  1.1418  0.0362
    1TCq1    H214297   0.320   0.906  12.697 -1.4586 -0.1477  1.0484
    1TCq1    H314298   0.015   1.183  12.677 -0.3194 -1.7409 -4.2336
    1TCq1    H414299   0.422   1.312  12.605 -1.9694  2.1842  0.5746
    2MPD2     C14300   0.138   1.695  12.609 -0.1220 -0.6201 -0.9256
    2MPD2    C114301   0.257   1.632  12.637 -0.7875 -0.0708 -0.1011
    2MPD2    C214302   0.360   1.707  12.688  0.6486  0.1791  0.1579
    2MPD2    C314303   0.353   1.840  12.708 -0.5436 -0.0650  0.4115
    2MPD2    C414304   0.235   1.905  12.667 -0.5827  0.0357  0.8415
    2MPD2    C514305   0.134   1.830  12.625  0.5787  0.2166 -0.9761
    2MPD2     H14306   0.452   1.657  12.715  0.1966 -0.1206  1.1207
    2MPD2    H114307   0.218   2.011  12.674 -1.9730 -0.1010 -0.3941
    2MPD2    H214308   0.053   1.639  12.572 -0.2805 -1.2574  0.4021
    2MPD2    H314309   0.038   1.875  12.602 -0.7693 -2.1257  0.0169
    2MPD2     N14310   0.456   1.905  12.783  0.3145 -0.1048 -0.4260
    2MPD2    H514311   0.545   1.855  12.791  0.9975  0.8004 -2.3672
    2MPD2    N114312   0.265   1.493  12.625 -0.1728 -0.7618  0.1501
    2MPD2    H714313   0.360   1.456  12.628  0.7474  1.5572 -0.6072
    3TCq1    O114314   0.970   1.913  12.983  0.3348 -0.3713 -0.0040
    3TCq1    C114315   0.915   2.006  12.897 -0.0953 -0.4573 -0.1180
    3TCq1    O214316   0.941   2.021  12.777  0.5707  0.3167 -0.3316
    3TCq1    C214317   0.784   2.031  12.954 -0.6524  0.2412  0.3846
    3TCq1    C314318   0.777   2.090  13.074 -0.4072  0.5008 -0.3551
    3TCq1    C414319   0.659   2.151  13.106 -0.0207 -0.3087  0.0847
    3TCq1    C514320   0.551   2.143  13.026  0.5532 -0.7234 -0.2880
    3TCq1    C614321   0.562   2.067  12.908 -0.9812  0.3402 -1.0666
    3TCq1    C714322   0.678   2.012  12.868  0.4241 -0.0677  0.6582
    3TCq1    C814323   0.440   2.020  12.852 -0.1908  0.1311  0.0031
    3TCq1    O414324   0.344   2.090  12.881  0.0399 -0.1567 -0.5580
    3TCq1    C914325   0.672   2.238  13.218  0.6991 -0.0538 -0.6042
    3TCq1    O514326   0.567   2.301  13.252 -0.0728 -0.3766  0.1791
    3TCq1    O614327   0.793   2.265  13.254 -0.6353 -0.2758 -0.2589
    3TCq1    H114328   0.928   1.881  13.065 -2.6895 -1.9071 -2.1526
    3TCq1    H214329   0.871   2.107  13.125 -0.9905  0.2049  0.7984
    3TCq1    H314330   0.462   2.204  13.040  0.9986 -0.0318 -0.4395
    3TCq1    H414331   0.685   1.974  12.767  1.9006 -0.7982  1.0327
    1MPD2     C14332   4.271   2.831  14.762 -0.1610  0.5331 -0.4412
    1MPD2    C114333   4.259   2.753  14.651  0.2042  0.2986 -0.1713
    1MPD2    C214334   4.374   2.694  14.611  0.8741  0.2319  0.3965
    1MPD2    C314335   4.496   2.719  14.672  0.3965  0.3142  0.2856
    1MPD2    C414336   4.508   2.808  14.775 -0.1825 -0.0908 -0.1492
    1MPD2    C514337   4.393   2.860  14.819  0.7980 -0.7210 -0.3521
    1MPD2     H14338   4.378   2.638  14.519 -0.4906 -2.2100  1.8157
    1MPD2    H114339   4.603   2.824  14.825 -0.7226  0.6604  0.6316
    1MPD2    H214340   4.188   2.880  14.810 -1.6234 -1.1493 -1.2498
    1MPD2    H314341   4.395   2.932  14.900 -0.4987 -0.8597 -0.2053
    1MPD2     N14342   4.608   2.660  14.615  0.4323  0.1423 -0.0541
    1MPD2    H514343   4.586   2.614  14.527 -1.0022 -0.4272  0.6062
    1MPD2    N114344   4.135   2.738  14.584  0.0912 -0.0756  0.3694
    1MPD2    H714345   4.070   2.812  14.609 -2.9110 -2.2518 -1.0376
    2TMC3    C114346   3.981   2.643  14.437  0.0913 -0.1091  0.0762
    2TMC3    C214347   3.969   2.535  14.354  0.2256 -0.7916 -0.7825
    2TMC3    C314348   3.942   2.564  14.225  0.4685 -0.3556 -0.3122
    2TMC3    C414349   3.959   2.775  14.405 -0.7015  0.4529  0.8366
    2TMC3    C514350   3.935   2.800  14.275 -0.0288  0.2070  0.0660
    2TMC3    C614351   3.928   2.694  14.183 -0.3948  0.2810  0.1238
    2TMC3     C14352   4.105   2.627  14.510  0.5376 -0.1164  0.4291
    2TMC3     O14353   4.178   2.527  14.493 -0.3582  0.1078  0.4700
    2TMC3     H14354   3.984   2.431  14.383 -1.7635 -2.2321 -4.9396
    2TMC3    H114355   3.965   2.858  14.475 -1.6261  0.3258  1.0549
    2TMC3    H214356   3.921   2.708  14.076  1.0774 -3.3731 -0.4639
    2TMC3    C714357   3.883   2.927  14.228 -0.2060 -0.4388  0.1269
    2TMC3    C814358   4.017   2.481  14.130 -0.2219 -0.3331  0.0543
    2TMC3    O114359   3.815   2.914  14.125 -0.0172  0.0282 -0.7018
    2TMC3    O214360   3.980   2.473  14.014  0.0502  0.1880 -0.0220
    3TCq1    O114361   4.355   4.004  14.281  0.0664  0.3513  0.6911
    3TCq1    C114362   4.341   4.013  14.410 -0.8761  0.1957  0.1749
    3TCq1    O214363   4.431   4.073  14.467 -0.4497 -0.0661 -0.0370
    3TCq1    C214364   4.304   3.882  14.455  0.0120  0.0077 -0.6155
    3TCq1    C314365   4.399   3.814  14.520 -0.1461  0.3140 -0.5896
    3TCq1    C414366   4.373   3.686  14.537 -0.0850  0.3438 -0.4417
    3TCq1    C514367   4.259   3.623  14.497 -1.0412 -0.2820 -0.2749
    3TCq1    C614368   4.173   3.687  14.417  0.0453 -0.5304 -0.6742
    3TCq1    C714369   4.187   3.829  14.399  0.7325  0.6532 -0.7064
    3TCq1    C814370   4.068   3.620  14.337 -0.0041 -0.1713  0.2520
    3TCq1    O414371   4.007   3.690  14.261  0.4544  0.3427  0.1945
    3TCq1    C914372   4.469   3.598  14.605  0.1105  0.0576  0.3866
    3TCq1    O514373   4.590   3.617  14.574  0.0214  0.2354 -0.0556
    3TCq1    O614374   4.424   3.503  14.672 -0.4923  0.9672 -0.2939
    3TCq1    H114375   4.316   3.918  14.253 -0.9407  1.4203 -1.2102
    3TCq1    H214376   4.497   3.855  14.540  0.2806 -0.4192 -1.1746
    3TCq1    H314377   4.277   3.517  14.493 -0.7294 -0.2313 -0.2281
    3TCq1    H414378   4.118   3.895  14.347 -1.2443  0.9183  2.2757
    4MPD2     C14379   3.875   3.435  14.210 -0.1495 -0.3390 -0.0258
    4MPD2    C114380   3.971   3.396  14.300  0.1097 -0.0777 -0.1168
    4MPD2    C214381   3.986   3.263  14.336  0.3335  0.7803 -0.6070
    4MPD2    C314382   3.905   3.173  14.267  0.2638 -0.3153  0.0441
    4MPD2    C414383   3.808   3.209  14.187 -0.3014 -0.0319 -0.0388
    4MPD2    C514384   3.794   3.342  14.160 -0.1420 -0.2768  0.6247
    4MPD2     H14385   4.057   3.229  14.410  0.7567  0.0414 -1.3593
    4MPD2    H114386   3.741   3.138  14.141 -0.7623  0.0108  0.5761
    4MPD2    H214387   3.855   3.537  14.180  1.6483 -0.5920 -2.0322
    4MPD2    H314388   3.712   3.376  14.098  0.7663  0.0271 -0.4007
    4MPD2     N14389   3.938   3.035  14.290 -0.3292 -0.4490 -0.1744
    4MPD2    H514390   4.015   3.008  14.351 -0.5998 -1.6042 -0.3527
    4MPD2    N114391   4.064   3.484  14.364 -0.5512  0.3099 -0.0124
    4MPD2    H714392   4.137   3.442  14.421 -0.3561  2.4622  1.3003
    5TMC2    C114393   0.059   2.507  14.344 -0.6952 -0.2051 -0.2282
    5TMC2    C214394   0.138   2.400  14.374  0.2321 -0.3365  0.6801
    5TMC2    C314395   0.210   2.410  14.490 -0.0380  0.3617 -0.2370
    5TMC2    C414396   0.055   2.617  14.431  0.8197  0.1103 -0.1141
    5TMC2    C514397   0.106   2.606  14.557  0.0165 -0.0081  0.3232
    5TMC2    C614398   0.197   2.508  14.586  0.3891  0.6510 -1.3982
    5TMC2     C14399   4.649   2.489  14.284  0.1817  0.4691 -0.0250
    5TMC2     O14400   4.569   2.557  14.345 -0.3231 -0.2913 -0.0206
    5TMC2     H14401   0.139   2.303  14.326 -0.9329  0.8355 -1.7570
    5TMC2    H114402   4.717   2.703  14.403 -2.3993 -1.7515  1.0945
    5TMC2    H214403   0.256   2.518  14.676  0.2212  1.5350 -1.3843
    5TMC2    C714404   0.013   2.659  14.661  0.5408 -0.3932 -0.5980
    5TMC2    C814405   0.309   2.312  14.511  0.1308  0.0658 -0.1783
    5TMC2    O114406   0.057   2.684  14.775 -0.1406 -0.5930  0.4763
    5TMC2    O214407   0.290   2.208  14.573  0.2575  0.1898 -0.1414
    5TMC2    O514408   0.375   2.311  14.394 -0.3212  0.0450  0.1148
    5TMC2    H514409   0.381   2.400  14.354  0.8000 -0.1093 -0.0530
    6MPD2     C14410   4.265   2.383  13.978 -0.2934 -0.0746  0.4820
    6MPD2    C114411   4.257   2.421  14.107  0.9526 -0.2303  0.2078
    6MPD2    C214412   4.378   2.423  14.177  0.6869 -0.3686  0.3192
    6MPD2    C314413   4.500   2.381  14.120  0.2357 -0.1942 -0.8279
    6MPD2    C414414   4.502   2.337  13.991  0.0568 -0.1596 -0.4433
    6MPD2    C514415   4.383   2.342  13.920 -0.5419 -0.7857  0.3589
    6MPD2     H14416   4.378   2.455  14.281  0.0906 -0.3111  0.3011
    6MPD2    H114417   4.593   2.318  13.935  0.2938 -3.2796  0.9890
    6MPD2    H214418   4.177   2.379  13.915 -0.3707  1.6272  0.4696
    6MPD2    H314419   4.382   2.319  13.814 -0.6523  2.0641 -0.2483
    6MPD2     N14420   4.628   2.404  14.176  0.6223 -0.5765 -0.1052
    6MPD2    H514421   4.711   2.357  14.140 -0.2735 -2.5260  0.3384
    6MPD2    N114422   4.147   2.468  14.180 -0.2692  0.0862 -0.6576
    6MPD2    H714423   4.168   2.503  14.273  1.3958 -1.7117 -0.3551
  945NH3     N114424   4.001   3.469   0.552  0.4735 -0.8552 -0.3367
  945NH3     H214425   4.063   3.484   0.473 -1.1741  0.3999 -1.3861
  945NH3     H314426   4.062   3.483   0.632  1.5565  0.5162 -1.3922
  945NH3     H414427   3.939   3.548   0.554  1.1106 -0.4123  1.5885
  946SOD     NA14428   2.510   3.130   0.011  0.6817 -0.0859  0.0448
  947SOD     NA14429   1.425   3.570  14.125  0.0425 -0.6937 -0.3099
  948SOD     NA14430   2.786   3.575   0.862 -0.5354  0.2390  0.7747
  949SOD     NA14431   3.164   1.500  10.830  0.2093 -0.2270 -0.1923
  950SOD     NA14432   4.454   0.991   9.986  0.0184 -0.0710  0.3417
  951SOD     NA14433   1.151   3.479  17.587 -0.3351  0.0780  0.5913
  952SOD     NA14434   0.241   0.659  12.788 -0.2517 -0.2047  0.3508
  953SOD     NA14435   3.799   1.310   1.962  0.0734 -0.0565 -0.5114
  954SOD     NA14436   1.864   3.239  12.913  0.4303  0.7241 -0.0527
  955SOD     NA14437   4.294   3.577  15.300 -0.0970 -0.1325  0.2574
  956SOD     NA14438   1.157   3.893   0.520 -0.3425  0.0485  0.0489
  957SOD     NA14439   3.602   2.650  10.604  0.0625 -0.0596 -0.4024
  958SOD     NA14440   1.262   4.301  16.672  0.0335 -0.2241 -0.4244
  959SOD     NA14441   2.625   2.912  14.278 -0.7363 -0.0240 -0.1235
  960SOD     NA14442   1.958   2.881  13.185 -0.4999  0.0130 -0.3688
  961SOD     NA14443   3.902   2.136  10.604 -0.0816 -0.3229  0.3156
  962SOD     NA14444   2.596   3.115  12.969 -0.0987  0.4979  0.2672
  963SOD     NA14445   3.876   2.566  10.738 -0.1674  0.2983  0.0642
  964SOD     NA14446   3.306   2.625  15.961  0.1302 -0.4951 -0.3519
  965SOD     NA14447   0.470   2.393  11.955 -0.0346  0.0826  0.0405
  966SOD     NA14448   4.563   0.325  10.635 -0.0620 -0.6934 -0.0966
  967SOD     NA14449   4.524   0.768   3.246  0.3757 -0.4768 -0.0408
  968SOD     NA14450   3.371   1.719   2.881  0.0853 -0.5971 -0.1226
  969SOD     NA14451   3.845   2.460  10.453  0.3392 -0.6577  0.0196
  970SOD     NA14452   2.587   1.348   2.701  0.1361  0.1107  0.0838
  971SOD     NA14453   0.292   1.915  13.227  0.0149  0.6535 -0.1183
  972SOD     NA14454   1.258   1.911  11.466 -0.3023 -0.1190 -0.0502
  973SOD     NA14455   1.965   1.774   0.342  0.4881  0.7340  0.1855
  974SOD     NA14456   4.534   0.957  12.541  0.0984 -0.0089 -0.3039
  975SOD     NA14457   4.040   1.352  10.204  0.0466  0.3210  0.5869
  976SOD     NA14458   4.349   2.425  10.802  0.2072 -0.5333  0.0511
  977SOD     NA14459   1.062   3.459   5.849  0.0869  0.0771 -0.2759
  978SOD     NA14460   3.848   0.954   6.895 -0.2757 -0.2568  0.3070
  979SOD     NA14461   1.716   0.521  13.418 -0.1884 -0.0878  0.0407
  980SOD     NA14462   1.993   1.695  13.689 -0.2572 -0.2109  0.2073
  981SOD     NA14463   2.457   2.416   2.344 -0.7322 -0.6452 -0.2900
  982SOD     NA14464   2.522   1.171  14.777  0.3229  0.0981  0.0268
  983SOD     NA14465   3.409   1.488  17.323 -0.4448  0.1985 -0.3708
  984SOD     NA14466   2.205   0.398  14.598 -0.0688 -0.4662 -0.0981
  985SOD     NA14467   0.394   2.317  12.354  0.0970  0.8074 -0.1258
  986SOD     NA14468   0.303   0.749  11.166 -0.1307 -0.0842 -0.0930
  987SOD     NA14469   0.025   1.480   0.887 -0.0474  0.2486  0.5085
  988SOD     NA14470   1.586   1.689   1.334  0.4421 -0.0053 -0.0987
  989SOD     NA14471   4.531   4.323   2.291  0.5121 -0.5543  0.0455
  990SOD     NA14472   1.218   0.564  17.238 -0.0521  0.0890 -0.0367
  991SOD     NA14473   1.130   1.925  12.645 -0.0628  0.0665  0.0667
  992SOD     NA14474   4.349   3.297  14.672 -0.2907  0.4980  0.0126
  993SOD     NA14475   2.153   1.112   9.290  0.2700 -0.4100 -0.3163
  994SOD     NA14476   2.946   1.835  10.771 -0.1813 -0.1194 -0.3807
  995SOD     NA14477   0.099   2.817  15.187  0.7703 -0.1690 -0.1810
  996SOD     NA14478   4.585   3.934   9.390  0.4731  0.2193 -0.2764
  997SOD     NA14479   0.294   3.592  12.034  0.0358  0.4133 -0.2606
  998SOD     NA14480   1.381   1.769   1.575 -0.1077  0.2458  0.2982
  999SOD     NA14481   0.983   1.412  10.678 -0.2104  0.0069 -0.1339
 1000SOD     NA14482   0.971   4.224   3.651 -0.4425 -0.0268 -0.0553
 1001SOD     NA14483   0.293   2.145  12.114 -0.0786  0.4290  0.2449
 1002SOD     NA14484   4.656   3.408  14.623  0.1575  0.1083  0.1451
 1003SOD     NA14485   4.365   1.353  10.095  0.0423  0.4704 -0.1223
 1004SOD     NA14486   4.270   0.833  10.218 -0.1259  0.1539  0.2061
 1005SOD     NA14487   4.060   1.607  15.114  0.0961  0.4248  0.0194
 1006SOD     NA14488   2.476   1.879  13.990 -0.1384  0.5538  0.5132
 1007SOD     NA14489   0.436   3.130  10.521  0.1450 -0.3670  0.5928
 1008SOD     NA14490   2.812   2.492  15.854 -0.8573  0.1452  0.5165
 1009SOD     NA14491   1.981   2.447   3.197 -0.0317 -0.1267  0.2537
 1010SOD     NA14492   2.505   0.750   1.320  0.2965 -0.3142  0.3283
 1011SOD     NA14493   1.297   1.793  10.587  0.1571  0.2449 -0.3777
 1012SOL     OW14494   0.448   1.378  15.791  0.2126 -0.5529 -0.5653
 1012SOL    HW114495   0.499   1.301  15.765 -0.9996 -1.6154  0.1656
 1012SOL    HW214496   0.450   1.422  15.707  1.6558  0.3037 -0.0716
 1013SOL     OW14497   4.166   1.518   9.196 -0.1777 -0.2791  0.1233
 1013SOL    HW114498   4.185   1.612   9.196  1.7965 -0.6625  1.0175
 1013SOL    HW214499   4.072   1.524   9.214 -0.8475 -2.1694 -2.7579
 1014SOL     OW14500   2.828   3.295   6.465 -0.1613  0.0454 -0.5231
 1014SOL    HW114501   2.786   3.337   6.390 -0.4446  0.3658 -0.1855
 1014SOL    HW214502   2.856   3.379   6.501 -2.0050 -0.1685  1.4645
 1015SOL     OW14503   3.012   1.963  15.265 -0.0136  0.3548  0.3350
 1015SOL    HW114504   3.097   1.970  15.222 -0.1594  0.3119  0.0402
 1015SOL    HW214505   3.014   2.043  15.318  3.6320  0.3193  0.2378
 1016SOL     OW14506   0.057   1.944  15.467  0.4486  0.3053  0.4462
 1016SOL    HW114507   0.035   1.998  15.392 -0.0467  0.5437  0.7611
 1016SOL    HW214508   0.063   2.013  15.533 -1.9026  0.4758  0.4959
 1017SOL     OW14509   0.056   0.528   5.980 -0.4492  0.0933 -0.1990
 1017SOL    HW114510   0.004   0.493   6.053  1.4691 -0.6552  0.8200
 1017SOL    HW214511   0.138   0.546   6.026  0.8250 -0.5623 -2.2233
 1018SOL     OW14512   1.812   1.552   7.199  0.8200  0.5202 -0.2475
 1018SOL    HW114513   1.779   1.471   7.239  2.0796 -0.2694 -0.7968
 1018SOL    HW214514   1.745   1.557   7.131  3.6695 -0.6756 -3.1301
 1019SOL     OW14515   1.646   3.637   3.359 -0.2449  0.2066  0.1128
 1019SOL    HW114516   1.612   3.612   3.273 -1.4837  0.1765  0.6091
 1019SOL    HW214517   1.590   3.708   3.390 -0.4193  0.3440 -0.5219
 1020SOL     OW14518   0.825   2.998  14.502 -0.2253 -0.1135 -0.1551
 1020SOL    HW114519   0.793   2.930  14.442 -0.2330 -0.3546  0.1229
 1020SOL    HW214520   0.793   2.966  14.586 -1.5708 -1.4010 -1.1514
 1021SOL     OW14521   2.294   2.128   6.503  0.4576  0.2357 -0.1767
 1021SOL    HW114522   2.343   2.052   6.534 -0.8934 -1.3235 -1.7681
 1021SOL    HW214523   2.217   2.128   6.560  1.1201  0.0545  0.7087
 1022SOL     OW14524   3.054   4.455   8.496  0.6331 -0.4636 -0.3981
 1022SOL    HW114525   3.095   4.487   8.416 -2.1018 -2.3071 -2.5536
 1022SOL    HW214526   2.965   4.490   8.492 -0.6506 -3.7553 -0.6510
 1023SOL     OW14527   4.644   1.484  15.575 -0.4801 -0.8211 -0.4749
 1023SOL    HW114528   0.001   1.530  15.546 -0.0855 -1.2629 -0.1018
 1023SOL    HW214529   4.675   1.397  15.550 -2.0372 -2.1292  2.1629
 1024SOL     OW14530   0.225   3.567  12.252  0.3847  0.6948  0.1952
 1024SOL    HW114531   0.285   3.571  12.327 -0.2793 -0.5216  0.7908
 1024SOL    HW214532   0.169   3.641  12.273 -0.0373  0.4756 -0.1588
 1025SOL     OW14533   2.114   3.073  12.999  0.0246  0.1701  0.5978
 1025SOL    HW114534   2.048   3.055  12.932  1.5049 -1.2989 -0.4403
 1025SOL    HW214535   2.066   3.115  13.071 -0.3310 -0.6106  0.8142
 1026SOL     OW14536   1.026   2.868   7.642 -0.0241  0.6427  0.5483
 1026SOL    HW114537   1.090   2.896   7.707 -0.8380 -0.7198  1.9502
 1026SOL    HW214538   0.980   2.949   7.623  1.6908  1.0584 -1.7622
 1027SOL     OW14539   3.465   0.613   9.235  0.5172  0.7042  0.5932
 1027SOL    HW114540   3.479   0.603   9.141 -0.5781  1.4541  0.3528
 1027SOL    HW214541   3.520   0.688   9.256 -0.6460  2.1451 -1.4840
 1028SOL     OW14542   0.954   4.171   6.279  0.2707 -0.0204  0.0553
 1028SOL    HW114543   1.047   4.152   6.274 -0.1452 -1.8984 -0.7678
 1028SOL    HW214544   0.959   4.263   6.303 -0.0944 -0.1339  0.5651
 1029SOL     OW14545   3.592   2.145   2.848 -0.0463  0.0529 -0.3808
 1029SOL    HW114546   3.620   2.230   2.815  0.4728 -0.6700 -1.7865
 1029SOL    HW214547   3.658   2.139   2.917  0.8902 -1.8400 -1.4462
 1030SOL     OW14548   3.383   3.230   4.630  0.0563 -0.3756  0.1901
 1030SOL    HW114549   3.452   3.228   4.563 -0.2130  1.8990 -0.1437
 1030SOL    HW214550   3.391   3.318   4.666 -0.9373 -0.6568  1.0880
 1031SOL     OW14551   3.691   1.531  11.370  0.0971  0.5844  0.1960
 1031SOL    HW114552   3.635   1.546  11.294 -1.0715  1.0941  1.1663
 1031SOL    HW214553   3.756   1.600  11.358 -0.3291  0.6322 -1.9272
 1032SOL     OW14554   1.198   3.481  16.998 -0.1849  0.4302 -0.1711
 1032SOL    HW114555   1.174   3.408  17.054 -1.0164  1.2327  0.5209
 1032SOL    HW214556   1.130   3.477  16.930 -0.5024 -0.7613  0.2161
 1033SOL     OW14557   3.476   4.112   8.094 -0.2715  0.2780 -0.9274
 1033SOL    HW114558   3.383   4.135   8.097 -0.2677  0.2744 -0.7913
 1033SOL    HW214559   3.479   4.017   8.099  1.2504  0.3696 -0.0944
 1034SOL     OW14560   4.313   2.964   8.383 -0.2701 -0.1913 -0.2678
 1034SOL    HW114561   4.307   2.976   8.478  1.3133  0.3184 -0.2330
 1034SOL    HW214562   4.378   2.895   8.368 -1.8398 -1.6652 -0.3532
 1035SOL     OW14563   1.936   4.029   2.530  0.5403 -0.1168  0.4759
 1035SOL    HW114564   1.998   3.959   2.550 -0.2825 -0.9523  0.1041
 1035SOL    HW214565   1.993   4.098   2.498  0.9680 -0.5522  0.3005
 1036SOL     OW14566   0.458   4.471   5.220 -0.2530  0.4103 -0.4496
 1036SOL    HW114567   0.409   4.544   5.182 -2.9118 -0.3599  1.5216
 1036SOL    HW214568   0.399   4.438   5.287  0.6351 -1.3381 -0.5195
 1037SOL     OW14569   1.419   0.211   9.020 -0.7976 -0.8131 -0.1669
 1037SOL    HW114570   1.352   0.262   8.976  0.6455 -0.7370 -2.3035
 1037SOL    HW214571   1.437   0.276   9.087  0.3870 -0.5796 -0.7165
 1038SOL     OW14572   4.385   0.643   8.776  0.3387  0.5885 -0.0459
 1038SOL    HW114573   4.438   0.564   8.786 -0.4767 -0.3566 -3.1620
 1038SOL    HW214574   4.299   0.602   8.789 -0.5411  2.8965  1.4178
 1039SOL     OW14575   0.281   2.182   8.346 -0.0440  0.2265 -0.1464
 1039SOL    HW114576   0.235   2.254   8.303  1.6343 -0.4252 -3.0188
 1039SOL    HW214577   0.209   2.135   8.388  2.3593 -2.1795  1.2487
 1040SOL     OW14578   0.681   4.145  17.651 -0.0586 -0.0279 -0.2233
 1040SOL    HW114579   0.713   4.057  17.629  2.3981  1.1306 -1.2743
 1040SOL    HW214580   0.678   4.177  17.561 -0.6883  1.1442  0.2212
 1041SOL     OW14581   3.571   3.698   3.133 -0.3233 -0.5722  0.3241
 1041SOL    HW114582   3.515   3.698   3.211 -2.2735 -0.4095 -1.0560
 1041SOL    HW214583   3.519   3.634   3.084 -0.5192 -0.4435  0.3642
 1042SOL     OW14584   0.804   4.466   8.643  0.0759  0.1071 -0.6653
 1042SOL    HW114585   0.850   4.546   8.617  0.4846  0.3149  0.7021
 1042SOL    HW214586   0.872   4.402   8.663 -0.8727 -0.5828  0.3192
 1043SOL     OW14587   4.061   3.207   7.771 -0.3683  0.1065 -0.6325
 1043SOL    HW114588   4.105   3.196   7.687  3.5182  0.3529  1.3569
 1043SOL    HW214589   4.033   3.297   7.757  1.0162  0.3531 -1.8175
 1044SOL     OW14590   3.987   0.985  15.818 -0.0270  0.2703 -0.0699
 1044SOL    HW114591   3.983   1.028  15.732  1.6673 -0.4186 -0.5008
 1044SOL    HW214592   3.896   0.994  15.845 -0.5222  0.3877 -1.7810
 1045SOL     OW14593   2.737   0.117   6.024  0.0375 -0.1419  0.1296
 1045SOL    HW114594   2.805   0.181   6.047 -0.8659  0.0420  2.2356
 1045SOL    HW214595   2.773   0.079   5.944 -0.0644 -1.7844  0.8692
 1046SOL     OW14596   2.303   4.400   0.908 -0.2723  0.2016 -0.4864
 1046SOL    HW114597   2.325   4.316   0.867  0.1451 -0.7459  1.6586
 1046SOL    HW214598   2.362   4.468   0.875  0.4203  0.8077  1.9808
 1047SOL     OW14599   3.976   3.639   9.003  0.1176  0.1787  0.0193
 1047SOL    HW114600   3.972   3.586   8.923  0.1557 -0.8192  0.6693
 1047SOL    HW214601   3.930   3.717   8.973  2.1414  2.1535  2.0310
 1048SOL     OW14602   1.318   3.081   2.422 -1.0339  0.4594 -0.7667
 1048SOL    HW114603   1.350   3.011   2.479  0.1889  1.8860  0.3012
 1048SOL    HW214604   1.332   3.042   2.336 -1.9076  2.8293 -1.9820
 1049SOL     OW14605   4.315   2.165   9.282  0.0286 -0.4085 -0.4565
 1049SOL    HW114606   4.249   2.206   9.337 -0.0750  2.7791 -2.9317
 1049SOL    HW214607   4.268   2.155   9.199  1.4673  1.0109 -1.4336
 1050SOL     OW14608   3.409   1.237   9.423 -0.0145  0.3004  0.0865
 1050SOL    HW114609   3.493   1.231   9.468  0.3442 -1.9875 -0.8994
 1050SOL    HW214610   3.361   1.283   9.491  0.8299  0.9902  0.2158
 1051SOL     OW14611   2.303   1.384   8.313  0.5291 -0.0072 -0.0029
 1051SOL    HW114612   2.390   1.352   8.289  0.8122 -0.9486  2.2870
 1051SOL    HW214613   2.327   1.372   8.405 -0.1357 -1.0420  0.0379
 1052SOL     OW14614   4.087   3.804  11.237  0.1354 -0.4498  0.2318
 1052SOL    HW114615   4.023   3.873  11.252 -0.3867 -0.6434 -1.0614
 1052SOL    HW214616   4.053   3.751  11.309  4.8054 -2.2416  1.1484
 1053SOL     OW14617   3.017   4.659   5.903 -0.2944 -0.3448  0.1177
 1053SOL    HW114618   2.981   4.670   5.991  1.2335 -0.2623  0.7288
 1053SOL    HW214619   3.111   4.673   5.917 -0.5075  0.1675  1.0741
 1054SOL     OW14620   3.326   1.883   1.775 -0.0843  0.0052 -0.1037
 1054SOL    HW114621   3.407   1.835   1.789 -0.2122  0.0373  0.6948
 1054SOL    HW214622   3.319   1.866   1.681  1.4848 -0.9193 -0.0653
 1055SOL     OW14623   1.282   0.590   5.388  0.7708  0.2116  0.3599
 1055SOL    HW114624   1.325   0.552   5.311 -0.4767  0.6529 -0.5479
 1055SOL    HW214625   1.242   0.517   5.436 -0.0238  0.0499 -0.5402
 1056SOL     OW14626   0.762   3.049   3.150 -0.2054  0.4123  0.1620
 1056SOL    HW114627   0.753   3.110   3.077 -1.3142 -0.7906 -0.7230
 1056SOL    HW214628   0.734   2.971   3.102  3.8826  0.2284 -1.9912
 1057SOL     OW14629   0.619   4.394   8.355 -0.0054 -0.7342 -0.1826
 1057SOL    HW114630   0.603   4.474   8.305 -2.2370 -0.7670  0.5157
 1057SOL    HW214631   0.679   4.339   8.304 -0.1733 -1.2565  0.1871
 1058SOL     OW14632   4.319   3.757  14.135  0.2640  0.2417  0.4559
 1058SOL    HW114633   4.322   3.817  14.061 -0.3906  0.3042  0.4775
 1058SOL    HW214634   4.296   3.673  14.097 -1.3482  1.1085 -0.5023
 1059SOL     OW14635   4.084   2.024   7.610  0.5146  0.1802 -0.0030
 1059SOL    HW114636   4.125   1.953   7.561  2.2537 -0.1398  1.8936
 1059SOL    HW214637   3.996   2.023   7.573  1.1705 -0.4348 -1.5244
 1060SOL     OW14638   1.083   2.942  14.068 -0.5300  0.2629  0.6717
 1060SOL    HW114639   1.163   2.925  14.018 -0.8966  0.1497  0.1223
 1060SOL    HW214640   1.028   2.877  14.024 -0.7452  1.4014 -0.7526
 1061SOL     OW14641   0.177   1.769   6.179 -0.3729 -0.2964 -0.3703
 1061SOL    HW114642   0.155   1.766   6.086  0.9656  1.4960 -0.7519
 1061SOL    HW214643   0.094   1.768   6.226  0.1983 -0.6934  0.6461
 1062SOL     OW14644   1.865   2.054   9.340  0.3014  0.3736  0.0127
 1062SOL    HW114645   1.831   2.123   9.397 -0.6935  0.8906 -1.1911
 1062SOL    HW214646   1.789   2.007   9.305  0.4323  0.0240  0.1997
 1063SOL     OW14647   4.446   4.363   5.860 -0.0476 -0.6203 -0.0049
 1063SOL    HW114648   4.386   4.332   5.792  2.1145  1.2992 -2.7783
 1063SOL    HW214649   4.526   4.348   5.811  0.2397  0.3414  0.1764
 1064SOL     OW14650   1.222   2.089   3.416  0.2281  0.2705 -0.1442
 1064SOL    HW114651   1.177   2.053   3.492  2.0017 -0.3369  0.6041
 1064SOL    HW214652   1.148   2.145   3.391 -0.0461 -1.4594 -3.1759
 1065SOL     OW14653   1.308   4.061   0.856 -0.0889 -0.2108 -0.3987
 1065SOL    HW114654   1.376   3.997   0.878 -0.6931 -1.0339 -0.9263
 1065SOL    HW214655   1.288   4.051   0.763  1.7240  1.2789 -0.9627
 1066SOL     OW14656   2.564   3.682   3.984  0.3848 -0.3889 -0.3794
 1066SOL    HW114657   2.595   3.703   4.072 -0.6340 -0.3046 -0.0375
 1066SOL    HW214658   2.644   3.649   3.942  1.9241  3.0186 -0.1000
 1067SOL     OW14659   1.594   3.183   7.698  0.1321 -0.1670 -0.0468
 1067SOL    HW114660   1.619   3.151   7.784 -1.6242 -0.9515  0.1743
 1067SOL    HW214661   1.550   3.267   7.714 -1.8804 -1.4382  1.0212
 1068SOL     OW14662   4.265   0.921   6.318  0.1775 -0.1969  0.2403
 1068SOL    HW114663   4.334   0.855   6.317  2.2368  1.9583  1.3824
 1068SOL    HW214664   4.246   0.925   6.225 -1.9794  2.1677  0.7898
 1069SOL     OW14665   3.659   3.084  15.408 -0.3590  0.0527 -0.1700
 1069SOL    HW114666   3.730   3.083  15.473  0.2891 -2.3770 -0.9305
 1069SOL    HW214667   3.657   3.177  15.387 -2.1619  0.1424  0.3623
 1070SOL     OW14668   0.632   3.251  10.565 -0.2967  0.6318 -0.7242
 1070SOL    HW114669   0.722   3.219  10.576 -0.9186 -0.7876  0.2279
 1070SOL    HW214670   0.639   3.346  10.570 -0.3389  0.4845  1.9257
 1071SOL     OW14671   2.972   2.301   1.053  0.4280  0.5264 -0.5446
 1071SOL    HW114672   2.998   2.232   1.113 -1.0998 -0.1303 -0.6416
 1071SOL    HW214673   2.918   2.357   1.109  0.6253  1.0471 -0.8682
 1072SOL     OW14674   2.890   3.022   5.501 -0.0324  0.2234 -0.1153
 1072SOL    HW114675   2.904   2.928   5.511  3.0304  0.5570 -1.1979
 1072SOL    HW214676   2.795   3.028   5.510  0.0057 -0.0610  0.4958
 1073SOL     OW14677   1.108   0.539   2.951 -0.2104  0.1435  0.4138
 1073SOL    HW114678   1.147   0.497   2.874  1.3348  1.8510  0.2544
 1073SOL    HW214679   1.077   0.462   2.998 -0.6552  1.1832  1.8129
 1074SOL     OW14680   0.357   4.226   8.779  0.1012  0.6849 -0.1294
 1074SOL    HW114681   0.435   4.276   8.755 -0.4258  1.7044  0.2434
 1074SOL    HW214682   0.358   4.171   8.701  0.6857  1.5246 -0.7192
 1075SOL     OW14683   0.976   2.156  15.362  0.0780 -0.2423  0.1658
 1075SOL    HW114684   0.971   2.076  15.415 -1.8725  0.6601  1.3404
 1075SOL    HW214685   1.057   2.144  15.312  0.6484  1.1805  0.7433
 1076SOL     OW14686   1.783   2.675  10.903  0.0804 -0.2182 -0.2635
 1076SOL    HW114687   1.876   2.659  10.919  0.1158 -1.4845 -1.7734
 1076SOL    HW214688   1.772   2.770  10.910 -0.0836 -0.1494 -1.4314
 1077SOL     OW14689   3.811   3.321   8.458 -0.4825 -0.2076 -0.0867
 1077SOL    HW114690   3.738   3.377   8.487  0.0528  0.2366  0.3874
 1077SOL    HW214691   3.814   3.350   8.367 -0.4354 -0.0240 -0.0272
 1078SOL     OW14692   1.392   1.176   3.540  0.3731  0.4204 -0.1111
 1078SOL    HW114693   1.443   1.235   3.595 -1.5140  0.9688  1.0512
 1078SOL    HW214694   1.419   1.221   3.460  0.7222 -3.5260 -2.2322
 1079SOL     OW14695   0.462   2.718   5.312 -0.5654 -0.2932  0.3777
 1079SOL    HW114696   0.536   2.658   5.313 -0.8740 -0.6744  0.0586
 1079SOL    HW214697   0.512   2.799   5.328  2.5325 -1.7708 -1.7291
 1080SOL     OW14698   4.168   3.950   1.271 -0.0358  0.0573 -0.3749
 1080SOL    HW114699   4.077   3.928   1.250  0.3142 -0.8531 -0.9304
 1080SOL    HW214700   4.159   4.041   1.299  1.3825  0.0295  0.1549
 1081SOL     OW14701   3.517   0.059   5.825  0.3120  0.0770  0.1607
 1081SOL    HW114702   3.577   0.124   5.864  2.4701 -1.7893 -0.0315
 1081SOL    HW214703   3.513   0.096   5.737 -1.9008 -1.0155 -0.1803
 1082SOL     OW14704   1.157   3.319  15.044 -0.1079 -0.0776  0.0637
 1082SOL    HW114705   1.129   3.296  15.132 -1.8693 -1.5884 -0.9012
 1082SOL    HW214706   1.147   3.231  15.008 -2.2277  1.3616 -2.9444
 1083SOL     OW14707   1.436   3.921   5.625 -0.1484  0.8090 -0.4613
 1083SOL    HW114708   1.382   3.952   5.697 -0.5121 -1.9185  0.4694
 1083SOL    HW214709   1.373   3.888   5.560 -1.4305 -1.1798  1.7892
 1084SOL     OW14710   1.068   2.503   6.803 -0.4858  0.5876 -0.3697
 1084SOL    HW114711   1.070   2.472   6.894 -0.4043  0.0221 -0.5631
 1084SOL    HW214712   1.147   2.468   6.763 -1.7429  0.2295 -2.5651
 1085SOL     OW14713   4.233   0.770  11.788 -0.6627 -0.5794  0.1310
 1085SOL    HW114714   4.318   0.763  11.831  0.2529 -2.0976 -1.9036
 1085SOL    HW214715   4.192   0.686  11.807 -1.3751 -0.6579 -1.7066
 1086SOL     OW14716   3.668   0.083   5.480  0.4336  0.0838  0.6599
 1086SOL    HW114717   3.602   0.143   5.514  0.2151  0.8309 -1.1324
 1086SOL    HW214718   3.723   0.144   5.431  0.0017 -0.3124 -0.3203
 1087SOL     OW14719   4.035   0.379  10.735  0.2346  0.4675 -0.7588
 1087SOL    HW114720   4.057   0.298  10.688  0.0814  1.3666 -2.3631
 1087SOL    HW214721   4.103   0.443  10.716 -0.4722  1.7632  1.0521
 1088SOL     OW14722   1.383   4.487  16.718  0.0834 -0.3927  0.0930
 1088SOL    HW114723   1.387   4.526  16.805  0.5016  0.8363 -0.4750
 1088SOL    HW214724   1.473   4.504  16.690 -1.0667  1.1161 -2.6615
 1089SOL     OW14725   2.333   0.717  14.815 -0.3765  0.1573  1.0794
 1089SOL    HW114726   2.335   0.710  14.720 -3.1224  0.8248  0.9680
 1089SOL    HW214727   2.259   0.778  14.826  0.4945  1.2055  1.1754
 1090SOL     OW14728   1.247   1.613   6.359 -0.6093  0.5127  0.6324
 1090SOL    HW114729   1.204   1.583   6.439  0.8237 -0.4947  1.0257
 1090SOL    HW214730   1.177   1.665   6.319  0.9185 -0.1228 -2.9045
 1091SOL     OW14731   2.879   2.484   2.946  0.0159 -0.5755 -0.2800
 1091SOL    HW114732   2.924   2.486   3.031  1.2134 -1.8699 -0.8912
 1091SOL    HW214733   2.839   2.570   2.935 -1.6707 -1.3579 -0.3470
 1092SOL     OW14734   3.884   4.601   1.553  0.1119 -0.1246 -0.1186
 1092SOL    HW114735   3.793   4.589   1.577 -0.0775  0.5939 -0.4759
 1092SOL    HW214736   3.899   4.693   1.530 -0.6648 -0.0023 -0.1381
 1093SOL     OW14737   1.266   1.257  15.352  0.5944 -0.2490  0.7354
 1093SOL    HW114738   1.266   1.178  15.405 -0.7477 -0.0562  1.0300
 1093SOL    HW214739   1.174   1.283  15.354  1.1229  1.4356  3.1368
 1094SOL     OW14740   2.995   3.974   9.909 -0.6534  0.7849  0.0999
 1094SOL    HW114741   3.066   3.965   9.974  1.6164 -2.3072 -2.7885
 1094SOL    HW214742   2.963   3.885   9.897  2.5422 -0.6135  1.9275
 1095SOL     OW14743   2.397   1.954   8.773  0.3869 -0.1121  0.3075
 1095SOL    HW114744   2.387   1.894   8.847 -1.8745  2.9561  2.4621
 1095SOL    HW214745   2.483   1.989   8.795 -0.0613  0.5282  1.0148
 1096SOL     OW14746   4.361   0.666   4.934  0.1250 -0.1345 -0.1598
 1096SOL    HW114747   4.410   0.597   4.980 -0.1822 -0.6869 -0.6535
 1096SOL    HW214748   4.362   0.628   4.846  0.2439  3.3253 -1.6594
 1097SOL     OW14749   0.320   4.014   6.042  0.2404  0.1671 -0.4756
 1097SOL    HW114750   0.370   4.048   6.116 -0.2062 -0.5336  0.1478
 1097SOL    HW214751   0.381   4.008   5.969 -0.7587  0.1132 -1.2997
 1098SOL     OW14752   1.731   3.400   7.352  0.6027 -0.0832 -0.3111
 1098SOL    HW114753   1.740   3.315   7.395 -0.9038  0.0994  0.3691
 1098SOL    HW214754   1.782   3.390   7.272 -0.9981 -4.6337 -0.7687
 1099SOL     OW14755   1.674   2.110   4.806 -0.0574  0.1226  0.1247
 1099SOL    HW114756   1.685   2.202   4.830 -1.3850  0.8646 -2.1248
 1099SOL    HW214757   1.722   2.061   4.873  0.1860  2.2967  1.5557
 1100SOL     OW14758   2.738   1.542   5.584 -0.4742  0.0761  0.4969
 1100SOL    HW114759   2.745   1.518   5.492  0.8636  0.6003  0.4725
 1100SOL    HW214760   2.643   1.548   5.594 -0.4855 -0.2915  0.6036
 1101SOL     OW14761   4.367   0.952   6.784  0.4071 -0.2647  0.6150
 1101SOL    HW114762   4.460   0.974   6.788  0.8200 -2.2386  2.2242
 1101SOL    HW214763   4.343   0.987   6.870 -1.3529  0.6543 -0.2732
 1102SOL     OW14764   3.389   4.258   5.837  0.0493  0.2922  0.5704
 1102SOL    HW114765   3.426   4.333   5.791  0.5098  0.1549  0.7210
 1102SOL    HW214766   3.324   4.297   5.895  0.3864  1.9414 -0.1752
 1103SOL     OW14767   1.906   2.130   5.348 -0.2554 -0.0189 -0.4124
 1103SOL    HW114768   1.837   2.137   5.283 -0.2969  2.7693 -0.0397
 1103SOL    HW214769   1.860   2.153   5.429  0.9783 -0.1101  0.3133
 1104SOL     OW14770   1.153   2.197   3.667 -0.2387  0.2806  0.5920
 1104SOL    HW114771   1.201   2.248   3.602  1.8840  0.0681  1.9917
 1104SOL    HW214772   1.095   2.264   3.706 -1.0501  0.7919 -1.5091
 1105SOL     OW14773   0.210   2.243   3.586 -0.0244  0.1501 -0.2557
 1105SOL    HW114774   0.119   2.221   3.608  0.0609 -0.9466 -0.9921
 1105SOL    HW214775   0.208   2.338   3.590 -0.5837  0.1261  0.0278
 1106SOL     OW14776   3.173   0.326   6.438  0.2743 -0.5007  0.9293
 1106SOL    HW114777   3.096   0.281   6.474 -1.2486 -0.6884 -2.6136
 1106SOL    HW214778   3.139   0.370   6.360  2.5063  1.0596  0.8593
 1107SOL     OW14779   4.216   0.705   6.533 -0.1842 -0.3469  0.5461
 1107SOL    HW114780   4.215   0.790   6.488 -0.7262 -0.6162  0.0492
 1107SOL    HW214781   4.130   0.674   6.504 -0.3562 -0.2477  0.9531
 1108SOL     OW14782   1.312   0.815   5.913 -0.0944  0.1406  0.2704
 1108SOL    HW114783   1.327   0.801   5.820 -2.2002  1.2206 -0.2356
 1108SOL    HW214784   1.357   0.744   5.960  1.6197  0.7626 -0.4341
 1109SOL     OW14785   3.808   3.680   6.089  0.2852  0.0948  0.1079
 1109SOL    HW114786   3.836   3.730   6.012  1.0266  2.3319  1.8035
 1109SOL    HW214787   3.751   3.613   6.052  2.8294  0.1960 -3.8952
 1110SOL     OW14788   4.082   3.339   8.705  0.8175 -0.3824 -1.0520
 1110SOL    HW114789   4.160   3.331   8.760 -0.6923  0.2942  1.2226
 1110SOL    HW214790   4.121   3.345   8.618  1.0899  2.2096 -0.7640
 1111SOL     OW14791   3.679   0.362   2.849  0.4806  0.4130  0.1101
 1111SOL    HW114792   3.635   0.443   2.823 -1.8202 -0.8564 -0.0017
 1111SOL    HW214793   3.647   0.297   2.787 -1.6985 -1.6124  3.3472
 1112SOL     OW14794   1.396   0.092   5.647 -0.8704  0.1326 -0.2585
 1112SOL    HW114795   1.453   0.152   5.696 -1.3926 -0.7813  1.4603
 1112SOL    HW214796   1.380   0.136   5.564 -0.2087  2.2462  0.7028
 1113SOL     OW14797   1.674   4.630  15.973 -0.1668 -0.2930 -0.3658
 1113SOL    HW114798   1.696   4.543  16.008 -1.1246 -0.7293 -0.8716
 1113SOL    HW214799   1.762   4.667  15.974 -0.2597 -0.0799 -0.2714
 1114SOL     OW14800   4.146   2.786   7.958  0.2610  0.1550 -0.1483
 1114SOL    HW114801   4.196   2.823   8.030 -0.9495 -0.1308  0.8518
 1114SOL    HW214802   4.130   2.695   7.982 -1.6871  0.2593 -1.0430
 1115SOL     OW14803   2.876   4.263  11.871  0.1063  1.0362  0.0696
 1115SOL    HW114804   2.826   4.303  11.942  2.2481 -0.8443  2.6580
 1115SOL    HW214805   2.842   4.175  11.892  1.1345  0.7327  0.4525
 1116SOL     OW14806   1.430   3.313   7.235  0.3335 -0.1135  0.4281
 1116SOL    HW114807   1.433   3.219   7.215 -1.2119  0.2737 -1.5345
 1116SOL    HW214808   1.523   3.330   7.253  0.1891  1.3836 -0.3157
 1117SOL     OW14809   2.216   4.475   9.884 -0.7033  0.2718  0.0752
 1117SOL    HW114810   2.297   4.436   9.853 -1.4350 -0.5986 -0.7682
 1117SOL    HW214811   2.249   4.539   9.947  0.6182  0.0970 -0.4504
 1118SOL     OW14812   4.080   0.008   3.444 -0.1903 -0.7323 -0.3679
 1118SOL    HW114813   4.117   4.689   3.522  0.4827 -0.0237 -0.3061
 1118SOL    HW214814   3.990   0.015   3.474  0.4128 -0.5752  1.4153
 1119SOL     OW14815   2.895   2.559   8.874 -0.6716  0.1301 -0.0368
 1119SOL    HW114816   2.861   2.584   8.960  1.2190 -0.4997  0.8847
 1119SOL    HW214817   2.985   2.583   8.895 -0.9400  2.0875 -1.1536
 1120SOL     OW14818   3.676   3.417  13.368  0.3788  0.6627  1.1642
 1120SOL    HW114819   3.631   3.467  13.300 -0.0269 -0.7609  0.3806
 1120SOL    HW214820   3.697   3.339  13.317  0.1627  0.5468  1.2565
 1121SOL     OW14821   3.846   4.462   2.458 -0.2234  0.2323  0.4072
 1121SOL    HW114822   3.841   4.467   2.362  1.3334  0.7289  0.3604
 1121SOL    HW214823   3.913   4.396   2.472  0.5199  0.6193 -1.2767
 1122SOL     OW14824   3.374   2.558   2.647  0.1947 -0.1083 -0.2417
 1122SOL    HW114825   3.398   2.565   2.740 -2.6309 -0.1907  0.5174
 1122SOL    HW214826   3.288   2.518   2.660  1.2431 -1.6836  1.7837
 1123SOL     OW14827   1.031   1.345  15.926  0.5904 -0.2025 -0.2497
 1123SOL    HW114828   1.014   1.378  16.014  2.4502 -0.3502  0.1646
 1123SOL    HW214829   1.073   1.260  15.937  0.7689 -0.0610  0.1459
 1124SOL     OW14830   0.506   3.101   1.267  0.8359  0.1372 -0.1189
 1124SOL    HW114831   0.573   3.164   1.241  1.4256 -0.2833  0.3733
 1124SOL    HW214832   0.435   3.160   1.292  0.9476 -0.1139  0.8074
 1125SOL     OW14833   1.547   2.858   5.153 -0.3541  0.1524 -0.0670
 1125SOL    HW114834   1.543   2.901   5.239 -1.0878  0.9061 -0.4815
 1125SOL    HW214835   1.458   2.877   5.124 -1.2134 -2.4604  0.8351
 1126SOL     OW14836   3.782   4.141  13.282  0.3088 -0.3632  0.3948
 1126SOL    HW114837   3.804   4.090  13.360  2.1878  2.4019  1.6596
 1126SOL    HW214838   3.693   4.162  13.310  0.8902  1.1504  1.0955
 1127SOL     OW14839   3.540   3.491   6.879  0.5635  0.0891 -0.0316
 1127SOL    HW114840   3.526   3.521   6.789  0.2098  0.1673  0.0507
 1127SOL    HW214841   3.457   3.455   6.909  1.5418 -0.6796  1.7547
 1128SOL     OW14842   4.138   2.202   4.026  0.6439 -0.3147 -0.2146
 1128SOL    HW114843   4.047   2.171   4.023  0.0914  1.3091 -0.3257
 1128SOL    HW214844   4.162   2.232   3.938  1.1374 -5.9117 -1.9805
 1129SOL     OW14845   3.123   4.505   6.806 -0.2209  0.5858 -0.0527
 1129SOL    HW114846   3.073   4.585   6.815 -0.9611  0.0220  0.8173
 1129SOL    HW214847   3.124   4.459   6.890  2.1120 -1.2581 -1.0722
 1130SOL     OW14848   1.884   2.771   7.955  0.1113  0.2897 -0.3350
 1130SOL    HW114849   1.855   2.736   7.871  0.8004 -0.4477 -0.2739
 1130SOL    HW214850   1.798   2.766   7.997  0.9184 -2.5579  1.0046
 1131SOL     OW14851   4.153   3.910   4.560  0.4221  0.4548  0.3424
 1131SOL    HW114852   4.183   3.853   4.489 -0.6636  1.2169 -0.7096
 1131SOL    HW214853   4.200   3.992   4.545  1.2115 -0.0984 -0.2216
 1132SOL     OW14854   1.916   2.267   8.465  0.5112  0.6534  0.3932
 1132SOL    HW114855   1.888   2.358   8.467 -1.9888 -0.1081 -0.5234
 1132SOL    HW214856   2.003   2.272   8.506  2.0071 -0.2598 -2.6453
 1133SOL     OW14857   0.140   1.058   7.671  0.0588  0.3605  0.1329
 1133SOL    HW114858   0.201   0.992   7.703 -1.5431 -1.1270  0.0720
 1133SOL    HW214859   0.099   1.084   7.753  1.0185 -0.0803  0.7445
 1134SOL     OW14860   1.398   0.881   7.825 -0.2763  0.7960 -0.0926
 1134SOL    HW114861   1.472   0.939   7.844 -0.3398  0.7962  0.1559
 1134SOL    HW214862   1.360   0.887   7.913  1.1013  1.7349  0.4264
 1135SOL     OW14863   2.772   4.080   8.534  0.3011 -0.2943  0.2410
 1135SOL    HW114864   2.804   4.027   8.607 -3.5591 -1.0412  1.3763
 1135SOL    HW214865   2.715   4.138   8.585 -1.2490 -2.2019  0.6729
 1136SOL     OW14866   3.773   2.991   4.164 -0.3115 -0.4457  0.0548
 1136SOL    HW114867   3.784   2.934   4.088  1.6419 -0.4686  0.3433
 1136SOL    HW214868   3.681   2.971   4.181 -1.5543  4.5187 -1.0986
 1137SOL     OW14869   3.285   0.881  12.767  0.3068  0.0615  0.3169
 1137SOL    HW114870   3.225   0.846  12.832 -0.1507 -0.3478 -0.3280
 1137SOL    HW214871   3.362   0.871  12.824  1.1131  2.0015 -0.4332
 1138SOL     OW14872   3.609   3.119   1.456 -0.2103  0.3581 -0.2324
 1138SOL    HW114873   3.587   3.099   1.547  0.4755  2.4070  0.3973
 1138SOL    HW214874   3.654   3.041   1.425 -0.5740 -0.7194  1.9722
 1139SOL     OW14875   3.318   2.936   1.383 -0.0845  0.5615 -0.5045
 1139SOL    HW114876   3.356   2.848   1.388 -2.5431 -0.4518  0.4731
 1139SOL    HW214877   3.306   2.940   1.477 -2.7777 -0.3756 -0.8060
 1140SOL     OW14878   4.510   1.936   7.087  0.3598 -0.3325 -0.0257
 1140SOL    HW114879   4.474   1.953   7.174 -0.1504  3.1946 -0.9161
 1140SOL    HW214880   4.468   2.006   7.037  0.2079  0.0515  0.6395
 1141SOL     OW14881   4.390   2.624   4.042 -0.2498 -0.0706  0.2724
 1141SOL    HW114882   4.350   2.636   3.956  1.8312 -3.0239 -1.1155
 1141SOL    HW214883   4.478   2.658   4.025 -0.5870  0.0329 -1.2101
 1142SOL     OW14884   2.943   1.545   1.984  0.1596 -0.5387  0.0613
 1142SOL    HW114885   2.884   1.593   1.926 -0.0546  0.6460  1.2675
 1142SOL    HW214886   3.024   1.595   1.975  2.1563 -3.4463  1.6841
 1143SOL     OW14887   3.517   2.985   5.308  0.2616 -0.1504 -0.7195
 1143SOL    HW114888   3.507   2.902   5.355 -1.5991 -1.4784 -3.4307
 1143SOL    HW214889   3.467   3.043   5.365  3.2376 -0.0168  1.7393
 1144SOL     OW14890   0.966   3.224   1.286 -0.2758 -0.3501  0.7291
 1144SOL    HW114891   0.900   3.163   1.318  0.7815 -0.2228  3.1552
 1144SOL    HW214892   1.027   3.227   1.360  0.8967 -1.4531 -0.2108
 1145SOL     OW14893   2.098   0.245   6.679  0.2811  0.7263  0.4799
 1145SOL    HW114894   2.114   0.155   6.709 -1.4642  0.5153  0.7755
 1145SOL    HW214895   2.097   0.303   6.755  2.0040 -1.1227  1.9432
 1146SOL     OW14896   1.417   1.746  10.777  0.3004  0.5209 -0.2209
 1146SOL    HW114897   1.359   1.774  10.848 -0.9133 -0.5139 -0.8056
 1146SOL    HW214898   1.478   1.694  10.830  1.6518  2.2908 -0.0044
 1147SOL     OW14899   2.935   0.542  10.910  0.1023  0.5871  0.4389
 1147SOL    HW114900   3.012   0.503  10.868 -1.1820 -0.4995 -0.9180
 1147SOL    HW214901   2.915   0.613  10.850 -0.9455 -0.1459 -0.0832
 1148SOL     OW14902   1.693   1.300  17.103  0.4350  0.4082  0.4495
 1148SOL    HW114903   1.743   1.225  17.072 -0.0949  0.5409 -0.7073
 1148SOL    HW214904   1.768   1.360  17.110  1.8514 -1.3943  0.6934
 1149SOL     OW14905   0.054   4.441  17.226 -0.2835 -0.1502  0.2112
 1149SOL    HW114906   4.692   4.430  17.269  0.7305  0.3831  2.3284
 1149SOL    HW214907   0.025   4.439  17.135  1.3138 -1.7746 -0.2629
 1150SOL     OW14908   3.848   0.274   7.971  0.0405 -0.1277  0.5144
 1150SOL    HW114909   3.755   0.260   7.951  0.1064  0.0876  0.0700
 1150SOL    HW214910   3.855   0.359   8.015  0.9872 -1.3173  2.6500
 1151SOL     OW14911   3.575   1.384   2.637  0.1770 -0.3968 -0.3383
 1151SOL    HW114912   3.505   1.341   2.588 -0.8073  0.5129  0.2761
 1151SOL    HW214913   3.653   1.353   2.591  0.3710  1.0437 -0.9642
 1152SOL     OW14914   4.352   1.620   1.591  1.1668 -0.4977  0.1676
 1152SOL    HW114915   4.266   1.643   1.627  0.7682 -2.6939  0.6092
 1152SOL    HW214916   4.377   1.695   1.537 -0.4354  1.4235  2.0646
 1153SOL     OW14917   0.654   3.080   0.921 -0.1316  0.5468 -0.1587
 1153SOL    HW114918   0.668   3.006   0.980 -0.2244  1.5151  1.0977
 1153SOL    HW214919   0.693   3.150   0.973 -0.1696  1.0628 -0.8220
 1154SOL     OW14920   0.570   3.823  15.988  0.1441  0.3922  0.2895
 1154SOL    HW114921   0.512   3.750  16.009  1.4772 -0.8618 -0.4151
 1154SOL    HW214922   0.570   3.826  15.893  1.5795 -0.9290  0.2437
 1155SOL     OW14923   1.552   0.815  10.526  0.2826 -0.0177 -0.0215
 1155SOL    HW114924   1.621   0.841  10.586 -0.0875 -0.2813  0.5240
 1155SOL    HW214925   1.483   0.818  10.593 -1.3623 -0.0532 -1.7173
 1156SOL     OW14926   4.132   0.458  16.984 -0.3931  0.4283 -0.1150
 1156SOL    HW114927   4.113   0.392  17.051 -0.8599  0.1999 -0.4757
 1156SOL    HW214928   4.049   0.497  16.960 -0.2794 -0.2244 -1.5609
 1157SOL     OW14929   3.856   2.213  11.791  0.5961 -0.2702 -0.2885
 1157SOL    HW114930   3.780   2.156  11.803  1.1304 -1.5752 -3.1850
 1157SOL    HW214931   3.921   2.170  11.847  0.6775 -0.7616 -0.7567
 1158SOL     OW14932   0.362   1.467   0.381  0.0111  0.2564 -0.0899
 1158SOL    HW114933   0.419   1.391   0.395  0.0499 -0.0514 -1.8327
 1158SOL    HW214934   0.363   1.473   0.285  0.3391  0.8483 -0.0521
 1159SOL     OW14935   3.555   1.803  16.718 -0.0563  0.4683  0.1012
 1159SOL    HW114936   3.463   1.800  16.693 -0.5240  0.9723  1.7451
 1159SOL    HW214937   3.602   1.754  16.651 -0.8165  1.5913 -1.2742
 1160SOL     OW14938   0.636   2.574   6.148 -0.5193  0.0623  0.3792
 1160SOL    HW114939   0.631   2.501   6.210  0.1955  1.5552  2.2037
 1160SOL    HW214940   0.723   2.564   6.111 -1.1797  0.3788 -1.2595
 1161SOL     OW14941   2.259   1.755   2.847  0.4440 -0.5584  0.0584
 1161SOL    HW114942   2.175   1.773   2.887 -0.7494 -2.2733 -1.6896
 1161SOL    HW214943   2.232   1.678   2.796 -1.8776  0.8309 -0.7878
 1162SOL     OW14944   0.636   0.627  15.722 -0.1668 -0.4230  0.4922
 1162SOL    HW114945   0.690   0.626  15.643  0.8217  1.3480  1.1691
 1162SOL    HW214946   0.620   0.534  15.739  0.1337 -0.8001 -1.2672
 1163SOL     OW14947   2.739   0.943   2.883  0.2889 -0.4227  0.0059
 1163SOL    HW114948   2.666   0.889   2.913  1.0990 -0.3618  2.0565
 1163SOL    HW214949   2.783   0.965   2.965 -1.8963  0.1610  1.0185
 1164SOL     OW14950   0.062   4.677  11.621  0.7122 -0.6236  0.2484
 1164SOL    HW114951   0.001   4.640  11.557  0.2182  1.8439 -0.6818
 1164SOL    HW214952   0.020   4.660  11.705 -1.3502 -0.6886 -0.8128
 1165SOL     OW14953   3.455   0.082   1.547  0.0726 -0.4506  0.7314
 1165SOL    HW114954   3.540   0.080   1.592  0.9422 -0.3999 -0.8953
 1165SOL    HW214955   3.398   0.098   1.622 -0.7203 -2.2776  0.5144
 1166SOL     OW14956   4.031   1.032   3.532 -0.1257  0.0176  0.0627
 1166SOL    HW114957   3.937   1.050   3.527 -0.2222 -0.9213 -1.6842
 1166SOL    HW214958   4.057   1.105   3.477  0.5017 -0.6854 -0.5834
 1167SOL     OW14959   3.588   2.953   7.742 -0.9091 -0.1099  0.3727
 1167SOL    HW114960   3.655   3.014   7.712 -0.0169 -1.6299 -0.7680
 1167SOL    HW214961   3.616   2.943   7.833  1.9565  1.1134 -0.3829
 1168SOL     OW14962   2.885   4.384   9.877 -0.0129 -0.1391  0.1472
 1168SOL    HW114963   2.856   4.306   9.831 -0.0381 -0.3236  0.4737
 1168SOL    HW214964   2.978   4.360   9.885 -0.4677 -2.0086 -0.1608
 1169SOL     OW14965   0.504   2.370   6.293 -0.1897  0.2378  0.6285
 1169SOL    HW114966   0.480   2.459   6.265 -1.2023 -0.1828  0.1498
 1169SOL    HW214967   0.424   2.344   6.339  0.0191 -0.4550  0.6026
 1170SOL     OW14968   4.279   1.783   4.818 -0.0834 -0.0547  0.4592
 1170SOL    HW114969   4.362   1.767   4.774 -0.3561  0.6226 -0.2963
 1170SOL    HW214970   4.226   1.796   4.740 -0.2205  0.2461  0.6030
 1171SOL     OW14971   1.326   1.280   5.799  0.4869 -0.0142 -0.3975
 1171SOL    HW114972   1.332   1.186   5.782  0.7711  0.2314 -1.7359
 1171SOL    HW214973   1.314   1.276   5.893  0.6630  0.3556 -0.3591
 1172SOL     OW14974   1.585   2.354   1.688  0.6144  0.0098  0.2598
 1172SOL    HW114975   1.546   2.412   1.754  1.0404  0.6152 -0.0193
 1172SOL    HW214976   1.675   2.377   1.667  0.1000  0.2852 -1.6283
 1173SOL     OW14977   0.234   2.574   2.750  0.1427 -0.5685 -0.2596
 1173SOL    HW114978   0.229   2.504   2.815  0.0793 -1.5971 -1.3917
 1173SOL    HW214979   0.328   2.590   2.745 -0.0569 -0.6911 -4.0938
 1174SOL     OW14980   0.326   3.868  11.238 -0.0821 -0.3099 -0.2806
 1174SOL    HW114981   0.401   3.808  11.239  1.4839  1.7451  3.9056
 1174SOL    HW214982   0.270   3.825  11.303 -0.4678  0.3441 -0.1836
 1175SOL     OW14983   0.271   3.804   3.684 -0.0344  0.4883  0.1240
 1175SOL    HW114984   0.339   3.851   3.636  0.7961 -2.4273 -1.5377
 1175SOL    HW214985   0.330   3.779   3.755 -0.8181  1.3996  1.0853
 1176SOL     OW14986   3.703   1.392   8.771  0.1599 -0.7675 -0.1875
 1176SOL    HW114987   3.654   1.443   8.836  0.8033  2.6603 -2.3663
 1176SOL    HW214988   3.651   1.411   8.693  0.8662  0.6216 -0.3178
 1177SOL     OW14989   2.241   1.001   2.765 -0.2749 -0.5171  0.2376
 1177SOL    HW114990   2.239   1.025   2.857 -0.2421  0.5795 -0.0501
 1177SOL    HW214991   2.153   1.024   2.736 -0.3129  0.3728  1.0998
 1178SOL     OW14992   0.732   4.070   8.076  0.3893  0.3845  0.0926
 1178SOL    HW114993   0.669   4.112   8.134  0.9955 -1.5060  2.1207
 1178SOL    HW214994   0.811   4.112   8.111  0.2695  1.4073 -0.8679
 1179SOL     OW14995   0.317   0.247   3.453  0.5010 -0.4541 -0.2719
 1179SOL    HW114996   0.234   0.290   3.432  1.5884 -0.7369 -5.1004
 1179SOL    HW214997   0.319   0.160   3.412  0.1736 -1.5378  2.0329
 1180SOL     OW14998   2.404   4.198   8.316 -0.7596 -0.3977 -1.7534
 1180SOL    HW114999   2.412   4.292   8.330 -0.1194 -0.8317  0.7386
 1180SOL    HW215000   2.313   4.196   8.347 -0.1790  1.6204  0.0780
 1181SOL     OW15001   4.642   1.991   5.873 -0.4606  0.1456 -0.0461
 1181SOL    HW115002   4.550   1.965   5.883  0.1955 -1.8245  0.7928
 1181SOL    HW215003   4.638   2.071   5.927 -0.8851  0.8106 -1.0602
 1182SOL     OW15004   3.342   3.675   7.734  0.0567 -0.1729  0.0765
 1182SOL    HW115005   3.365   3.635   7.817  0.7587  0.6972  0.3001
 1182SOL    HW215006   3.392   3.616   7.677 -0.3019 -1.0742  0.7054
 1183SOL     OW15007   0.254   0.515   6.466 -0.2575 -0.0091  0.1950
 1183SOL    HW115008   0.195   0.443   6.486 -0.0822  0.6887  3.2137
 1183SOL    HW215009   0.313   0.506   6.540  0.8211  0.7463 -0.5559
 1184SOL     OW15010   0.981   2.927   4.703 -0.2253  0.9395  0.2260
 1184SOL    HW115011   1.063   2.894   4.666 -0.9102  0.4318 -0.8423
 1184SOL    HW215012   0.999   3.019   4.687 -0.9020  0.9369 -0.5643
 1185SOL     OW15013   2.430   2.139   6.752  0.6005 -1.1454 -0.6022
 1185SOL    HW115014   2.370   2.105   6.818 -0.3391 -1.2822 -1.5240
 1185SOL    HW215015   2.374   2.208   6.717 -0.1097 -0.8431  1.1513
 1186SOL     OW15016   3.942   1.640   4.025  0.5920  0.2107  0.3933
 1186SOL    HW115017   3.975   1.724   4.058 -1.8523  1.3895 -0.1615
 1186SOL    HW215018   3.882   1.670   3.957  0.3271  0.4180  0.7124
 1187SOL     OW15019   2.348   4.054   7.716  0.2585 -0.3459 -0.4792
 1187SOL    HW115020   2.315   4.072   7.804 -0.5033 -1.5468 -0.5355
 1187SOL    HW215021   2.294   3.977   7.703  0.6926 -0.6225 -0.6711
 1188SOL     OW15022   1.325   2.937   7.540  0.8589 -0.2761 -0.1902
 1188SOL    HW115023   1.274   2.866   7.500 -0.5499  0.5449  0.1582
 1188SOL    HW215024   1.267   2.951   7.614 -1.9783 -2.6835 -1.9437
 1189SOL     OW15025   0.289   2.994   9.528  0.5544 -0.1654 -0.4966
 1189SOL    HW115026   0.380   2.965   9.517  0.4678 -0.3948 -0.6008
 1189SOL    HW215027   0.247   2.960   9.450 -1.2306 -0.3011  0.5231
 1190SOL     OW15028   3.503   0.803  10.263  0.7290 -0.2913 -0.7431
 1190SOL    HW115029   3.432   0.799  10.327  2.8234  2.2191  1.7478
 1190SOL    HW215030   3.460   0.787  10.179 -2.1613 -1.3828  0.9474
 1191SOL     OW15031   1.096   1.510   5.520  1.0761  0.7402  0.6468
 1191SOL    HW115032   1.159   1.441   5.540  0.4859  0.1671  0.5201
 1191SOL    HW215033   1.015   1.462   5.537 -0.4394  2.5687 -1.3568
 1192SOL     OW15034   4.279   3.624   4.518  0.5970 -0.8028  0.1088
 1192SOL    HW115035   4.259   3.544   4.469  0.0000 -1.0557  0.7772
 1192SOL    HW215036   4.371   3.609   4.542  1.2322  0.1531 -1.6277
 1193SOL     OW15037   2.470   1.305  15.248  0.0275  0.3939  0.6313
 1193SOL    HW115038   2.515   1.253  15.314 -0.4847 -1.1908 -0.2541
 1193SOL    HW215039   2.387   1.258  15.243 -1.5871  3.3947 -1.3663
 1194SOL     OW15040   1.248   2.677  16.807 -0.4224 -0.4871 -0.0291
 1194SOL    HW115041   1.158   2.675  16.775 -0.5253 -1.1926  0.2899
 1194SOL    HW215042   1.270   2.584  16.796 -1.8883 -0.9646  1.0412
 1195SOL     OW15043   2.794   2.768   6.709 -0.1394 -0.2347  0.4956
 1195SOL    HW115044   2.802   2.816   6.626  0.2699  0.4435  0.9275
 1195SOL    HW215045   2.886   2.745   6.721 -0.1198  0.8783  2.4144
 1196SOL     OW15046   2.161   0.510  10.890  0.3787  0.2863 -0.6728
 1196SOL    HW115047   2.254   0.497  10.871  0.6786  0.4948  0.6436
 1196SOL    HW215048   2.170   0.501  10.985  1.2388  0.1706 -0.7659
 1197SOL     OW15049   2.520   0.247   6.177  0.1724  0.6584  0.2351
 1197SOL    HW115050   2.563   0.206   6.102  0.3020 -1.0135  1.2144
 1197SOL    HW215051   2.431   0.266   6.148  0.5480 -0.0255 -1.3825
 1198SOL     OW15052   1.436   2.673  17.439  0.3002 -0.4742 -0.3243
 1198SOL    HW115053   1.527   2.675  17.410  0.7104 -1.4856  0.9175
 1198SOL    HW215054   1.394   2.734  17.379  3.2159  1.4460 -0.4409
 1199SOL     OW15055   0.812   2.691   4.223 -0.1902 -0.3115 -0.2626
 1199SOL    HW115056   0.878   2.723   4.161  0.6708 -1.9098 -0.1675
 1199SOL    HW215057   0.735   2.729   4.180 -1.0876 -0.5046  1.1786
 1200SOL     OW15058   3.535   3.713   7.039  0.0421 -0.4129  0.4414
 1200SOL    HW115059   3.534   3.742   6.948 -1.2494  0.4363  0.7297
 1200SOL    HW215060   3.529   3.619   7.022  0.2290 -0.3153 -0.1679
 1201SOL     OW15061   0.518   3.300  14.329 -0.3627  0.0193 -0.1588
 1201SOL    HW115062   0.518   3.347  14.246 -1.5681  0.4692  0.1021
 1201SOL    HW215063   0.586   3.234  14.316  2.4452  3.3107 -2.3076
 1202SOL     OW15064   1.689   3.068   4.802  0.4566 -0.0105  0.3187
 1202SOL    HW115065   1.755   3.014   4.845  1.5351  0.4053 -0.8087
 1202SOL    HW215066   1.737   3.116   4.734  1.0552  0.7211  1.2488
 1203SOL     OW15067   4.091   2.359   1.030  0.2062 -0.5306  0.2281
 1203SOL    HW115068   4.117   2.362   1.122  1.9789 -0.1774 -0.2878
 1203SOL    HW215069   4.164   2.410   0.996 -0.1145 -0.9514 -1.0834
 1204SOL     OW15070   0.435   4.604  12.187 -0.3904  0.0335  0.3706
 1204SOL    HW115071   0.435   4.624  12.094 -1.3173  2.2599  0.8642
 1204SOL    HW215072   0.448   4.510  12.174 -1.2026 -0.4663  3.0756
 1205SOL     OW15073   3.793   2.911   0.189  0.0330 -0.2254  0.0235
 1205SOL    HW115074   3.883   2.896   0.160 -0.6685 -0.2333 -2.1468
 1205SOL    HW215075   3.774   2.824   0.224 -2.9637  0.8563  1.1109
 1206SOL     OW15076   2.457   1.168   4.853  0.3303  0.2323 -0.2723
 1206SOL    HW115077   2.478   1.259   4.875 -2.0014  1.2072 -2.1620
 1206SOL    HW215078   2.413   1.175   4.768  0.4285 -3.4508 -0.6332
 1207SOL     OW15079   3.060   1.845  10.578  1.0350 -0.4960 -0.0722
 1207SOL    HW115080   3.154   1.832  10.568  1.2890  2.2114 -1.1946
 1207SOL    HW215081   3.032   1.882  10.494  0.5735 -2.0064 -0.5895
 1208SOL     OW15082   0.767   4.408   7.246  0.0189 -0.7239  0.4663
 1208SOL    HW115083   0.784   4.406   7.152  1.9129  0.2512  0.7990
 1208SOL    HW215084   0.817   4.330   7.271  0.3165 -0.9692 -0.8934
 1209SOL     OW15085   0.975   2.416   5.775  0.0906  0.2758  0.1676
 1209SOL    HW115086   0.899   2.381   5.821 -2.3633  2.3203 -2.2930
 1209SOL    HW215087   0.985   2.338   5.720 -2.1133  0.6203 -0.7535
 1210SOL     OW15088   2.555   2.719   5.449 -0.1269 -0.1291  0.0561
 1210SOL    HW115089   2.515   2.701   5.534  0.8422 -1.8777  0.1381
 1210SOL    HW215090   2.489   2.672   5.398 -0.4635 -1.6030  1.8203
 1211SOL     OW15091   2.318   2.037   2.881 -0.0676 -0.2285 -0.7218
 1211SOL    HW115092   2.320   1.971   2.951  1.5764 -0.2376 -0.7882
 1211SOL    HW215093   2.280   1.989   2.807 -0.2511  1.3599 -1.6683
 1212SOL     OW15094   0.185   4.056   1.573  0.2437 -0.0003 -0.1226
 1212SOL    HW115095   0.205   4.027   1.483  0.8023 -2.6196  0.8382
 1212SOL    HW215096   0.090   4.062   1.569  0.2371 -1.4844 -2.3169
 1213SOL     OW15097   3.295   4.429   2.711  0.0334  0.3014 -0.2579
 1213SOL    HW115098   3.250   4.509   2.685 -2.0614 -0.6503  0.4785
 1213SOL    HW215099   3.378   4.433   2.662 -0.0645 -0.5660 -0.4955
 1214SOL     OW15100   3.162   0.254   4.135 -0.4348 -0.0830 -0.7139
 1214SOL    HW115101   3.074   0.285   4.155  0.3430  1.1597  0.7844
 1214SOL    HW215102   3.197   0.321   4.076  1.5709 -1.7981 -1.4890
 1215SOL     OW15103   1.282   2.226   1.105  0.2866  0.1707 -0.0428
 1215SOL    HW115104   1.308   2.134   1.111 -2.0963 -0.5682 -0.9601
 1215SOL    HW215105   1.368   2.264   1.090  0.7173 -1.5856 -2.0620
 1216SOL     OW15106   3.454   3.363   8.385  0.2203 -0.4237 -0.0279
 1216SOL    HW115107   3.359   3.371   8.377  0.2079 -0.3105  0.2200
 1216SOL    HW215108   3.471   3.448   8.426 -2.4365  0.0267  0.1267
 1217SOL     OW15109   2.313   3.543   3.324  0.3706  0.1273  0.3970
 1217SOL    HW115110   2.342   3.478   3.387 -0.0441  0.0384  0.4938
 1217SOL    HW215111   2.263   3.605   3.377 -1.8190 -1.1041 -0.2467
 1218SOL     OW15112   3.636   3.524  15.153  0.1729  0.4747 -0.0631
 1218SOL    HW115113   3.636   3.515  15.058  0.7504 -2.2156  0.1699
 1218SOL    HW215114   3.618   3.617  15.160  0.5854  0.5644 -0.2062
 1219SOL     OW15115   1.404   3.226  15.214 -0.5280 -0.4345 -0.0608
 1219SOL    HW115116   1.321   3.186  15.186 -0.6352  0.0924 -0.5059
 1219SOL    HW215117   1.427   3.165  15.284 -1.0063  0.0020  0.4851
 1220SOL     OW15118   3.287   4.581   4.442 -0.2684  0.3854 -0.6742
 1220SOL    HW115119   3.226   4.643   4.402  0.3897  0.3944 -1.6766
 1220SOL    HW215120   3.235   4.540   4.512  0.7976  0.5593  0.2251
 1221SOL     OW15121   0.252   3.993   2.506 -0.3572 -0.1891  0.4519
 1221SOL    HW115122   0.227   3.920   2.564 -0.2362 -0.5979 -0.0096
 1221SOL    HW215123   0.166   4.005   2.464  0.1192  0.5041 -0.3161
 1222SOL     OW15124   4.349   3.317  10.986 -0.0321  0.4244  0.5509
 1222SOL    HW115125   4.378   3.404  10.960  1.4911  0.2918  1.8124
 1222SOL    HW215126   4.274   3.335  11.043 -0.6818  0.3615 -0.2796
 1223SOL     OW15127   3.017   4.042   2.882  0.6049 -0.2339 -0.0527
 1223SOL    HW115128   2.922   4.038   2.875  0.6047  1.0624 -0.8917
 1223SOL    HW215129   3.035   4.128   2.843  2.6377 -0.4629  0.3926
 1224SOL     OW15130   0.130   4.654   9.857  0.4080  0.6484  0.4117
 1224SOL    HW115131   0.086   4.589   9.911  1.1078  0.7400  1.0897
 1224SOL    HW215132   0.218   4.663   9.894  0.1914 -1.0640  1.3279
 1225SOL     OW15133   2.102   4.550   6.410 -0.0592  0.0765  0.2789
 1225SOL    HW115134   2.170   4.492   6.376  0.0127 -0.2644  0.9998
 1225SOL    HW215135   2.056   4.503   6.480  0.8086 -1.7540 -0.3950
 1226SOL     OW15136   0.946   0.850   3.567 -0.1657  0.4211  0.0395
 1226SOL    HW115137   0.972   0.899   3.644 -1.9052  1.1951  0.1293
 1226SOL    HW215138   0.979   0.916   3.506  0.0194 -0.7060 -1.0913
 1227SOL     OW15139   3.154   0.161   8.365  0.1719 -0.5209  0.1455
 1227SOL    HW115140   3.243   0.184   8.338 -0.9126  1.9957 -1.3025
 1227SOL    HW215141   3.177   0.073   8.395  1.7044 -0.4432 -0.7914
 1228SOL     OW15142   0.624   3.274  16.995 -0.3019 -0.2414  0.3969
 1228SOL    HW115143   0.579   3.223  16.928  0.3282 -0.1156 -0.1210
 1228SOL    HW215144   0.569   3.352  17.006  0.9203  0.9144 -1.7101
 1229SOL     OW15145   3.062   3.831   6.260 -0.3646  0.1579  0.0998
 1229SOL    HW115146   3.080   3.798   6.172 -0.5758  0.2504  0.0219
 1229SOL    HW215147   3.025   3.758   6.309 -0.1336 -2.1671 -3.2291
 1230SOL     OW15148   1.985   0.977  17.177  0.6810 -0.3267 -0.2177
 1230SOL    HW115149   1.960   0.900  17.228  1.6179  1.7737  3.4654
 1230SOL    HW215150   2.030   1.023  17.248  0.9093  1.3471 -1.4612
 1231SOL     OW15151   3.462   4.241   6.685 -0.2002 -0.4478  0.0689
 1231SOL    HW115152   3.472   4.263   6.592 -0.2329  2.4416  0.7792
 1231SOL    HW215153   3.532   4.290   6.727 -0.7811  1.7489 -1.5495
 1232SOL     OW15154   0.743   2.407  10.888 -0.4456  0.2075  0.3548
 1232SOL    HW115155   0.648   2.400  10.877 -0.3817 -2.0676  1.4105
 1232SOL    HW215156   0.755   2.496  10.853 -0.9447 -0.5353 -1.7165
 1233SOL     OW15157   3.417   4.624   3.279  0.1245  0.5472 -0.3327
 1233SOL    HW115158   3.488   4.678   3.314 -0.2192  0.3248  0.7241
 1233SOL    HW215159   3.433   4.627   3.185 -0.4405  2.4559 -0.3527
 1234SOL     OW15160   3.310   0.652   5.209  0.0446 -0.0690 -0.3989
 1234SOL    HW115161   3.332   0.632   5.118 -0.7114 -1.2268 -0.3305
 1234SOL    HW215162   3.272   0.569   5.238 -2.2062  1.4683  1.0513
 1235SOL     OW15163   2.962   3.436   5.422  0.4064 -0.4353  0.1468
 1235SOL    HW115164   2.993   3.493   5.351 -0.8883 -1.7773 -1.4861
 1235SOL    HW215165   2.905   3.381   5.369  0.4776 -1.0532  0.7146
 1236SOL     OW15166   1.636   4.251   2.578  0.2441  0.0598 -0.4226
 1236SOL    HW115167   1.579   4.325   2.599  0.3000  0.2455 -0.9237
 1236SOL    HW215168   1.725   4.285   2.586 -0.2898  1.6898 -1.3874
 1237SOL     OW15169   2.675   4.272   2.873 -0.3453  0.6548  0.0532
 1237SOL    HW115170   2.647   4.351   2.826 -0.8546  0.2942 -0.2451
 1237SOL    HW215171   2.765   4.300   2.886 -0.3832 -0.1849  1.9756
 1238SOL     OW15172   4.055   4.567  11.946  0.0359  0.1973  0.0812
 1238SOL    HW115173   4.149   4.577  11.963  0.1521  0.7880 -0.9341
 1238SOL    HW215174   4.044   4.477  11.917  1.5029  0.7561 -2.1907
 1239SOL     OW15175   4.121   3.414   1.975  0.0774  0.2307  0.2065
 1239SOL    HW115176   4.063   3.461   1.916 -0.2428  2.6826  2.4603
 1239SOL    HW215177   4.183   3.482   2.002  1.7855 -1.4282  0.4980
 1240SOL     OW15178   2.747   3.487  14.705  0.2422 -0.3388  0.2498
 1240SOL    HW115179   2.806   3.444  14.643 -1.2077 -0.7979 -0.8211
 1240SOL    HW215180   2.793   3.568  14.727 -0.7587  0.3285 -0.0978
 1241SOL     OW15181   0.256   3.524  13.666 -0.0525  0.5327  0.1063
 1241SOL    HW115182   0.237   3.431  13.678  2.3377 -0.0993 -0.8973
 1241SOL    HW215183   0.300   3.523  13.582  0.3941 -0.5322  0.3517
 1242SOL     OW15184   3.030   3.623   6.878  0.2898  1.1373 -0.3216
 1242SOL    HW115185   3.118   3.621   6.841  0.5381 -0.3178  0.3609
 1242SOL    HW215186   3.040   3.562   6.951 -0.1772  3.7810  1.9583
 1243SOL     OW15187   3.107   2.610   9.983  0.0352  0.4125  0.1088
 1243SOL    HW115188   3.060   2.596  10.066  0.5655 -0.3237  0.2933
 1243SOL    HW215189   3.050   2.681   9.955 -0.0905 -0.4420 -1.7684
 1244SOL     OW15190   4.015   4.003  13.952  0.1170 -0.4306 -0.1195
 1244SOL    HW115191   3.979   4.012  13.864  1.6271 -0.0200 -0.7029
 1244SOL    HW215192   3.948   3.948  13.993  1.2392 -1.0109  0.9436
 1245SOL     OW15193   3.291   0.527  11.433  0.7326 -0.1509  0.1551
 1245SOL    HW115194   3.384   0.503  11.442  0.9945  0.5599 -0.6348
 1245SOL    HW215195   3.297   0.561  11.344 -1.2013 -1.7235 -0.5708
 1246SOL     OW15196   0.758   2.727   7.500  0.1191 -0.0887  0.2609
 1246SOL    HW115197   0.730   2.639   7.527  0.2603 -0.7799 -1.8421
 1246SOL    HW215198   0.828   2.701   7.441 -1.5994 -1.4154 -1.1791
 1247SOL     OW15199   0.499   3.237   5.470 -0.9459 -0.4991  0.2798
 1247SOL    HW115200   0.506   3.205   5.560 -0.5530  1.0156  0.7941
 1247SOL    HW215201   0.591   3.251   5.450 -0.3649  0.5691  3.6506
 1248SOL     OW15202   2.098   3.566   3.705 -0.1385 -0.0040 -0.1125
 1248SOL    HW115203   2.185   3.590   3.739 -1.1008 -1.7816  3.6557
 1248SOL    HW215204   2.075   3.645   3.657  0.5511  0.6491  0.6343
 1249SOL     OW15205   4.668   1.612   5.053  0.3651 -0.1332  0.0470
 1249SOL    HW115206   4.718   1.531   5.063 -0.9158 -0.9930 -0.5262
 1249SOL    HW215207   4.611   1.580   4.984 -0.2448  2.6717 -0.7500
 1250SOL     OW15208   1.189   3.178   5.520  0.1305  0.0608 -0.3762
 1250SOL    HW115209   1.130   3.205   5.450 -0.7686 -1.9952 -0.4025
 1250SOL    HW215210   1.155   3.089   5.530  0.4914  0.1144  1.2942
 1251SOL     OW15211   1.663   2.687  14.989 -0.5034 -0.3622 -0.0678
 1251SOL    HW115212   1.628   2.750  15.052  1.3502 -1.1046  1.6729
 1251SOL    HW215213   1.648   2.735  14.907  1.4457  1.7982  0.8428
 1252SOL     OW15214   2.230   2.428   4.398 -0.2947  0.6711  0.7418
 1252SOL    HW115215   2.209   2.503   4.342 -0.3072  1.9674  2.4801
 1252SOL    HW215216   2.148   2.395   4.437  0.7985 -1.0484  1.5908
 1253SOL     OW15217   1.238   1.861   7.236  0.4258 -0.2869  0.3085
 1253SOL    HW115218   1.213   1.858   7.329 -0.6783 -1.0929 -0.0207
 1253SOL    HW215219   1.329   1.830   7.235  0.3940 -0.3881  0.5412
 1254SOL     OW15220   3.402   0.651   3.707  0.0443  0.3303 -0.9983
 1254SOL    HW115221   3.318   0.607   3.715  0.4570  0.0030  1.5316
 1254SOL    HW215222   3.398   0.712   3.781  0.5133 -2.4433  1.3343
 1255SOL     OW15223   1.505   0.314   5.815  0.0375  0.3977 -0.0636
 1255SOL    HW115224   1.473   0.382   5.875 -1.2505 -0.8430  0.6870
 1255SOL    HW215225   1.588   0.285   5.853 -2.0450 -2.4935  2.3359
 1256SOL     OW15226   0.991   2.387   7.613  0.0185  0.2617  0.2746
 1256SOL    HW115227   0.938   2.421   7.541  0.9243  0.3095 -0.3580
 1256SOL    HW215228   1.076   2.398   7.571 -0.9626 -1.2669 -2.1654
 1257SOL     OW15229   0.005   0.694  16.278  0.0835 -0.4802 -0.1786
 1257SOL    HW115230   0.056   0.771  16.302  0.1583 -0.5499 -0.1140
 1257SOL    HW215231   4.719   0.716  16.185  0.8606 -0.7911 -0.3226
 1258SOL     OW15232   2.688   3.008   6.302  0.8199  0.0787 -0.3824
 1258SOL    HW115233   2.666   3.000   6.395 -0.8063  3.4267 -0.4702
 1258SOL    HW215234   2.768   3.059   6.297  1.1959 -0.6361 -1.8944
 1259SOL     OW15235   4.144   3.838   1.722 -0.0544 -0.2198 -0.2069
 1259SOL    HW115236   4.133   3.931   1.699  0.2660 -0.3553 -0.8951
 1259SOL    HW215237   4.178   3.803   1.641  2.8386  2.4742 -0.1520
 1260SOL     OW15238   4.157   0.596   0.828  0.1871 -0.2598 -0.2736
 1260SOL    HW115239   4.231   0.554   0.874 -0.1222  0.6707  1.0830
 1260SOL    HW215240   4.097   0.628   0.895  1.8174 -0.0726  1.1213
 1261SOL     OW15241   4.029   4.452  12.485 -0.1120 -0.2988 -0.5104
 1261SOL    HW115242   3.973   4.525  12.513  2.1066  1.1347  0.1530
 1261SOL    HW215243   4.009   4.386  12.552  2.1444 -0.3972  0.0588
 1262SOL     OW15244   2.407   0.727   3.688  0.4555 -0.0907 -0.3457
 1262SOL    HW115245   2.394   0.636   3.711 -1.5014  0.8166  2.1593
 1262SOL    HW215246   2.433   0.773   3.768 -2.1981 -0.7891  0.8891
 1263SOL     OW15247   0.957   3.522  10.800  0.3331 -0.3967 -0.3789
 1263SOL    HW115248   1.035   3.468  10.814  0.1941 -0.3283  0.7071
 1263SOL    HW215249   0.973   3.595  10.861 -2.4447  1.0431 -1.3553
 1264SOL     OW15250   4.697   4.331   3.683  0.4218  1.0512  0.2912
 1264SOL    HW115251   4.649   4.258   3.723  1.2725  0.6318  0.5381
 1264SOL    HW215252   4.660   4.404   3.732  0.8677  1.4064  0.1005
 1265SOL     OW15253   4.148   3.138   2.016  0.7263 -0.3387 -0.4171
 1265SOL    HW115254   4.237   3.136   1.981  1.0891  1.4458  0.3779
 1265SOL    HW215255   4.138   3.232   2.031 -2.2567 -0.7808  0.3550
 1266SOL     OW15256   2.499   1.703   2.094 -0.3804 -0.1155  0.5020
 1266SOL    HW115257   2.508   1.618   2.051  0.3378  0.4514 -0.4903
 1266SOL    HW215258   2.405   1.714   2.084 -0.4644  0.7455  2.3335
 1267SOL     OW15259   3.700   3.475   5.964 -0.0084  0.2037  0.2034
 1267SOL    HW115260   3.631   3.414   5.937  0.1446  0.0147  0.2415
 1267SOL    HW215261   3.771   3.412   5.949  0.3282  0.8229 -0.7602
 1268SOL     OW15262   2.570   3.832   6.843 -0.2039  0.2039 -0.3205
 1268SOL    HW115263   2.533   3.757   6.891 -1.6935  0.2453 -1.4141
 1268SOL    HW215264   2.645   3.839   6.902  0.8877  1.4174 -1.8758
 1269SOL     OW15265   2.720   1.655  15.712  0.6569  0.1725  0.6604
 1269SOL    HW115266   2.636   1.684  15.747  0.0109 -0.9497  0.0262
 1269SOL    HW215267   2.710   1.609  15.629  0.6483 -0.2241  0.8773
 1270SOL     OW15268   4.494   4.390   6.790 -0.0979 -1.0281  0.2587
 1270SOL    HW115269   4.469   4.344   6.870 -0.3276 -1.5231 -0.0956
 1270SOL    HW215270   4.419   4.363   6.737 -0.4255 -0.0675  0.2309
 1271SOL     OW15271   0.630   2.155   6.913  0.3781 -0.2939  0.4955
 1271SOL    HW115272   0.636   2.232   6.968  2.2906 -0.8878  1.1046
 1271SOL    HW215273   0.658   2.206   6.837 -0.2799 -1.0512 -0.2614
 1272SOL     OW15274   3.760   1.045   2.897  0.5154 -0.5026 -0.1300
 1272SOL    HW115275   3.678   1.000   2.917  0.2067 -0.4294 -1.2066
 1272SOL    HW215276   3.811   0.999   2.964 -1.3072 -0.4630  1.2582
 1273SOL     OW15277   0.884   4.352  10.977  0.4360  0.3550  0.1277
 1273SOL    HW115278   0.920   4.321  11.061 -0.7636  1.7709  1.1639
 1273SOL    HW215279   0.821   4.422  10.995 -0.0072 -0.3065  1.1188
 1274SOL     OW15280   2.182   2.847   4.399 -0.2121 -0.1920  0.0693
 1274SOL    HW115281   2.225   2.932   4.396 -1.7204  0.5524 -0.6076
 1274SOL    HW215282   2.266   2.801   4.400  0.5878  1.2605  0.1418
 1275SOL     OW15283   0.729   0.271   6.692 -0.0056  1.0671 -0.2532
 1275SOL    HW115284   0.695   0.253   6.605  1.1372  1.4257 -0.7720
 1275SOL    HW215285   0.652   0.295   6.744 -0.3693  1.1392 -0.8286
 1276SOL     OW15286   0.925   4.586   1.679 -0.2608 -0.0127 -0.0520
 1276SOL    HW115287   0.915   4.670   1.724  1.7631  0.7140 -0.9911
 1276SOL    HW215288   0.972   4.542   1.749  1.6731 -0.3826 -1.5850
 1277SOL     OW15289   2.213   3.808   3.927 -0.1213 -0.2260  0.4390
 1277SOL    HW115290   2.152   3.790   3.999  0.8015 -3.6767  0.3723
 1277SOL    HW215291   2.174   3.887   3.890 -1.2234  0.4228  2.9970
 1278SOL     OW15292   3.348   1.506   7.244 -0.0429 -0.0224  0.2246
 1278SOL    HW115293   3.379   1.571   7.307 -0.2356  2.0971 -1.8575
 1278SOL    HW215294   3.329   1.434   7.304  3.2529 -0.7077  0.4347
 1279SOL     OW15295   3.062   2.364   9.094  0.5160 -0.2513  0.6264
 1279SOL    HW115296   3.072   2.448   9.049  1.8893 -1.4430 -1.2349
 1279SOL    HW215297   2.973   2.340   9.067  1.0904  1.0250 -2.2795
 1280SOL     OW15298   3.883   0.112   8.877 -0.4532  0.3625 -0.2264
 1280SOL    HW115299   3.818   0.182   8.871 -1.8142 -0.7941  0.9968
 1280SOL    HW215300   3.901   0.094   8.784 -1.5814  0.3923 -0.4455
 1281SOL     OW15301   4.680   2.008   8.534  0.5361  0.3047 -0.0629
 1281SOL    HW115302   4.656   1.949   8.606  1.9566  1.0464  0.9950
 1281SOL    HW215303   4.688   1.941   8.465  2.1476  0.9094 -0.4419
 1282SOL     OW15304   1.657   1.301   5.463 -0.4066  0.0761  0.6298
 1282SOL    HW115305   1.641   1.269   5.552  1.0166 -2.7620 -0.1279
 1282SOL    HW215306   1.574   1.323   5.422  1.2563  0.4815 -2.4893
 1283SOL     OW15307   0.641   3.313  11.671 -0.1857 -0.2853  0.5328
 1283SOL    HW115308   0.687   3.269  11.600 -1.8597 -1.9642  0.4879
 1283SOL    HW215309   0.608   3.231  11.706  1.2313 -1.9088 -1.9643
 1284SOL     OW15310   3.403   3.669   4.563 -0.1964  0.2385 -0.0306
 1284SOL    HW115311   3.351   3.592   4.542  0.1913 -0.3752  1.2459
 1284SOL    HW215312   3.444   3.630   4.640  1.3990  0.5611 -0.7090
 1285SOL     OW15313   0.264   3.946  11.635  0.3957 -0.3845 -0.3070
 1285SOL    HW115314   0.297   4.025  11.590 -1.1509  0.8979  0.8398
 1285SOL    HW215315   0.275   3.875  11.572 -1.1511 -1.6283  0.8373
 1286SOL     OW15316   2.495   4.649   6.064  0.4317 -0.5316 -0.1759
 1286SOL    HW115317   2.478   4.616   6.153  2.3759 -1.2128 -0.0758
 1286SOL    HW215318   2.585   4.624   6.047  0.1249 -1.0327 -1.1018
 1287SOL     OW15319   3.727   3.319  11.934 -0.1327 -0.0522  0.4871
 1287SOL    HW115320   3.713   3.335  12.027  0.8024  1.7872  0.3176
 1287SOL    HW215321   3.822   3.329  11.929  0.0372 -1.6115  0.6291
 1288SOL     OW15322   4.692   3.441   9.838 -0.3492 -0.0544 -0.5873
 1288SOL    HW115323   4.680   3.485   9.922  0.5877  0.4521 -0.7239
 1288SOL    HW215324   0.031   3.508   9.809 -0.8744  0.6486 -0.0880
 1289SOL     OW15325   0.676   0.251   4.870 -0.6528  0.0570  0.3878
 1289SOL    HW115326   0.686   0.238   4.775 -0.2646 -0.5591  0.5135
 1289SOL    HW215327   0.583   0.274   4.867 -0.7594 -0.7945 -3.0673
 1290SOL     OW15328   2.893   0.281   8.745 -0.3123 -0.2763  0.1236
 1290SOL    HW115329   2.905   0.364   8.790  1.5305  0.9940 -2.7546
 1290SOL    HW215330   2.797   0.277   8.745 -0.3636  1.2669 -2.4952
 1291SOL     OW15331   0.113   4.024   4.358 -0.1610  0.6558  0.7123
 1291SOL    HW115332   0.094   4.063   4.273 -1.2657  1.3338  1.2597
 1291SOL    HW215333   0.192   3.971   4.354 -1.3219 -0.8062 -2.8990
 1292SOL     OW15334   4.423   1.975   7.340 -0.0457 -0.4251  0.0505
 1292SOL    HW115335   4.479   1.987   7.418  1.3756 -0.5193 -0.9598
 1292SOL    HW215336   4.366   1.904   7.370 -0.5020 -0.4674 -0.9223
 1293SOL     OW15337   3.851   3.814  15.790 -0.0088  0.5704 -0.6652
 1293SOL    HW115338   3.838   3.883  15.854  0.9010  1.0501 -0.9973
 1293SOL    HW215339   3.919   3.756  15.825 -1.2988 -0.6472 -0.1511
 1294SOL     OW15340   3.609   1.817   6.230 -0.1590  0.4841  0.0944
 1294SOL    HW115341   3.600   1.912   6.235 -0.8145  0.4998 -1.4575
 1294SOL    HW215342   3.594   1.803   6.136 -0.8656  1.1406  0.1133
 1295SOL     OW15343   4.422   0.695   6.333  0.6340 -0.2577  0.5144
 1295SOL    HW115344   4.503   0.703   6.384  0.6482 -1.3833  0.6748
 1295SOL    HW215345   4.362   0.671   6.403  1.1000 -0.7365  0.7538
 1296SOL     OW15346   1.364   0.559   1.123 -0.3853 -0.1790  0.2789
 1296SOL    HW115347   1.365   0.519   1.037 -2.6854 -0.6428  0.4599
 1296SOL    HW215348   1.423   0.634   1.119 -1.6126  0.7024 -1.0185
 1297SOL     OW15349   2.185   0.070   4.746  0.2830 -0.1450 -0.0874
 1297SOL    HW115350   2.101   0.042   4.783  1.5063 -0.4059  2.4865
 1297SOL    HW215351   2.240   4.716   4.762  2.6497  1.5429 -0.1401
 1298SOL     OW15352   3.039   3.040   3.143  0.7883  0.5288 -0.1492
 1298SOL    HW115353   3.039   2.952   3.181  0.9173  0.2187 -0.8765
 1298SOL    HW215354   2.964   3.069   3.195  0.5743  0.2931 -0.3291
 1299SOL     OW15355   4.012   1.994   5.533  0.2196 -0.1381 -0.3853
 1299SOL    HW115356   3.997   2.085   5.507 -2.5027 -1.0388 -2.0090
 1299SOL    HW215357   4.090   1.970   5.483  0.7310  0.1940  0.2664
 1300SOL     OW15358   2.079   4.179  10.559 -0.2609  0.6002 -0.2619
 1300SOL    HW115359   2.082   4.204  10.467  1.7953  0.3502 -0.2706
 1300SOL    HW215360   2.026   4.253  10.590  0.7286  0.9411  0.6132
 1301SOL     OW15361   3.069   1.638   4.342  0.8933  0.0285  0.3473
 1301SOL    HW115362   3.121   1.682   4.409 -0.0338  0.9864  0.4236
 1301SOL    HW215363   3.138   1.633   4.276  0.6511  1.0845  0.0183
 1302SOL     OW15364   1.935   1.920   8.239 -0.2669  0.0419 -0.1595
 1302SOL    HW115365   1.942   1.900   8.333  1.6600 -0.2075 -0.3468
 1302SOL    HW215366   2.016   1.879   8.207 -0.2795 -2.0629  2.3917
 1303SOL     OW15367   3.168   0.894   6.227  0.4758 -0.1488 -0.5346
 1303SOL    HW115368   3.183   0.959   6.158 -2.5790  0.3216 -0.7605
 1303SOL    HW215369   3.173   0.948   6.306 -2.7789 -0.5386 -0.0662
 1304SOL     OW15370   3.770   1.354  12.856 -0.9631 -0.2566  0.2564
 1304SOL    HW115371   3.800   1.391  12.773 -2.0600 -1.3933 -0.6439
 1304SOL    HW215372   3.806   1.266  12.848 -0.8584 -0.3376  1.6344
 1305SOL     OW15373   1.964   1.113   8.867  0.1577 -0.4893 -0.1385
 1305SOL    HW115374   1.936   1.126   8.777  1.0675 -0.1194 -0.3689
 1305SOL    HW215375   2.034   1.053   8.845  0.9971  0.5593 -0.3222
 1306SOL     OW15376   0.999   2.433  11.063 -0.0801 -0.4366 -0.0397
 1306SOL    HW115377   1.038   2.491  11.129 -2.1127  1.0152 -0.0998
 1306SOL    HW215378   1.052   2.460  10.988 -1.0832  0.0040 -0.5992
 1307SOL     OW15379   2.194   0.513   5.831  0.1305 -0.5125  0.2357
 1307SOL    HW115380   2.168   0.473   5.914  2.0703 -2.1970  0.0522
 1307SOL    HW215381   2.187   0.607   5.847 -1.7517 -0.4939 -0.7307
 1308SOL     OW15382   0.137   3.211   7.490  0.1338  0.0436  0.2571
 1308SOL    HW115383   0.179   3.282   7.440  1.0347 -1.1850 -0.7091
 1308SOL    HW215384   0.207   3.148   7.503  0.3135  0.2657  0.3528
 1309SOL     OW15385   4.307   2.079   6.947  0.0016 -0.0182 -0.7790
 1309SOL    HW115386   4.232   2.020   6.937 -0.4262  0.5501 -0.8749
 1309SOL    HW215387   4.259   2.154   6.979  2.8619  1.2686  0.5258
 1310SOL     OW15388   0.775   3.636   1.105 -0.4214 -0.5146  0.2836
 1310SOL    HW115389   0.866   3.637   1.135 -0.5656  0.6208  0.7166
 1310SOL    HW215390   0.735   3.706   1.156  2.0477 -0.2597  1.8781
 1311SOL     OW15391   0.220   0.036   2.185 -0.2180 -0.0763 -0.4853
 1311SOL    HW115392   0.174   4.719   2.112 -2.8423  2.2384 -0.0669
 1311SOL    HW215393   0.159   0.089   2.237  1.2154  0.3468  0.7610
 1312SOL     OW15394   3.798   3.355   9.455 -0.4650  0.0550  0.5100
 1312SOL    HW115395   3.863   3.358   9.525  0.9312  0.0109 -0.7541
 1312SOL    HW215396   3.818   3.276   9.405 -1.1341  0.4164 -0.3451
 1313SOL     OW15397   2.824   0.723  17.443 -0.3375  1.3394  0.1518
 1313SOL    HW115398   2.880   0.645  17.440 -1.2285  0.6468  1.8912
 1313SOL    HW215399   2.750   0.700  17.499  0.7098 -0.1826  0.9305
 1314SOL     OW15400   1.206   1.436   7.695  0.0616  0.0291 -0.3079
 1314SOL    HW115401   1.202   1.489   7.774  3.1923  0.5161 -0.4746
 1314SOL    HW215402   1.170   1.354   7.729 -0.1821  0.0906 -0.4208
 1315SOL     OW15403   1.845   1.582   0.399 -0.0176 -0.3967  0.0751
 1315SOL    HW115404   1.800   1.596   0.482 -2.2103  0.7360 -1.3026
 1315SOL    HW215405   1.780   1.546   0.338 -0.5170  1.5321 -0.5505
 1316SOL     OW15406   2.303   3.938   4.464 -0.2270  0.0855  0.3543
 1316SOL    HW115407   2.338   4.017   4.422  0.6693 -0.6524 -0.2886
 1316SOL    HW215408   2.266   3.895   4.387 -2.2165  2.3369  0.0542
 1317SOL     OW15409   1.775   1.565   1.271 -0.4154 -0.2410  0.3166
 1317SOL    HW115410   1.838   1.497   1.297  1.9695  1.8222 -0.1399
 1317SOL    HW215411   1.729   1.510   1.208  0.3805 -0.0098 -0.4536
 1318SOL     OW15412   2.357   0.677   4.468 -0.0016 -0.3848 -0.5965
 1318SOL    HW115413   2.293   0.624   4.419 -0.1732  0.5427 -1.3839
 1318SOL    HW215414   2.300   0.707   4.538  1.2534  0.6101 -0.0084
 1319SOL     OW15415   2.655   4.372   3.383 -0.3574  0.5770  0.0197
 1319SOL    HW115416   2.561   4.382   3.400 -0.5632 -0.6772 -0.3594
 1319SOL    HW215417   2.702   4.357   3.465  1.4339  2.5046 -0.6439
 1320SOL     OW15418   3.809   2.016   9.687 -0.1275 -0.4458  0.0162
 1320SOL    HW115419   3.845   2.102   9.711 -1.0358  0.1929 -0.9008
 1320SOL    HW215420   3.843   2.007   9.597  1.5740 -2.0276  0.8045
 1321SOL     OW15421   4.438   2.090  12.401 -0.0324  0.3637 -0.3777
 1321SOL    HW115422   4.441   2.117  12.493 -0.8699 -0.0323 -0.2337
 1321SOL    HW215423   4.454   1.999  12.428  1.7404  0.1084 -2.2620
 1322SOL     OW15424   2.659   1.790  14.931 -0.8973  0.1130 -0.5431
 1322SOL    HW115425   2.677   1.824  15.019 -0.1049 -1.9231  0.0743
 1322SOL    HW215426   2.625   1.702  14.949 -0.1866 -0.1351 -0.4280
 1323SOL     OW15427   4.176   0.478   7.220 -0.4818 -0.0278 -0.2607
 1323SOL    HW115428   4.162   0.514   7.307  0.4468 -0.1286 -0.0673
 1323SOL    HW215429   4.148   0.387   7.229 -1.7343  0.2438 -1.3337
 1324SOL     OW15430   4.445   0.184   0.209  0.3083 -0.3231 -0.3209
 1324SOL    HW115431   4.386   0.255   0.235 -1.0664 -1.3993 -0.4354
 1324SOL    HW215432   4.418   0.173   0.118  0.9824 -2.3566 -0.2772
 1325SOL     OW15433   3.139   2.869   2.522  0.5086 -0.4320 -0.2260
 1325SOL    HW115434   3.119   2.908   2.437 -0.6721  1.5765  0.9739
 1325SOL    HW215435   3.184   2.945   2.559 -1.2970  0.8870 -0.7227
 1326SOL     OW15436   4.103   3.220   5.563  0.2510  0.0995  0.4697
 1326SOL    HW115437   4.184   3.184   5.527  1.0679  1.8654  0.5574
 1326SOL    HW215438   4.130   3.311   5.570  0.5015  0.1695 -1.4972
 1327SOL     OW15439   2.275   4.588  15.183  0.2864  1.0806  0.2225
 1327SOL    HW115440   2.308   4.673  15.155 -1.7274  2.1813  1.2533
 1327SOL    HW215441   2.278   4.553  15.094 -0.1746 -0.5352  0.8403
 1328SOL     OW15442   2.146   4.701   6.776  0.4432  0.3530 -0.4257
 1328SOL    HW115443   2.209   4.629   6.780  0.5961  0.3976 -1.9919
 1328SOL    HW215444   2.133   4.720   6.868  1.5520 -2.8795  0.3901
 1329SOL     OW15445   0.454   2.833  17.500  0.0402  0.0402 -0.0321
 1329SOL    HW115446   0.497   2.917  17.482  1.5886 -1.1589 -1.9573
 1329SOL    HW215447   0.417   2.818  17.413  1.0128 -1.2362 -0.2242
 1330SOL     OW15448   0.328   2.218   2.254  0.4774  0.3146 -0.3176
 1330SOL    HW115449   0.367   2.210   2.340  2.0128 -3.1725 -1.3525
 1330SOL    HW215450   0.395   2.258   2.198  0.6281  1.1152  0.4456
 1331SOL     OW15451   1.106   1.845   7.545 -0.3765  0.3348 -0.7346
 1331SOL    HW115452   1.058   1.820   7.625  1.1090  0.1265  0.0811
 1331SOL    HW215453   1.144   1.761   7.520  0.0448  0.0592  0.8336
 1332SOL     OW15454   1.728   1.792   9.788  0.1931 -0.0120 -0.0245
 1332SOL    HW115455   1.722   1.702   9.756 -0.0805  1.1256 -3.1566
 1332SOL    HW215456   1.710   1.780   9.881 -0.8439  1.9194  0.0291
 1333SOL     OW15457   1.885   0.190   7.759 -0.8038 -0.4555 -0.4616
 1333SOL    HW115458   1.851   0.101   7.752  2.1611 -1.6457 -0.0816
 1333SOL    HW215459   1.820   0.231   7.703 -1.7161 -1.5545 -0.2223
 1334SOL     OW15460   3.292   3.370   6.948 -0.3392  0.3160 -0.3008
 1334SOL    HW115461   3.249   3.294   6.909 -0.4423 -0.8514  2.0977
 1334SOL    HW215462   3.227   3.414   7.002  0.2334  2.4393 -1.3612
 1335SOL     OW15463   1.861   4.360   4.392 -0.0549 -0.3310 -0.0044
 1335SOL    HW115464   1.775   4.329   4.420 -0.6790 -0.4209 -2.0315
 1335SOL    HW215465   1.840   4.394   4.306 -0.6473  1.4434  0.8602
 1336SOL     OW15466   2.742   1.424  16.943 -1.0090 -0.1175  0.2774
 1336SOL    HW115467   2.663   1.385  16.906  0.5297 -0.1617 -2.9623
 1336SOL    HW215468   2.738   1.509  16.898  0.0990 -0.9930 -1.4672
 1337SOL     OW15469   2.021   3.268   5.193  0.0952  0.2280 -0.3263
 1337SOL    HW115470   1.929   3.245   5.180  0.4449  0.0431 -2.3970
 1337SOL    HW215471   2.034   3.276   5.288 -0.3475  0.6309 -0.3033
 1338SOL     OW15472   1.619   2.457   0.756 -0.5125  0.4359 -0.4279
 1338SOL    HW115473   1.638   2.373   0.799  2.5722  1.1799 -0.3432
 1338SOL    HW215474   1.572   2.492   0.831  0.4743  0.8677 -0.0137
 1339SOL     OW15475   0.157   2.574  13.967 -0.6834  0.2670  0.2768
 1339SOL    HW115476   0.159   2.493  13.915  1.2573  1.0792 -0.9295
 1339SOL    HW215477   0.077   2.616  13.938 -0.5280 -0.7187 -1.6047
 1340SOL     OW15478   2.956   1.712   5.542  0.0482 -0.1970 -0.2197
 1340SOL    HW115479   2.907   1.631   5.552 -0.5334  0.0618 -0.9667
 1340SOL    HW215480   2.898   1.762   5.484  0.6176 -1.0358 -1.5016
 1341SOL     OW15481   3.837   4.015   4.215 -0.2176 -0.6567 -0.3406
 1341SOL    HW115482   3.821   4.021   4.309 -0.1024  0.5059 -0.4013
 1341SOL    HW215483   3.749   4.014   4.178 -1.3920 -0.7399  2.4674
 1342SOL     OW15484   3.644   0.592   6.347  0.7324  0.5193  0.0166
 1342SOL    HW115485   3.620   0.634   6.430  0.7561  0.8759 -0.1607
 1342SOL    HW215486   3.569   0.609   6.291  0.6120  0.1105  0.0504
 1343SOL     OW15487   4.113   1.219  13.051  0.0959  0.0976  0.4618
 1343SOL    HW115488   4.137   1.134  13.088 -0.8417 -1.4516 -2.5027
 1343SOL    HW215489   4.033   1.247  13.096 -1.5073 -1.0731 -1.6241
 1344SOL     OW15490   1.356   2.639  11.812 -0.1949  0.3171  0.3520
 1344SOL    HW115491   1.375   2.614  11.902  0.4166 -0.0251  0.1272
 1344SOL    HW215492   1.431   2.608  11.763  0.1853  0.5315  0.7994
 1345SOL     OW15493   2.359   1.305   8.587  0.4100 -0.1583 -0.0909
 1345SOL    HW115494   2.363   1.401   8.589 -0.7578 -0.1221  0.3632
 1345SOL    HW215495   2.395   1.285   8.673  2.3748 -0.9323 -1.0725
 1346SOL     OW15496   1.471   4.239  15.277  0.3726 -0.1910  0.2867
 1346SOL    HW115497   1.395   4.294  15.296 -0.6851 -1.0991 -1.3058
 1346SOL    HW215498   1.451   4.234  15.183 -0.2742  1.0292  0.3646
 1347SOL     OW15499   1.958   4.239   7.299  0.9016 -0.5345  0.0883
 1347SOL    HW115500   2.046   4.208   7.278  0.6434 -1.3187  0.1375
 1347SOL    HW215501   1.921   4.156   7.329 -2.0286  0.9972  0.6815
 1348SOL     OW15502   0.609   3.839   4.707 -0.0296 -0.2942 -0.2891
 1348SOL    HW115503   0.531   3.885   4.675 -0.3455  1.3441  2.7572
 1348SOL    HW215504   0.621   3.883   4.792  0.5728 -1.9845  0.4944
 1349SOL     OW15505   4.306   3.254   3.927  0.2222 -0.1108  0.0560
 1349SOL    HW115506   4.245   3.326   3.913  0.1086 -0.4304 -1.1106
 1349SOL    HW215507   4.285   3.189   3.859 -2.1347 -0.2483  0.9040
 1350SOL     OW15508   4.600   1.289   6.608  0.1380 -0.4298  0.0998
 1350SOL    HW115509   4.639   1.210   6.571  2.1376 -0.5060  2.3583
 1350SOL    HW215510   4.547   1.248   6.677  0.2236 -0.4123  0.1763
 1351SOL     OW15511   0.697   3.066   3.691 -0.0106  0.3973 -0.2563
 1351SOL    HW115512   0.637   3.134   3.660  0.0882  1.4502  1.8611
 1351SOL    HW215513   0.742   3.043   3.610 -1.2889  1.6456 -1.3180
 1352SOL     OW15514   1.151   3.543   6.576  0.2058 -0.0395  0.1746
 1352SOL    HW115515   1.161   3.590   6.659  1.8098  0.0709 -0.0657
 1352SOL    HW215516   1.233   3.493   6.577 -1.0106 -2.0116  0.4138
 1353SOL     OW15517   3.946   0.323   4.298 -0.6830  0.0637 -0.4575
 1353SOL    HW115518   4.037   0.352   4.302 -0.8471  0.5410 -0.2449
 1353SOL    HW215519   3.922   0.386   4.231  0.8136  0.0507 -1.0013
 1354SOL     OW15520   3.373   2.925   4.786  0.6175  0.5247 -0.0433
 1354SOL    HW115521   3.351   2.990   4.853 -0.3891  1.1785 -1.0281
 1354SOL    HW215522   3.459   2.960   4.763  1.1770 -0.5276  0.4140
 1355SOL     OW15523   0.130   2.874   3.354  0.5420 -0.5315  0.2882
 1355SOL    HW115524   0.179   2.816   3.297  0.9479 -1.3192  1.4344
 1355SOL    HW215525   0.203   2.904   3.409  1.0765 -2.1683  0.4676
 1356SOL     OW15526   3.078   2.828   0.978 -0.3348 -0.5736 -0.2792
 1356SOL    HW115527   3.101   2.906   1.029 -0.2251 -0.4602 -0.5055
 1356SOL    HW215528   3.062   2.764   1.048 -1.2914  0.2449  0.2499
 1357SOL     OW15529   2.517   2.063  13.488 -0.1994 -0.0945  0.4318
 1357SOL    HW115530   2.444   2.070  13.426  0.4324 -2.0691 -0.5145
 1357SOL    HW215531   2.565   1.985  13.459 -2.2898 -1.6322  1.1804
 1358SOL     OW15532   0.786   4.041   1.777  0.5227 -0.3488  0.0438
 1358SOL    HW115533   0.825   3.958   1.804 -0.7161 -0.4729  1.4735
 1358SOL    HW215534   0.726   4.074   1.844 -1.4223 -0.4208 -1.6500
 1359SOL     OW15535   3.943   0.405   6.038 -0.2839  0.2403  0.2107
 1359SOL    HW115536   3.932   0.351   5.960  2.2300 -1.3175  0.9439
 1359SOL    HW215537   4.019   0.355   6.069  0.4454  1.5302  0.4954
 1360SOL     OW15538   1.627   1.935   9.271  0.1928 -0.0914 -0.1344
 1360SOL    HW115539   1.592   1.889   9.347 -2.0418  2.6658  0.5293
 1360SOL    HW215540   1.665   1.863   9.221  0.5461  0.3408 -0.4948
 1361SOL     OW15541   1.402   2.433  15.220 -0.0894  0.5047  0.5396
 1361SOL    HW115542   1.471   2.414  15.156 -1.1660 -0.7733 -0.2258
 1361SOL    HW215543   1.353   2.490  15.160 -0.0841 -1.6209 -1.4419
 1362SOL     OW15544   4.354   1.724  12.536 -0.4641 -0.2831  0.1180
 1362SOL    HW115545   4.292   1.728  12.463  0.7749 -1.8351 -1.0184
 1362SOL    HW215546   4.307   1.718  12.619  0.1861 -0.6007  0.4652
 1363SOL     OW15547   1.804   3.208   2.202  0.6998  0.2317 -0.0663
 1363SOL    HW115548   1.871   3.276   2.193  0.7437  0.3256  1.0090
 1363SOL    HW215549   1.754   3.221   2.122  0.6282 -1.0818 -0.2430
 1364SOL     OW15550   1.271   0.759  17.373 -0.0902  0.2044 -0.1259
 1364SOL    HW115551   1.205   0.824  17.395  0.1804  0.4223  0.0507
 1364SOL    HW215552   1.342   0.788  17.430  0.6142 -1.8954  0.0801
 1365SOL     OW15553   4.111   0.129   2.813 -0.6336 -0.1943  0.3057
 1365SOL    HW115554   4.020   0.116   2.840 -0.1922 -1.3034  1.2566
 1365SOL    HW215555   4.097   0.141   2.719 -2.9928 -1.5636  0.4970
 1366SOL     OW15556   0.259   0.328  15.721  0.3447 -0.2095 -0.0921
 1366SOL    HW115557   0.263   0.303  15.629 -0.9456  0.9579 -0.4679
 1366SOL    HW215558   0.237   0.249  15.770  0.8379 -0.3536 -0.1090
 1367SOL     OW15559   1.333   0.378   7.126 -0.9046  0.2388  0.4943
 1367SOL    HW115560   1.345   0.472   7.112  0.3642 -0.2275 -1.4573
 1367SOL    HW215561   1.262   0.366   7.063 -0.2356 -1.6132  0.0905
 1368SOL     OW15562   3.738   3.272   5.541  0.1133 -0.3118  0.3745
 1368SOL    HW115563   3.642   3.264   5.535  0.3339 -2.4739 -0.2425
 1368SOL    HW215564   3.758   3.211   5.611  2.0702  1.2583  1.1631
 1369SOL     OW15565   2.982   0.490  14.575 -0.0846  0.7458  0.0106
 1369SOL    HW115566   2.927   0.481  14.653 -0.4455 -0.1860 -0.3540
 1369SOL    HW215567   3.060   0.439  14.595  1.5254  3.3072  0.2221
 1370SOL     OW15568   2.770   4.669   2.961  0.3151  0.1098  0.1468
 1370SOL    HW115569   2.860   4.645   2.981  0.5790  2.2991  1.6379
 1370SOL    HW215570   2.737   4.702   3.044  0.8668  3.1470 -0.8255
 1371SOL     OW15571   0.458   0.017   6.394  0.2343 -0.1285 -0.3553
 1371SOL    HW115572   0.456   4.709   6.485 -2.4450  1.9743  0.2942
 1371SOL    HW215573   0.370   0.055   6.389  1.1820  1.8808 -2.0091
 1372SOL     OW15574   0.433   1.115   9.832 -0.2329  0.1650 -0.3489
 1372SOL    HW115575   0.484   1.077   9.904 -1.7857 -0.5350  0.3955
 1372SOL    HW215576   0.478   1.080   9.756  2.8393 -0.3864  1.7380
 1373SOL     OW15577   4.442   3.663   9.070  0.6528 -0.1136 -0.6368
 1373SOL    HW115578   4.361   3.670   9.121  0.7614 -0.1655 -0.4553
 1373SOL    HW215579   4.406   3.622   8.991 -1.6536  1.4892 -0.4182
 1374SOL     OW15580   0.686   3.345   3.390 -0.0731  0.3375 -0.1883
 1374SOL    HW115581   0.738   3.417   3.426 -0.0579 -0.4725  1.3969
 1374SOL    HW215582   0.625   3.385   3.328 -0.9248  1.2319  1.2121
 1375SOL     OW15583   0.085   0.509   8.458  0.5574 -0.0036 -0.0172
 1375SOL    HW115584   0.172   0.531   8.492 -0.5105 -0.0385  2.7270
 1375SOL    HW215585   0.049   0.597   8.451  0.9736  0.3044  1.8556
 1376SOL     OW15586   2.723   2.320   3.444 -0.0982 -0.5469  0.3556
 1376SOL    HW115587   2.717   2.329   3.349  0.6288 -0.5050  0.3108
 1376SOL    HW215588   2.647   2.269   3.473  0.0287 -0.6108  0.5734
 1377SOL     OW15589   1.895   4.135   1.074 -0.0732  0.2965 -0.0570
 1377SOL    HW115590   1.937   4.195   1.014  1.2341 -1.6312 -1.0768
 1377SOL    HW215591   1.976   4.102   1.112 -0.4325 -1.3590 -0.7181
 1378SOL     OW15592   2.039   3.660  13.851 -0.9228 -0.1458  0.6403
 1378SOL    HW115593   1.952   3.628  13.828 -0.7152 -0.7999  0.7476
 1378SOL    HW215594   2.053   3.621  13.937 -1.8275 -1.0880  0.3667
 1379SOL     OW15595   1.254   3.525   5.730  0.5969  0.4372  0.5637
 1379SOL    HW115596   1.340   3.508   5.692 -0.4409 -1.4127 -0.9656
 1379SOL    HW215597   1.241   3.607   5.681  0.6135  0.1766  0.1211
 1380SOL     OW15598   1.675   3.491   7.012  0.0892 -0.3432 -0.2759
 1380SOL    HW115599   1.627   3.420   6.970  1.3891 -0.2020 -1.9608
 1380SOL    HW215600   1.746   3.492   6.948 -2.4848  0.0118 -3.1481
 1381SOL     OW15601   1.583   2.931   5.757  0.2976  0.1235  0.0584
 1381SOL    HW115602   1.536   2.859   5.798 -0.5525  1.2626  1.0845
 1381SOL    HW215603   1.648   2.951   5.825 -1.1893  0.4125  1.3731
 1382SOL     OW15604   2.874   4.066   6.318 -0.0431 -0.2100 -0.4768
 1382SOL    HW115605   2.946   4.003   6.320 -0.7518 -1.0157 -0.4916
 1382SOL    HW215606   2.831   4.049   6.234 -2.1713  2.0127  0.1642
 1383SOL     OW15607   0.370   2.507   0.145  0.2183  0.3333  0.0510
 1383SOL    HW115608   0.353   2.425   0.191 -0.6431  1.5000  1.8341
 1383SOL    HW215609   0.391   2.574   0.211 -1.8901  0.4621  0.5981
 1384SOL     OW15610   3.495   0.232  10.320  0.0178  0.1573 -0.7308
 1384SOL    HW115611   3.565   0.243  10.384  0.8944  2.1366 -2.0521
 1384SOL    HW215612   3.490   0.321  10.286  3.4626  1.1441  1.3850
 1385SOL     OW15613   3.575   3.285   7.872  0.3060  0.5786 -0.2344
 1385SOL    HW115614   3.569   3.240   7.956 -1.2158  3.2074  1.0719
 1385SOL    HW215615   3.668   3.293   7.851  0.0905 -1.7034 -2.0954
 1386SOL     OW15616   2.712   3.846  15.128  0.1272 -0.1744 -0.6224
 1386SOL    HW115617   2.644   3.827  15.193 -1.2630  2.1048 -1.4098
 1386SOL    HW215618   2.695   3.780  15.061  1.0420 -0.2637 -0.7736
 1387SOL     OW15619   3.133   2.072   3.152  0.0143 -0.0823  0.0012
 1387SOL    HW115620   3.118   1.989   3.107 -0.0750 -0.7144  1.2046
 1387SOL    HW215621   3.209   2.107   3.106 -0.4139  1.7916  0.7185
 1388SOL     OW15622   2.641   4.010   7.666 -0.0833 -0.2100  0.2631
 1388SOL    HW115623   2.689   4.002   7.584 -2.0998  2.5513 -1.1914
 1388SOL    HW215624   2.553   4.008   7.629  0.4756  0.1022 -1.0777
 1389SOL     OW15625   1.017   0.760   5.712 -0.3431 -0.2648 -0.4531
 1389SOL    HW115626   0.954   0.811   5.763  0.5641  1.2428 -0.8404
 1389SOL    HW215627   1.053   0.837   5.668  1.6061 -2.2089 -2.2333
 1390SOL     OW15628   4.097   0.013   8.376 -0.4580 -0.1924  0.0810
 1390SOL    HW115629   4.085   4.644   8.348  0.6483 -0.6174  1.0027
 1390SOL    HW215630   4.081   0.050   8.289 -1.6605  0.8876  0.7687
 1391SOL     OW15631   4.233   3.787  13.710 -0.3375 -0.3522  0.7329
 1391SOL    HW115632   4.250   3.832  13.793  1.5024  0.0271  0.1654
 1391SOL    HW215633   4.169   3.842  13.666  0.3189 -1.2907 -1.4042
 1392SOL     OW15634   4.379   2.133  16.752  0.1639 -0.1503  0.2537
 1392SOL    HW115635   4.424   2.058  16.713  1.8279  1.2328 -0.4746
 1392SOL    HW215636   4.426   2.209  16.719  1.6342 -0.4112  1.7347
 1393SOL     OW15637   4.638   3.952  13.506  0.3087 -0.2226  0.0294
 1393SOL    HW115638   4.714   3.908  13.544  1.2342  1.4282  0.0942
 1393SOL    HW215639   4.601   3.875  13.464  1.0236  0.3650 -1.7059
 1394SOL     OW15640   4.179   3.301   3.672  0.0052 -0.2090 -0.2823
 1394SOL    HW115641   4.090   3.301   3.636 -0.1662 -0.6231  0.1273
 1394SOL    HW215642   4.174   3.375   3.733 -0.6705  0.5568 -1.2801
 1395SOL     OW15643   1.046   4.015   0.014 -0.6454  0.7038 -0.5058
 1395SOL    HW115644   0.990   4.075   0.064 -0.9595  3.7096 -4.4662
 1395SOL    HW215645   1.078   4.072  17.634 -0.4136  0.2074 -0.7983
 1396SOL     OW15646   0.907   0.148   6.124 -0.6135 -0.2262 -0.0988
 1396SOL    HW115647   0.815   0.134   6.105 -0.2444 -0.1640 -1.8926
 1396SOL    HW215648   0.903   0.187   6.212  0.3160 -1.5485  0.5439
 1397SOL     OW15649   2.064   1.363  14.524  0.2202  0.4158  0.3307
 1397SOL    HW115650   2.042   1.345  14.615 -0.9305  0.7665  0.1304
 1397SOL    HW215651   2.139   1.421  14.538  0.9514 -0.6133  0.6176
 1398SOL     OW15652   1.678   3.144   1.180  0.2546  0.2850  0.2356
 1398SOL    HW115653   1.759   3.195   1.184  0.0243  0.6140  0.7145
 1398SOL    HW215654   1.670   3.164   1.087 -1.6272  0.6697  0.4790
 1399SOL     OW15655   1.850   2.446   0.039 -0.7790  0.0164  0.4463
 1399SOL    HW115656   1.769   2.461  17.681  0.0178  1.0842 -0.5354
 1399SOL    HW215657   1.823   2.382   0.105 -0.4462 -0.8660 -0.2663
 1400SOL     OW15658   0.303   2.718  15.222 -0.8609 -0.0483 -1.0639
 1400SOL    HW115659   0.354   2.658  15.168  1.8895  0.1080  1.3654
 1400SOL    HW215660   0.367   2.781  15.256  0.2956 -2.1877  0.7498
 1401SOL     OW15661   3.239   2.459   9.293  0.3407  0.0435 -0.0305
 1401SOL    HW115662   3.161   2.438   9.242 -0.5424  2.6074  0.2730
 1401SOL    HW215663   3.211   2.482   9.381 -0.4495 -1.5662  0.1316
 1402SOL     OW15664   3.516   0.668   3.162  0.3830  0.4321 -0.5896
 1402SOL    HW115665   3.527   0.661   3.257 -0.4953  1.0785 -0.4478
 1402SOL    HW215666   3.448   0.603   3.146 -0.6011  0.8353  2.0007
 1403SOL     OW15667   1.123   0.992   7.007  0.0139  0.1472 -0.2854
 1403SOL    HW115668   1.084   1.006   7.093  0.1588  0.8038 -0.3259
 1403SOL    HW215669   1.209   0.956   7.029  0.9963  3.0460  0.6131
 1404SOL     OW15670   3.001   3.822   3.781  0.6653 -0.4521  0.0299
 1404SOL    HW115671   3.068   3.810   3.848  0.2988 -3.9130 -0.1944
 1404SOL    HW215672   3.048   3.843   3.700  2.5050  1.3030  1.5449
 1405SOL     OW15673   4.548   1.090   8.111 -0.0682 -0.1346  0.1680
 1405SOL    HW115674   4.598   1.011   8.129 -0.5176  0.0103  2.1557
 1405SOL    HW215675   4.462   1.048   8.104  0.8076 -2.0371  1.0292
 1406SOL     OW15676   3.798   4.591   6.693 -0.3565 -0.1839  0.6551
 1406SOL    HW115677   3.829   4.663   6.639  1.1910 -1.2761  0.0669
 1406SOL    HW215678   3.809   4.622   6.783 -1.5629 -1.2486  1.1655
 1407SOL     OW15679   3.563   4.156  16.616  0.1674 -0.2785  0.1263
 1407SOL    HW115680   3.524   4.242  16.597  0.3730 -0.5106 -1.3258
 1407SOL    HW215681   3.520   4.091  16.561  0.0125 -0.5398  0.5590
 1408SOL     OW15682   1.046   2.879   5.203  0.3734 -0.5253  0.3972
 1408SOL    HW115683   0.992   2.879   5.124  0.2733  1.6616  0.4615
 1408SOL    HW215684   0.980   2.871   5.271  1.3114 -1.3094  1.2162
 1409SOL     OW15685   1.624   1.837  11.153 -0.4793 -0.1917  0.2399
 1409SOL    HW115686   1.698   1.857  11.210 -0.1229  1.4332 -0.7993
 1409SOL    HW215687   1.564   1.782  11.203 -0.7814 -0.1964 -0.1262
 1410SOL     OW15688   1.775   1.549   5.161  0.2252 -0.4689  0.0143
 1410SOL    HW115689   1.702   1.490   5.144 -0.8115  0.7053  0.4268
 1410SOL    HW215690   1.833   1.492   5.211 -1.5088 -2.0935  0.1700
 1411SOL     OW15691   0.688   3.112  15.761  0.4673 -0.3917 -0.0727
 1411SOL    HW115692   0.652   3.094  15.675  1.4816  1.2807 -0.8588
 1411SOL    HW215693   0.745   3.035  15.767  0.1540 -0.6410 -0.3071
 1412SOL     OW15694   3.207   3.343  11.768  0.4146  0.2648 -0.3551
 1412SOL    HW115695   3.143   3.403  11.728 -0.0513 -0.8029 -1.2200
 1412SOL    HW215696   3.265   3.404  11.813  2.6140 -1.9095 -0.2398
 1413SOL     OW15697   3.281   1.175   3.138  0.8441 -0.0373  0.0401
 1413SOL    HW115698   3.279   1.124   3.057 -1.5856 -3.5296  2.2744
 1413SOL    HW215699   3.361   1.224   3.120  1.1608 -1.6637 -2.9205
 1414SOL     OW15700   1.501   3.836  14.885  0.0055 -0.0541 -0.8755
 1414SOL    HW115701   1.534   3.886  14.959 -1.4655 -1.2430  0.5690
 1414SOL    HW215702   1.488   3.747  14.917 -2.6323  0.8688  0.6224
 1415SOL     OW15703   3.871   4.537  17.459  0.5918 -0.2086 -0.0658
 1415SOL    HW115704   3.861   4.622  17.416  3.5466  1.4838  2.5920
 1415SOL    HW215705   3.956   4.555  17.499 -0.6793  1.9484  1.6961
 1416SOL     OW15706   2.407   1.433   2.600 -0.2666  0.6418  0.4458
 1416SOL    HW115707   2.376   1.363   2.543 -0.3171  2.4608 -1.7455
 1416SOL    HW215708   2.378   1.510   2.552  0.2885 -0.4513 -1.6014
 1417SOL     OW15709   3.267   0.005   6.186 -0.2108 -0.0452 -0.1673
 1417SOL    HW115710   3.302   0.064   6.253 -1.3945 -0.6744  0.9987
 1417SOL    HW215711   3.281   0.046   6.101  1.5294 -0.3751 -0.0486
 1418SOL     OW15712   0.207   4.137   0.817 -0.0575  0.3398 -0.7064
 1418SOL    HW115713   0.160   4.136   0.900  0.3448 -1.5628 -0.4995
 1418SOL    HW215714   0.215   4.230   0.795  0.4829  0.1609 -1.2768
 1419SOL     OW15715   1.216   1.914  13.360 -0.0499 -0.1947  0.5010
 1419SOL    HW115716   1.143   1.856  13.336  0.4119 -0.5404 -0.0755
 1419SOL    HW215717   1.247   1.881  13.444 -0.6542 -2.2858 -0.1065
 1420SOL     OW15718   2.422   2.182   3.274  0.4016 -0.1827 -0.0910
 1420SOL    HW115719   2.337   2.145   3.298  0.0174  1.0779  0.4844
 1420SOL    HW215720   2.471   2.176   3.356  0.6927  0.2957 -0.2336
 1421SOL     OW15721   4.710   4.293  13.102 -0.0761  0.6440 -0.3739
 1421SOL    HW115722   4.648   4.227  13.134  2.3145 -1.3890  0.1213
 1421SOL    HW215723   0.058   4.272  13.163  1.7241  2.6437 -1.7895
 1422SOL     OW15724   0.460   4.411  15.880  0.0501  0.1270  0.0738
 1422SOL    HW115725   0.466   4.318  15.901 -1.8120 -0.5404 -2.3444
 1422SOL    HW215726   0.413   4.436  15.960  2.1775  0.7469  1.1467
 1423SOL     OW15727   0.261   3.412   3.458 -0.1650  0.0283  0.0462
 1423SOL    HW115728   0.165   3.416   3.457 -0.2205 -1.5784  0.1108
 1423SOL    HW215729   0.262   3.319   3.439  1.5582  0.0239  0.1802
 1424SOL     OW15730   1.916   0.090  15.087  0.0309  0.1896  0.1801
 1424SOL    HW115731   1.838   0.084  15.141  1.8568 -0.0967  2.8074
 1424SOL    HW215732   1.913   0.004  15.047 -0.8827 -0.6810  2.1315
 1425SOL     OW15733   1.468   4.342   8.961 -0.0691  0.0044  0.1686
 1425SOL    HW115734   1.419   4.261   8.948 -1.1240  0.6329  0.2399
 1425SOL    HW215735   1.432   4.377   9.042 -1.3584  0.2235 -0.5060
 1426SOL     OW15736   1.768   3.183   3.870  0.4101 -0.2124  0.2976
 1426SOL    HW115737   1.807   3.262   3.906 -0.9001  0.8828 -0.7075
 1426SOL    HW215738   1.747   3.204   3.779 -1.7450  0.2282  0.8983
 1427SOL     OW15739   1.164   0.582  12.977  0.9871 -0.1047 -0.0787
 1427SOL    HW115740   1.109   0.625  13.042  1.0757  0.5261 -0.4244
 1427SOL    HW215741   1.108   0.506  12.960  0.3467  0.7054 -1.6284
 1428SOL     OW15742   0.424   3.684   6.100  0.0753 -0.4103  0.3219
 1428SOL    HW115743   0.395   3.593   6.092 -1.7715  0.1815  0.1709
 1428SOL    HW215744   0.415   3.700   6.194  0.7248  0.9426  0.1444
 1429SOL     OW15745   1.137   4.360   3.333  0.1070  0.0746  0.5526
 1429SOL    HW115746   1.173   4.441   3.369 -0.2985  0.0819  0.9419
 1429SOL    HW215747   1.071   4.404   3.280  0.3345 -1.0470 -0.6459
 1430SOL     OW15748   4.449   1.856   3.635 -0.6930 -0.5247  0.2998
 1430SOL    HW115749   4.530   1.882   3.590 -1.1846  1.2052  0.4067
 1430SOL    HW215750   4.432   1.767   3.606 -0.4468 -0.0622 -1.2891
 1431SOL     OW15751   0.721   1.416   9.086  0.0728  0.4786 -0.2550
 1431SOL    HW115752   0.747   1.463   9.008 -0.2524 -0.0838 -0.7018
 1431SOL    HW215753   0.656   1.471   9.130  0.3699  1.6994 -1.3511
 1432SOL     OW15754   4.049   4.378   9.231 -0.2490  0.5242  0.1204
 1432SOL    HW115755   3.998   4.444   9.278 -1.3562 -0.2251 -0.0190
 1432SOL    HW215756   4.112   4.382   9.302 -1.0995 -0.5660  0.9395
 1433SOL     OW15757   4.659   0.724  11.992 -0.3780  0.3494  0.7013
 1433SOL    HW115758   0.032   0.716  11.989 -0.5662 -1.7385 -0.0369
 1433SOL    HW215759   4.649   0.719  11.897  0.4421 -0.2451  0.6410
 1434SOL     OW15760   0.947   0.143   6.864  0.8721  0.5985 -0.2484
 1434SOL    HW115761   0.871   0.164   6.809 -0.9937  1.0175  2.5034
 1434SOL    HW215762   1.015   0.209   6.851  0.1380  1.5967  1.0015
 1435SOL     OW15763   4.069   1.825   1.992 -0.4134  0.1584  0.1154
 1435SOL    HW115764   4.113   1.895   2.041 -1.4436  0.0281  1.2114
 1435SOL    HW215765   4.008   1.787   2.055  0.9137 -0.0680  1.2609
 1436SOL     OW15766   3.850   4.102   5.848  0.2490  0.3085 -0.0634
 1436SOL    HW115767   3.794   4.148   5.785 -0.2237  0.2531  0.3184
 1436SOL    HW215768   3.857   4.170   5.916 -1.0143 -0.3262  0.6923
 1437SOL     OW15769   1.814   2.499   3.052  0.3555 -0.2480  0.4327
 1437SOL    HW115770   1.737   2.549   3.078  0.3117  0.0424 -0.2602
 1437SOL    HW215771   1.783   2.420   3.007 -0.8007  2.1294 -2.9193
 1438SOL     OW15772   0.014   0.777  13.032 -0.7321 -0.5747 -0.1055
 1438SOL    HW115773   0.052   0.790  12.945  1.1191  1.3107  0.9914
 1438SOL    HW215774   4.646   0.802  13.010 -1.0690 -0.0915  1.8249
 1439SOL     OW15775   2.083   3.133   2.066  0.2365 -0.0696 -0.1465
 1439SOL    HW115776   2.074   3.227   2.050  1.2487 -0.1565 -1.2780
 1439SOL    HW215777   2.060   3.094   1.982  0.3006 -1.7740  0.6338
 1440SOL     OW15778   1.728   0.542   4.327 -0.0633  0.5441  0.0701
 1440SOL    HW115779   1.655   0.540   4.265 -2.0409  1.5862  2.3792
 1440SOL    HW215780   1.711   0.459   4.372 -0.2327 -0.1923 -1.3567
 1441SOL     OW15781   1.515   3.661  15.625  0.5431  0.4271 -0.7024
 1441SOL    HW115782   1.419   3.661  15.618  0.5030 -2.5479 -0.1677
 1441SOL    HW215783   1.544   3.739  15.577 -1.4183  1.7725  0.3126
 1442SOL     OW15784   4.295   1.003   7.349 -0.3352  0.1217  0.5074
 1442SOL    HW115785   4.279   1.058   7.426  1.6503 -1.2394  1.8930
 1442SOL    HW215786   4.253   0.921   7.374 -0.4439 -0.6652 -2.2893
 1443SOL     OW15787   0.106   0.073  12.015 -0.3485 -0.3852  0.4402
 1443SOL    HW115788   0.052   0.010  11.967  0.7444  0.5093 -1.9906
 1443SOL    HW215789   0.097   0.038  12.103 -3.7519 -1.3352 -0.2823
 1444SOL     OW15790   1.594   2.777  15.542 -0.0766  0.2011 -0.1985
 1444SOL    HW115791   1.562   2.796  15.630 -3.0998  0.6771 -1.3914
 1444SOL    HW215792   1.548   2.698  15.513  1.0691 -0.5122 -0.0299
 1445SOL     OW15793   0.778   1.902  17.126 -0.2536 -0.0084  0.0995
 1445SOL    HW115794   0.834   1.979  17.112 -0.7852 -0.4060 -4.2088
 1445SOL    HW215795   0.768   1.865  17.039  1.3198  3.2664 -1.4930
 1446SOL     OW15796   2.723   1.963   5.581  0.2427  0.3734 -0.6805
 1446SOL    HW115797   2.759   1.910   5.509  1.9474  0.2453  0.2673
 1446SOL    HW215798   2.703   2.040   5.528 -0.7570 -1.2083 -2.5940
 1447SOL     OW15799   2.089   1.776   0.544 -0.4660  0.4519 -0.3996
 1447SOL    HW115800   2.048   1.851   0.588 -0.6717 -0.0138  0.1913
 1447SOL    HW215801   2.172   1.768   0.591  0.0582  2.2843 -0.9836
 1448SOL     OW15802   3.804   4.574   4.548  0.3385 -0.4136  0.1156
 1448SOL    HW115803   3.714   4.606   4.552  0.3095 -0.7638  2.2148
 1448SOL    HW215804   3.792   4.507   4.615  2.6638 -0.1875  0.7533
 1449SOL     OW15805   2.766   0.966  11.723  0.0571  0.1171 -0.1027
 1449SOL    HW115806   2.771   0.877  11.688  1.8596  0.3914 -0.5152
 1449SOL    HW215807   2.809   0.946  11.806 -2.4667  0.0017  1.1670
 1450SOL     OW15808   3.427   3.984   2.160  0.0818  0.6572 -0.0558
 1450SOL    HW115809   3.412   3.890   2.163  1.4871  0.4819  1.3234
 1450SOL    HW215810   3.371   4.022   2.093  0.5099 -1.0382 -1.3704
 1451SOL     OW15811   0.649   2.742  10.592  0.1021 -0.0407 -0.0330
 1451SOL    HW115812   0.693   2.725  10.676 -0.2049  0.0489  0.1470
 1451SOL    HW215813   0.682   2.670  10.538 -1.1365  0.4976 -1.4797
 1452SOL     OW15814   0.200   0.708   9.464  0.0721  0.3182  0.2971
 1452SOL    HW115815   0.125   0.667   9.508  0.6701 -0.4048  0.6564
 1452SOL    HW215816   0.168   0.796   9.445  1.7058  0.8755  0.1108
 1453SOL     OW15817   4.013   0.203  12.907  0.0088  0.7579  0.2363
 1453SOL    HW115818   4.026   0.267  12.838  1.3550 -0.1478 -0.3449
 1453SOL    HW215819   4.102   0.168  12.903 -1.0531 -1.6771 -1.5288
 1454SOL     OW15820   1.237   2.809  16.458  0.1150  0.3751  0.2107
 1454SOL    HW115821   1.182   2.870  16.409 -0.9911 -1.1879 -0.4918
 1454SOL    HW215822   1.285   2.764  16.389 -0.7731  0.3258 -0.3822
 1455SOL     OW15823   1.994   3.802   8.414  0.3764  0.1497  0.1208
 1455SOL    HW115824   1.937   3.728   8.437 -1.7960  1.4731 -1.0082
 1455SOL    HW215825   2.082   3.766   8.416  0.0333 -0.6633  0.6079
 1456SOL     OW15826   3.052   3.489   7.692  0.2667  0.2686 -0.0487
 1456SOL    HW115827   3.132   3.455   7.733  0.0227 -0.8719 -0.5250
 1456SOL    HW215828   3.068   3.581   7.712 -1.2580  0.4887  0.0954
 1457SOL     OW15829   4.464   1.575   2.438 -0.0619 -0.3834 -0.1563
 1457SOL    HW115830   4.494   1.613   2.521  1.0492 -0.0562 -0.7046
 1457SOL    HW215831   4.370   1.584   2.454 -0.7733 -4.3398 -2.0749
 1458SOL     OW15832   0.827   1.731  14.161  0.5127  0.5160 -0.2457
 1458SOL    HW115833   0.909   1.780  14.154  0.6707  0.0650 -1.5338
 1458SOL    HW215834   0.858   1.684  14.238 -0.0973 -0.0487 -0.3395
 1459SOL     OW15835   3.803   2.209   8.312  0.0757  0.2142 -0.3930
 1459SOL    HW115836   3.821   2.303   8.315 -0.9669  0.3042  2.5450
 1459SOL    HW215837   3.709   2.212   8.327 -0.0757 -0.1728 -1.2424
 1460SOL     OW15838   3.215   1.335  15.908 -0.5383  0.1666  0.0174
 1460SOL    HW115839   3.146   1.291  15.958  1.8334 -1.9884  1.3965
 1460SOL    HW215840   3.226   1.272  15.837 -2.0204 -0.0236 -0.0620
 1461SOL     OW15841   3.721   4.677   2.956 -0.5000  0.1756 -0.1496
 1461SOL    HW115842   3.708   4.612   2.887 -0.2965 -0.8968  0.8145
 1461SOL    HW215843   3.633   4.681   2.994  0.2322  0.5585  1.5177
 1462SOL     OW15844   4.196   4.454   6.005 -0.2924 -0.3388 -0.1419
 1462SOL    HW115845   4.162   4.377   5.960  1.2761 -0.7429 -0.6375
 1462SOL    HW215846   4.287   4.446   5.977 -0.7021 -2.8774 -0.7515
 1463SOL     OW15847   3.840   2.031   6.890 -0.1900 -0.7966 -0.2289
 1463SOL    HW115848   3.867   1.991   6.973  0.3796  0.5932  0.2496
 1463SOL    HW215849   3.789   1.961   6.848 -0.3194 -1.3651  0.8802
 1464SOL     OW15850   3.395   1.683   3.904 -0.2534 -0.0521 -0.2267
 1464SOL    HW115851   3.362   1.754   3.959 -0.1031 -1.0804  1.1995
 1464SOL    HW215852   3.319   1.680   3.845 -0.5220  1.8984  0.0239
 1465SOL     OW15853   0.844   4.721   5.809  0.0192 -0.2604  0.2007
 1465SOL    HW115854   0.938   0.015   5.803 -0.0142 -0.6903 -1.4899
 1465SOL    HW215855   0.826   4.647   5.867 -1.0672 -1.0557 -1.1792
 1466SOL     OW15856   0.148   0.170   1.654  0.0207  0.0131 -0.2728
 1466SOL    HW115857   0.103   0.113   1.716 -0.5601  1.0049  0.2292
 1466SOL    HW215858   0.074   0.200   1.601 -0.1088 -0.5628 -0.4110
 1467SOL     OW15859   0.502   4.257   7.115  0.5016 -0.6977  0.2749
 1467SOL    HW115860   0.473   4.315   7.045 -0.5292 -0.7998  0.6309
 1467SOL    HW215861   0.597   4.253   7.100  0.4251  1.3278 -0.7190
 1468SOL     OW15862   1.723   1.559   4.679  0.3733 -0.3109  0.8478
 1468SOL    HW115863   1.814   1.551   4.651  0.0022  0.5095 -0.6335
 1468SOL    HW215864   1.723   1.497   4.751 -2.6969 -0.4030  0.7737
 1469SOL     OW15865   2.695   0.999   8.812  0.2119  0.0767 -0.0228
 1469SOL    HW115866   2.717   0.984   8.720 -0.5191  2.0914 -0.5238
 1469SOL    HW215867   2.741   1.083   8.818  0.3800 -0.0245  0.0915
 1470SOL     OW15868   2.938   4.577  16.119 -0.1251  0.4551  0.2761
 1470SOL    HW115869   2.922   4.513  16.188  3.0335  0.7735  1.2755
 1470SOL    HW215870   3.033   4.587  16.115 -0.4152  3.1672  0.5733
 1471SOL     OW15871   1.119   0.375   5.516 -0.1592  0.4830 -0.2215
 1471SOL    HW115872   1.048   0.332   5.564  0.5799  1.1920  1.5282
 1471SOL    HW215873   1.163   0.426   5.584  1.6496 -2.2975  0.6851
 1472SOL     OW15874   0.237   3.361   5.483  0.0868 -0.7352  0.1054
 1472SOL    HW115875   0.320   3.329   5.447  0.2754  1.0717 -1.0742
 1472SOL    HW215876   0.235   3.451   5.451 -4.1492 -0.7880  0.2366
 1473SOL     OW15877   1.357   3.808   2.655  0.0987 -0.3468  0.1751
 1473SOL    HW115878   1.329   3.774   2.570  1.2668 -2.1137  0.4994
 1473SOL    HW215879   1.403   3.887   2.627 -0.6584  0.1600  0.3649
 1474SOL     OW15880   4.596   2.778   1.898  0.1514 -0.5507 -0.3656
 1474SOL    HW115881   4.615   2.751   1.988 -1.3654 -1.1075 -0.2195
 1474SOL    HW215882   4.616   2.699   1.848  0.8126 -0.7022  0.1311
 1475SOL     OW15883   2.799   4.094   5.441  0.4780 -0.1226  0.4327
 1475SOL    HW115884   2.795   4.006   5.403 -0.1808 -0.9654  2.4096
 1475SOL    HW215885   2.815   4.150   5.365  1.6662 -1.4932 -0.3215
 1476SOL     OW15886   0.145   3.804   7.766  0.3086  1.0168  0.3327
 1476SOL    HW115887   0.174   3.801   7.857  0.8711  1.0895  0.1597
 1476SOL    HW215888   0.119   3.715   7.744  2.7815  0.2630  0.4153
 1477SOL     OW15889   2.999   1.589  10.460 -0.6989  0.0498 -0.2053
 1477SOL    HW115890   2.908   1.558  10.466 -0.6558  0.1308  0.8512
 1477SOL    HW215891   3.019   1.597  10.553 -1.0350  1.2671 -0.2373
 1478SOL     OW15892   2.467   1.818  16.180 -0.5297  0.0782 -0.2849
 1478SOL    HW115893   2.455   1.789  16.271 -1.0375  0.4808 -0.2233
 1478SOL    HW215894   2.502   1.907  16.177 -1.0846  0.3552  1.2801
 1479SOL     OW15895   0.486   2.034  10.407 -0.0213  0.2648  0.0458
 1479SOL    HW115896   0.406   2.025  10.355  0.2648  3.2427 -0.9152
 1479SOL    HW215897   0.535   1.962  10.368 -1.0055 -0.9500  1.0571
 1480SOL     OW15898   0.314   1.384   7.563 -0.0264 -0.1116  0.3569
 1480SOL    HW115899   0.369   1.318   7.605  0.0731 -2.4531 -3.4710
 1480SOL    HW215900   0.333   1.465   7.610 -4.1342 -0.1528  2.0608
 1481SOL     OW15901   3.652   1.936   4.060  0.4965  0.4235  0.2533
 1481SOL    HW115902   3.664   1.845   4.033 -0.4550  0.7582 -1.2797
 1481SOL    HW215903   3.589   1.925   4.132  0.2665  2.0007  0.2864
 1482SOL     OW15904   2.362   3.700   4.962 -0.0532 -0.1797  0.0749
 1482SOL    HW115905   2.376   3.732   5.051 -1.8156  0.0949  0.2371
 1482SOL    HW215906   2.440   3.722   4.910 -0.1289 -0.2164 -0.0544
 1483SOL     OW15907   3.245   3.458   6.518  0.1522  0.2395 -0.3287
 1483SOL    HW115908   3.320   3.404   6.541 -0.2696 -0.1238  0.1884
 1483SOL    HW215909   3.258   3.450   6.423  1.0582 -0.1295 -0.1808
 1484SOL     OW15910   0.023   4.404   0.648 -0.2209 -0.2695 -0.3361
 1484SOL    HW115911   0.113   4.435   0.660 -0.3232  1.2643 -3.6040
 1484SOL    HW215912   4.717   4.465   0.581  2.2303  1.3569  0.1084
 1485SOL     OW15913   2.580   1.036   6.250 -0.4652  0.3132  0.3182
 1485SOL    HW115914   2.496   1.081   6.252 -0.2756  0.6071  1.4793
 1485SOL    HW215915   2.552   0.946   6.265  1.4167  0.0261  2.1270
 1486SOL     OW15916   1.262   0.980   2.858  0.5324  0.4198  0.7317
 1486SOL    HW115917   1.191   1.011   2.801  1.7656  2.6503  0.4189
 1486SOL    HW215918   1.216   0.964   2.940  1.2686 -1.0818  0.8534
 1487SOL     OW15919   3.525   1.859   5.054 -0.6676  0.1378 -0.4032
 1487SOL    HW115920   3.583   1.798   5.010  1.3388  0.6516  1.5419
 1487SOL    HW215921   3.481   1.804   5.119  1.3464  0.3655  1.1395
 1488SOL     OW15922   4.134   0.689  17.148  0.3355  0.3180  0.0962
 1488SOL    HW115923   4.225   0.716  17.144 -0.0312  1.8232  1.8415
 1488SOL    HW215924   4.109   0.722  17.062 -1.4289  2.7893  1.5484
 1489SOL     OW15925   1.014   1.797  16.967 -0.6371 -0.4074  0.2805
 1489SOL    HW115926   1.035   1.754  17.050  0.4238  0.0502  0.2584
 1489SOL    HW215927   1.101   1.780  16.929 -0.4850  0.0055  0.4403
 1490SOL     OW15928   2.184   2.475   8.040 -0.1402 -0.2335  0.2875
 1490SOL    HW115929   2.192   2.394   8.091 -0.3591  0.9971  2.2830
 1490SOL    HW215930   2.110   2.453   7.983  1.5322 -1.5579 -1.3651
 1491SOL     OW15931   3.506   1.223   1.663 -0.0129 -0.1644  0.0239
 1491SOL    HW115932   3.581   1.283   1.670  1.7638 -2.2918 -0.6399
 1491SOL    HW215933   3.538   1.154   1.721 -2.5945 -1.4869 -0.1205
 1492SOL     OW15934   4.603   4.315   8.289  0.0441  0.1764 -0.0676
 1492SOL    HW115935   4.617   4.285   8.200 -0.6264 -2.2923  0.6529
 1492SOL    HW215936   4.671   4.382   8.300 -0.3472  0.3019  1.5818
 1493SOL     OW15937   2.156   2.794  16.165 -0.6797  0.2843  0.0282
 1493SOL    HW115938   2.104   2.735  16.109 -2.4967 -0.8227  2.9201
 1493SOL    HW215939   2.095   2.867  16.164 -0.4707  0.4676  2.4432
 1494SOL     OW15940   3.046   0.051   3.962 -0.5210  0.1391 -0.2493
 1494SOL    HW115941   3.088   0.108   4.027  0.4586  0.1528 -0.8877
 1494SOL    HW215942   2.958   0.063   3.996 -0.9184 -0.8715 -0.9433
 1495SOL     OW15943   3.453   3.756  12.800 -1.0153 -0.1115  0.2586
 1495SOL    HW115944   3.503   3.681  12.767 -0.2260  0.9502 -0.9485
 1495SOL    HW215945   3.517   3.789  12.863 -1.1065  0.1928  0.1872
 1496SOL     OW15946   2.626   1.437   4.297  0.5278  0.3998 -0.1146
 1496SOL    HW115947   2.567   1.363   4.282  3.4316 -2.3443  2.1272
 1496SOL    HW215948   2.584   1.481   4.372 -1.8313 -1.4915 -0.3070
 1497SOL     OW15949   3.466   2.597   2.902 -0.6465 -0.4953  0.0732
 1497SOL    HW115950   3.479   2.518   2.953 -2.6718  0.0058  1.3799
 1497SOL    HW215951   3.505   2.661   2.962  0.0708  0.7132 -1.6607
 1498SOL     OW15952   0.742   1.042   5.036 -0.3918  0.2377  0.2867
 1498SOL    HW115953   0.802   0.973   5.066 -2.6470 -1.4893  0.8918
 1498SOL    HW215954   0.764   1.035   4.943  1.2439  1.3741  0.5965
 1499SOL     OW15955   2.658   3.125   4.494  0.7592 -0.6241  0.0179
 1499SOL    HW115956   2.649   3.033   4.518 -4.5030 -0.5788 -1.7931
 1499SOL    HW215957   2.696   3.153   4.577 -0.9625 -0.9365  0.8983
 1500SOL     OW15958   0.270   4.446  12.397 -0.3262  0.1371  0.0420
 1500SOL    HW115959   0.189   4.455  12.347 -0.9070 -0.7833  0.8262
 1500SOL    HW215960   0.310   4.371  12.353 -2.0108 -0.1739 -0.9707
 1501SOL     OW15961   1.873   3.612  12.422 -0.1252 -0.4777 -0.1642
 1501SOL    HW115962   1.916   3.647  12.500  0.0254  0.7200 -0.7754
 1501SOL    HW215963   1.939   3.549  12.393 -1.5241 -1.8237 -0.3834
 1502SOL     OW15964   3.588   4.012   6.974 -0.3505  0.1767 -0.6043
 1502SOL    HW115965   3.643   3.953   6.922  0.8692  1.9043 -1.2585
 1502SOL    HW215966   3.588   3.982   7.065  0.5215  0.2713 -0.5728
 1503SOL     OW15967   4.294   2.865   8.960  0.1851  0.3205  0.0267
 1503SOL    HW115968   4.246   2.947   8.973 -0.9906 -0.4000  0.1920
 1503SOL    HW215969   4.382   2.899   8.947  0.8458 -1.4564 -0.0742
 1504SOL     OW15970   0.680   0.048   8.139  0.2459  0.3252 -0.0732
 1504SOL    HW115971   0.753   0.023   8.196 -0.8046 -1.1301  0.6217
 1504SOL    HW215972   0.631   4.689   8.123 -1.5700  0.7287  3.3214
 1505SOL     OW15973   2.647   0.006  10.341  0.5804 -0.0540 -0.3369
 1505SOL    HW115974   2.609   4.686  10.418 -1.7411  0.5578 -1.1379
 1505SOL    HW215975   2.725   4.673  10.333 -0.3808 -1.3761 -0.6519
 1506SOL     OW15976   2.829   1.876   4.653 -0.0180 -0.0098 -0.3347
 1506SOL    HW115977   2.793   1.965   4.660 -2.2226 -1.1276  2.7668
 1506SOL    HW215978   2.819   1.865   4.559  2.0593 -1.5970 -0.3652
 1507SOL     OW15979   3.781   0.950  10.344  0.1577 -0.4364 -0.1981
 1507SOL    HW115980   3.813   0.984  10.427  0.9364  0.5238 -0.8939
 1507SOL    HW215981   3.686   0.954  10.355 -0.3631 -0.8347 -4.5830
 1508SOL     OW15982   3.612   1.409   6.898 -0.1402  0.1141  0.5145
 1508SOL    HW115983   3.516   1.411   6.898 -0.1227  1.7063 -0.5818
 1508SOL    HW215984   3.627   1.497   6.863 -2.7350  0.9731  1.5343
 1509SOL     OW15985   3.475   4.401  16.539 -0.2050 -0.4403 -0.2750
 1509SOL    HW115986   3.518   4.413  16.454 -1.2146  2.2500 -0.4025
 1509SOL    HW215987   3.539   4.456  16.584 -0.0957 -1.1978  0.4837
 1510SOL     OW15988   1.527   3.720   1.525 -0.5298 -0.2197  0.2032
 1510SOL    HW115989   1.508   3.751   1.614  0.4898 -0.1806  0.4121
 1510SOL    HW215990   1.623   3.714   1.523 -0.6345 -1.7028 -0.0875
 1511SOL     OW15991   1.777   2.929   0.541 -0.4827 -0.9168  0.8061
 1511SOL    HW115992   1.788   2.844   0.585 -4.1961 -1.1016  1.3766
 1511SOL    HW215993   1.777   2.905   0.448 -1.9749  1.0625  0.3104
 1512SOL     OW15994   1.429   1.783   9.458  0.2772 -0.3354 -0.5281
 1512SOL    HW115995   1.454   1.835   9.535 -0.5291 -0.6933 -0.0271
 1512SOL    HW215996   1.370   1.726   9.507 -1.1496  0.6013 -1.1464
 1513SOL     OW15997   4.496   0.784   9.016  0.0057  0.4912 -0.5766
 1513SOL    HW115998   4.485   0.867   8.969 -1.7562  0.2193 -0.6491
 1513SOL    HW215999   4.468   0.726   8.946  0.7263 -2.2134  1.3681
 1514SOL     OW16000   3.524   0.353   4.796 -0.2230 -0.2153 -0.3076
 1514SOL    HW116001   3.594   0.409   4.829 -0.8211  0.7785 -0.7244
 1514SOL    HW216002   3.538   0.280   4.857 -1.5618 -1.0616 -1.0189
 1515SOL     OW16003   0.276   2.401  13.155 -0.6684  0.0971 -0.1637
 1515SOL    HW116004   0.337   2.374  13.223 -0.9025 -0.3257 -0.1209
 1515SOL    HW216005   0.319   2.477  13.115  2.1500 -1.0299  0.7941
 1516SOL     OW16006   4.670   0.854   8.128 -0.0404  0.1033  0.6023
 1516SOL    HW116007   4.649   0.773   8.081  0.9505 -0.1380  0.5729
 1516SOL    HW216008   0.044   0.850   8.128 -0.1102 -1.2931  1.7173
 1517SOL     OW16009   0.655   3.414   5.778  0.4706  0.2819  0.3676
 1517SOL    HW116010   0.564   3.388   5.784  0.5250  0.2190  0.9132
 1517SOL    HW216011   0.651   3.480   5.708 -1.0001 -0.4319 -0.2111
 1518SOL     OW16012   3.486   0.311   2.109 -0.3403  0.2659  0.1204
 1518SOL    HW116013   3.395   0.340   2.110 -1.1241 -2.2612  1.1040
 1518SOL    HW216014   3.468   0.217   2.114  0.0856  0.3619  3.2832
 1519SOL     OW16015   1.850   3.410   6.806 -0.3354 -0.0315 -0.2443
 1519SOL    HW116016   1.917   3.464   6.849  0.4294 -0.2925 -1.0936
 1519SOL    HW216017   1.822   3.468   6.735 -1.1745 -0.9930 -0.7001
 1520SOL     OW16018   0.355   2.371  16.970  0.0980  0.3119 -0.7562
 1520SOL    HW116019   0.387   2.305  17.032 -0.5272  0.3885 -0.3504
 1520SOL    HW216020   0.266   2.350  16.943 -1.1140  1.2101  2.5452
 1521SOL     OW16021   2.596   3.821  17.514  0.4811  0.0374 -0.2669
 1521SOL    HW116022   2.654   3.752  17.545  0.2120 -0.6219 -1.2248
 1521SOL    HW216023   2.524   3.774  17.472  0.3004 -0.9435  1.1347
 1522SOL     OW16024   2.284   3.842  11.081 -0.4403 -0.6481  0.4735
 1522SOL    HW116025   2.206   3.817  11.131 -1.0715 -0.5580 -0.4600
 1522SOL    HW216026   2.350   3.816  11.145  0.6826 -0.4983 -0.6422
 1523SOL     OW16027   3.191   4.375  16.821 -0.3934 -0.2135 -0.2601
 1523SOL    HW116028   3.245   4.305  16.858 -0.9521 -0.0285  0.9100
 1523SOL    HW216029   3.202   4.371  16.726 -2.1641 -1.4731 -0.4047
 1524SOL     OW16030   0.554   4.706  13.722 -0.6460  0.1027  0.0607
 1524SOL    HW116031   0.603   4.662  13.653  0.7020  1.1934  0.3118
 1524SOL    HW216032   0.471   4.658  13.719 -1.0378  0.7000  1.3208
 1525SOL     OW16033   0.344   4.597   0.404  0.1535  0.2335  0.3519
 1525SOL    HW116034   0.264   4.592   0.353 -0.5282  0.6268  1.3881
 1525SOL    HW216035   0.362   4.503   0.403 -1.2749 -0.0261  0.2849
 1526SOL     OW16036   2.945   1.220   9.145  0.1961 -0.8175 -0.1500
 1526SOL    HW116037   3.016   1.156   9.152  0.8651 -0.1506 -0.7554
 1526SOL    HW216038   2.888   1.163   9.093  0.9170 -0.3987 -1.4216
 1527SOL     OW16039   4.221   1.761   8.936  0.0369  0.3941  0.0838
 1527SOL    HW116040   4.211   1.851   8.904 -2.9275 -0.0388 -0.2124
 1527SOL    HW216041   4.213   1.782   9.029  1.3996 -0.5902  0.4314
 1528SOL     OW16042   2.050   0.445   0.049 -0.1008 -0.1615  0.2846
 1528SOL    HW116043   2.070   0.463   0.141 -1.6021 -1.2315  0.8100
 1528SOL    HW216044   2.137   0.424   0.014  0.6686  2.1206  0.7567
 1529SOL     OW16045   4.618   2.693   3.862 -0.1104 -0.2701 -0.2318
 1529SOL    HW116046   4.651   2.768   3.813 -1.8135  1.1470  0.7770
 1529SOL    HW216047   4.587   2.638   3.790 -2.6264  1.2957 -0.3486
 1530SOL     OW16048   4.421   1.766   8.145  0.6415 -0.3236  0.3739
 1530SOL    HW116049   4.464   1.791   8.063  0.0092 -0.2784  0.0514
 1530SOL    HW216050   4.370   1.843   8.169  0.0148 -1.1750  1.7691
 1531SOL     OW16051   2.748   3.438   6.225  0.9734  0.2092  0.1259
 1531SOL    HW116052   2.804   3.425   6.149  1.6267 -1.6602  0.9228
 1531SOL    HW216053   2.802   3.498   6.276  1.0902 -0.2141  0.5034
 1532SOL     OW16054   3.130   1.542  11.049 -0.3490  0.1853  0.2506
 1532SOL    HW116055   3.212   1.585  11.074 -0.2878  0.6090 -0.6504
 1532SOL    HW216056   3.076   1.536  11.128  0.7008  0.5743  1.0023
 1533SOL     OW16057   0.447   2.289   4.693 -0.4476 -0.6171  0.3702
 1533SOL    HW116058   0.429   2.382   4.708  1.0354 -0.0863 -1.2455
 1533SOL    HW216059   0.440   2.280   4.598 -1.3546 -2.0214  0.5550
 1534SOL     OW16060   0.783   0.009   7.397  0.7162 -0.2511  0.1998
 1534SOL    HW116061   0.690   4.720   7.418  0.2741  2.2744 -0.4118
 1534SOL    HW216062   0.771   0.020   7.302  1.0435  1.1818  0.3230
 1535SOL     OW16063   1.206   0.572   5.730  0.2200 -0.2087  0.4782
 1535SOL    HW116064   1.280   0.612   5.685  1.4015 -2.9235 -0.0221
 1535SOL    HW216065   1.132   0.632   5.724 -0.0028 -0.7576 -2.2427
 1536SOL     OW16066   4.576   2.281   1.352 -0.4067 -0.2459  0.3143
 1536SOL    HW116067   4.564   2.251   1.442 -2.0262  1.2129  0.6031
 1536SOL    HW216068   4.494   2.317   1.318  0.2119 -1.0296 -1.9707
 1537SOL     OW16069   3.651   0.108   7.617  0.7109 -0.4843  0.0176
 1537SOL    HW116070   3.637   0.195   7.655 -1.8282 -0.1224 -1.6782
 1537SOL    HW216071   3.561   0.076   7.604  0.3992  1.1756 -1.9307
 1538SOL     OW16072   1.067   2.341   0.910  0.5102  0.5657  0.4752
 1538SOL    HW116073   1.114   2.330   0.827 -0.2602 -1.4367  0.3141
 1538SOL    HW216074   1.136   2.319   0.973 -1.2789  0.8872  2.5641
 1539SOL     OW16075   0.008   3.754  14.753  0.0314 -0.3895  0.2893
 1539SOL    HW116076   4.671   3.712  14.690  0.5576  0.7701 -0.9798
 1539SOL    HW216077   0.080   3.788  14.700 -1.2574  0.2184 -1.0485
 1540SOL     OW16078   3.184   1.893   0.777 -0.1484  0.0877 -0.2316
 1540SOL    HW116079   3.260   1.839   0.798 -0.2640  0.3077  0.7446
 1540SOL    HW216080   3.113   1.830   0.766 -1.3579  1.3809  0.1527
 1541SOL     OW16081   4.526   1.981   4.580 -0.2746 -0.6533 -0.3704
 1541SOL    HW116082   4.574   2.011   4.658  1.3645 -3.4194 -0.3315
 1541SOL    HW216083   4.478   2.061   4.557 -1.3012 -1.1923 -0.1342
 1542SOL     OW16084   2.045   1.392  15.112  0.5053 -0.4379 -0.2072
 1542SOL    HW116085   2.102   1.424  15.182  1.1376 -0.0710 -0.8819
 1542SOL    HW216086   1.981   1.463  15.115 -2.1337 -2.6812 -3.1471
 1543SOL     OW16087   0.061   3.619  11.661  0.2933  0.0851 -0.6101
 1543SOL    HW116088   0.028   3.690  11.716  2.5099 -0.3761  1.3250
 1543SOL    HW216089   4.708   3.562  11.650 -0.1440  0.5760 -0.1549
 1544SOL     OW16090   0.242   3.203   2.281  0.1073  0.0483 -0.4008
 1544SOL    HW116091   0.238   3.186   2.375  0.4816  0.9716 -0.2169
 1544SOL    HW216092   0.294   3.124   2.261  1.6200  1.6090 -2.6520
 1545SOL     OW16093   4.634   0.131   3.282  0.3095  0.2295 -0.4221
 1545SOL    HW116094   4.574   0.104   3.212  0.2993  0.2061 -0.4041
 1545SOL    HW216095   4.714   0.127   3.230 -1.4891 -0.2801 -3.1898
 1546SOL     OW16096   2.432   0.737  14.530 -0.6307 -0.1429  0.5551
 1546SOL    HW116097   2.476   0.658  14.562 -1.5435 -0.8769  0.0109
 1546SOL    HW216098   2.505   0.776  14.482 -2.5042  2.4714 -0.1993
 1547SOL     OW16099   2.664   1.927   6.983 -0.1473  0.4972 -0.6173
 1547SOL    HW116100   2.728   1.873   7.030 -2.6512 -0.6590  1.5107
 1547SOL    HW216101   2.616   1.866   6.927  1.5420 -0.2891 -1.2139
 1548SOL     OW16102   1.880   0.776   7.066  0.1288  0.2492 -0.3399
 1548SOL    HW116103   1.859   0.709   7.131 -1.1180  0.9946  0.0312
 1548SOL    HW216104   1.939   0.824   7.125  0.2641 -0.4744  0.1132
 1549SOL     OW16105   0.585   1.598  17.621  0.6117  0.2318 -0.0223
 1549SOL    HW116106   0.577   1.607  17.526  0.1796 -0.5767 -0.0595
 1549SOL    HW216107   0.643   1.673  17.639  0.4321  0.9598 -2.5364
 1550SOL     OW16108   0.076   2.978  15.046 -0.4861  0.6084 -0.1361
 1550SOL    HW116109   0.010   3.029  15.000  1.3202  0.2845 -3.1192
 1550SOL    HW216110   0.128   2.955  14.969 -3.0812 -0.0712 -1.6775
 1551SOL     OW16111   1.569   2.584   3.090 -0.0668  0.3363  0.1142
 1551SOL    HW116112   1.533   2.562   3.004 -3.6780  0.5520  1.5769
 1551SOL    HW216113   1.533   2.673   3.089 -0.0060  0.3848  2.1720
 1552SOL     OW16114   1.363   0.029   8.295  0.1083  0.6637  0.6256
 1552SOL    HW116115   1.275   0.030   8.332  0.1036  0.6000  0.6160
 1552SOL    HW216116   1.359   4.664   8.256  0.3578  0.8466  0.1891
 1553SOL     OW16117   4.435   3.605  16.534  0.3107 -0.6037 -0.0940
 1553SOL    HW116118   4.493   3.612  16.610 -1.6080  0.7342  1.2454
 1553SOL    HW216119   4.378   3.680  16.549  0.7195 -0.6578  1.7690
 1554SOL     OW16120   1.125   4.541  10.841 -0.2000 -0.1866  0.1115
 1554SOL    HW116121   1.052   4.519  10.783 -0.5037 -0.1838  0.4967
 1554SOL    HW216122   1.113   4.494  10.923 -0.5694 -0.2462  0.0241
 1555SOL     OW16123   1.396   3.520   4.289  0.7769 -0.2788 -0.1002
 1555SOL    HW116124   1.351   3.565   4.360 -0.7898  0.4068 -1.5090
 1555SOL    HW216125   1.486   3.527   4.321  0.9380 -0.4492 -0.5081
 1556SOL     OW16126   1.431   3.422   9.567  0.8283  0.8055 -0.1945
 1556SOL    HW116127   1.347   3.388   9.535  1.0992 -0.1437  0.1068
 1556SOL    HW216128   1.431   3.505   9.519 -1.1591  2.2371  2.3083
 1557SOL     OW16129   3.930   0.060   8.625 -0.1200  0.0892 -0.1259
 1557SOL    HW116130   3.983   0.126   8.581 -0.2960  1.1456  1.2676
 1557SOL    HW216131   3.942   4.712   8.561 -1.3171  1.0230 -1.3823
 1558SOL     OW16132   4.424   0.617   7.333 -0.7404 -0.2206  0.4135
 1558SOL    HW116133   4.459   0.550   7.391 -0.6458 -1.0279 -0.5735
 1558SOL    HW216134   4.449   0.590   7.244 -1.0133 -0.1007  0.2988
 1559SOL     OW16135   0.365   0.676   5.374  0.1123 -0.3240  0.7323
 1559SOL    HW116136   0.326   0.685   5.287 -1.8444 -0.0177  1.6429
 1559SOL    HW216137   0.397   0.765   5.390  2.2065 -1.1369  1.1585
 1560SOL     OW16138   0.056   3.431  16.771 -0.2087  0.3393 -0.2887
 1560SOL    HW116139   0.151   3.432  16.764 -0.1366  1.4860  0.8784
 1560SOL    HW216140   0.023   3.520  16.777  0.5283  0.7165 -2.1347
 1561SOL     OW16141   1.780   3.871   0.608 -1.0559  0.6732 -0.1138
 1561SOL    HW116142   1.806   3.783   0.581 -0.8306  0.7509 -0.1541
 1561SOL    HW216143   1.686   3.860   0.591 -1.1511 -0.8407  1.4689
 1562SOL     OW16144   2.879   2.195   7.921 -0.1120 -0.3426  0.0887
 1562SOL    HW116145   2.953   2.239   7.962  1.6026 -1.8074 -1.4755
 1562SOL    HW216146   2.812   2.263   7.927  0.7366  0.3674  1.4899
 1563SOL     OW16147   1.631   0.127  12.806 -0.3311  0.1153  0.5151
 1563SOL    HW116148   1.652   0.140  12.714  1.5362 -1.2330  0.7541
 1563SOL    HW216149   1.535   0.126  12.813 -0.1533  0.1013  3.1709
 1564SOL     OW16150   3.459   3.020   5.641 -0.4218  0.1647  0.6453
 1564SOL    HW116151   3.379   3.010   5.589  1.4695 -0.2899 -2.1718
 1564SOL    HW216152   3.435   3.010   5.733  0.2231 -0.8179  0.7124
 1565SOL     OW16153   4.241   1.566   3.885  0.7084  0.6832 -0.0414
 1565SOL    HW116154   4.178   1.588   3.816 -0.0177 -2.1579 -0.2960
 1565SOL    HW216155   4.321   1.553   3.835 -0.2225  0.6933 -1.5430
 1566SOL     OW16156   3.436   1.141   6.236 -0.0197 -0.2900 -0.0374
 1566SOL    HW116157   3.365   1.132   6.298 -0.0843  0.8738  0.0719
 1566SOL    HW216158   3.495   1.068   6.254  0.5495  0.1109 -0.2837
 1567SOL     OW16159   0.621   2.570   3.581 -0.0567 -0.1247 -0.6509
 1567SOL    HW116160   0.541   2.618   3.597  0.6385  0.5229  0.8701
 1567SOL    HW216161   0.601   2.487   3.624  0.8959 -1.0660 -1.9950
 1568SOL     OW16162   2.621   1.508   9.380 -0.2846  0.1741  0.3420
 1568SOL    HW116163   2.533   1.469   9.380 -0.2740  0.1511  1.1108
 1568SOL    HW216164   2.656   1.457   9.454 -2.4030 -0.1772  1.1156
 1569SOL     OW16165   3.340   0.943   7.346 -0.4060 -0.7418  0.5497
 1569SOL    HW116166   3.338   0.965   7.253 -0.0192 -0.8438  0.5189
 1569SOL    HW216167   3.259   0.894   7.365  0.6714 -2.5527  0.4877
 1570SOL     OW16168   4.253   3.254  10.744  0.3365 -0.5205  0.1024
 1570SOL    HW116169   4.308   3.286  10.817  0.0991 -0.3643  0.2111
 1570SOL    HW216170   4.172   3.290  10.779  0.8370  0.1833  0.5454
 1571SOL     OW16171   0.626   4.456   2.455  0.2296 -0.5784  0.5610
 1571SOL    HW116172   0.615   4.549   2.475  2.7180 -0.2445  0.3949
 1571SOL    HW216173   0.649   4.463   2.362 -1.3780 -0.5521  0.1769
 1572SOL     OW16174   2.658   3.537   7.299  0.2187 -0.0820  0.2928
 1572SOL    HW116175   2.728   3.587   7.342  0.3812 -0.4894  0.5094
 1572SOL    HW216176   2.693   3.540   7.209  0.2701 -0.0709  0.3128
 1573SOL     OW16177   4.424   3.258   8.342 -0.2112  0.3454 -0.2626
 1573SOL    HW116178   4.401   3.173   8.380  0.6451  0.4130  0.4095
 1573SOL    HW216179   4.457   3.241   8.254  0.4193 -1.7417  0.3766
 1574SOL     OW16180   4.161   0.848  16.748 -0.1546 -0.0871  0.3112
 1574SOL    HW116181   4.095   0.850  16.817  0.1514  1.2924  0.5777
 1574SOL    HW216182   4.174   0.943  16.738 -0.6286 -0.0070  0.4754
 1575SOL     OW16183   4.444   1.847   6.583  0.1300 -0.2573  0.3733
 1575SOL    HW116184   4.488   1.774   6.540  0.7731  0.8577 -0.8578
 1575SOL    HW216185   4.358   1.809   6.602 -0.4072  0.3145 -0.9329
 1576SOL     OW16186   4.663   2.866   0.655  0.3308  0.2538 -0.2051
 1576SOL    HW116187   4.679   2.952   0.694 -1.1062  0.5188 -0.1774
 1576SOL    HW216188   0.007   2.865   0.586  0.2852 -2.2136 -0.2084
 1577SOL     OW16189   0.079   3.971  14.512  0.6261  0.7226  0.0359
 1577SOL    HW116190   0.057   4.040  14.449  2.2187 -0.7487 -2.1531
 1577SOL    HW216191   0.028   3.895  14.483 -0.0331 -0.0448  3.2910
 1578SOL     OW16192   0.937   2.693   1.986 -0.1633 -0.1455 -0.1479
 1578SOL    HW116193   0.926   2.643   1.905  3.2278  1.2613 -1.4745
 1578SOL    HW216194   0.962   2.783   1.965  1.4774 -0.7521 -0.7773
 1579SOL     OW16195   1.413   2.404   7.581  0.0524 -0.1770  0.2826
 1579SOL    HW116196   1.337   2.438   7.534  0.7652 -0.1697 -0.8526
 1579SOL    HW216197   1.375   2.391   7.668  1.3984 -1.0388  0.7498
 1580SOL     OW16198   0.679   4.243  12.269  1.3941 -0.5979  0.1003
 1580SOL    HW116199   0.698   4.299  12.345 -1.8847  1.3549 -0.4828
 1580SOL    HW216200   0.767   4.218  12.242  2.3854  1.6296  1.2205
 1581SOL     OW16201   3.027   2.092   5.337 -0.0360 -0.8559  0.3505
 1581SOL    HW116202   3.068   2.006   5.325 -0.6896 -1.1752  0.4523
 1581SOL    HW216203   3.094   2.133   5.392  0.0958  0.2052 -0.5895
 1582SOL     OW16204   3.528   1.806   3.033  0.8918  0.2159  1.0203
 1582SOL    HW116205   3.622   1.819   3.049  1.3733 -0.7135 -1.1635
 1582SOL    HW216206   3.484   1.842   3.110  0.6535  0.7451  0.6356
 1583SOL     OW16207   0.173   3.682   2.976  0.3225 -0.1269  0.1068
 1583SOL    HW116208   0.179   3.587   2.970 -0.9172 -0.3126  1.8722
 1583SOL    HW216209   0.244   3.713   2.920  1.0513 -0.6844  0.7228
 1584SOL     OW16210   1.275   3.740  14.625  0.2568 -0.4052  0.0667
 1584SOL    HW116211   1.218   3.724  14.700  1.8508  0.1080  1.3881
 1584SOL    HW216212   1.302   3.830  14.642  0.0623 -0.0190 -1.6210
 1585SOL     OW16213   1.970   1.254   5.687 -0.1929  0.1196 -0.4452
 1585SOL    HW116214   2.060   1.258   5.655  0.4250  0.0844  1.2930
 1585SOL    HW216215   1.954   1.348   5.687  0.6686  0.2749  1.2311
 1586SOL     OW16216   3.768   3.982   2.577 -0.2645  0.5439  0.1191
 1586SOL    HW116217   3.769   4.078   2.568  0.3199  0.5749  0.5832
 1586SOL    HW216218   3.738   3.972   2.667  1.3508 -2.9196  0.2752
 1587SOL     OW16219   3.862   0.990  10.613 -0.4792  0.0824  0.2351
 1587SOL    HW116220   3.905   1.043  10.680 -1.4329  1.8519 -0.5449
 1587SOL    HW216221   3.846   0.912  10.666 -2.4421  1.0619  1.0590
 1588SOL     OW16222   2.630   3.607   3.172 -0.2107 -0.2874 -0.1562
 1588SOL    HW116223   2.572   3.583   3.100  0.0899 -1.2903 -0.0626
 1588SOL    HW216224   2.710   3.650   3.141 -0.2674 -0.3890 -0.4373
 1589SOL     OW16225   0.699   4.345   1.277  0.5844  0.0035  0.0972
 1589SOL    HW116226   0.611   4.380   1.264  0.1520 -1.1740 -0.1106
 1589SOL    HW216227   0.739   4.347   1.190 -2.4862  1.5250 -1.2793
 1590SOL     OW16228   2.213   3.653   3.085  0.4441  0.0111 -0.3331
 1590SOL    HW116229   2.271   3.636   3.159 -1.4768 -3.0958  0.4575
 1590SOL    HW216230   2.213   3.748   3.076 -3.2734  0.1134  0.9534
 1591SOL     OW16231   1.012   1.787   6.272  0.2259 -0.6001  0.1746
 1591SOL    HW116232   1.098   1.827   6.266  0.2708 -1.0726 -2.1002
 1591SOL    HW216233   0.985   1.815   6.360 -0.6368  1.8039 -0.8295
 1592SOL     OW16234   1.653   1.388   4.899 -0.3671  0.2276  0.2393
 1592SOL    HW116235   1.563   1.403   4.872 -0.7270  1.5814  2.2239
 1592SOL    HW216236   1.654   1.292   4.904 -0.9093  0.1779 -0.6555
 1593SOL     OW16237   0.802   1.472  11.418  0.0449  0.6618 -0.0514
 1593SOL    HW116238   0.841   1.395  11.460 -1.9216 -0.6767 -0.6777
 1593SOL    HW216239   0.756   1.507  11.494 -1.3300  0.7951 -0.9447
 1594SOL     OW16240   3.268   1.893   4.082 -0.4722 -0.1522 -0.4265
 1594SOL    HW116241   3.270   1.960   4.150 -0.0387 -2.2773  1.6496
 1594SOL    HW216242   3.193   1.923   4.031  0.0778  0.2708 -0.9866
 1595SOL     OW16243   1.703   1.070   2.638  0.3981 -0.3972  0.2710
 1595SOL    HW116244   1.748   1.077   2.554 -0.2627 -1.9023 -0.2104
 1595SOL    HW216245   1.664   0.983   2.632  0.4467 -0.4961  1.3851
 1596SOL     OW16246   2.081   3.958   4.827  0.2915  0.4261  0.3022
 1596SOL    HW116247   2.070   3.874   4.782 -1.9574  0.4680  0.7570
 1596SOL    HW216248   2.175   3.964   4.846  0.3817  0.9288 -0.3015
 1597SOL     OW16249   1.671   3.584   4.349  0.0725 -0.1655  0.2224
 1597SOL    HW116250   1.722   3.589   4.268 -1.4812 -4.1424 -0.9986
 1597SOL    HW216251   1.727   3.635   4.407  0.3348 -1.0910  0.7959
 1598SOL     OW16252   1.621   4.468   8.336 -0.2141  0.1465  0.7114
 1598SOL    HW116253   1.638   4.528   8.264 -1.0809  0.0118  0.3917
 1598SOL    HW216254   1.584   4.396   8.285  0.6823 -0.6482  1.1789
 1599SOL     OW16255   0.553   2.302   5.716 -0.2581 -0.7114  0.3672
 1599SOL    HW116256   0.529   2.221   5.669 -0.0880 -0.0689 -0.8258
 1599SOL    HW216257   0.635   2.271   5.754  0.7919  0.6439 -0.7912
 1600SOL     OW16258   3.989   2.273   8.726  0.1277 -0.3708 -0.3084
 1600SOL    HW116259   4.000   2.338   8.795 -2.1776  0.4916 -0.7440
 1600SOL    HW216260   4.072   2.278   8.679 -0.2322 -1.0196 -1.0221
 1601SOL     OW16261   3.601   0.156   4.980  0.7041 -0.2917  0.2279
 1601SOL    HW116262   3.655   0.093   5.027 -0.3702 -1.0752  0.4242
 1601SOL    HW216263   3.528   0.167   5.041  0.4249 -1.2875  0.0757
 1602SOL     OW16264   3.440   3.315   7.530 -0.2539  0.7007  0.4367
 1602SOL    HW116265   3.521   3.268   7.508 -1.8801 -1.4614 -0.9148
 1602SOL    HW216266   3.371   3.254   7.558  0.5518 -1.1728 -1.5878
 1603SOL     OW16267   3.791   0.716  17.287 -0.5853 -0.5975  0.4055
 1603SOL    HW116268   3.821   0.626  17.273  1.6691  0.8891 -4.3895
 1603SOL    HW216269   3.872   0.752  17.322 -0.0392 -0.0532 -1.3847
 1604SOL     OW16270   0.883   1.683   4.348 -0.1827  0.1425  0.1377
 1604SOL    HW116271   0.843   1.769   4.356  2.4248  1.2795  0.7989
 1604SOL    HW216272   0.972   1.706   4.320  0.2186 -0.4180  0.9450
 1605SOL     OW16273   1.730   0.466   7.773  0.3775  0.1580  0.5347
 1605SOL    HW116274   1.715   0.408   7.699 -0.0476  1.7567 -0.6228
 1605SOL    HW216275   1.714   0.414   7.852 -2.6516  0.0820 -0.1408
 1606SOL     OW16276   3.475   2.546  16.462 -0.0998 -0.3428  0.1873
 1606SOL    HW116277   3.539   2.481  16.492 -0.2994 -0.3812  0.5344
 1606SOL    HW216278   3.469   2.520  16.371 -1.5654  1.8468 -0.3305
 1607SOL     OW16279   2.678   2.319   8.479 -0.0330 -0.5826 -0.5965
 1607SOL    HW116280   2.684   2.329   8.574  0.7875 -1.5332 -0.5450
 1607SOL    HW216281   2.629   2.396   8.452 -1.2839 -0.9986  0.4620
 1608SOL     OW16282   2.741   0.246   2.152 -0.1841  0.2649 -0.0271
 1608SOL    HW116283   2.767   0.279   2.238 -2.3477  0.4076  0.5587
 1608SOL    HW216284   2.824   0.271   2.112  0.2909  0.3552  1.0099
 1609SOL     OW16285   1.234   2.416   9.444  0.3232  0.6095 -0.3342
 1609SOL    HW116286   1.155   2.365   9.424 -0.2711  0.8542  1.3873
 1609SOL    HW216287   1.240   2.401   9.538 -1.6007  0.8860 -0.1613
 1610SOL     OW16288   3.045   1.461   6.734  0.3288  0.2494  0.3925
 1610SOL    HW116289   3.063   1.481   6.826 -0.5778 -1.3495  0.9143
 1610SOL    HW216290   2.953   1.484   6.721 -0.1080 -1.4397  0.4285
 1611SOL     OW16291   4.593   1.518   8.719 -0.6023  0.6262 -0.1100
 1611SOL    HW116292   4.511   1.505   8.767 -0.1515  1.7084  0.9716
 1611SOL    HW216293   4.634   1.432   8.724  0.7252  1.2844  0.3507
 1612SOL     OW16294   0.724   1.700  12.772 -0.6135 -0.3022  0.0421
 1612SOL    HW116295   0.766   1.668  12.692 -2.3170  0.4658 -1.1553
 1612SOL    HW216296   0.779   1.663  12.841 -1.7725 -1.6933  0.2224
 1613SOL     OW16297   2.245   0.759   9.002 -0.2668 -0.2299  0.3248
 1613SOL    HW116298   2.254   0.663   8.998 -1.3306 -0.2587 -1.2334
 1613SOL    HW216299   2.193   0.774   9.081 -0.6243 -0.5807  0.1549
 1614SOL     OW16300   3.124   1.266   4.000  0.2236 -0.9441  0.3057
 1614SOL    HW116301   3.218   1.261   4.018 -0.0416  0.1566  2.1031
 1614SOL    HW216302   3.115   1.288   3.908  0.2202 -0.6536  0.3751
 1615SOL     OW16303   2.512   1.337  16.812  0.0879 -0.1213 -0.0043
 1615SOL    HW116304   2.508   1.329  16.716  1.4757 -0.9638  0.0215
 1615SOL    HW216305   2.428   1.296  16.832 -1.1749  1.7697 -1.3167
 1616SOL     OW16306   2.615   2.054   4.322  0.2415  0.3834 -0.8390
 1616SOL    HW116307   2.679   2.121   4.298 -0.5771  1.9030  1.2509
 1616SOL    HW216308   2.672   1.996   4.372 -0.2290  0.7460  0.1051
 1617SOL     OW16309   0.757   0.894   6.517 -0.0187 -0.0166 -0.1444
 1617SOL    HW116310   0.829   0.930   6.466 -2.0148  1.7695 -1.7182
 1617SOL    HW216311   0.680   0.945   6.491 -0.0612 -0.8916 -1.7368
 1618SOL     OW16312   3.233   2.684  16.898  0.0710 -0.4425  0.6838
 1618SOL    HW116313   3.202   2.687  16.808  1.1189 -0.9765  0.3085
 1618SOL    HW216314   3.326   2.703  16.891 -0.3669  0.9408 -1.4445
 1619SOL     OW16315   3.067   3.658   7.301  0.1866  0.0340  0.7400
 1619SOL    HW116316   3.051   3.590   7.235  1.7272  0.1104  0.3067
 1619SOL    HW216317   3.160   3.643   7.317  0.3104 -0.4330 -0.4793
 1620SOL     OW16318   3.300   2.305   5.833  0.3000 -0.4189 -0.4674
 1620SOL    HW116319   3.341   2.221   5.852  0.8459  0.2095  1.1222
 1620SOL    HW216320   3.285   2.342   5.920 -3.0391  0.7278 -1.5316
 1621SOL     OW16321   3.695   3.626   2.563 -1.0065  0.2264 -0.4621
 1621SOL    HW116322   3.628   3.567   2.529 -2.7032  1.7673  0.1958
 1621SOL    HW216323   3.685   3.711   2.520 -1.7208 -0.8885 -2.4923
 1622SOL     OW16324   2.259   0.244   9.531  0.1837 -0.3655 -0.3535
 1622SOL    HW116325   2.326   0.309   9.551  0.1710 -0.5390  0.2571
 1622SOL    HW216326   2.303   0.205   9.455 -1.4850 -1.4909 -0.7554
 1623SOL     OW16327   2.730   4.678   6.258 -0.3024 -0.2499 -0.1822
 1623SOL    HW116328   2.808   4.622   6.264  0.6944  0.9731 -1.7165
 1623SOL    HW216329   2.738   0.001   6.174  0.2036 -1.5362 -0.8281
 1624SOL     OW16330   2.284   4.428   6.235  0.1991  0.2587  0.3256
 1624SOL    HW116331   2.271   4.447   6.142 -0.6937 -0.4824  0.3011
 1624SOL    HW216332   2.335   4.505   6.263 -0.9138 -0.3410  4.0437
 1625SOL     OW16333   0.820   4.433  14.742 -0.0608 -0.1412  0.7279
 1625SOL    HW116334   0.896   4.449  14.686 -1.5610 -1.5495 -1.7346
 1625SOL    HW216335   0.807   4.338  14.742 -0.1888 -0.1248 -0.5988
 1626SOL     OW16336   3.844   2.174  10.941  0.5323  0.4992 -0.4189
 1626SOL    HW116337   3.813   2.222  10.865 -0.9172  2.4734  1.4043
 1626SOL    HW216338   3.888   2.096  10.908 -2.4296 -1.5202  0.3364
 1627SOL     OW16339   2.970   4.147   7.465 -0.3718 -0.5124  0.3704
 1627SOL    HW116340   2.964   4.202   7.387  2.7578 -0.6999 -0.0124
 1627SOL    HW216341   2.891   4.094   7.453  0.5852 -2.2325  1.6574
 1628SOL     OW16342   0.287   4.531   8.056 -0.0102 -0.0245 -0.5610
 1628SOL    HW116343   0.327   4.512   8.141  0.8515  2.6212 -0.3903
 1628SOL    HW216344   0.266   4.622   8.075  1.2533  0.3192 -0.8155
 1629SOL     OW16345   3.247   0.380   7.891 -0.4502  0.4485 -0.0488
 1629SOL    HW116346   3.299   0.452   7.927 -0.3944  0.2509  0.2655
 1629SOL    HW216347   3.277   0.380   7.800  3.2192  0.8452  1.1511
 1630SOL     OW16348   4.180   1.419   4.857 -0.0881  0.7793 -0.6318
 1630SOL    HW116349   4.086   1.413   4.869 -0.6817  3.9111 -3.4233
 1630SOL    HW216350   4.208   1.338   4.899 -3.5545  1.0260  2.1237
 1631SOL     OW16351   4.641   3.340   7.176  0.0428  0.3647  0.0243
 1631SOL    HW116352   4.718   3.336   7.233  1.7117  0.4927 -2.2304
 1631SOL    HW216353   4.622   3.248   7.156 -3.0566  0.6860  1.5610
 1632SOL     OW16354   3.403   0.063   7.545 -0.7290 -0.5248  1.0671
 1632SOL    HW116355   3.353   0.067   7.463 -1.1907 -0.7929  1.3358
 1632SOL    HW216356   3.358   4.714   7.592 -0.4507 -1.8706 -0.6766
 1633SOL     OW16357   2.498   2.544   7.546 -0.1965 -0.1039 -0.1193
 1633SOL    HW116358   2.448   2.473   7.504 -1.7220  0.0943  1.3482
 1633SOL    HW216359   2.513   2.508   7.634 -0.5630  1.2890  0.5018
 1634SOL     OW16360   0.768   4.046   6.106 -0.3270  0.0092  0.0812
 1634SOL    HW116361   0.838   4.084   6.160 -1.0171 -0.0032  0.9865
 1634SOL    HW216362   0.792   4.071   6.017  0.4300  1.1049  0.5885
 1635SOL     OW16363   2.251   1.671   6.922 -0.0867  0.6574  0.8231
 1635SOL    HW116364   2.207   1.682   6.838 -0.2619 -0.7762  0.7255
 1635SOL    HW216365   2.184   1.620   6.969  0.1492  0.0153  0.4590
 1636SOL     OW16366   0.571   4.633   6.671  0.2803  0.3818  0.4877
 1636SOL    HW116367   0.533   4.711   6.713 -0.2795  0.8744 -0.9434
 1636SOL    HW216368   0.649   4.622   6.725  1.0037 -0.0441 -0.6643
 1637SOL     OW16369   1.441   0.319   6.539 -0.6961 -0.4490  0.3021
 1637SOL    HW116370   1.428   0.366   6.457 -2.2055 -1.4543 -0.0359
 1637SOL    HW216371   1.525   0.355   6.567 -0.9275  1.6311 -1.6900
 1638SOL     OW16372   3.895   1.347   8.416 -0.5567  0.0522 -0.6784
 1638SOL    HW116373   3.888   1.256   8.444 -0.1675  0.0505 -0.5865
 1638SOL    HW216374   3.966   1.339   8.352  2.0947  4.1472  1.8362
 1639SOL     OW16375   1.818   2.531   7.789  0.0340 -0.6335  0.0875
 1639SOL    HW116376   1.724   2.517   7.787  0.3732 -3.2371  3.2356
 1639SOL    HW216377   1.846   2.461   7.848  0.1891 -2.3854 -2.0414
 1640SOL     OW16378   2.601   3.950   3.120 -0.0115  0.4789 -0.1574
 1640SOL    HW116379   2.576   3.890   3.191 -1.0017  1.0124 -0.0489
 1640SOL    HW216380   2.644   4.023   3.166 -0.7500  0.8453 -0.0361
 1641SOL     OW16381   3.865   3.115   7.970 -0.1721  0.3210  0.4210
 1641SOL    HW116382   3.880   3.200   7.929 -0.9534  0.0563 -0.4325
 1641SOL    HW216383   3.936   3.061   7.935 -0.4526  0.4211 -0.3127
 1642SOL     OW16384   1.218   4.351   7.517 -0.3503  0.1088 -0.1439
 1642SOL    HW116385   1.182   4.333   7.430 -5.0422  1.4613  1.5690
 1642SOL    HW216386   1.211   4.446   7.510 -0.1868  0.2002  0.9807
 1643SOL     OW16387   4.185   2.626   6.482  0.3422 -0.0313  0.5212
 1643SOL    HW116388   4.244   2.695   6.512  1.4409 -0.2626 -1.1260
 1643SOL    HW216389   4.193   2.637   6.387  3.1019 -2.1892  0.5120
 1644SOL     OW16390   2.919   3.801   6.664  0.3848 -1.0989 -0.0522
 1644SOL    HW116391   2.959   3.755   6.737 -2.4187 -1.0075  1.5150
 1644SOL    HW216392   2.939   3.890   6.693 -2.0855 -0.2976 -0.7520
 1645SOL     OW16393   2.138   4.556   9.288 -0.0235  0.7053  0.1810
 1645SOL    HW116394   2.149   4.582   9.379  0.0419  1.5555 -0.0722
 1645SOL    HW216395   2.161   4.463   9.282  0.5223  0.8267  0.4344
 1646SOL     OW16396   0.217   2.861   7.701 -0.4408  0.2396 -0.6205
 1646SOL    HW116397   0.223   2.812   7.783  0.6271 -1.8670 -1.9799
 1646SOL    HW216398   0.126   2.841   7.676 -1.0858 -0.0492  1.8764
 1647SOL     OW16399   2.757   3.133  17.327 -0.1657  0.2983  0.1282
 1647SOL    HW116400   2.824   3.182  17.280 -0.0564 -0.1581 -0.1872
 1647SOL    HW216401   2.809   3.102  17.402  0.9066  1.1468 -0.2604
 1648SOL     OW16402   1.188   4.671   9.917 -0.0979  0.0070 -0.8040
 1648SOL    HW116403   1.176   4.590   9.868  0.3973  0.2388 -1.3103
 1648SOL    HW216404   1.263   4.652   9.973 -1.6166 -0.1174  1.2084
 1649SOL     OW16405   3.083   4.447   5.174  0.3092  0.1357 -0.4934
 1649SOL    HW116406   3.017   4.380   5.192  0.8328 -0.5809 -1.2485
 1649SOL    HW216407   3.162   4.414   5.218  0.2655 -0.6765 -1.0247
 1650SOL     OW16408   0.012   4.080   1.009  0.4184  0.2449  0.4407
 1650SOL    HW116409   0.032   4.020   1.080  0.4991 -0.0724  0.1509
 1650SOL    HW216410   4.657   4.037   0.971  1.9195 -1.6519 -0.4811
 1651SOL     OW16411   3.649   4.035   3.374  0.2700 -0.0728  0.4972
 1651SOL    HW116412   3.600   3.971   3.323  1.5163 -0.3959 -0.2847
 1651SOL    HW216413   3.622   4.005   3.461 -1.1929  0.5832  0.2635
 1652SOL     OW16414   0.254   1.565   8.086  0.0924 -0.2602  0.3554
 1652SOL    HW116415   0.235   1.577   8.180  1.2331  1.0381  0.4166
 1652SOL    HW216416   0.164   1.548   8.057  0.0220  0.8651 -0.0918
 1653SOL     OW16417   3.087   3.471   7.114 -0.7680 -0.0758 -0.5557
 1653SOL    HW116418   3.160   3.437   7.166 -1.3735 -1.0832 -0.3744
 1653SOL    HW216419   3.012   3.429   7.156 -0.6730 -0.5745 -0.8868
 1654SOL     OW16420   3.529   2.157  14.429 -0.0337 -0.5880 -0.4417
 1654SOL    HW116421   3.548   2.239  14.384 -0.0857  0.4607  1.4759
 1654SOL    HW216422   3.525   2.099  14.352 -0.2050 -0.7783 -0.2907
 1655SOL     OW16423   2.845   4.492   1.549 -0.8324  0.7435 -0.0581
 1655SOL    HW116424   2.862   4.437   1.472 -0.4483  2.3480 -1.1107
 1655SOL    HW216425   2.777   4.556   1.527  0.6787  1.7127 -1.8229
 1656SOL     OW16426   0.180   4.423   8.901 -0.3188 -0.0497  0.1708
 1656SOL    HW116427   0.224   4.339   8.892  0.1349  0.0103  1.8446
 1656SOL    HW216428   0.090   4.394   8.916 -0.8692  0.1936 -2.8310
 1657SOL     OW16429   0.924   1.663  13.611  0.1175 -0.2707  0.3121
 1657SOL    HW116430   0.950   1.712  13.689 -1.4911 -0.1649  0.7957
 1657SOL    HW216431   0.834   1.648  13.643  0.1031  1.2116  0.9594
 1658SOL     OW16432   3.250   0.595  17.497  0.8079 -0.0763 -0.0767
 1658SOL    HW116433   3.280   0.652  17.426  0.9405  0.5054  0.4457
 1658SOL    HW216434   3.261   0.661  17.565 -0.8278  1.0506 -0.9073
 1659SOL     OW16435   4.127   3.837   4.816  0.3385  0.1357  0.4104
 1659SOL    HW116436   4.218   3.845   4.845 -0.0176  2.1412  0.9778
 1659SOL    HW216437   4.131   3.884   4.733  0.9890  0.5335  0.6688
 1660SOL     OW16438   3.277   1.611   8.186  0.2050 -0.0268 -0.9194
 1660SOL    HW116439   3.357   1.565   8.210 -1.2360 -2.5262 -0.8730
 1660SOL    HW216440   3.321   1.697   8.183  1.5088 -0.7040 -1.1740
 1661SOL     OW16441   4.351   0.162   6.863 -0.1447  0.2573 -0.1218
 1661SOL    HW116442   4.392   0.243   6.835 -1.3701  1.0809  0.4613
 1661SOL    HW216443   4.396   0.091   6.817  2.7592  0.3781  2.5293
 1662SOL     OW16444   4.483   1.578   6.500 -0.1832 -0.3668 -0.3109
 1662SOL    HW116445   4.405   1.572   6.446  0.9194 -3.4340 -1.5842
 1662SOL    HW216446   4.556   1.571   6.438 -0.3166 -1.1907 -0.3784
 1663SOL     OW16447   1.992   4.331   5.798  0.1141 -0.0197 -0.6775
 1663SOL    HW116448   2.049   4.406   5.783  0.3648  0.3177  2.0936
 1663SOL    HW216449   1.904   4.367   5.791 -0.6215 -1.7770 -0.6556
 1664SOL     OW16450   3.851   0.375   3.917  0.6581 -0.0148  0.2001
 1664SOL    HW116451   3.930   0.324   3.935  0.2462 -0.2995  1.2332
 1664SOL    HW216452   3.876   0.396   3.827 -0.0828 -1.0595 -0.2461
 1665SOL     OW16453   4.023   3.407  10.776  0.2252 -0.1686 -0.2395
 1665SOL    HW116454   4.000   3.410  10.869 -0.4301  0.6143 -0.4258
 1665SOL    HW216455   3.978   3.489  10.753  0.2740 -0.2633 -0.6809
 1666SOL     OW16456   2.091   0.076   9.182  0.0827 -0.2164  0.3519
 1666SOL    HW116457   2.103   4.707   9.210  0.4772 -0.3297 -0.1844
 1666SOL    HW216458   2.014   0.068   9.125 -1.2029  0.7382  1.9768
 1667SOL     OW16459   4.302   3.608  15.816  0.1909 -0.0740  0.3365
 1667SOL    HW116460   4.372   3.553  15.781 -0.6483 -0.2359 -1.0509
 1667SOL    HW216461   4.324   3.608  15.910 -0.0541 -0.2105  0.3949
 1668SOL     OW16462   0.505   3.052   4.359  0.2553 -0.0935 -0.3950
 1668SOL    HW116463   0.587   3.079   4.400  0.7472  0.0649 -1.4831
 1668SOL    HW216464   0.502   3.109   4.282  0.4693  0.9824  0.3928
 1669SOL     OW16465   3.162   2.627   3.075  0.0996 -0.6822  0.0473
 1669SOL    HW116466   3.187   2.639   2.983  1.4293 -0.8013  0.3862
 1669SOL    HW216467   3.130   2.706   3.118  0.2162  0.5189 -2.0795
 1670SOL     OW16468   1.817   1.794   4.531  0.4420  0.2473 -0.0950
 1670SOL    HW116469   1.782   1.716   4.573 -0.7947  0.6206 -0.4218
 1670SOL    HW216470   1.897   1.792   4.582 -0.0061  1.1368  0.6465
 1671SOL     OW16471   4.545   3.413   6.800  0.3086 -0.0729  0.5283
 1671SOL    HW116472   4.607   3.478   6.832 -0.7071  1.8174 -1.3616
 1671SOL    HW216473   4.481   3.471   6.760  0.8151  0.7193  0.8822
 1672SOL     OW16474   0.987   0.119   1.520  0.1662  0.0818  0.0962
 1672SOL    HW116475   0.947   0.163   1.595 -0.7702 -1.5606  0.5655
 1672SOL    HW216476   0.941   0.164   1.449 -0.8096 -0.1349  0.5922
 1673SOL     OW16477   2.819   1.407  11.440  0.0886  0.0865 -0.1580
 1673SOL    HW116478   2.806   1.313  11.451 -0.7788  0.1662 -0.5227
 1673SOL    HW216479   2.729   1.425  11.413 -0.3848 -0.4923  1.0946
 1674SOL     OW16480   1.229   1.190   6.432 -0.0364 -0.1335  0.2132
 1674SOL    HW116481   1.155   1.195   6.492 -0.5060 -0.1612 -0.3688
 1674SOL    HW216482   1.191   1.220   6.349 -0.6997  1.3467  1.0406
 1675SOL     OW16483   2.505   4.119   3.656 -0.6847 -0.0430  0.1065
 1675SOL    HW116484   2.598   4.113   3.678 -0.2849 -0.9489 -1.8432
 1675SOL    HW216485   2.457   4.070   3.723  1.8364 -0.3834  1.6711
 1676SOL     OW16486   4.334   3.509  14.016  0.0202  0.0792  0.7108
 1676SOL    HW116487   4.293   3.436  14.062 -2.2490 -0.0660 -1.5417
 1676SOL    HW216488   4.316   3.476  13.928 -1.2460 -1.7368  1.6254
 1677SOL     OW16489   0.890   2.845   1.064 -0.0078 -0.6853 -0.2841
 1677SOL    HW116490   0.795   2.847   1.076  0.1645  2.0246  0.7223
 1677SOL    HW216491   0.908   2.779   1.131  1.8466 -2.4779 -2.5576
 1678SOL     OW16492   4.361   3.600   6.701 -0.0120 -0.0752  0.1438
 1678SOL    HW116493   4.340   3.583   6.609  0.4467 -0.6637  0.1479
 1678SOL    HW216494   4.272   3.603   6.737 -0.2050  1.8241 -0.4668
 1679SOL     OW16495   4.319   4.217   1.851 -0.2968 -0.4309  0.3464
 1679SOL    HW116496   4.361   4.143   1.895 -0.5511 -0.1899  0.9884
 1679SOL    HW216497   4.319   4.177   1.764 -1.9710  0.9701 -0.2875
 1680SOL     OW16498   3.965   0.576   7.980  1.0570 -0.1758  0.0853
 1680SOL    HW116499   4.046   0.618   8.007  0.6588 -0.7622  2.1717
 1680SOL    HW216500   3.999   0.532   7.902  0.0283 -0.3495 -0.2699
 1681SOL     OW16501   3.038   0.236   5.578 -0.6634 -0.0989  0.1654
 1681SOL    HW116502   3.107   0.260   5.640  0.1944 -0.2996 -0.7064
 1681SOL    HW216503   2.988   0.317   5.582  1.1489  1.0496 -0.6157
 1682SOL     OW16504   4.432   4.371   2.922  0.5229 -0.0409  0.8893
 1682SOL    HW116505   4.525   4.395   2.919  0.7774 -1.2399 -0.3257
 1682SOL    HW216506   4.385   4.451   2.899  1.0840 -0.0605 -0.3041
 1683SOL     OW16507   3.223   0.748   7.694  0.5641  0.0488  0.4033
 1683SOL    HW116508   3.180   0.770   7.777 -0.0533 -1.4821  0.4805
 1683SOL    HW216509   3.300   0.804   7.690 -1.3549  2.5831 -0.7169
 1684SOL     OW16510   1.634   4.204   4.330  0.2796  0.2092  0.4957
 1684SOL    HW116511   1.655   4.197   4.237 -0.0033 -1.4309  0.5561
 1684SOL    HW216512   1.670   4.121   4.359 -1.1847 -0.6527 -0.1407
 1685SOL     OW16513   0.812   3.628  14.872 -0.0531  0.3213  0.2005
 1685SOL    HW116514   0.774   3.651  14.957 -1.3141 -0.2889 -0.1953
 1685SOL    HW216515   0.821   3.533  14.885  0.8213  0.3491 -0.2554
 1686SOL     OW16516   3.868   1.374  14.875 -0.0925  0.4635  0.1913
 1686SOL    HW116517   3.781   1.407  14.850  0.2228  0.5568 -0.7750
 1686SOL    HW216518   3.918   1.454  14.861  0.8916  0.0063  1.0859
 1687SOL     OW16519   2.893   2.552   0.422 -0.1268  0.0764  0.5221
 1687SOL    HW116520   2.852   2.490   0.482  1.0196 -1.8357 -0.6680
 1687SOL    HW216521   2.904   2.503   0.340  0.0250  1.0129 -0.0172
 1688SOL     OW16522   3.469   4.189  13.642  0.2405 -0.1617  0.2467
 1688SOL    HW116523   3.533   4.259  13.659  0.7657 -0.0914 -1.9935
 1688SOL    HW216524   3.504   4.142  13.566 -0.7780  0.3216 -0.5279
 1689SOL     OW16525   2.971   1.110  15.061 -0.0107  0.5783 -0.1067
 1689SOL    HW116526   2.926   1.052  14.999  3.3310 -2.0824 -0.0834
 1689SOL    HW216527   3.045   1.051  15.078 -1.9866 -2.0237 -0.4808
 1690SOL     OW16528   3.408   2.169  16.596  0.1222  0.1721  0.0515
 1690SOL    HW116529   3.490   2.178  16.548  0.3164 -1.7426  0.0066
 1690SOL    HW216530   3.407   2.076  16.621  0.5245 -0.1957 -1.2754
 1691SOL     OW16531   1.283   3.630  17.440  0.1073  0.1153  0.0101
 1691SOL    HW116532   1.325   3.716  17.451 -1.8400  0.9234  1.1843
 1691SOL    HW216533   1.281   3.626  17.344  2.0607  0.7100 -0.0577
 1692SOL     OW16534   1.919   1.745   9.547 -0.0619  0.1554  0.1252
 1692SOL    HW116535   1.972   1.665   9.540  0.4111  0.4570  0.2702
 1692SOL    HW216536   1.841   1.696   9.521 -1.1524  0.7558  2.2932
 1693SOL     OW16537   4.547   3.071   2.279 -0.2278  0.0394 -0.1307
 1693SOL    HW116538   4.636   3.047   2.303 -0.0650  2.8440  2.0113
 1693SOL    HW216539   4.502   2.995   2.241  2.1601 -1.4050 -0.0632
 1694SOL     OW16540   3.979   4.209   8.272  0.1919  0.4127  0.2219
 1694SOL    HW116541   4.000   4.181   8.361 -0.1729 -0.2354  0.1011
 1694SOL    HW216542   3.927   4.135   8.240  2.3220 -0.6093 -0.9046
 1695SOL     OW16543   4.699   2.448   6.140 -0.6305 -0.0878 -0.3443
 1695SOL    HW116544   4.658   2.526   6.178 -1.1727  0.0457 -1.1942
 1695SOL    HW216545   0.038   2.484   6.076  2.0324 -2.3176  0.9626
 1696SOL     OW16546   1.286   3.251   7.632  0.1647 -0.1280 -0.8396
 1696SOL    HW116547   1.196   3.246   7.663  1.4217 -0.2235  2.8401
 1696SOL    HW216548   1.302   3.166   7.591  0.2851 -1.5928  2.2355
 1697SOL     OW16549   1.249   3.781   9.996  0.0246  0.0257 -0.5148
 1697SOL    HW116550   1.335   3.815  10.021  0.7199 -2.2753  0.2675
 1697SOL    HW216551   1.188   3.812  10.063  1.5075  0.0211  0.8359
 1698SOL     OW16552   1.067   4.680   4.605 -0.2271  0.5188  0.4159
 1698SOL    HW116553   1.058   0.044   4.565  0.5450  1.7075  2.8293
 1698SOL    HW216554   0.977   4.649   4.592  0.2223 -1.0286  1.0270
 1699SOL     OW16555   0.207   4.114   2.902 -0.8879 -0.3518  0.4696
 1699SOL    HW116556   0.167   4.122   2.988 -1.4432  1.1471  0.0762
 1699SOL    HW216557   0.201   4.202   2.866  2.1932 -1.0208 -1.7076
 1700SOL     OW16558   0.792   1.415   4.780 -0.3833  0.1682  0.0187
 1700SOL    HW116559   0.849   1.487   4.755  0.0021  0.0099  0.4390
 1700SOL    HW216560   0.769   1.438   4.869  0.9489  0.4751  0.2873
 1701SOL     OW16561   1.233   3.915  11.908 -0.7135 -0.1905 -0.1132
 1701SOL    HW116562   1.306   3.976  11.902  1.0322 -2.2254  0.4246
 1701SOL    HW216563   1.184   3.947  11.832 -0.1599 -0.7063 -0.6850
 1702SOL     OW16564   0.849   4.707  10.835  0.5240 -0.2190  0.2710
 1702SOL    HW116565   0.848   4.612  10.820 -0.2052 -0.0984 -0.4183
 1702SOL    HW216566   0.886   0.010  10.919  0.6376  0.7511 -0.0713
 1703SOL     OW16567   3.622   4.528   8.467  0.1234  0.1580 -0.6336
 1703SOL    HW116568   3.628   4.533   8.371 -3.2641 -1.0003 -0.9171
 1703SOL    HW216569   3.550   4.590   8.477 -0.2830 -0.1982 -1.3488
 1704SOL     OW16570   4.680   3.364  14.395  0.2418  0.5567  0.0987
 1704SOL    HW116571   0.043   3.323  14.379  0.4152  0.8227  0.3621
 1704SOL    HW216572   4.661   3.410  14.313  2.2701  0.2885 -0.5192
 1705SOL     OW16573   0.186   3.839  13.520  0.2948 -0.1343  0.5585
 1705SOL    HW116574   0.184   3.758  13.572 -0.9617  0.7464  1.8702
 1705SOL    HW216575   0.142   3.808  13.441 -1.0861  0.9936  0.8812
 1706SOL     OW16576   0.609   2.823   4.133 -0.5093  0.5484  0.0483
 1706SOL    HW116577   0.604   2.901   4.077 -2.1947 -0.0123 -0.5951
 1706SOL    HW216578   0.517   2.812   4.157  0.0670 -1.1410  1.5317
 1707SOL     OW16579   4.356   4.647   6.220  0.3693  0.0769 -0.0367
 1707SOL    HW116580   4.431   4.595   6.248 -0.1362  0.0399  1.2550
 1707SOL    HW216581   4.386   4.659   6.130  0.2984  1.6055  0.1382
 1708SOL     OW16582   1.488   4.670   2.780 -0.1044 -0.2111 -0.2409
 1708SOL    HW116583   1.581   4.648   2.768 -0.1182  0.3384 -1.3609
 1708SOL    HW216584   1.498   0.027   2.833 -1.4523  0.5077 -1.0674
 1709SOL     OW16585   1.998   1.193  11.748 -0.3768 -0.1485  0.5233
 1709SOL    HW116586   2.078   1.243  11.738 -1.1032  1.2255  1.5786
 1709SOL    HW216587   2.021   1.162  11.836  1.1485 -0.8960 -0.1407
 1710SOL     OW16588   4.330   0.870   8.037  0.2859  1.0786  0.1966
 1710SOL    HW116589   4.273   0.797   8.062  2.3207 -1.2621 -1.9644
 1710SOL    HW216590   4.370   0.823   7.964 -1.1180 -0.2749  0.2783
 1711SOL     OW16591   2.558   2.155   4.942  0.0911  0.1871 -0.1971
 1711SOL    HW116592   2.500   2.080   4.958  1.4934 -0.8772 -0.0913
 1711SOL    HW216593   2.562   2.169   4.848 -0.1422 -0.1369 -0.2568
 1712SOL     OW16594   0.041   3.342   0.619 -0.0043  0.2894  0.4680
 1712SOL    HW116595   0.025   3.369   0.529 -1.9490 -0.5993  0.5591
 1712SOL    HW216596   4.704   3.393   0.674 -0.5669 -0.1948  0.3148
 1713SOL     OW16597   0.521   1.278   8.562 -0.4711  0.1616 -0.3948
 1713SOL    HW116598   0.499   1.299   8.471 -1.8289 -0.4452 -0.2082
 1713SOL    HW216599   0.535   1.184   8.557 -3.0509 -0.1153 -2.4751
 1714SOL     OW16600   3.787   4.082   9.146  0.5017  0.7670  0.8160
 1714SOL    HW116601   3.803   4.001   9.097 -2.0364 -0.4563  1.9995
 1714SOL    HW216602   3.691   4.089   9.146  0.5263  1.1684  0.0285
 1715SOL     OW16603   0.908   4.323  15.654 -0.4131  0.1357  0.7632
 1715SOL    HW116604   0.853   4.351  15.727  0.4863  1.3639  0.9709
 1715SOL    HW216605   0.876   4.374  15.580 -0.8193  0.4326  1.1483
 1716SOL     OW16606   3.756   1.713   8.219  0.2505  0.4129  0.2063
 1716SOL    HW116607   3.760   1.808   8.228  0.1669  0.5912 -1.6111
 1716SOL    HW216608   3.799   1.698   8.304 -0.4395 -0.0463  0.4717
 1717SOL     OW16609   4.156   1.254   4.410  0.0415  0.0932 -0.1836
 1717SOL    HW116610   4.217   1.206   4.467 -1.3154  0.3923  1.5183
 1717SOL    HW216611   4.127   1.314   4.479  1.3860  2.3510 -1.5609
 1718SOL     OW16612   2.126   2.749   1.553 -0.4229  0.0516  0.3024
 1718SOL    HW116613   2.168   2.705   1.627 -1.6456  0.1896  1.0748
 1718SOL    HW216614   2.035   2.754   1.582 -0.9469 -0.4682 -1.2393
 1719SOL     OW16615   0.745   1.797   8.235 -0.3848 -0.0507 -0.3567
 1719SOL    HW116616   0.745   1.724   8.297 -0.4001 -0.4212 -0.7982
 1719SOL    HW216617   0.666   1.781   8.184  0.1619 -2.8341 -0.3163
 1720SOL     OW16618   0.303   1.001   7.271 -0.5820  0.0886 -0.0286
 1720SOL    HW116619   0.226   0.969   7.318  0.5330 -0.0630  1.6892
 1720SOL    HW216620   0.267   1.026   7.186 -0.3621 -1.1798 -0.5050
 1721SOL     OW16621   0.823   2.996   1.377 -1.1215  0.4198  0.6976
 1721SOL    HW116622   0.834   2.906   1.344  1.6840  0.4349  1.6065
 1721SOL    HW216623   0.736   2.995   1.417 -0.6450  0.7333  1.7483
 1722SOL     OW16624   4.452   0.760   4.520  0.2892 -0.4553 -0.5902
 1722SOL    HW116625   4.478   0.729   4.433  1.8741  0.7682 -0.5696
 1722SOL    HW216626   4.534   0.749   4.568 -0.6579  0.2571  1.1742
 1723SOL     OW16627   3.932   4.283   9.006 -0.3339 -0.8148  0.0591
 1723SOL    HW116628   3.902   4.220   9.071  1.3144 -1.0890  0.5414
 1723SOL    HW216629   4.000   4.328   9.056 -1.7367  1.3174  0.0867
 1724SOL     OW16630   0.079   3.430   1.489  0.4445  0.1271 -0.6870
 1724SOL    HW116631   0.138   3.399   1.558 -0.0111 -0.1657 -0.4303
 1724SOL    HW216632   4.711   3.422   1.520  0.6487 -0.7098 -0.3305
 1725SOL     OW16633   0.217   1.550   2.530 -0.1112 -0.3065 -0.0292
 1725SOL    HW116634   0.300   1.572   2.571  0.1807 -0.3292 -0.6165
 1725SOL    HW216635   0.206   1.622   2.467  0.9188  0.9294  1.1872
 1726SOL     OW16636   2.090   2.116   1.146 -0.3174  0.1263  0.4580
 1726SOL    HW116637   2.152   2.064   1.198 -0.4355 -2.6580 -2.1872
 1726SOL    HW216638   2.135   2.161   1.074  0.2120  2.7356  2.4132
 1727SOL     OW16639   0.912   0.370  16.206 -0.0443 -0.3530 -0.1112
 1727SOL    HW116640   1.007   0.357  16.202 -0.1921 -1.0595 -1.3402
 1727SOL    HW216641   0.892   0.461  16.185 -0.0901 -0.0981  1.0550
 1728SOL     OW16642   4.587   3.335   0.899  0.4487  0.1623 -0.3971
 1728SOL    HW116643   4.613   3.420   0.864  0.5765 -0.0956 -0.9280
 1728SOL    HW216644   4.508   3.352   0.950 -0.5458 -0.6827 -1.6565
 1729SOL     OW16645   3.077   0.195   8.008 -0.1107 -0.5209  0.0053
 1729SOL    HW116646   3.129   0.247   7.947 -0.4024 -1.0825 -0.7277
 1729SOL    HW216647   3.146   0.154   8.059 -0.0144  0.2750  0.5199
 1730SOL     OW16648   1.381   0.522   5.988 -0.1692  0.3609 -0.6008
 1730SOL    HW116649   1.332   0.572   6.053 -0.5463  0.2848 -0.8269
 1730SOL    HW216650   1.312   0.498   5.927  0.2583 -0.5316 -0.7378
 1731SOL     OW16651   2.396   0.656  15.808 -0.4601 -0.6147 -0.0440
 1731SOL    HW116652   2.380   0.582  15.750  1.2019 -1.0587  0.0488
 1731SOL    HW216653   2.413   0.617  15.894  1.6836  0.4264  0.0113
 1732SOL     OW16654   4.565   4.378  16.548 -0.4880  0.1277  0.2351
 1732SOL    HW116655   4.657   4.402  16.554 -0.9759  1.4589  2.4354
 1732SOL    HW216656   4.548   4.320  16.623  0.1542  1.1500  1.1754
 1733SOL     OW16657   0.325   2.278   3.034 -0.6017 -0.1298  0.3233
 1733SOL    HW116658   0.300   2.301   2.944  0.2659 -1.9459 -0.3832
 1733SOL    HW216659   0.420   2.288   3.043 -0.5868  1.9795 -2.2832
 1734SOL     OW16660   3.153   3.011   1.996  0.5134 -0.0872 -0.0395
 1734SOL    HW116661   3.236   3.044   1.961  0.0864 -1.0001 -1.9222
 1734SOL    HW216662   3.093   3.075   1.959  0.6704  0.2505  0.2959
 1735SOL     OW16663   0.279   1.538   6.332 -0.3558 -0.1318  0.7000
 1735SOL    HW116664   0.356   1.595   6.343 -0.4224  0.0432  0.2545
 1735SOL    HW216665   0.251   1.558   6.243  0.9674 -0.2767  0.2438
 1736SOL     OW16666   2.738   1.987   9.436  0.0489 -0.4542 -0.1162
 1736SOL    HW116667   2.724   2.035   9.355 -1.6496 -2.7821 -1.2057
 1736SOL    HW216668   2.758   1.902   9.398  2.6753  0.1883 -0.1805
 1737SOL     OW16669   1.812   2.633   0.949 -0.3469 -0.0776 -0.0525
 1737SOL    HW116670   1.738   2.618   1.008 -1.0639  1.9725 -0.4235
 1737SOL    HW216671   1.885   2.592   0.995  0.2964 -0.4827 -1.4126
 1738SOL     OW16672   3.387   2.760   8.027 -0.1250 -0.0544 -0.3096
 1738SOL    HW116673   3.427   2.787   7.945 -0.1075  0.3302 -0.1722
 1738SOL    HW216674   3.459   2.770   8.090 -2.4353 -0.9322  2.4809
 1739SOL     OW16675   0.374   4.583   2.777 -0.4015 -0.6379 -0.2526
 1739SOL    HW116676   0.418   4.619   2.854 -0.6078  1.9366 -1.3329
 1739SOL    HW216677   0.363   4.657   2.718 -2.4257 -1.8606 -1.3975
 1740SOL     OW16678   0.556   3.960   2.699 -0.4046  0.0829  0.1874
 1740SOL    HW116679   0.466   3.933   2.684  0.4185 -3.1421  1.0744
 1740SOL    HW216680   0.555   4.053   2.675  1.9294 -0.1052 -0.6105
 1741SOL     OW16681   2.316   1.601   7.349 -0.2971  0.4540  0.1068
 1741SOL    HW116682   2.326   1.689   7.312 -2.6050  1.2408  1.3457
 1741SOL    HW216683   2.229   1.603   7.389  0.0295  0.1777  0.8119
 1742SOL     OW16684   1.204   2.108  12.820 -0.0859  0.0573  0.1892
 1742SOL    HW116685   1.226   2.200  12.805 -0.0731  0.2462  1.3044
 1742SOL    HW216686   1.150   2.122  12.899 -1.0874  0.1895 -0.5182
 1743SOL     OW16687   1.321   1.724   8.389  0.2775  0.0990  0.3958
 1743SOL    HW116688   1.307   1.736   8.295  0.3199  1.6542  0.5848
 1743SOL    HW216689   1.293   1.634   8.404  0.0786  0.1548  0.3584
 1744SOL     OW16690   3.499   4.706   3.949  0.3586 -0.2028  0.1728
 1744SOL    HW116691   3.554   0.047   3.903 -1.7516  1.1156 -0.5174
 1744SOL    HW216692   3.499   4.640   3.879 -0.2929  1.2939 -1.2229
 1745SOL     OW16693   3.798   3.072  16.016  0.3197  0.8070 -0.1334
 1745SOL    HW116694   3.785   3.113  16.102  1.4703  0.2236  0.3244
 1745SOL    HW216695   3.822   2.982  16.038  1.8434  1.8327  2.4716
 1746SOL     OW16696   3.732   0.329   1.481  0.1156 -0.2971 -0.0276
 1746SOL    HW116697   3.751   0.322   1.574 -0.3990  1.1035  0.1744
 1746SOL    HW216698   3.664   0.396   1.490  0.3144 -0.2715  1.2231
 1747SOL     OW16699   2.835   1.848   5.349  0.2712  0.8718  0.0102
 1747SOL    HW116700   2.749   1.810   5.334  0.8670 -0.0982 -1.0071
 1747SOL    HW216701   2.856   1.861   5.256 -0.6300 -1.7870 -0.5638
 1748SOL     OW16702   2.537   1.525   6.619  0.0478 -0.2274  0.0765
 1748SOL    HW116703   2.487   1.468   6.561 -0.8816  0.4069  0.2482
 1748SOL    HW216704   2.502   1.609   6.590 -0.2320 -0.5066 -0.3881
 1749SOL     OW16705   0.698   3.355   4.528 -0.3033  0.0309 -0.5486
 1749SOL    HW116706   0.678   3.434   4.578 -0.2683  1.0951 -2.2321
 1749SOL    HW216707   0.702   3.292   4.600 -0.1947  0.3421 -0.2817
 1750SOL     OW16708   0.784   1.735   5.660  0.2279 -0.2832  0.1078
 1750SOL    HW116709   0.830   1.812   5.626  0.9280 -0.2920  1.0324
 1750SOL    HW216710   0.711   1.773   5.708 -0.5950 -0.7665 -0.7499
 1751SOL     OW16711   4.053   1.632   0.549  0.4678  0.3385  0.5549
 1751SOL    HW116712   4.090   1.704   0.499  2.0737  0.2253  1.5971
 1751SOL    HW216713   4.056   1.558   0.488 -1.2770  1.1071 -0.4682
 1752SOL     OW16714   2.585   0.364  11.512  0.2590 -0.4528  0.5897
 1752SOL    HW116715   2.521   0.316  11.564  0.5698 -1.2137  0.2830
 1752SOL    HW216716   2.615   0.433  11.570 -0.0596  1.7394 -1.8402
 1753SOL     OW16717   2.088   3.818   1.994  0.3135 -0.4461  0.3050
 1753SOL    HW116718   2.075   3.760   2.069  2.4815 -2.7343 -1.0599
 1753SOL    HW216719   2.170   3.789   1.953  0.6146  1.3739 -0.4108
 1754SOL     OW16720   0.656   1.074   3.158  0.2190 -0.1740  0.1195
 1754SOL    HW116721   0.744   1.052   3.187  0.1135 -0.9478 -0.1453
 1754SOL    HW216722   0.655   1.163   3.193 -1.9436 -0.2404  0.2356
 1755SOL     OW16723   0.365   4.712  15.163  0.1869 -0.0737 -0.3153
 1755SOL    HW116724   0.361   4.711  15.259 -0.1220 -1.6009 -0.3386
 1755SOL    HW216725   0.385   4.626  15.127 -2.3142 -0.7227 -0.1566
 1756SOL     OW16726   0.413   0.318  17.224 -0.3381 -0.2260 -0.4512
 1756SOL    HW116727   0.487   0.354  17.175  2.1075 -1.7328  2.1629
 1756SOL    HW216728   0.353   0.391  17.208 -0.0556 -0.5554 -3.0051
 1757SOL     OW16729   3.039   4.177   8.518 -0.0285 -0.4214 -0.2568
 1757SOL    HW116730   2.944   4.181   8.507 -0.1381  0.3852  0.9127
 1757SOL    HW216731   3.067   4.269   8.521 -2.1582  0.2352 -0.4144
 1758SOL     OW16732   1.474   3.770   6.703 -0.4049 -0.4228  0.0975
 1758SOL    HW116733   1.433   3.812   6.778 -1.6024  0.1313 -0.8738
 1758SOL    HW216734   1.461   3.677   6.724  2.0172 -0.5517  1.0389
 1759SOL     OW16735   2.097   4.431   5.123  0.4403  0.0114  0.5045
 1759SOL    HW116736   2.043   4.498   5.165 -0.1064 -0.9869  1.3840
 1759SOL    HW216737   2.176   4.485   5.114  0.1119  0.4962  0.5525
 1760SOL     OW16738   2.868   4.598   8.362  0.9098 -0.2871 -0.4037
 1760SOL    HW116739   2.860   4.665   8.295  1.9251 -1.5665 -1.7976
 1760SOL    HW216740   2.873   4.523   8.303  1.1484 -2.1066  1.8935
 1761SOL     OW16741   2.141   2.563   0.870  0.5988  0.0221  0.5707
 1761SOL    HW116742   2.097   2.547   0.787  0.8084 -0.5238  0.5635
 1761SOL    HW216743   2.199   2.639   0.858  0.8556 -0.3734 -0.6618
 1762SOL     OW16744   0.798   4.066   8.374 -0.5750  0.0617 -0.2006
 1762SOL    HW116745   0.807   3.979   8.412 -1.5724 -0.2183 -0.6413
 1762SOL    HW216746   0.707   4.073   8.348 -1.6541  1.0756  3.8323
 1763SOL     OW16747   4.374   1.922   5.874 -0.3028  0.0883 -0.1880
 1763SOL    HW116748   4.321   1.842   5.874 -0.9975  0.5497  1.1896
 1763SOL    HW216749   4.307   1.990   5.880 -0.7431 -0.0539 -3.5757
 1764SOL     OW16750   2.702   4.438   4.952  0.0860  0.3223  0.7258
 1764SOL    HW116751   2.713   4.528   4.922  1.8233  0.2225  1.0882
 1764SOL    HW216752   2.785   4.401   4.922 -0.3090  0.4402 -0.5041
 1765SOL     OW16753   3.772   1.876   3.112 -0.1667 -0.4385  0.3842
 1765SOL    HW116754   3.846   1.827   3.074 -1.2904 -1.0085 -1.0919
 1765SOL    HW216755   3.788   1.966   3.084 -0.3522 -0.4633  0.1995
 1766SOL     OW16756   1.676   0.777   4.441  0.4880 -0.5022  0.1725
 1766SOL    HW116757   1.683   0.690   4.400  1.8841 -0.6906  0.7995
 1766SOL    HW216758   1.616   0.819   4.380 -1.0972 -3.3181 -0.2139
 1767SOL     OW16759   3.059   2.992   8.423 -0.1037  0.0905  0.0217
 1767SOL    HW116760   3.133   3.027   8.374  1.3651 -0.2802  1.9994
 1767SOL    HW216761   2.990   3.002   8.357  2.4285  0.6627 -2.5515
 1768SOL     OW16762   2.079   0.545  14.486 -0.0923  0.2129 -0.4262
 1768SOL    HW116763   2.132   0.584  14.416 -0.6990 -0.5349 -1.3069
 1768SOL    HW216764   1.999   0.591  14.463 -0.0162  0.5827  0.0657
 1769SOL     OW16765   1.755   4.540   4.691  0.6554  0.2936 -0.3268
 1769SOL    HW116766   1.677   4.580   4.654  0.1174  0.0907  0.6012
 1769SOL    HW216767   1.808   4.546   4.611 -0.7072  1.2892 -1.1417
 1770SOL     OW16768   4.497   3.912   3.284  0.2422 -0.4404 -0.2700
 1770SOL    HW116769   4.509   3.988   3.228 -4.2379 -0.2039 -0.9046
 1770SOL    HW216770   4.563   3.851   3.250 -0.4260 -0.8869 -0.7722
 1771SOL     OW16771   2.135   0.002  12.492 -0.0297  0.1000  0.2407
 1771SOL    HW116772   2.138   0.003  12.396  0.3085 -0.4964  0.2426
 1771SOL    HW216773   2.081   4.646  12.504 -0.0298  0.2172  0.9659
 1772SOL     OW16774   4.670   1.654   2.649  0.5031 -0.9066  0.2407
 1772SOL    HW116775   4.702   1.652   2.739  0.8704  1.4855  0.1504
 1772SOL    HW216776   0.017   1.602   2.609  1.0986 -0.0794  0.1941
 1773SOL     OW16777   3.725   4.601   2.656  0.3573 -0.0319 -0.0679
 1773SOL    HW116778   3.709   4.524   2.711 -2.5539 -0.2223 -1.1677
 1773SOL    HW216779   3.789   4.567   2.593  0.4934 -1.7298  0.9935
 1774SOL     OW16780   2.127   3.074   9.475 -0.0141 -0.6448  0.4665
 1774SOL    HW116781   2.158   3.133   9.543  0.1409 -1.2203  0.8867
 1774SOL    HW216782   2.034   3.091   9.458  0.2713  0.6361  0.1832
 1775SOL     OW16783   0.050   2.639  15.039  0.3271 -0.1555  0.0159
 1775SOL    HW116784   0.018   2.549  15.038 -1.4969  0.5032 -2.6693
 1775SOL    HW216785   0.049   2.648  14.943 -3.4575  2.3613  0.3101
 1776SOL     OW16786   1.607   0.690   9.202 -0.3355  0.0369  0.0326
 1776SOL    HW116787   1.692   0.732   9.192 -0.3829  0.2379  0.4425
 1776SOL    HW216788   1.576   0.718   9.288  0.6020  0.4023  0.2543
 1777SOL     OW16789   1.286   3.754   9.721  0.1066 -0.6544 -0.4280
 1777SOL    HW116790   1.300   3.769   9.814  1.7744  0.9613 -0.9201
 1777SOL    HW216791   1.378   3.766   9.695  0.4299 -2.5416 -0.1711
 1778SOL     OW16792   4.393   4.717   7.557 -0.0627 -0.1931  0.8183
 1778SOL    HW116793   4.423   0.020   7.645  0.2807  0.5361  0.4929
 1778SOL    HW216794   4.479   4.709   7.515 -0.3090  0.2420  0.2252
 1779SOL     OW16795   3.262   4.342   9.622  0.2482 -0.3206 -0.1285
 1779SOL    HW116796   3.321   4.331   9.548  0.4826 -1.6469  0.2485
 1779SOL    HW216797   3.179   4.359   9.578 -0.8233 -0.2282  1.9402
 1780SOL     OW16798   1.796   2.195  12.226 -0.2653 -0.3620  0.1078
 1780SOL    HW116799   1.850   2.227  12.154 -1.4506 -0.5531 -0.8535
 1780SOL    HW216800   1.823   2.104  12.231 -0.5897 -0.6407 -3.4453
 1781SOL     OW16801   1.860   2.592   7.018 -0.0464 -0.7103 -0.0216
 1781SOL    HW116802   1.949   2.626   7.024 -0.7484  0.7391  2.5011
 1781SOL    HW216803   1.854   2.535   7.095  1.8823 -2.2131 -0.9933
 1782SOL     OW16804   1.297   2.318  15.452  0.5606 -0.2189  0.2444
 1782SOL    HW116805   1.360   2.330  15.380  0.1148 -0.2671 -0.1531
 1782SOL    HW216806   1.330   2.237  15.490  1.4910  0.4787  0.9223
 1783SOL     OW16807   0.397   0.769  11.380  0.0718 -0.3284 -0.0357
 1783SOL    HW116808   0.478   0.721  11.397 -0.1487 -0.1765  1.4637
 1783SOL    HW216809   0.336   0.738  11.448  0.5716 -1.6308 -0.1707
 1784SOL     OW16810   0.883   2.999  13.590  0.0923  0.0455 -0.2693
 1784SOL    HW116811   0.791   3.003  13.565  0.1850  1.5618 -0.3581
 1784SOL    HW216812   0.907   2.924  13.535 -1.3715  0.1051 -0.9953
 1785SOL     OW16813   1.620   3.363  15.585 -0.5602  0.2662 -0.1872
 1785SOL    HW116814   1.595   3.452  15.606  0.0299  0.0055  1.5785
 1785SOL    HW216815   1.587   3.314  15.660  1.0532  0.4655  0.6477
 1786SOL     OW16816   4.254   0.909   4.224 -0.6302  1.1445  0.0814
 1786SOL    HW116817   4.331   0.941   4.270 -0.0358 -1.9404  1.2472
 1786SOL    HW216818   4.212   0.990   4.196 -0.4354  1.4050  0.5418
 1787SOL     OW16819   3.118   3.585   6.105  0.1482  0.3164  0.4743
 1787SOL    HW116820   3.073   3.566   6.022  2.3277  2.4505 -1.1945
 1787SOL    HW216821   3.205   3.546   6.098 -0.9493 -2.2218  0.8094
 1788SOL     OW16822   1.287   3.412  11.787  0.6169  0.3766 -0.4947
 1788SOL    HW116823   1.205   3.377  11.752  0.5707  0.3367 -0.3489
 1788SOL    HW216824   1.355   3.356  11.748  0.6571  0.8029 -1.0342
 1789SOL     OW16825   0.584   2.465   1.523  0.0378 -0.3277  0.2538
 1789SOL    HW116826   0.562   2.557   1.538  1.7864  0.1648 -0.2438
 1789SOL    HW216827   0.585   2.434   1.613 -1.0609  1.2426  0.8249
 1790SOL     OW16828   1.741   1.511   2.778 -0.0982 -0.0059  0.0888
 1790SOL    HW116829   1.792   1.582   2.738 -0.1590 -1.0290 -1.8064
 1790SOL    HW216830   1.686   1.478   2.707 -1.4474  4.0213 -0.7592
 1791SOL     OW16831   2.296   2.363   5.443 -0.0618  0.0328 -0.6578
 1791SOL    HW116832   2.261   2.449   5.467 -1.2187 -0.8671  0.8879
 1791SOL    HW216833   2.302   2.327   5.532 -1.4368 -0.0431 -0.5946
 1792SOL     OW16834   3.910   4.533  11.295  0.4171 -0.5997 -0.0562
 1792SOL    HW116835   4.006   4.526  11.289  0.5073  1.1169 -0.7994
 1792SOL    HW216836   3.876   4.444  11.286 -2.5569  0.4580  1.0809
 1793SOL     OW16837   0.813   4.016  10.617 -0.0639 -0.1917 -0.4313
 1793SOL    HW116838   0.748   4.055  10.559 -0.1215  0.4225  0.0424
 1793SOL    HW216839   0.803   4.092  10.674  0.8045 -1.0776  0.9099
 1794SOL     OW16840   4.208   0.222  16.880 -0.5357 -0.4642  0.2900
 1794SOL    HW116841   4.227   0.251  16.791 -0.8658  1.7560  0.9563
 1794SOL    HW216842   4.224   0.300  16.933  2.8470  0.0030 -1.4322
 1795SOL     OW16843   4.247   1.673  16.074 -0.6545 -0.4545  0.7428
 1795SOL    HW116844   4.296   1.680  15.992 -1.8705 -0.0507  0.0576
 1795SOL    HW216845   4.176   1.736  16.063  0.7372  1.2510  1.4455
 1796SOL     OW16846   4.625   0.345   9.637 -0.0455 -0.0725  0.5013
 1796SOL    HW116847   4.588   0.412   9.580 -1.1743 -2.0628 -1.1213
 1796SOL    HW216848   4.543   0.335   9.686 -0.1289 -2.3245 -0.1062
 1797SOL     OW16849   2.347   0.945   3.145  0.3069 -0.2797  0.1125
 1797SOL    HW116850   2.299   1.003   3.086  2.5380  3.4005  1.8446
 1797SOL    HW216851   2.416   1.006   3.173  1.0567 -0.5112 -1.2504
 1798SOL     OW16852   0.947   3.156  16.722  0.2204  0.0357  0.4201
 1798SOL    HW116853   0.983   3.080  16.676  1.4491 -0.2820  1.8987
 1798SOL    HW216854   0.939   3.221  16.652 -0.5955 -0.3667  0.1444
 1799SOL     OW16855   4.701   2.545   1.753 -0.2701  0.2177 -0.0043
 1799SOL    HW116856   4.688   2.454   1.727  1.6668 -0.3269  0.9509
 1799SOL    HW216857   4.681   2.584   1.668  1.0086  0.1877 -0.3189
 1800SOL     OW16858   2.399   1.114   3.747  0.4060 -0.9281 -0.0198
 1800SOL    HW116859   2.397   1.089   3.839 -1.6076 -0.1808  0.1356
 1800SOL    HW216860   2.315   1.080   3.715  1.4679 -2.8620 -0.7603
 1801SOL     OW16861   1.823   2.454   3.366  0.3761  0.1420  0.1504
 1801SOL    HW116862   1.802   2.511   3.440  2.4114 -0.0082  0.8350
 1801SOL    HW216863   1.753   2.390   3.379  0.1382  0.7354  1.7010
 1802SOL     OW16864   3.818   3.975   3.659  0.2354  0.0996 -0.0516
 1802SOL    HW116865   3.794   3.892   3.618 -3.2335  0.5017  1.1977
 1802SOL    HW216866   3.741   4.015   3.698 -0.3578  1.0913 -2.2421
 1803SOL     OW16867   4.056   4.472   8.258 -0.1315  0.0120  0.1903
 1803SOL    HW116868   4.064   4.475   8.163  3.5512 -0.7051  0.5059
 1803SOL    HW216869   4.050   4.377   8.271  0.0307  0.3158  2.4570
 1804SOL     OW16870   0.839   2.403   4.096  0.5171  0.1894  0.9763
 1804SOL    HW116871   0.870   2.465   4.030 -0.3265  2.3124  2.5380
 1804SOL    HW216872   0.852   2.321   4.050 -3.0877 -1.0924  2.2203
 1805SOL     OW16873   1.128   2.502   2.676  0.2376  0.6333  0.0938
 1805SOL    HW116874   1.094   2.413   2.667 -0.6625  0.7082  2.7625
 1805SOL    HW216875   1.159   2.525   2.589  0.1418 -1.0823 -0.3740
 1806SOL     OW16876   1.648   0.153   4.252 -0.5982  0.3033  0.0430
 1806SOL    HW116877   1.730   0.124   4.291  0.0503  2.9108  0.5503
 1806SOL    HW216878   1.621   0.221   4.313 -0.4098 -0.5642  1.1040
 1807SOL     OW16879   0.513   0.558  16.398  0.4162  0.3307  0.7571
 1807SOL    HW116880   0.473   0.494  16.457  3.7705 -1.9625  0.5048
 1807SOL    HW216881   0.434   0.605  16.371  0.4870  0.4318  0.7256
 1808SOL     OW16882   3.424   0.726  12.475  0.4217 -0.3160  0.2147
 1808SOL    HW116883   3.474   0.792  12.523  0.0356 -1.7501  2.5809
 1808SOL    HW216884   3.474   0.713  12.395  2.1047 -0.1646  1.2347
 1809SOL     OW16885   2.873   4.611  11.906  0.0569 -0.0016  0.7033
 1809SOL    HW116886   2.941   4.545  11.922 -0.5115 -1.4962 -3.0260
 1809SOL    HW216887   2.914   4.681  11.855 -0.7209 -0.6367 -0.7913
 1810SOL     OW16888   3.453   0.074  15.142  0.2541  0.2353 -0.3103
 1810SOL    HW116889   3.513   0.019  15.193 -0.7021 -0.9381 -0.4530
 1810SOL    HW216890   3.435   0.147  15.201 -2.5862 -1.3411  0.7225
 1811SOL     OW16891   3.039   2.733   7.681 -0.4083 -0.4291 -0.7792
 1811SOL    HW116892   3.106   2.679   7.723  0.7206  1.5377 -0.0644
 1811SOL    HW216893   2.967   2.675   7.707 -0.3535 -0.7991 -1.4482
 1812SOL     OW16894   1.829   3.003   2.699  0.3884 -0.4986 -0.3430
 1812SOL    HW116895   1.911   2.972   2.659  0.0913 -2.2734  0.4049
 1812SOL    HW216896   1.863   3.076   2.750 -0.2782  0.5406 -1.3694
 1813SOL     OW16897   1.744   2.895   0.290 -0.2019  0.4402 -0.1566
 1813SOL    HW116898   1.728   2.807   0.256 -3.1686  1.5061 -1.4674
 1813SOL    HW216899   1.706   2.945   0.218  0.7011  0.5189 -0.5814
 1814SOL     OW16900   0.932   4.187  12.174 -0.2224 -0.2256 -0.2287
 1814SOL    HW116901   1.012   4.226  12.211  0.0363 -1.0242  0.0472
 1814SOL    HW216902   0.966   4.101  12.149 -0.0152 -0.8767  2.2685
 1815SOL     OW16903   0.128   0.436   8.915 -0.4917  0.1708 -0.0773
 1815SOL    HW116904   0.085   0.395   8.990  1.0807 -1.5550 -0.1019
 1815SOL    HW216905   0.082   0.402   8.838 -1.8203 -0.4677  1.0116
 1816SOL     OW16906   3.997   2.455   5.204  0.2839 -0.6879  0.1799
 1816SOL    HW116907   3.970   2.492   5.288  1.1225  1.2286 -0.3785
 1816SOL    HW216908   3.930   2.390   5.183 -0.1011 -0.8283  1.8849
 1817SOL     OW16909   4.703   2.418  11.227 -0.0415  0.4686  0.4839
 1817SOL    HW116910   0.007   2.432  11.136  0.4540 -0.2974  0.5128
 1817SOL    HW216911   0.053   2.360  11.251 -0.8523 -0.2639  1.1134
 1818SOL     OW16912   1.343   2.285   3.001  0.6625  0.5234  0.2523
 1818SOL    HW116913   1.391   2.222   3.055 -1.8149 -0.5558  1.2014
 1818SOL    HW216914   1.327   2.345   3.074 -0.9581  0.0655  0.2586
 1819SOL     OW16915   3.886   2.798  11.134 -0.2837 -0.3180  0.1911
 1819SOL    HW116916   3.931   2.772  11.214  1.1193 -1.9794 -1.1412
 1819SOL    HW216917   3.811   2.848  11.167  0.5990  0.1921  1.4201
 1820SOL     OW16918   3.717   0.543   6.901  0.2042 -0.7186  0.8500
 1820SOL    HW116919   3.700   0.456   6.936  3.1721 -1.5503  0.1993
 1820SOL    HW216920   3.635   0.593   6.906  0.3327 -0.1821 -2.1307
 1821SOL     OW16921   1.039   3.303   1.050 -0.3623  0.0460 -0.6980
 1821SOL    HW116922   0.987   3.265   1.121  2.9779 -0.7627  1.3135
 1821SOL    HW216923   1.126   3.315   1.089 -1.1632 -0.1049  1.1681
 1822SOL     OW16924   1.647   1.948   3.194  0.2061  0.3719  0.1840
 1822SOL    HW116925   1.622   1.856   3.201  0.0642  0.6393  3.2682
 1822SOL    HW216926   1.688   1.967   3.279 -1.0738 -0.9157  1.0974
 1823SOL     OW16927   1.218   1.112   1.580 -0.1759  0.1826 -0.5382
 1823SOL    HW116928   1.153   1.067   1.634 -1.7353  0.9423 -1.7941
 1823SOL    HW216929   1.223   1.187   1.639 -1.1840 -0.6900  0.6557
 1824SOL     OW16930   3.213   2.751  10.655 -0.1003 -0.4801  0.6200
 1824SOL    HW116931   3.223   2.659  10.634 -1.3048 -0.4984  0.1272
 1824SOL    HW216932   3.297   2.767  10.699  0.1443  0.2358 -0.1091
 1825SOL     OW16933   2.931   1.068  17.048 -0.6006  0.5609  0.1693
 1825SOL    HW116934   2.955   1.127  17.120  2.1063  1.0873 -1.1432
 1825SOL    HW216935   2.904   0.986  17.089 -0.7073  0.3968 -0.2248
 1826SOL     OW16936   0.828   0.133   4.116  0.4778 -0.2216 -0.3259
 1826SOL    HW116937   0.826   0.204   4.052 -0.4112  0.2689  0.2432
 1826SOL    HW216938   0.873   0.064   4.067 -0.0101 -1.2957  0.7267
 1827SOL     OW16939   4.312   4.096   4.167  0.3576 -0.5151  0.0349
 1827SOL    HW116940   4.362   4.174   4.142  1.8406 -1.2478  0.6772
 1827SOL    HW216941   4.385   4.038   4.189  0.4584  0.3970  2.1476
 1828SOL     OW16942   4.669   3.190   3.298  0.2200 -0.1668 -0.2205
 1828SOL    HW116943   4.601   3.183   3.230  1.8044  0.3126 -1.8433
 1828SOL    HW216944   4.686   3.284   3.292 -0.0274 -0.2298 -2.1563
 1829SOL     OW16945   0.307   0.063  17.315  0.3276  0.2751 -0.1431
 1829SOL    HW116946   0.392   0.041  17.276  0.5241  0.9313 -0.0747
 1829SOL    HW216947   0.296   0.134  17.253  0.0718 -0.9446 -1.5031
 1830SOL     OW16948   0.491   0.222   8.122  0.1047 -0.7466  0.0845
 1830SOL    HW116949   0.423   0.164   8.155  2.9833 -3.5277  1.1789
 1830SOL    HW216950   0.566   0.168   8.146  0.8679  0.3391  0.1424
 1831SOL     OW16951   2.557   4.611  10.117 -0.8078  0.1621 -0.1463
 1831SOL    HW116952   2.612   4.661  10.178 -0.4905 -1.1036  0.5905
 1831SOL    HW216953   2.619   4.539  10.121  0.0635  0.8512 -1.1530
 1832SOL     OW16954   1.127   0.981   2.585  0.2194  0.5114 -0.1373
 1832SOL    HW116955   1.118   0.893   2.621 -0.8921  0.0211 -1.6302
 1832SOL    HW216956   1.036   1.003   2.563 -0.2197 -0.2618  0.9057
 1833SOL     OW16957   0.973   1.015   2.907 -0.3555  0.0915  0.1364
 1833SOL    HW116958   0.933   0.936   2.871  0.7604  0.0699 -1.0567
 1833SOL    HW216959   0.940   1.003   2.996  0.3045 -2.5856  0.0297
 1834SOL     OW16960   2.437   1.742   6.495  0.0453  0.0774  0.4440
 1834SOL    HW116961   2.459   1.834   6.510  2.7169 -0.7472  1.7106
 1834SOL    HW216962   2.505   1.723   6.431 -0.7446  0.2854 -0.4477
 1835SOL     OW16963   2.619   0.050  11.768 -0.7554 -0.3568  0.0227
 1835SOL    HW116964   2.638   0.142  11.789  2.8860 -1.0042 -0.4539
 1835SOL    HW216965   2.600   0.015  11.855 -1.2875  0.8882  0.4083
 1836SOL     OW16966   4.053   0.896  11.630  0.0893 -0.5471 -0.2852
 1836SOL    HW116967   4.108   0.820  11.650  1.8926  1.1689  1.2197
 1836SOL    HW216968   4.119   0.964  11.646 -2.4899  1.1107  3.3732
 1837SOL     OW16969   1.782   2.248   4.170 -0.5510  0.0093  0.0890
 1837SOL    HW116970   1.774   2.176   4.233  1.1375 -2.2933 -2.3302
 1837SOL    HW216971   1.779   2.326   4.226 -1.1542  0.1568 -0.1544
 1838SOL     OW16972   4.167   1.962  10.529  0.5519 -0.2464 -0.0580
 1838SOL    HW116973   4.237   2.016  10.492  1.9178 -1.4014  0.8593
 1838SOL    HW216974   4.135   2.018  10.599  1.1336  1.3290 -1.0650
 1839SOL     OW16975   2.740   1.635   3.531 -0.0011  0.3239  0.9866
 1839SOL    HW116976   2.725   1.599   3.618  3.2662 -0.0993  1.3582
 1839SOL    HW216977   2.654   1.611   3.497  0.2368 -0.2053  0.7595
 1840SOL     OW16978   1.586   2.578   7.463  0.3434 -0.6623 -0.2716
 1840SOL    HW116979   1.673   2.541   7.478  0.0760 -1.2394 -0.1638
 1840SOL    HW216980   1.527   2.519   7.510  0.7312 -0.2975  0.6550
 1841SOL     OW16981   4.713   1.457   4.284 -0.2931  0.2333  0.5608
 1841SOL    HW116982   4.705   1.459   4.379  2.2421 -1.9519  0.8121
 1841SOL    HW216983   0.005   1.550   4.263  0.6217  0.0709  0.4957
 1842SOL     OW16984   3.627   0.783  17.090 -0.2096  0.0794 -0.5380
 1842SOL    HW116985   3.587   0.697  17.080  0.4853 -0.3972  0.7347
 1842SOL    HW216986   3.681   0.762  17.167  0.5624  0.9626 -0.8395
 1843SOL     OW16987   3.712   1.521  15.242  0.1392 -0.4734 -0.0105
 1843SOL    HW116988   3.740   1.514  15.151 -3.7494 -2.4538 -1.0227
 1843SOL    HW216989   3.798   1.518  15.284 -1.4110 -1.1073  3.1279
 1844SOL     OW16990   1.124   0.197   4.489  0.4482  0.1988  0.0622
 1844SOL    HW116991   1.082   0.253   4.424  1.8644 -1.5697 -2.3887
 1844SOL    HW216992   1.213   0.198   4.454  1.0347 -1.0865  1.5108
 1845SOL     OW16993   3.001   3.503   1.252  0.1532 -0.0677 -0.4733
 1845SOL    HW116994   3.075   3.558   1.277 -0.1756 -0.5374  1.5592
 1845SOL    HW216995   3.040   3.416   1.250 -0.5661 -0.3431 -2.6362
 1846SOL     OW16996   0.612   1.015   8.555  0.0338 -0.5613  0.2906
 1846SOL    HW116997   0.682   0.969   8.508  1.2838  1.4838  0.1516
 1846SOL    HW216998   0.635   0.990   8.644 -0.9511  0.6834  0.8896
 1847SOL     OW16999   2.795   3.002   3.618  0.1055  0.1750 -0.0224
 1847SOL    HW117000   2.869   3.036   3.568 -1.0231 -0.6120 -2.2421
 1847SOL    HW217001   2.763   2.950   3.545 -0.2931  0.6807 -0.2100
 1848SOL     OW17002   4.716   0.252   3.935  0.3119 -0.0881  0.3242
 1848SOL    HW117003   4.623   0.238   3.950  0.1676  1.9645  1.3600
 1848SOL    HW217004   0.039   0.187   3.989 -0.9244  0.0889  1.5729
 1849SOL     OW17005   1.246   1.496   8.508  0.1474 -0.4235  0.8712
 1849SOL    HW117006   1.246   1.415   8.457 -0.3582  0.3056 -0.3016
 1849SOL    HW217007   1.318   1.481   8.569 -0.2214  0.5362  1.5386
 1850SOL     OW17008   3.037   0.275  16.834  0.0350 -0.0849  0.0568
 1850SOL    HW117009   3.131   0.270  16.815  0.9684  3.7402  3.7794
 1850SOL    HW217010   3.011   0.183  16.824 -3.2802  0.7703  0.9271
 1851SOL     OW17011   4.008   3.036   3.819  0.2419  0.2650 -0.3064
 1851SOL    HW117012   3.962   3.119   3.807  1.5797  1.2248  1.0889
 1851SOL    HW217013   4.026   3.048   3.913 -1.2054 -1.3165  0.1795
 1852SOL     OW17014   1.297   1.190   3.973  0.0552  0.1078  0.0989
 1852SOL    HW117015   1.228   1.256   3.981 -1.7811 -1.9104  0.9663
 1852SOL    HW217016   1.288   1.148   3.887  3.5999 -1.5028  0.5202
 1853SOL     OW17017   2.019   4.340   0.890  0.2715 -0.3998  0.9480
 1853SOL    HW117018   2.109   4.373   0.888 -0.3833  1.3302  0.6657
 1853SOL    HW217019   2.007   4.301   0.804 -1.7159  0.6879  0.7553
 1854SOL     OW17020   3.177   3.065   6.147 -0.1559  0.8595 -0.0272
 1854SOL    HW117021   3.155   3.131   6.081  0.2167  0.7359 -0.2744
 1854SOL    HW217022   3.203   2.995   6.088  1.0327  0.4908  0.9576
 1855SOL     OW17023   0.553   4.005   5.920 -0.3188  0.1148 -0.2508
 1855SOL    HW117024   0.605   4.038   5.993 -0.0322  1.1490 -0.9114
 1855SOL    HW217025   0.590   3.919   5.899 -0.3555  0.3716 -1.4163
 1856SOL     OW17026   3.525   1.898   4.278  0.2030 -0.6269  0.2054
 1856SOL    HW117027   3.596   1.852   4.324  1.3832 -0.4265 -1.3923
 1856SOL    HW217028   3.484   1.938   4.354 -2.1056 -0.3121 -1.1970
 1857SOL     OW17029   3.654   3.701   9.721 -0.7242 -0.4165  0.1298
 1857SOL    HW117030   3.741   3.716   9.759 -0.8468 -0.1638  0.3102
 1857SOL    HW217031   3.680   3.712   9.630 -0.1012 -1.6428  0.1567
 1858SOL     OW17032   2.747   2.026   6.321 -0.2053 -0.0676 -0.2417
 1858SOL    HW117033   2.812   1.977   6.271  1.1691  1.9932 -0.4594
 1858SOL    HW217034   2.787   2.021   6.408 -2.6862  2.4598  1.0207
 1859SOL     OW17035   4.633   3.137   8.678  0.1897  0.2378 -0.7384
 1859SOL    HW117036   4.689   3.137   8.601 -0.4569  1.8464 -1.2027
 1859SOL    HW217037   4.671   3.216   8.715 -2.7459  0.0149  2.8129
 1860SOL     OW17038   1.263   4.253   7.778  0.4791  0.0779  0.1112
 1860SOL    HW117039   1.239   4.335   7.820  1.0934 -0.0730  0.7464
 1860SOL    HW217040   1.274   4.296   7.693 -0.8836 -1.1818 -0.6959
 1861SOL     OW17041   3.167   2.599   8.952 -0.1512 -0.7453  0.1577
 1861SOL    HW117042   3.218   2.680   8.955 -0.0783 -0.8163  0.7550
 1861SOL    HW217043   3.235   2.541   8.985  0.4670 -0.3371 -0.3866
 1862SOL     OW17044   1.465   2.666   2.315  0.2457 -0.3202  0.1176
 1862SOL    HW117045   1.528   2.623   2.373  0.2999 -0.4565 -0.0416
 1862SOL    HW217046   1.528   2.670   2.243 -0.4807 -2.0073 -0.6044
 1863SOL     OW17047   2.200   3.433   8.040  0.1652  0.3862  0.5981
 1863SOL    HW117048   2.258   3.361   8.062  0.0298  0.2916  0.6376
 1863SOL    HW217049   2.137   3.393   7.981  0.0086  0.8512  0.4490
 1864SOL     OW17050   4.646   3.756   0.050  0.5081  0.0834  0.5270
 1864SOL    HW117051   4.617   3.752   0.141  0.9643  1.0282  0.7055
 1864SOL    HW217052   0.007   3.802   0.051  0.4099  0.2566  0.5881
 1865SOL     OW17053   4.183   4.444   2.633  0.3739  0.4106  1.1962
 1865SOL    HW117054   4.088   4.443   2.617  0.7758 -0.7590 -1.1333
 1865SOL    HW217055   4.181   4.506   2.706  1.1574 -0.7318  2.2034
 1866SOL     OW17056   3.586   2.543  15.445 -0.6139  0.1912 -0.3248
 1866SOL    HW117057   3.658   2.485  15.419  0.3087  1.8513 -1.4439
 1866SOL    HW217058   3.518   2.509  15.386  0.2356 -4.0360  1.1146
 1867SOL     OW17059   3.969   1.882   7.100 -0.5752 -0.1508 -0.0883
 1867SOL    HW117060   4.020   1.801   7.098 -0.7588 -0.2783  0.4065
 1867SOL    HW217061   4.024   1.939   7.155  0.1563 -1.1014  0.1577
 1868SOL     OW17062   0.585   3.705   6.586  0.2992  0.1673  0.2757
 1868SOL    HW117063   0.572   3.666   6.672  1.2250 -0.2014  0.2415
 1868SOL    HW217064   0.670   3.742   6.608  0.2676 -0.4351  1.3972
 1869SOL     OW17065   2.456   2.175   1.986  0.0577 -0.0260 -0.5783
 1869SOL    HW117066   2.433   2.193   1.895  1.8993 -0.9484 -1.2206
 1869SOL    HW217067   2.496   2.088   1.987  0.8625  0.3500  0.4155
 1870SOL     OW17068   2.368   4.013   6.175 -0.1321 -0.5359 -0.4049
 1870SOL    HW117069   2.314   3.951   6.225  1.8608 -2.5773 -0.7710
 1870SOL    HW217070   2.434   4.040   6.239 -1.2960 -2.0523  1.4609
 1871SOL     OW17071   0.735   1.004   4.290 -0.1135 -0.0770  0.1927
 1871SOL    HW117072   0.748   1.096   4.310  1.7565 -0.4169  0.5639
 1871SOL    HW217073   0.649   0.994   4.249  0.1529  0.2914 -0.4454
 1872SOL     OW17074   2.425   2.696   5.024 -0.5912  0.5928  0.1197
 1872SOL    HW117075   2.398   2.784   4.999  1.9655  1.2440 -0.3341
 1872SOL    HW217076   2.491   2.673   4.959 -0.0702  0.8397  0.5649
 1873SOL     OW17077   2.936   1.870   1.342  0.2522  0.1961 -0.0787
 1873SOL    HW117078   2.849   1.833   1.330  0.0855  0.2889  0.8503
 1873SOL    HW217079   2.982   1.822   1.272 -0.3054 -1.4089  0.6554
 1874SOL     OW17080   4.231   3.797   3.381 -0.1457 -0.2380 -0.0832
 1874SOL    HW117081   4.213   3.741   3.306 -0.2544 -0.4188  0.0768
 1874SOL    HW217082   4.294   3.849   3.331 -0.2102  0.4874  0.5982
 1875SOL     OW17083   2.390   1.389   9.440 -0.3307 -0.1453  0.3153
 1875SOL    HW117084   2.318   1.377   9.378 -0.7163  1.8649  0.3730
 1875SOL    HW217085   2.347   1.415   9.521  0.5852  1.2515  0.3700
 1876SOL     OW17086   4.275   2.215  10.223 -0.2590  0.2400 -0.2128
 1876SOL    HW117087   4.356   2.185  10.263 -0.1143  2.1720  0.9098
 1876SOL    HW217088   4.209   2.219  10.292  1.1426  3.1851  0.9408
 1877SOL     OW17089   0.725   2.659   3.155  0.4900 -0.0453  0.6170
 1877SOL    HW117090   0.769   2.682   3.237  0.1250 -0.0354  0.8122
 1877SOL    HW217091   0.739   2.739   3.106 -0.7359  0.2337  0.7155
 1878SOL     OW17092   1.352   2.683   6.716  0.2391  0.1748 -0.3650
 1878SOL    HW117093   1.389   2.744   6.780 -0.2060  0.0063  0.0520
 1878SOL    HW217094   1.262   2.715   6.714  0.0794 -0.1437  1.1388
 1879SOL     OW17095   4.447   0.303   4.636  0.1267  0.5579 -0.2279
 1879SOL    HW117096   4.513   0.325   4.701 -2.1608  0.5725  2.1111
 1879SOL    HW217097   4.461   0.210   4.618  0.1540  0.6220 -0.5448
 1880SOL     OW17098   3.101   1.909  11.222 -0.2615 -0.4637  0.2197
 1880SOL    HW117099   3.181   1.856  11.227 -1.2303 -1.8887  0.8202
 1880SOL    HW217100   3.076   1.915  11.314  0.3435 -0.4568  0.3797
 1881SOL     OW17101   1.711   0.294   2.558 -0.3230 -0.6780  0.0696
 1881SOL    HW117102   1.718   0.352   2.482 -2.6978 -2.1702 -1.2942
 1881SOL    HW217103   1.795   0.247   2.562 -0.6817 -1.2527  0.7871
 1882SOL     OW17104   1.179   1.669   4.710 -0.3076  0.1648 -0.5916
 1882SOL    HW117105   1.188   1.576   4.692  0.0268 -0.1814  1.3520
 1882SOL    HW217106   1.270   1.691   4.733 -0.4750  1.2693 -0.9859
 1883SOL     OW17107   1.996   0.694   2.319  0.8043 -0.0891  0.3919
 1883SOL    HW117108   1.989   0.673   2.226 -0.6322 -0.2848  0.5497
 1883SOL    HW217109   2.089   0.680   2.334  0.4670 -1.7578  0.9931
 1884SOL     OW17110   3.851   0.266   7.464 -0.0416  0.0299  0.0704
 1884SOL    HW117111   3.829   0.181   7.502 -1.1964 -0.9161 -2.6962
 1884SOL    HW217112   3.765   0.308   7.476 -0.5995 -0.9084 -0.6045
 1885SOL     OW17113   1.196   4.477   3.924  0.2371 -0.2117 -0.1045
 1885SOL    HW117114   1.118   4.421   3.920  0.0889  0.0009 -0.2230
 1885SOL    HW217115   1.219   4.475   4.017  1.1914  0.6702 -0.3219
 1886SOL     OW17116   0.458   0.491   6.648 -0.1559  0.9702 -0.0172
 1886SOL    HW117117   0.467   0.436   6.570 -1.1661  1.2095 -0.3105
 1886SOL    HW217118   0.549   0.514   6.667  0.8299 -1.1684 -2.0634
 1887SOL     OW17119   2.720   3.077  13.375  0.0486  0.0382  0.1455
 1887SOL    HW117120   2.629   3.083  13.349  0.1983 -1.4760 -0.7517
 1887SOL    HW217121   2.749   3.034  13.294 -0.6918 -0.7096  0.2821
 1888SOL     OW17122   4.000   4.643   2.005 -0.0860  0.0925  0.3603
 1888SOL    HW117123   4.087   4.638   1.966 -1.0210 -1.9334 -1.4444
 1888SOL    HW217124   3.946   4.596   1.942  1.0736 -0.3561 -0.2892
 1889SOL     OW17125   0.819   4.062  15.536 -0.4411 -0.1541  0.5311
 1889SOL    HW117126   0.858   4.149  15.550 -1.1178  0.0981  0.8396
 1889SOL    HW217127   0.727   4.072  15.559 -0.8735 -0.5310 -1.0455
 1890SOL     OW17128   1.911   3.428   3.831  0.0000  0.6295 -0.4658
 1890SOL    HW117129   1.841   3.425   3.766 -0.1945  0.0069 -0.2267
 1890SOL    HW217130   1.966   3.490   3.782  1.4307  0.1949  0.5945
 1891SOL     OW17131   4.492   4.225   7.270 -0.0765  0.0257 -0.0338
 1891SOL    HW117132   4.539   4.299   7.307 -0.8160  2.2932 -3.6751
 1891SOL    HW217133   4.414   4.207   7.322 -0.0330 -1.0070 -0.3296
 1892SOL     OW17134   3.164   0.879   0.572 -0.2564  0.4134  0.1208
 1892SOL    HW117135   3.239   0.905   0.626  0.2970  0.1761 -0.5410
 1892SOL    HW217136   3.186   0.791   0.541 -2.6191  0.5759 -1.9539
 1893SOL     OW17137   4.058   1.703   8.047  0.0445 -0.2359  0.4794
 1893SOL    HW117138   4.060   1.785   7.997 -1.3186  0.0154  0.8422
 1893SOL    HW217139   4.076   1.738   8.134 -1.6773  1.1248  0.2723
 1894SOL     OW17140   3.272   1.497   6.072  0.1118 -0.3369 -0.0922
 1894SOL    HW117141   3.196   1.453   6.110  2.1854 -4.2451 -0.4657
 1894SOL    HW217142   3.230   1.499   5.986 -0.9893 -2.4204  0.4033
 1895SOL     OW17143   0.416   0.275  15.444 -0.6972  0.3662  0.0091
 1895SOL    HW117144   0.368   0.193  15.432 -0.8879  0.2120  1.8295
 1895SOL    HW217145   0.382   0.337  15.379  1.5966  0.0210 -1.5209
 1896SOL     OW17146   4.662   0.139  17.170  0.4682 -0.4626 -0.1714
 1896SOL    HW117147   4.717   0.091  17.231 -0.1766 -0.9576  0.0234
 1896SOL    HW217148   4.675   0.091  17.088 -1.2523 -2.0861  0.5148
 1897SOL     OW17149   3.244   1.716  10.820 -0.1010 -0.1935  0.0336
 1897SOL    HW117150   3.288   1.742  10.901  2.4880 -0.1839 -1.3927
 1897SOL    HW217151   3.284   1.770  10.752 -2.0668  0.9518 -0.2117
 1898SOL     OW17152   0.867   0.325  15.703 -0.2120  0.1982  0.2511
 1898SOL    HW117153   0.812   0.324  15.625 -1.2724  3.9842  0.9815
 1898SOL    HW217154   0.802   0.281  15.759  0.3538 -1.9851 -0.7858
 1899SOL     OW17155   3.140   1.825   5.344 -0.1771  0.2794  0.7317
 1899SOL    HW117156   3.102   1.766   5.279 -0.5627  1.0232  0.2803
 1899SOL    HW217157   3.097   1.792   5.423  0.7469  0.2038  1.2047
 1900SOL     OW17158   3.752   2.348  15.350 -0.3820  0.2404  0.3326
 1900SOL    HW117159   3.782   2.393  15.271 -1.0050 -0.3119 -0.2243
 1900SOL    HW217160   3.737   2.267  15.301 -1.2145  1.0422 -0.7306
 1901SOL     OW17161   3.968   3.382   9.760 -0.0146 -0.1285  0.0386
 1901SOL    HW117162   4.007   3.362   9.845 -1.7120 -1.6822  0.4405
 1901SOL    HW217163   3.966   3.478   9.755 -0.7215 -0.0831  1.2241
 1902SOL     OW17164   0.569   3.983   0.301  0.1484 -0.4711 -0.5847
 1902SOL    HW117165   0.486   3.956   0.340  0.2112 -0.6226 -0.5566
 1902SOL    HW217166   0.545   4.062   0.251 -2.1592  0.8010  2.5148
 1903SOL     OW17167   2.575   1.148   1.562 -0.7155  0.0454  0.1490
 1903SOL    HW117168   2.665   1.160   1.594 -0.7486  0.7112  0.0004
 1903SOL    HW217169   2.587   1.142   1.467 -2.5996  2.6248 -0.2523
 1904SOL     OW17170   3.192   1.677   7.577  0.2461 -0.5745  0.0097
 1904SOL    HW117171   3.239   1.716   7.651  2.0521  0.7356 -1.8517
 1904SOL    HW217172   3.125   1.616   7.610  0.7678 -0.4464  1.3136
 1905SOL     OW17173   0.087   1.587   7.393  0.1659 -0.4909 -0.1202
 1905SOL    HW117174   0.046   1.522   7.450 -3.7882  0.3841 -1.9707
 1905SOL    HW217175   0.120   1.523   7.331  2.0429  0.4774 -0.1264
 1906SOL     OW17176   2.538   2.549   8.395  0.1396 -0.3528 -0.3904
 1906SOL    HW117177   2.454   2.578   8.360  0.9220  2.8915  0.4413
 1906SOL    HW217178   2.544   2.599   8.476  0.4685 -1.4156  0.2452
 1907SOL     OW17179   2.348   4.633   3.564 -0.3205  0.2453  0.5791
 1907SOL    HW117180   2.336   4.539   3.580  1.2119 -0.1404 -0.5536
 1907SOL    HW217181   2.337   4.659   3.655  1.3268  1.9352  0.2963
 1908SOL     OW17182   2.891   4.608  15.843 -0.3692  0.5986 -0.2504
 1908SOL    HW117183   2.836   4.637  15.916 -0.9266  1.1060 -0.8870
 1908SOL    HW217184   2.857   4.521  15.822 -1.6848  1.3839 -1.3206
 1909SOL     OW17185   2.972   0.522   8.868 -0.3001 -0.1889 -1.1534
 1909SOL    HW117186   3.031   0.494   8.938  0.2600 -1.2235 -2.0539
 1909SOL    HW217187   2.947   0.612   8.893 -1.0156  0.4374 -4.1664
 1910SOL     OW17188   4.262   0.222   3.347 -0.2416 -0.1222 -0.6208
 1910SOL    HW117189   4.202   0.269   3.289 -0.5646  0.1896 -0.0320
 1910SOL    HW217190   4.216   0.142   3.372 -0.3408 -0.4280 -1.8098
 1911SOL     OW17191   1.428   2.957   8.213 -0.6356 -0.3483 -0.0575
 1911SOL    HW117192   1.440   2.995   8.126  0.2660 -0.8574 -0.1602
 1911SOL    HW217193   1.425   3.039   8.263  0.6708 -0.0815 -0.4013
 1912SOL     OW17194   4.315   4.581  11.893 -0.8267 -0.0354  0.6375
 1912SOL    HW117195   4.373   4.577  11.817 -0.4593 -1.4170  0.9856
 1912SOL    HW217196   4.382   4.592  11.961 -0.5673  0.7653  0.2604
 1913SOL     OW17197   2.903   2.956   4.031 -0.4618 -0.1194  0.5101
 1913SOL    HW117198   2.893   3.030   4.090 -0.1070 -0.4063  0.9312
 1913SOL    HW217199   2.904   3.002   3.947  0.3760 -0.0125  0.5845
 1914SOL     OW17200   2.401   2.329  16.917  0.7575  0.0259 -0.3562
 1914SOL    HW117201   2.464   2.258  16.927 -1.9632 -2.4050 -0.4893
 1914SOL    HW217202   2.433   2.381  16.990 -2.4712  1.4658  0.0531
 1915SOL     OW17203   0.132   3.540   7.504  0.0093  0.4252  0.1430
 1915SOL    HW117204   0.063   3.598   7.472  0.1165  1.6336  2.0765
 1915SOL    HW217205   0.123   3.556   7.598 -1.7355  1.4580 -0.2156
 1916SOL     OW17206   4.584   3.462   4.061 -0.0827 -0.0962  0.2659
 1916SOL    HW117207   4.657   3.485   4.004 -0.0564 -1.6649 -0.3307
 1916SOL    HW217208   4.506   3.474   4.006 -0.6771 -2.3659  0.6233
 1917SOL     OW17209   1.776   0.794   3.254  0.6824 -0.4490 -0.1998
 1917SOL    HW117210   1.692   0.826   3.286  1.9007  0.8351  1.7107
 1917SOL    HW217211   1.756   0.724   3.191 -1.1405  0.6434 -0.8245
 1918SOL     OW17212   0.862   1.250  12.741 -0.3199 -0.5638  0.4240
 1918SOL    HW117213   0.853   1.343  12.719  0.9680 -0.7590 -0.9901
 1918SOL    HW217214   0.773   1.215  12.732  0.2779 -1.9257 -0.2300
 1919SOL     OW17215   0.514   4.171  14.089 -0.2146 -0.2389 -0.3246
 1919SOL    HW117216   0.462   4.189  14.011  1.9551  2.6596 -1.1382
 1919SOL    HW217217   0.492   4.079  14.100 -1.7956  0.1220 -0.5444
 1920SOL     OW17218   3.190   0.882  10.285  0.0379 -0.5542  0.2945
 1920SOL    HW117219   3.135   0.821  10.334 -0.1704  0.6296  1.5615
 1920SOL    HW217220   3.155   0.870  10.197  1.0917 -0.1637 -0.1676
 1921SOL     OW17221   0.136   3.818   5.261  0.2772 -0.4611 -0.4796
 1921SOL    HW117222   0.226   3.850   5.260  0.5663 -1.1906  1.6330
 1921SOL    HW217223   0.086   3.898   5.276  0.8656 -0.3867  0.9691
 1922SOL     OW17224   3.776   1.870  15.208 -0.3508 -0.4534 -0.0407
 1922SOL    HW117225   3.794   1.799  15.270  0.5105  0.9590  1.3315
 1922SOL    HW217226   3.827   1.831  15.137  2.4221  0.2920  1.5177
 1923SOL     OW17227   2.373   2.722   0.159  0.4575  0.3695 -0.3586
 1923SOL    HW117228   2.312   2.781   0.204 -0.3494 -1.2369  0.6741
 1923SOL    HW217229   2.363   2.750   0.068  1.1509 -3.1829 -1.5275
 1924SOL     OW17230   0.766   4.018   2.143 -0.1263  0.1540  0.2358
 1924SOL    HW117231   0.739   4.077   2.213 -2.8859 -2.6415  1.5875
 1924SOL    HW217232   0.681   3.984   2.117 -1.1503  2.2760  0.8190
 1925SOL     OW17233   0.109   4.397   7.484 -0.5581 -0.5777  0.4606
 1925SOL    HW117234   0.138   4.306   7.489 -0.8455 -0.6001  1.7262
 1925SOL    HW217235   0.120   4.422   7.576 -0.0700 -0.2067  0.3039
 1926SOL     OW17236   0.351   4.305   4.902  0.7712  0.1962  0.0968
 1926SOL    HW117237   0.277   4.349   4.942  1.0054  1.0020 -0.3651
 1926SOL    HW217238   0.307   4.225   4.872  0.2864  0.2203  0.7515
 1927SOL     OW17239   4.050   4.560   8.811  0.1921 -0.1747  0.5097
 1927SOL    HW117240   4.016   4.529   8.727 -1.4627 -1.0075  1.4971
 1927SOL    HW217241   3.993   4.635   8.826  0.9530  1.0780 -2.7171
 1928SOL     OW17242   1.793   0.032   6.719  0.4593  0.0075  0.6173
 1928SOL    HW117243   1.860   0.000   6.658 -0.8945 -0.4200 -0.6606
 1928SOL    HW217244   1.746   0.094   6.663 -2.0447 -1.0130  1.6118
 1929SOL     OW17245   2.251   3.322   5.657  0.4214 -0.3759 -0.4096
 1929SOL    HW117246   2.325   3.287   5.707  1.2956  3.7871  1.1945
 1929SOL    HW217247   2.227   3.398   5.710  0.6095 -0.7645  0.2317
 1930SOL     OW17248   4.351   3.264  14.896 -0.0572  1.3377 -0.0350
 1930SOL    HW117249   4.280   3.235  14.953  1.1300 -2.6312 -0.5992
 1930SOL    HW217250   4.397   3.328  14.951  0.8321  1.6378 -1.1323
 1931SOL     OW17251   1.431   4.147   6.737 -1.1675 -0.7969 -0.1794
 1931SOL    HW117252   1.378   4.226   6.725 -0.1437 -0.2495 -1.2297
 1931SOL    HW217253   1.505   4.191   6.780 -0.6871  0.5351 -2.3382
 1932SOL     OW17254   3.139   1.584   5.840  0.1141 -0.1728  0.4492
 1932SOL    HW117255   3.068   1.643   5.863  0.4726 -0.4328  2.1849
 1932SOL    HW217256   3.208   1.648   5.825  0.4477 -0.5437  0.3992
 1933SOL     OW17257   3.708   1.495   5.587  0.6386  0.7272  0.1674
 1933SOL    HW117258   3.758   1.577   5.587  1.8914 -0.0556  1.5328
 1933SOL    HW217259   3.624   1.530   5.617  1.6189  1.2480  2.3018
 1934SOL     OW17260   3.946   2.589  16.288 -0.1912 -0.1062  0.3633
 1934SOL    HW117261   3.866   2.563  16.242  1.2098 -1.6196 -1.1977
 1934SOL    HW217262   3.968   2.505  16.329 -0.2559 -1.9730 -3.4664
 1935SOL     OW17263   4.198   3.220   2.974 -0.0281  0.2531 -0.3154
 1935SOL    HW117264   4.218   3.129   2.952  0.1769 -0.1197  1.4337
 1935SOL    HW217265   4.263   3.267   2.920 -1.0520  0.1460 -1.6341
 1936SOL     OW17266   4.054   0.385   5.547 -0.1938 -0.1369  0.3454
 1936SOL    HW117267   4.093   0.320   5.605  0.5190 -1.6100 -1.8004
 1936SOL    HW217268   4.124   0.448   5.530  0.7379 -1.5238 -0.9210
 1937SOL     OW17269   3.150   3.426  14.796  0.1168  0.1120 -0.0898
 1937SOL    HW117270   3.124   3.452  14.884  1.2891 -0.7514  0.5178
 1937SOL    HW217271   3.107   3.490  14.740  0.0218  0.7432  0.7031
 1938SOL     OW17272   0.853   1.584   6.193  0.2361 -0.7827  0.0697
 1938SOL    HW117273   0.800   1.562   6.270 -0.7635  3.1341  0.4744
 1938SOL    HW217274   0.922   1.638   6.231 -0.6134  1.1132 -1.1024
 1939SOL     OW17275   1.388   2.363  13.332 -0.6001  0.3022 -0.3579
 1939SOL    HW117276   1.312   2.355  13.389  0.9881 -0.0354  1.7188
 1939SOL    HW217277   1.398   2.277  13.290  0.3310 -0.4056  1.2899
 1940SOL     OW17278   1.452   3.380   2.469 -0.2171  0.0247  0.4258
 1940SOL    HW117279   1.467   3.400   2.377 -2.4242 -1.2847 -0.2094
 1940SOL    HW217280   1.528   3.323   2.483 -1.4669 -2.1359 -1.7272
 1941SOL     OW17281   1.730   4.485   5.754 -0.5112 -0.5280 -0.0356
 1941SOL    HW117282   1.744   4.515   5.665 -0.7274 -0.3326 -0.0028
 1941SOL    HW217283   1.652   4.434   5.734 -0.2562 -0.5940 -0.8632
 1942SOL     OW17284   3.862   4.684  11.522 -0.1574  0.6110  0.0823
 1942SOL    HW117285   3.879   4.645  11.436  0.3482  1.6471 -0.2992
 1942SOL    HW217286   3.948   4.714  11.553  0.3817 -0.1007 -0.7200
 1943SOL     OW17287   1.569   1.884   8.944  0.7645  0.0599  0.5168
 1943SOL    HW117288   1.623   1.827   8.998  0.1798 -1.0181 -0.0281
 1943SOL    HW217289   1.591   1.856   8.855 -1.9290 -0.1584 -0.0676
 1944SOL     OW17290   1.633   3.386  10.967  0.3567 -0.6502  0.6178
 1944SOL    HW117291   1.702   3.343  11.018  0.7544 -1.6776 -0.7983
 1944SOL    HW217292   1.631   3.336  10.886 -0.9807  0.3513  0.0351
 1945SOL     OW17293   4.719   3.924  11.732  0.5657 -0.1165 -0.0089
 1945SOL    HW117294   0.009   3.887  11.820  1.3502  1.6879  0.6539
 1945SOL    HW217295   0.088   3.931  11.703  0.6618  0.8736  0.5409
 1946SOL     OW17296   2.773   1.087   4.877 -0.4525 -0.7988 -0.2045
 1946SOL    HW117297   2.733   1.095   4.964 -1.1733  0.0739 -0.6166
 1946SOL    HW217298   2.704   1.129   4.826  1.5132 -0.0895 -2.2978
 1947SOL     OW17299   0.075   4.073   1.963  0.5962 -0.3889 -0.1634
 1947SOL    HW117300   0.066   4.143   2.028  1.3485  0.2976 -0.7803
 1947SOL    HW217301   0.162   4.034   1.976 -0.1859 -0.7231  3.8237
 1948SOL     OW17302   2.391   1.900   6.240  0.2117 -0.2699  0.3522
 1948SOL    HW117303   2.468   1.845   6.227  1.1001  1.3933 -1.4716
 1948SOL    HW217304   2.429   1.980   6.202  1.3762  0.0765  2.2632
 1949SOL     OW17305   4.356   2.899   6.039  0.1647  0.0339 -0.1129
 1949SOL    HW117306   4.441   2.898   5.996  1.1798 -2.3429  1.9643
 1949SOL    HW217307   4.304   2.925   5.963 -1.4683  2.3151  1.7878
 1950SOL     OW17308   3.261   3.247   2.713 -0.2447  0.4905 -0.0314
 1950SOL    HW117309   3.218   3.244   2.628  2.0473 -1.1836 -1.1376
 1950SOL    HW217310   3.251   3.154   2.734  2.3966  0.2546  0.2174
 1951SOL     OW17311   4.498   2.148  15.745  0.1310  0.2154  0.3383
 1951SOL    HW117312   4.418   2.200  15.738 -0.3015 -0.2532  1.9732
 1951SOL    HW217313   4.560   2.210  15.706 -0.5529  1.2428  0.8665
 1952SOL     OW17314   1.662   2.057  14.359  0.0980 -0.4296  0.2835
 1952SOL    HW117315   1.703   2.118  14.298 -0.2202  0.1196  0.6128
 1952SOL    HW217316   1.587   2.029  14.307 -0.2314  2.0992 -0.5959
 1953SOL     OW17317   0.283   0.457   5.092  0.3189  0.2096 -1.0093
 1953SOL    HW117318   0.373   0.427   5.106 -0.7539 -3.0395 -1.0956
 1953SOL    HW217319   0.288   0.545   5.129 -0.4244  0.4466 -1.4686
 1954SOL     OW17320   2.052   1.028   6.533 -0.2447 -0.4045  0.7135
 1954SOL    HW117321   2.077   0.937   6.553  2.1626  0.3891  1.2989
 1954SOL    HW217322   2.137   1.067   6.548 -0.8202  0.5231  1.5243
 1955SOL     OW17323   1.418   3.634  14.397 -0.3893  0.2916 -0.4670
 1955SOL    HW117324   1.481   3.697  14.431  0.8305 -0.7524 -0.8072
 1955SOL    HW217325   1.337   3.651  14.446  0.3530 -3.1504  1.9853
 1956SOL     OW17326   0.903   2.162   6.234  0.3415 -0.8477  0.0695
 1956SOL    HW117327   0.915   2.068   6.230  1.5817 -0.6828  0.0232
 1956SOL    HW217328   0.827   2.177   6.176  0.8279 -0.1813 -0.4039
 1957SOL     OW17329   3.541   1.550   2.256 -0.1541  0.5596  0.1886
 1957SOL    HW117330   3.557   1.457   2.267 -1.4411  0.2992 -0.1444
 1957SOL    HW217331   3.449   1.559   2.282 -0.7509 -2.3545 -0.9927
 1958SOL     OW17332   0.936   1.247   9.069  0.7472 -0.0999 -0.0798
 1958SOL    HW117333   0.854   1.296   9.064  1.5685  1.2665 -0.2277
 1958SOL    HW217334   0.990   1.312   9.115 -0.4596 -0.0651  1.3033
 1959SOL     OW17335   4.268   2.589   5.175  0.9958 -0.1115 -0.1268
 1959SOL    HW117336   4.234   2.659   5.118 -0.9384 -1.9483 -1.2139
 1959SOL    HW217337   4.188   2.539   5.194  0.0351  1.7972  0.9446
 1960SOL     OW17338   1.898   2.550   2.235 -0.4715  0.2305 -0.0918
 1960SOL    HW117339   1.972   2.566   2.293 -1.3125  0.4464  0.9145
 1960SOL    HW217340   1.834   2.613   2.268 -0.4783  0.8084 -1.1935
 1961SOL     OW17341   0.920   0.308   4.295 -0.3778  0.0316 -0.2589
 1961SOL    HW117342   0.843   0.356   4.327  1.4931  2.4982  0.4541
 1961SOL    HW217343   0.882   0.242   4.235 -1.2852  0.6586 -0.3813
 1962SOL     OW17344   3.173   4.545   7.892 -0.4935 -0.4087  0.0545
 1962SOL    HW117345   3.169   4.623   7.948 -0.1796  0.4919 -1.1681
 1962SOL    HW217346   3.163   4.468   7.948 -1.1417 -1.0291 -0.9110
 1963SOL     OW17347   4.059   3.184  14.867 -0.3011  0.0846  0.2020
 1963SOL    HW117348   3.968   3.214  14.863  0.0980  0.8268 -3.4633
 1963SOL    HW217349   4.083   3.178  14.960  0.7027  1.0446  0.0063
 1964SOL     OW17350   0.265   2.718  17.673  0.1579  0.0203  0.4117
 1964SOL    HW117351   0.297   2.629  17.686  2.6344  0.7311 -0.7653
 1964SOL    HW217352   0.321   2.754  17.604 -0.4007 -0.0877 -0.0915
 1965SOL     OW17353   3.116   2.747   1.951 -0.3250  0.2243  0.0649
 1965SOL    HW117354   3.178   2.710   2.013  0.9787 -0.2787 -1.5295
 1965SOL    HW217355   3.132   2.841   1.955  0.5063  0.1235 -0.9868
 1966SOL     OW17356   1.268   3.924   8.670 -0.5483  0.1304 -0.5115
 1966SOL    HW117357   1.178   3.956   8.664 -0.3763  0.6150 -0.4646
 1966SOL    HW217358   1.250   3.830   8.683  1.9948 -0.1646  0.9128
 1967SOL     OW17359   2.048   4.074   8.125 -0.3202  0.6199 -0.4170
 1967SOL    HW117360   2.062   4.166   8.104  1.4326  0.2450 -0.9804
 1967SOL    HW217361   2.130   4.034   8.094  0.1355  1.2679 -0.0648
 1968SOL     OW17362   0.482   1.259  10.775 -0.2328  0.1420 -0.3861
 1968SOL    HW117363   0.534   1.274  10.697 -1.1570  2.7048 -0.5431
 1968SOL    HW217364   0.479   1.164  10.782 -4.4152  0.4210  1.5629
 1969SOL     OW17365   1.386   0.827   4.858 -0.4208  0.0642  0.0353
 1969SOL    HW117366   1.354   0.737   4.859  0.5966 -0.2747  1.7236
 1969SOL    HW217367   1.407   0.839   4.765  0.4616  0.5826  0.2950
 1970SOL     OW17368   1.050   3.279   6.402  0.2281  0.3159  0.6124
 1970SOL    HW117369   1.073   3.266   6.494 -0.2902 -2.5299  0.3326
 1970SOL    HW217370   1.072   3.192   6.367 -1.4413  1.0186 -2.1916
 1971SOL     OW17371   3.339   1.797  11.207 -0.1373  0.3993  0.0892
 1971SOL    HW117372   3.350   1.717  11.258 -1.0886  0.5229  0.4855
 1971SOL    HW217373   3.405   1.792  11.138 -1.7558 -0.2653 -1.4114
 1972SOL     OW17374   0.382   1.863   7.471  0.5371 -0.6750 -0.6602
 1972SOL    HW117375   0.402   1.892   7.560 -1.8941  2.9719 -1.3255
 1972SOL    HW217376   0.302   1.910   7.450  0.7463  0.8942  2.1199
 1973SOL     OW17377   4.601   1.766   3.287  0.3032 -0.0437 -0.5974
 1973SOL    HW117378   4.678   1.802   3.242 -0.5822  1.4027 -0.9551
 1973SOL    HW217379   4.607   1.801   3.376 -0.2605 -2.2999  0.3306
 1974SOL     OW17380   4.296   3.533  13.598  0.3537 -0.1077  0.1315
 1974SOL    HW117381   4.276   3.625  13.614  1.6038  0.5793 -2.1279
 1974SOL    HW217382   4.246   3.485  13.664 -1.5484  0.7546 -0.6713
 1975SOL     OW17383   0.604   1.516  12.599 -0.1496 -0.2368  0.1721
 1975SOL    HW117384   0.646   1.435  12.573 -2.1967 -1.2124 -0.0665
 1975SOL    HW217385   0.626   1.524  12.692 -1.4840 -0.5339  0.5129
 1976SOL     OW17386   1.518   2.414   4.147 -0.2583 -0.1668  0.3255
 1976SOL    HW117387   1.607   2.420   4.183  0.4727  0.4181 -1.5605
 1976SOL    HW217388   1.472   2.422   4.231 -0.1979 -0.9155  0.4279
 1977SOL     OW17389   1.213   3.268  17.653  0.7879  0.1779  0.5946
 1977SOL    HW117390   1.183   3.212  17.581 -0.7877  2.7226 -0.6910
 1977SOL    HW217391   1.189   3.216   0.038 -0.8284 -0.7856 -0.5609
 1978SOL     OW17392   3.604   2.040  10.964  0.1770  0.2505  0.2829
 1978SOL    HW117393   3.679   2.095  10.943  1.0667 -1.1203 -0.1297
 1978SOL    HW217394   3.643   1.960  10.929  0.6133  0.1303  1.0626
 1979SOL     OW17395   1.338   0.774   6.396 -0.0506  0.5819 -0.0602
 1979SOL    HW117396   1.283   0.793   6.320 -1.7700  1.1124  1.3336
 1979SOL    HW217397   1.373   0.862   6.408 -0.5266  0.7891 -0.1757
 1980SOL     OW17398   2.574   3.423   8.504  0.2849  0.0801  0.2481
 1980SOL    HW117399   2.636   3.472   8.450 -1.4004 -0.6996 -2.3947
 1980SOL    HW217400   2.491   3.437   8.459  0.4326 -2.2102 -0.7316
 1981SOL     OW17401   3.188   0.575   8.468  0.6726 -0.0422  0.1694
 1981SOL    HW117402   3.198   0.482   8.488  0.1696 -0.5575 -1.9868
 1981SOL    HW217403   3.182   0.555   8.374  0.8639 -0.6722  0.2908
 1982SOL     OW17404   4.349   0.728   1.955  0.5503 -0.0072  0.2649
 1982SOL    HW117405   4.433   0.751   1.995  0.3152  0.2461  0.6130
 1982SOL    HW217406   4.296   0.745   2.033  1.3793  0.2667  0.7629
 1983SOL     OW17407   1.550   1.163  13.978 -0.5519  0.3099  0.2512
 1983SOL    HW117408   1.534   1.103  14.050 -1.9360  0.8454  0.3960
 1983SOL    HW217409   1.549   1.114  13.895  0.4745 -1.9459  1.5732
 1984SOL     OW17410   2.362   1.706  15.969  0.4986  0.5277  0.5482
 1984SOL    HW117411   2.410   1.747  16.041 -0.5034  3.3457 -0.3594
 1984SOL    HW217412   2.401   1.743  15.889  0.3817 -0.7452 -0.0903
 1985SOL     OW17413   0.999   1.579   3.888  0.4292  0.0367 -0.5032
 1985SOL    HW117414   1.025   1.498   3.932 -1.1967 -0.0746  0.2850
 1985SOL    HW217415   0.986   1.639   3.961  0.0420 -1.2232  0.4597
 1986SOL     OW17416   2.580   3.055   4.966  0.3648  0.0814  0.6092
 1986SOL    HW117417   2.499   3.016   4.931 -0.4600  1.6486  0.7534
 1986SOL    HW217418   2.548   3.086   5.051  1.3012  0.6174  0.7711
 1987SOL     OW17419   2.985   1.948   7.217 -0.3357  0.2450  0.2229
 1987SOL    HW117420   2.984   2.029   7.267 -2.5824  0.5922 -0.3803
 1987SOL    HW217421   2.936   1.891   7.277 -1.2564 -0.1776 -0.9431
 1988SOL     OW17422   2.799   0.972   5.789  0.0876  0.3605  0.1972
 1988SOL    HW117423   2.811   1.048   5.732  0.3328  0.4096  0.3155
 1988SOL    HW217424   2.711   0.975   5.828 -1.4673 -0.2450 -3.2725
 1989SOL     OW17425   1.243   3.616  11.968 -0.2202 -0.0446  0.7051
 1989SOL    HW117426   1.292   3.685  11.923  2.2016 -3.2690 -1.6598
 1989SOL    HW217427   1.247   3.544  11.904 -2.2050 -2.3873  3.2286
 1990SOL     OW17428   2.016   2.522   0.647 -0.3182  0.0638 -0.3511
 1990SOL    HW117429   1.960   2.559   0.579 -0.3201 -0.1531 -0.4683
 1990SOL    HW217430   2.043   2.446   0.594  0.2945  0.2621 -0.3270
 1991SOL     OW17431   1.214   1.292   8.300 -0.4649  0.6792  0.5749
 1991SOL    HW117432   1.135   1.239   8.315 -1.8189  3.1387  2.2112
 1991SOL    HW217433   1.253   1.253   8.222 -1.1087  1.4575 -0.1369
 1992SOL     OW17434   2.709   3.210   7.991 -0.1012 -0.9582 -0.5409
 1992SOL    HW117435   2.678   3.123   7.969 -0.4033 -0.1019 -3.5003
 1992SOL    HW217436   2.721   3.208   8.086  1.6091  0.3257 -0.7208
 1993SOL     OW17437   2.531   4.326  15.990  0.5518  0.2985 -0.2659
 1993SOL    HW117438   2.513   4.339  15.897 -0.0209  1.1889 -0.0325
 1993SOL    HW217439   2.452   4.365  16.027 -0.4278 -1.1641 -0.8191
 1994SOL     OW17440   0.100   1.295  17.033  0.3288 -0.5918 -0.0528
 1994SOL    HW117441   0.160   1.236  17.078 -0.5388 -1.7242 -0.3817
 1994SOL    HW217442   0.137   1.375  17.069 -0.7847  0.1781 -0.6106
 1995SOL     OW17443   3.240   0.892   5.496 -0.2080 -0.0084 -0.1153
 1995SOL    HW117444   3.199   0.873   5.412 -0.6543  1.0518 -0.1437
 1995SOL    HW217445   3.303   0.960   5.470 -0.5838  0.6811  0.7618
 1996SOL     OW17446   4.608   3.798   6.444  0.1101  0.1389  0.1655
 1996SOL    HW117447   4.638   3.865   6.383 -3.0899  0.9041 -0.5889
 1996SOL    HW217448   4.536   3.752   6.401 -1.2777  0.7538  1.8121
 1997SOL     OW17449   0.646   1.351   8.799 -1.0514  0.1449  0.0800
 1997SOL    HW117450   0.615   1.345   8.709  3.0611 -1.2133 -1.2394
 1997SOL    HW217451   0.654   1.257   8.819 -0.8070  0.2190  0.3237
 1998SOL     OW17452   1.036   4.037   3.770 -0.0650  0.6063  0.3178
 1998SOL    HW117453   1.062   3.960   3.719 -0.3265  2.1553 -2.1658
 1998SOL    HW217454   1.105   4.040   3.835  1.8411 -1.4443 -1.6161
 1999SOL     OW17455   0.895   4.165  17.194 -0.0605  0.2315  0.0265
 1999SOL    HW117456   0.848   4.082  17.189 -0.0673  0.1946  0.6818
 1999SOL    HW217457   0.867   4.197  17.108  0.1200  1.2389  0.3389
 2000SOL     OW17458   0.173   2.288  12.809  0.1316 -0.2626 -0.1323
 2000SOL    HW117459   0.236   2.216  12.804 -0.0377 -0.4475  0.5103
 2000SOL    HW217460   0.114   2.257  12.877 -2.6284  1.5191 -1.7403
 2001SOL     OW17461   1.972   0.509   5.653  0.4819 -0.2396 -0.0262
 2001SOL    HW117462   1.895   0.523   5.708 -0.1455 -0.1439 -0.9357
 2001SOL    HW217463   2.045   0.529   5.711  1.1383 -1.7502 -0.3402
 2002SOL     OW17464   0.201   0.649   9.106 -0.3086  0.3084  0.0792
 2002SOL    HW117465   0.144   0.587   9.059  0.0985 -1.0435  1.3544
 2002SOL    HW217466   0.225   0.600   9.185 -0.2904 -0.4867 -0.4196
 2003SOL     OW17467   2.134   0.804   6.662 -0.1421  0.2152  0.0818
 2003SOL    HW117468   2.149   0.716   6.626 -0.3255 -0.4182  1.5484
 2003SOL    HW217469   2.207   0.807   6.724 -1.4539  1.6251  1.5482
 2004SOL     OW17470   2.666   1.336   7.187  0.4589  0.4130  0.1521
 2004SOL    HW117471   2.573   1.316   7.201 -0.2592  3.9275  0.4159
 2004SOL    HW217472   2.660   1.360   7.094  0.5416  0.8862  0.2702
 2005SOL     OW17473   4.229   1.227   5.996 -0.0955  0.6332 -0.2435
 2005SOL    HW117474   4.149   1.179   5.972  0.4098 -0.9717  1.2480
 2005SOL    HW217475   4.275   1.183   5.925  0.3185  1.3227 -0.4041
 2006SOL     OW17476   4.472   0.287   6.300 -0.1252 -0.2809  0.0374
 2006SOL    HW117477   4.384   0.253   6.313 -0.5931  1.5113  1.4711
 2006SOL    HW217478   4.482   0.331   6.384 -2.5230  0.4788 -0.0801
 2007SOL     OW17479   0.058   1.239   0.435 -0.1204 -0.5228  0.1157
 2007SOL    HW117480   0.128   1.286   0.390  1.5068 -1.6092  1.5250
 2007SOL    HW217481   4.705   1.272   0.386 -0.4854  0.1731  1.1555
 2008SOL     OW17482   3.759   1.881  11.152 -0.0663  0.0447  0.5104
 2008SOL    HW117483   3.735   1.833  11.073 -2.0423  1.5746  0.1827
 2008SOL    HW217484   3.780   1.967  11.115  0.2187  0.5702  1.8897
 2009SOL     OW17485   3.023   1.627   4.674  0.7738 -0.2591  0.1375
 2009SOL    HW117486   2.991   1.717   4.666  0.2966 -0.6915 -2.8328
 2009SOL    HW217487   2.950   1.595   4.621  1.0034  0.3266 -0.5205
 2010SOL     OW17488   3.831   3.260   5.020 -0.2167  1.1436  0.7213
 2010SOL    HW117489   3.922   3.274   5.044 -0.4609  0.9702  1.7301
 2010SOL    HW217490   3.800   3.208   5.094 -2.4784  1.2006 -0.1771
 2011SOL     OW17491   1.884   0.983   7.799  0.1681  0.3255 -0.9559
 2011SOL    HW117492   1.928   0.935   7.729  2.3443  0.1067  0.5621
 2011SOL    HW217493   1.824   0.916   7.832 -0.4652  2.4945  2.3169
 2012SOL     OW17494   3.624   1.578  17.365  0.4693 -0.1694 -0.1475
 2012SOL    HW117495   3.705   1.565  17.317  0.8648  0.4976  0.3542
 2012SOL    HW217496   3.656   1.635  17.435 -1.3269  0.4297  0.1901
 2013SOL     OW17497   2.592   4.050   5.786 -0.0653 -0.1734 -0.0347
 2013SOL    HW117498   2.546   3.992   5.724 -0.6966 -1.9514  2.1059
 2013SOL    HW217499   2.583   4.139   5.751  2.0625 -0.1223 -0.4396
 2014SOL     OW17500   4.599   0.861   5.685 -0.3526  0.2127  0.0946
 2014SOL    HW117501   4.614   0.810   5.765 -4.3752 -0.2291  0.5400
 2014SOL    HW217502   4.681   0.911   5.675  0.2283 -1.0100 -1.1348
 2015SOL     OW17503   2.450   0.562   6.985 -0.2538 -0.0149  0.5601
 2015SOL    HW117504   2.391   0.631   7.014 -0.1915  0.5591 -0.6728
 2015SOL    HW217505   2.384   0.502   6.949 -1.9161  1.5826  0.9550
 2016SOL     OW17506   1.079   0.772  11.199  0.4269 -0.5579 -0.0269
 2016SOL    HW117507   1.138   0.845  11.218 -2.6394  1.7753  0.6175
 2016SOL    HW217508   1.138   0.710  11.156 -0.0333  1.1054 -3.0652
 2017SOL     OW17509   4.139   4.202   1.346 -0.5753  0.2719 -0.1701
 2017SOL    HW117510   4.213   4.239   1.395 -0.7166  1.0395 -0.5291
 2017SOL    HW217511   4.099   4.284   1.316 -1.1621  0.3998  0.9506
 2018SOL     OW17512   1.743   3.015  14.905  0.2727  0.1207 -0.0311
 2018SOL    HW117513   1.675   2.969  14.954  0.6462  0.3519  0.7102
 2018SOL    HW217514   1.736   3.109  14.923  0.2736  0.2454 -0.6778
 2019SOL     OW17515   3.315   1.056   1.547  0.2813  0.3456  0.2662
 2019SOL    HW117516   3.342   1.050   1.456  1.0351 -0.9637  0.5852
 2019SOL    HW217517   3.386   1.105   1.588  0.7950 -0.7247  0.6335
 2020SOL     OW17518   3.023   1.790   3.216  0.3069  0.5066  0.2291
 2020SOL    HW117519   3.010   1.805   3.309  0.8428 -0.2730  0.4254
 2020SOL    HW217520   2.931   1.769   3.200  1.4281 -1.1148 -4.1628
 2021SOL     OW17521   0.474   1.251   1.898  0.2485 -0.1084  0.4530
 2021SOL    HW117522   0.437   1.227   1.813  2.1053 -1.5816  0.0565
 2021SOL    HW217523   0.403   1.306   1.931  1.9870  2.4890 -0.1975
 2022SOL     OW17524   0.357   0.235  13.852  0.0111  0.4367  0.0554
 2022SOL    HW117525   0.446   0.245  13.817  0.0548 -3.4597 -0.9432
 2022SOL    HW217526   0.350   0.142  13.873 -0.5143  0.6374  0.7554
 2023SOL     OW17527   3.089   1.141   5.409 -0.1459 -0.0072  0.2222
 2023SOL    HW117528   3.153   1.070   5.401 -0.8922 -0.3006 -3.1693
 2023SOL    HW217529   3.072   1.158   5.316  0.4939 -0.9583 -0.0711
 2024SOL     OW17530   1.881   4.553  11.173  0.5999 -0.2030  0.1229
 2024SOL    HW117531   1.866   4.536  11.266  0.0508 -1.6883 -0.2319
 2024SOL    HW217532   1.842   4.640  11.178  1.5217  0.2374 -0.1973
 2025SOL     OW17533   1.060   4.718   6.391  0.1950 -0.2325 -0.3026
 2025SOL    HW117534   1.056   0.086   6.425  1.1879 -0.8011  1.3352
 2025SOL    HW217535   1.131   0.001   6.327 -0.7587  2.6291 -1.1543
 2026SOL     OW17536   3.490   2.932   8.237  0.0660 -0.0916 -0.1631
 2026SOL    HW117537   3.433   2.913   8.311 -0.6975  0.1329 -0.6950
 2026SOL    HW217538   3.581   2.928   8.268 -0.9594 -0.4620  2.8091
 2027SOL     OW17539   3.289   2.404   4.268  0.3066  0.1534  0.6343
 2027SOL    HW117540   3.279   2.416   4.362  0.2696  1.2429  0.4911
 2027SOL    HW217541   3.236   2.473   4.229  0.8632  0.1148 -0.1984
 2028SOL     OW17542   0.928   2.769  13.877  0.2160 -0.2261 -0.0396
 2028SOL    HW117543   0.958   2.771  13.786 -0.2318  0.5080 -0.1657
 2028SOL    HW217544   0.834   2.777  13.863 -0.0887 -0.2938  1.9298
 2029SOL     OW17545   4.091   1.945   7.908  0.2457  0.3173  0.0039
 2029SOL    HW117546   4.105   1.965   7.815 -0.4175 -1.7611 -0.5580
 2029SOL    HW217547   4.008   1.992   7.908  0.1909  0.2197  0.8693
 2030SOL     OW17548   2.209   4.431   7.894  0.1992 -0.0354  0.8066
 2030SOL    HW117549   2.134   4.488   7.912  1.3034  2.1176 -1.4064
 2030SOL    HW217550   2.173   4.350   7.928  2.9043 -2.2019 -1.4750
 2031SOL     OW17551   4.203   3.218   2.304  0.1132 -0.0952  0.1921
 2031SOL    HW117552   4.151   3.223   2.385  0.0494  0.7489  0.0995
 2031SOL    HW217553   4.212   3.124   2.288  1.4992  0.2657 -1.1110
 2032SOL     OW17554   0.881   2.372  15.247  0.1804 -0.2984 -0.2583
 2032SOL    HW117555   0.787   2.363  15.229  0.4300 -3.1009 -0.1632
 2032SOL    HW217556   0.902   2.287  15.285  2.9660  0.1612 -0.7689
 2033SOL     OW17557   3.034   3.752   7.941  0.3097 -0.0383  0.1807
 2033SOL    HW117558   2.979   3.790   7.873  1.2241  0.1040 -0.4772
 2033SOL    HW217559   3.101   3.819   7.955  2.1518 -1.5601 -1.3650
 2034SOL     OW17560   2.054   0.822   3.734  0.3668  0.4210  0.0197
 2034SOL    HW117561   2.063   0.792   3.824 -1.3169 -0.9954 -0.2990
 2034SOL    HW217562   1.973   0.778   3.711  1.4319 -0.7611 -1.4588
 2035SOL     OW17563   2.656   2.614   4.450  0.4569 -0.0300 -0.2304
 2035SOL    HW117564   2.703   2.689   4.486  0.9216 -0.2783 -0.3128
 2035SOL    HW217565   2.723   2.580   4.391  1.3793  0.0964  0.7365
 2036SOL     OW17566   4.215   2.980   2.558 -0.0987  0.3232  0.4038
 2036SOL    HW117567   4.308   2.997   2.574  0.0590 -1.4007  1.2955
 2036SOL    HW217568   4.197   2.887   2.552 -0.1497  0.1988  2.3452
 2037SOL     OW17569   1.728   3.398  12.782 -0.0970  0.0964 -0.3356
 2037SOL    HW117570   1.655   3.414  12.722 -0.0174 -0.1239 -0.4916
 2037SOL    HW217571   1.739   3.477  12.834 -5.5068  0.8792 -0.4062
 2038SOL     OW17572   3.248   1.834   5.726 -0.0637  0.1450  0.5337
 2038SOL    HW117573   3.187   1.894   5.769 -1.0999  0.5947 -1.5448
 2038SOL    HW217574   3.266   1.892   5.652 -0.1915  1.0024  1.1758
 2039SOL     OW17575   1.093   2.636   3.412 -0.1219  0.6093  0.5216
 2039SOL    HW117576   1.131   2.658   3.498  1.4191  0.0250 -0.0059
 2039SOL    HW217577   1.014   2.591   3.442  0.1202  0.8777  1.5770
 2040SOL     OW17578   1.370   3.901   3.228 -0.6487 -0.1062  0.1819
 2040SOL    HW117579   1.310   3.826   3.232 -0.0613 -0.5947 -0.2042
 2040SOL    HW217580   1.311   3.976   3.233  0.4144  0.6929  0.7616
 2041SOL     OW17581   1.308   1.378   0.537  0.3087  0.1118 -0.0984
 2041SOL    HW117582   1.346   1.291   0.523 -0.4175 -0.3328  0.6845
 2041SOL    HW217583   1.363   1.424   0.473  0.6071  0.5739  0.4860
 2042SOL     OW17584   1.675   1.206   9.338  0.5186 -0.1829 -0.0389
 2042SOL    HW117585   1.615   1.217   9.264  2.2534  1.4969 -1.1614
 2042SOL    HW217586   1.613   1.217   9.411  1.0585  3.2100 -0.1080
 2043SOL     OW17587   1.783   0.999  12.969  0.3652 -0.5140  0.2699
 2043SOL    HW117588   1.863   0.985  13.020 -0.0884 -0.1617  1.0742
 2043SOL    HW217589   1.724   0.930  12.998 -0.7373 -0.1983 -1.1921
 2044SOL     OW17590   2.217   0.247   3.593  0.2555 -0.2166 -0.0051
 2044SOL    HW117591   2.309   0.230   3.612 -0.2838 -1.1982  1.6733
 2044SOL    HW217592   2.228   0.282   3.504  1.6236 -0.0914  0.2043
 2045SOL     OW17593   2.328   0.392   8.772 -0.4399 -0.2553 -1.1443
 2045SOL    HW117594   2.260   0.326   8.761  1.2914 -2.2862  0.3869
 2045SOL    HW217595   2.319   0.413   8.865  1.5734  2.1207 -1.4840
 2046SOL     OW17596   2.714   2.134   5.369  0.0777 -0.2922  0.1946
 2046SOL    HW117597   2.807   2.114   5.356 -0.3677 -1.7095 -0.8318
 2046SOL    HW217598   2.706   2.225   5.344  1.2931  0.5436  2.7961
 2047SOL     OW17599   4.398   3.301   4.695 -1.1822 -0.0955  0.0915
 2047SOL    HW117600   4.303   3.289   4.705 -1.1301 -0.8241 -0.3333
 2047SOL    HW217601   4.434   3.304   4.783 -1.2149 -0.7638  0.1232
 2048SOL     OW17602   3.217   2.196   2.795 -0.1697  0.1674 -0.6200
 2048SOL    HW117603   3.181   2.285   2.798 -0.5103  0.0007  0.3500
 2048SOL    HW217604   3.146   2.146   2.755 -0.4818 -0.1873  0.3665
 2049SOL     OW17605   3.744   2.780   5.701  0.2778  0.1823  0.0963
 2049SOL    HW117606   3.834   2.798   5.674  1.2600  0.2895  3.4416
 2049SOL    HW217607   3.757   2.715   5.770 -1.6367  0.8805  1.1052
 2050SOL     OW17608   3.443   4.386   4.338 -0.0535 -0.3976 -0.4919
 2050SOL    HW117609   3.492   4.464   4.313 -1.7926  1.6418  2.5067
 2050SOL    HW217610   3.372   4.432   4.382  1.6851  1.3158  0.4857
 2051SOL     OW17611   0.774   1.808  17.381 -0.2167 -0.8080  0.4370
 2051SOL    HW117612   0.869   1.795  17.381 -0.0163  0.5040 -2.0569
 2051SOL    HW217613   0.771   1.868  17.306  0.5589 -1.3854 -0.0647
 2052SOL     OW17614   1.881   4.199   8.357  0.0771 -0.0460  0.3710
 2052SOL    HW117615   1.828   4.235   8.286  1.3247 -1.1450 -1.1020
 2052SOL    HW217616   1.832   4.119   8.377  1.3354 -0.4794  1.7384
 2053SOL     OW17617   2.913   0.789  17.156  0.0943  0.1404  0.2884
 2053SOL    HW117618   2.906   0.695  17.139  0.4983  0.2172 -0.2991
 2053SOL    HW217619   2.865   0.786  17.239 -3.3011  1.1876 -1.6713
 2054SOL     OW17620   2.654   3.109   2.477 -0.7103  0.7594 -0.5979
 2054SOL    HW117621   2.691   3.040   2.422  2.4631  1.1507  1.0788
 2054SOL    HW217622   2.572   3.072   2.510  1.9753 -1.2186  3.7518
 2055SOL     OW17623   2.745   3.272   1.990 -0.1679 -0.3830  0.5565
 2055SOL    HW117624   2.804   3.224   1.933 -1.0795  0.6041 -1.2348
 2055SOL    HW217625   2.738   3.359   1.950 -0.7096 -0.0418  1.3846
 2056SOL     OW17626   1.549   3.550  17.190  0.0181 -0.0291  0.1452
 2056SOL    HW117627   1.531   3.567  17.097  2.9630  2.3771  0.0061
 2056SOL    HW217628   1.600   3.628  17.211  3.3819 -2.3990  0.7719
 2057SOL     OW17629   3.237   2.157   7.248  0.0581 -0.1295 -0.3630
 2057SOL    HW117630   3.155   2.165   7.297  0.5508 -0.1023  0.4518
 2057SOL    HW217631   3.214   2.205   7.169 -0.6636 -1.4193 -0.9481
 2058SOL     OW17632   2.183   2.774   6.547  0.3877  0.2318  0.3764
 2058SOL    HW117633   2.196   2.865   6.520  0.0703 -0.0831 -0.8736
 2058SOL    HW217634   2.133   2.779   6.628  0.5718  0.7096  0.4603
 2059SOL     OW17635   1.839   2.815   5.155  0.0256  0.6218 -0.1362
 2059SOL    HW117636   1.756   2.805   5.110  0.2129 -0.4315 -0.2685
 2059SOL    HW217637   1.809   2.857   5.235  0.7679  0.7672  0.0659
 2060SOL     OW17638   3.774   4.089  13.028 -0.3697  0.2238 -0.4378
 2060SOL    HW117639   3.743   4.173  12.993 -0.9282  0.0111 -0.4582
 2060SOL    HW217640   3.778   4.115  13.120 -0.0389 -4.0084  0.7316
 2061SOL     OW17641   1.430   2.216   6.433 -0.2894  0.0355  0.7999
 2061SOL    HW117642   1.435   2.121   6.444 -1.7623  0.0282  1.4225
 2061SOL    HW217643   1.519   2.242   6.409 -0.9966  2.5609  0.8722
 2062SOL     OW17644   3.026   2.469   3.991  0.0930  0.1990  0.4411
 2062SOL    HW117645   2.960   2.400   4.004  0.2314  0.0190  0.1855
 2062SOL    HW217646   3.106   2.421   4.012  0.0457 -1.2368 -2.5741
 2063SOL     OW17647   4.282   4.036   5.738 -0.1270  0.4719  0.0192
 2063SOL    HW117648   4.308   4.016   5.649 -0.1978  1.0187 -0.1244
 2063SOL    HW217649   4.308   3.962   5.793  0.3007  0.6709  0.0860
 2064SOL     OW17650   1.686   0.689   5.151 -0.2512 -0.3114  0.7644
 2064SOL    HW117651   1.631   0.638   5.091  0.3008  1.6633 -1.3968
 2064SOL    HW217652   1.673   0.634   5.229  1.3181 -0.3562  0.9795
 2065SOL     OW17653   1.653   2.567  16.792  0.0835 -0.2038 -0.2921
 2065SOL    HW117654   1.631   2.618  16.715  0.7522  0.0752 -0.3044
 2065SOL    HW217655   1.571   2.528  16.820 -0.0679  2.2616  2.8040
 2066SOL     OW17656   0.957   4.461   7.636 -0.1180 -0.2799 -0.1604
 2066SOL    HW117657   0.866   4.451   7.607  0.1346  1.6047 -1.6092
 2066SOL    HW217658   1.004   4.460   7.553  0.9438 -3.5351  0.4650
 2067SOL     OW17659   3.802   1.787   1.991  0.4445  0.1540  0.6842
 2067SOL    HW117660   3.733   1.843   1.956 -0.2269 -0.8764  0.3812
 2067SOL    HW217661   3.872   1.813   1.931  0.5494 -1.3114  0.1689
 2068SOL     OW17662   1.608   1.642   8.293  0.3180  0.2621  0.0719
 2068SOL    HW117663   1.619   1.726   8.336 -0.5064  0.2149  0.3778
 2068SOL    HW217664   1.513   1.626   8.296  0.7264 -2.3973 -0.6350
 2069SOL     OW17665   1.407   3.718   8.075 -0.6414  0.1033 -0.0799
 2069SOL    HW117666   1.472   3.788   8.069 -0.8761  0.2287 -1.2207
 2069SOL    HW217667   1.398   3.705   8.169 -0.6345 -1.0155 -0.2372
 2070SOL     OW17668   3.083   3.805   8.700 -0.6269  0.0325 -0.6352
 2070SOL    HW117669   3.111   3.804   8.608  0.8051 -0.0713 -0.2006
 2070SOL    HW217670   3.172   3.806   8.736 -0.3292 -1.5165 -1.2947
 2071SOL     OW17671   4.394   0.538   6.043 -0.1647  0.2455  0.2767
 2071SOL    HW117672   4.449   0.541   6.122  0.2118  1.5001 -0.0328
 2071SOL    HW217673   4.340   0.615   6.061  0.1572  0.5257  0.0347
 2072SOL     OW17674   3.360   0.440   5.535  0.1219  0.3599 -0.1359
 2072SOL    HW117675   3.433   0.467   5.480 -0.2383  3.2560  0.8211
 2072SOL    HW217676   3.292   0.463   5.471 -1.0396  2.2788  1.7781
 2073SOL     OW17677   2.229   3.436   2.603 -0.3878  0.4090 -0.3413
 2073SOL    HW117678   2.305   3.399   2.558 -1.0804 -1.7875  0.2759
 2073SOL    HW217679   2.235   3.406   2.694  2.5014 -0.4211 -0.8214
 2074SOL     OW17680   1.774   1.758  13.760  0.3231  0.7116 -0.7124
 2074SOL    HW117681   1.691   1.723  13.794  1.2929  1.2539  2.2457
 2074SOL    HW217682   1.767   1.850  13.789 -1.1820  0.3235  0.1775
 2075SOL     OW17683   4.535   1.098   4.507 -0.1784 -0.1344 -0.5084
 2075SOL    HW117684   4.625   1.079   4.533  0.3043  3.0953  0.1303
 2075SOL    HW217685   4.537   1.071   4.415  1.5937 -0.3614 -0.4042
 2076SOL     OW17686   3.781   4.026   0.288  0.7071 -0.0494  0.5151
 2076SOL    HW117687   3.860   3.980   0.260  0.1588 -1.8051  1.8533
 2076SOL    HW217688   3.775   3.981   0.372  0.7017  1.1026  1.1247
 2077SOL     OW17689   0.637   1.123   7.249  0.6602 -0.6569  1.1076
 2077SOL    HW117690   0.687   1.058   7.297  0.7442  0.1493  2.1172
 2077SOL    HW217691   0.688   1.196   7.284 -0.5764  0.7864 -0.1114
 2078SOL     OW17692   2.466   2.804  14.029  0.4494 -0.5205  0.2433
 2078SOL    HW117693   2.493   2.766  14.112  2.0859 -1.4261 -0.7099
 2078SOL    HW217694   2.371   2.789  14.036  0.5980 -1.5499  0.0860
 2079SOL     OW17695   1.101   0.658   6.816  0.3192 -0.1167  0.3139
 2079SOL    HW117696   1.042   0.585   6.832 -2.1600  2.0423  1.0048
 2079SOL    HW217697   1.169   0.633   6.878  0.1716 -1.2198  0.0229
 2080SOL     OW17698   3.731   3.306   6.933 -0.0303 -0.0713 -0.3642
 2080SOL    HW117699   3.745   3.341   7.021  1.0660 -0.8641 -0.2167
 2080SOL    HW217700   3.670   3.367   6.892  2.8032  3.0407  0.0775
 2081SOL     OW17701   4.120   4.581   6.962  0.1501 -0.3862  0.0390
 2081SOL    HW117702   4.028   4.607   6.966 -0.1870 -1.5397 -0.1854
 2081SOL    HW217703   4.111   4.499   6.913  0.2203 -1.1740  1.3436
 2082SOL     OW17704   0.503   3.113   5.740  0.3199 -0.0430  0.1454
 2082SOL    HW117705   0.433   3.058   5.775 -0.0743  0.3379 -0.0501
 2082SOL    HW217706   0.577   3.060   5.771 -0.2356 -1.1353 -0.3803
 2083SOL     OW17707   3.151   4.166   6.470 -0.1660  0.3352  0.0138
 2083SOL    HW117708   3.055   4.164   6.474 -0.1584  0.6337  0.3545
 2083SOL    HW217709   3.175   4.258   6.481 -1.3153  0.5426  0.7948
 2084SOL     OW17710   3.109   1.609   3.495  0.1234 -0.6170 -0.3299
 2084SOL    HW117711   3.072   1.521   3.490  0.3475 -0.6629 -1.3188
 2084SOL    HW217712   3.042   1.656   3.545  0.2882 -0.5108 -0.2093
 2085SOL     OW17713   4.642   1.283   2.922 -0.0532  0.3094  0.5105
 2085SOL    HW117714   4.676   1.336   2.994  0.6073 -0.8425  1.0481
 2085SOL    HW217715   4.715   1.299   2.862 -0.3084  2.2485  0.7022
 2086SOL     OW17716   1.359   3.932   6.885  0.6724 -1.3405 -0.6017
 2086SOL    HW117717   1.267   3.955   6.894  0.4096 -1.9468 -1.7647
 2086SOL    HW217718   1.396   4.010   6.843 -0.2569 -1.3429 -1.4103
 2087SOL     OW17719   2.772   2.414   7.053 -0.8231  1.0892 -0.5273
 2087SOL    HW117720   2.717   2.363   6.993 -1.5584 -0.7438  1.7054
 2087SOL    HW217721   2.764   2.365   7.135  1.2492  0.3728 -0.7539
 2088SOL     OW17722   4.364   0.477   7.788 -0.0504  0.1121  0.4422
 2088SOL    HW117723   4.305   0.406   7.763 -2.1381  0.5855  3.9063
 2088SOL    HW217724   4.387   0.439   7.873 -1.6652 -1.7124  0.0682
 2089SOL     OW17725   0.942   3.367   5.653 -0.6168  0.0188  0.9008
 2089SOL    HW117726   0.848   3.350   5.655 -0.8393  1.0559 -0.3749
 2089SOL    HW217727   0.950   3.423   5.576 -0.9535  1.1331  1.6725
 2090SOL     OW17728   0.999   3.782   9.219 -0.2977  0.1999 -0.0284
 2090SOL    HW117729   0.940   3.853   9.244  0.1496  1.0591 -1.4287
 2090SOL    HW217730   0.992   3.723   9.294 -1.7248 -0.0311 -0.3425
 2091SOL     OW17731   2.970   3.166  11.871 -0.3177  0.3838 -0.8400
 2091SOL    HW117732   3.001   3.084  11.907 -1.3685 -0.6604 -2.3102
 2091SOL    HW217733   3.047   3.199  11.825  1.9039 -3.0412  0.4414
 2092SOL     OW17734   2.388   0.168   4.367  0.4438  0.0743  0.2377
 2092SOL    HW117735   2.424   0.222   4.297  0.7756  0.9605  1.0953
 2092SOL    HW217736   2.471   0.144   4.407 -0.0592 -1.3966  0.4235
 2093SOL     OW17737   1.388   4.223   8.063 -0.0089 -0.0130  0.4036
 2093SOL    HW117738   1.399   4.260   7.975  1.8419 -0.0946  0.6128
 2093SOL    HW217739   1.349   4.138   8.042 -1.7064  0.9140 -0.2470
 2094SOL     OW17740   3.044   4.558  16.474 -0.4247 -0.4164 -0.4202
 2094SOL    HW117741   3.003   4.581  16.557  0.5794  0.1173 -0.0696
 2094SOL    HW217742   3.081   4.477  16.511  0.8164  0.6982  0.7860
 2095SOL     OW17743   0.092   2.805   1.305  0.1968  0.1886 -0.1792
 2095SOL    HW117744   0.050   2.723   1.280  0.3523  0.3675 -1.0342
 2095SOL    HW217745   0.022   2.870   1.312  1.5936  1.5906  0.7662
 2096SOL     OW17746   2.973   2.349   4.481  0.5233 -0.3727 -0.4061
 2096SOL    HW117747   2.986   2.442   4.460 -0.9542 -0.3987 -1.3991
 2096SOL    HW217748   3.065   2.322   4.481  0.4362 -0.6664  1.4925
 2097SOL     OW17749   1.091   4.295   5.932  0.4254 -0.0124  0.5282
 2097SOL    HW117750   1.151   4.369   5.925  1.4156 -0.9050 -0.5485
 2097SOL    HW217751   1.020   4.336   5.981 -1.2995 -1.9304 -0.3487
 2098SOL     OW17752   1.977   2.032   5.781 -0.2394  0.2226 -0.2572
 2098SOL    HW117753   2.028   1.972   5.726 -0.6706  0.8920 -1.4066
 2098SOL    HW217754   2.024   2.001   5.858 -2.1094 -0.9477  0.3977
 2099SOL     OW17755   4.338   2.931   8.083  0.7277 -0.0033 -0.6419
 2099SOL    HW117756   4.360   2.938   8.176 -3.4003  1.2165  0.2209
 2099SOL    HW217757   4.316   3.021   8.060 -1.2669 -0.3108  0.0902
 2100SOL     OW17758   2.365   0.068   6.568  0.3689  0.0801 -0.2323
 2100SOL    HW117759   2.421   0.050   6.643  0.3704  0.6167 -0.1075
 2100SOL    HW217760   2.282   0.040   6.606  0.6790 -0.4997  0.0109
 2101SOL     OW17761   4.080   3.884   9.904 -0.1940 -0.1855 -0.6283
 2101SOL    HW117762   4.085   3.928   9.989  2.8195  1.2575 -1.5407
 2101SOL    HW217763   4.160   3.921   9.865 -0.3226  1.1156  0.3318
 2102SOL     OW17764   2.281   2.079   0.894  0.0394 -0.4065 -0.2437
 2102SOL    HW117765   2.313   2.163   0.925 -1.5464 -0.1082  0.5635
 2102SOL    HW217766   2.358   2.026   0.915 -0.8683 -2.3652 -1.7744
 2103SOL     OW17767   0.149   4.229   5.950 -0.7759 -0.6165  0.9829
 2103SOL    HW117768   0.217   4.258   5.889 -0.3762 -2.7504  0.4110
 2103SOL    HW217769   0.196   4.161   5.997  0.2355  0.6468  1.8072
 2104SOL     OW17770   3.614   1.602   3.622 -0.6047 -0.3520  0.0333
 2104SOL    HW117771   3.679   1.535   3.601 -0.5142 -0.5916  1.0688
 2104SOL    HW217772   3.544   1.568   3.567 -1.6159 -0.8728  1.6322
 2105SOL     OW17773   0.980   0.457   7.790  0.2369  0.4965 -0.0501
 2105SOL    HW117774   1.064   0.411   7.782  0.1369 -0.0754  2.3232
 2105SOL    HW217775   0.927   0.428   7.716  3.0605  1.1465 -2.3494
 2106SOL     OW17776   2.183   3.754   6.889  0.5623  0.1423  0.2628
 2106SOL    HW117777   2.142   3.837   6.913  0.7639  0.1388  0.6269
 2106SOL    HW217778   2.146   3.693   6.954 -1.4802  1.2287  0.1053
 2107SOL     OW17779   0.567   1.268   7.673 -0.0970 -0.0444  0.3332
 2107SOL    HW117780   0.558   1.204   7.602 -2.1717 -0.2254  0.7629
 2107SOL    HW217781   0.580   1.211   7.748  0.3789  4.9883  4.0517
 2108SOL     OW17782   0.281   1.079   2.968 -0.2254  0.1231 -0.4184
 2108SOL    HW117783   0.302   1.044   2.882 -2.7938 -0.6263 -0.7476
 2108SOL    HW217784   0.286   1.174   2.957  1.6573  0.1800  0.8621
 2109SOL     OW17785   1.152   3.565  14.981  0.1898  0.5976 -0.4074
 2109SOL    HW117786   1.176   3.474  14.998  4.2694  1.5769 -1.1589
 2109SOL    HW217787   1.219   3.612  15.030 -0.1685 -0.4847  1.1329
 2110SOL     OW17788   4.283   0.985  17.002 -0.4542  0.2306  0.1599
 2110SOL    HW117789   4.253   1.020  16.918  1.6544 -1.4207 -1.2772
 2110SOL    HW217790   4.258   1.053  17.064 -2.1010  3.6233 -4.2223
 2111SOL     OW17791   1.712   4.077  17.371 -0.1716 -0.3390  0.4990
 2111SOL    HW117792   1.776   4.126  17.422 -0.7728  0.9488  0.0085
 2111SOL    HW217793   1.747   3.989  17.384  0.0316 -0.5965 -1.7912
 2112SOL     OW17794   2.625   1.119   5.122  0.1588  0.0564  0.7819
 2112SOL    HW117795   2.672   1.042   5.155  1.5189  1.2999  1.7538
 2112SOL    HW217796   2.542   1.076   5.100 -0.8066  1.6763  1.2772
 2113SOL     OW17797   0.545   1.984  16.612  0.4553 -0.0764 -0.6615
 2113SOL    HW117798   0.475   1.986  16.547 -0.6513 -0.1706  0.5150
 2113SOL    HW217799   0.489   1.945  16.680  2.2058 -1.8771 -0.2477
 2114SOL     OW17800   0.454   1.753   4.276 -0.3604 -0.5399 -0.3685
 2114SOL    HW117801   0.378   1.771   4.332 -0.4791 -1.8628 -0.1044
 2114SOL    HW217802   0.514   1.822   4.306  0.6482 -1.2085 -0.8380
 2115SOL     OW17803   1.848   0.237   0.126 -0.6619 -0.0769  0.3015
 2115SOL    HW117804   1.909   0.291   0.076  0.6402 -1.8664 -0.0122
 2115SOL    HW217805   1.807   0.183   0.059  1.1113  2.6565 -2.9758
 2116SOL     OW17806   0.616   3.442  15.386 -0.1340  0.7479  0.3476
 2116SOL    HW117807   0.542   3.400  15.431  2.4409 -2.4569  1.5779
 2116SOL    HW217808   0.575   3.483  15.310  0.6472  0.4776 -0.2121
 2117SOL     OW17809   3.337   0.338   1.857  0.1775  0.4849 -0.1407
 2117SOL    HW117810   3.288   0.324   1.777 -0.4761  1.9722 -0.0063
 2117SOL    HW217811   3.421   0.295   1.841  0.7067  1.2825  0.4609
 2118SOL     OW17812   2.594   2.115  15.359  0.0092  0.0034  0.1667
 2118SOL    HW117813   2.503   2.101  15.331  0.0892  0.4621 -0.3103
 2118SOL    HW217814   2.577   2.194  15.411 -0.2523  1.0314 -1.4961
 2119SOL     OW17815   3.465   3.756   9.267 -0.1100 -0.4386  0.0462
 2119SOL    HW117816   3.402   3.783   9.334  0.0477  0.8834 -0.3457
 2119SOL    HW217817   3.462   3.660   9.273  2.4160 -0.5361 -0.3871
 2120SOL     OW17818   3.175   3.447   2.875  0.0602 -0.4702  0.6893
 2120SOL    HW117819   3.219   3.410   2.799 -0.2112 -0.2226  0.4082
 2120SOL    HW217820   3.114   3.377   2.896 -1.1768  0.1966 -0.6317
 2121SOL     OW17821   3.810   4.507   3.249 -0.7989  0.1071 -0.3860
 2121SOL    HW117822   3.800   4.441   3.318  0.7489  1.0339  0.7002
 2121SOL    HW217823   3.764   4.585   3.281 -0.8245 -0.1408  0.1783
 2122SOL     OW17824   2.543   0.365   5.047  0.1280  0.3275  0.2856
 2122SOL    HW117825   2.613   0.410   5.094  1.5917 -1.0404 -0.5626
 2122SOL    HW217826   2.559   0.381   4.954  0.4654  1.4823  0.5505
 2123SOL     OW17827   4.636   4.551  11.448 -0.0458 -0.1779 -0.0529
 2123SOL    HW117828   4.682   4.467  11.445  0.8280  0.2668  0.9443
 2123SOL    HW217829   4.579   4.544  11.371  0.8733  1.0031 -0.8359
 2124SOL     OW17830   2.433   0.752  10.403  0.1940  0.3151 -0.3722
 2124SOL    HW117831   2.490   0.792  10.337  0.8107  2.1990  1.2964
 2124SOL    HW217832   2.505   0.711  10.451 -0.0933  0.5592  0.2627
 2125SOL     OW17833   3.162   0.444   5.327  0.5605 -0.5621 -0.4153
 2125SOL    HW117834   3.138   0.407   5.242 -2.1983 -0.4511  0.3098
 2125SOL    HW217835   3.076   0.458   5.365  0.3349 -1.5103 -0.5740
 2126SOL     OW17836   0.417   4.623  15.709  0.1586 -0.4144 -0.1314
 2126SOL    HW117837   0.324   4.605  15.723  0.5244 -2.3818 -0.2551
 2126SOL    HW217838   0.452   4.541  15.743  0.2481  0.0742  0.9443
 2127SOL     OW17839   2.522   3.065  14.931  0.4856 -0.3352  0.1839
 2127SOL    HW117840   2.558   3.112  15.006  1.9738 -0.8421 -0.2173
 2127SOL    HW217841   2.518   3.139  14.870 -0.9475  1.2209  2.1812
 2128SOL     OW17842   1.987   2.101   8.873 -0.5475  0.0655 -0.2427
 2128SOL    HW117843   2.024   2.186   8.849  0.8204 -1.2503 -2.6991
 2128SOL    HW217844   1.962   2.069   8.786 -1.1948 -0.3141  0.0803
 2129SOL     OW17845   2.610   4.245  15.025 -0.0158 -0.5495  0.0432
 2129SOL    HW117846   2.530   4.215  15.067  0.0620 -2.0676 -0.8731
 2129SOL    HW217847   2.670   4.193  15.080  0.1048 -0.2300  0.2111
 2130SOL     OW17848   0.889   0.217  12.112  0.1801  0.5094 -0.1991
 2130SOL    HW117849   0.858   0.130  12.088 -0.3047  0.5752  0.2029
 2130SOL    HW217850   0.937   0.231  12.030 -1.6919 -0.0734 -1.3738
 2131SOL     OW17851   0.887   0.753  12.641 -0.0755  0.5111  0.2336
 2131SOL    HW117852   0.895   0.698  12.563 -1.5216  0.5107  0.0726
 2131SOL    HW217853   0.858   0.831  12.593 -1.3813 -1.0079 -1.4498
 2132SOL     OW17854   3.718   2.384   2.802 -0.0919 -0.3160  0.3214
 2132SOL    HW117855   3.795   2.416   2.849 -0.7020  1.1267  0.3266
 2132SOL    HW217856   3.653   2.397   2.871 -0.8314  0.4941 -0.5425
 2133SOL     OW17857   1.603   2.014   0.445 -0.5193 -0.1289 -0.0610
 2133SOL    HW117858   1.583   2.084   0.506 -1.1575  1.0928 -1.6903
 2133SOL    HW217859   1.691   1.987   0.473 -0.2128  0.5615 -0.3711
 2134SOL     OW17860   1.326   2.140   6.102 -0.5124  0.2637 -0.3295
 2134SOL    HW117861   1.387   2.197   6.149 -1.7579  0.3684  1.1601
 2134SOL    HW217862   1.258   2.202   6.073 -0.4352  0.5895  0.2003
 2135SOL     OW17863   1.642   0.308   8.074 -0.0779  0.2538 -0.1529
 2135SOL    HW117864   1.584   0.248   8.028  0.3197 -0.4347  0.2465
 2135SOL    HW217865   1.606   0.397   8.065 -0.2272  0.0706 -1.2517
 2136SOL     OW17866   1.077   2.579   1.463 -0.3721  0.3550 -0.1189
 2136SOL    HW117867   1.122   2.517   1.405 -1.3614  0.2690 -0.7955
 2136SOL    HW217868   1.153   2.608   1.514 -1.6508 -0.6381  2.3392
 2137SOL     OW17869   2.514   4.103   5.181  0.4273  0.7675 -0.2158
 2137SOL    HW117870   2.607   4.124   5.183  0.4747  0.5316  0.0964
 2137SOL    HW217871   2.477   4.191   5.192  0.9454  0.7519  1.7545
 2138SOL     OW17872   2.923   1.270   4.711 -0.2063 -0.8543  0.1664
 2138SOL    HW117873   2.848   1.270   4.651  0.5173 -1.8463 -0.7476
 2138SOL    HW217874   2.904   1.207   4.780  2.0102 -2.5533 -0.7724
 2139SOL     OW17875   0.148   3.132   8.468 -0.1342 -0.5843 -0.0784
 2139SOL    HW117876   0.148   3.039   8.445 -0.0267 -0.2282 -1.5310
 2139SOL    HW217877   0.182   3.168   8.386  1.0706  0.1817  0.7565
 2140SOL     OW17878   2.937   2.432   8.524  0.3189 -0.5540  0.3387
 2140SOL    HW117879   2.922   2.526   8.510 -3.7725 -1.4059 -0.8979
 2140SOL    HW217880   2.872   2.421   8.594 -0.5498  0.1702 -0.3585
 2141SOL     OW17881   3.629   1.307   3.758 -0.5173 -0.1056 -0.5468
 2141SOL    HW117882   3.614   1.340   3.846 -0.1956  0.4501 -0.6985
 2141SOL    HW217883   3.542   1.321   3.721  0.2538  2.2118 -1.4751
 2142SOL     OW17884   2.566   0.061   2.377 -0.5542  0.0350 -0.0376
 2142SOL    HW117885   2.599   0.053   2.287 -1.5789  0.2457 -0.4364
 2142SOL    HW217886   2.491   0.114   2.350 -1.1068 -1.2470 -1.0314
 2143SOL     OW17887   2.748   2.301   7.296  0.5950  0.0343 -0.2103
 2143SOL    HW117888   2.666   2.262   7.328 -0.1266  0.8022 -1.0978
 2143SOL    HW217889   2.760   2.362   7.368 -1.3034 -1.7950  1.6665
 2144SOL     OW17890   1.788   3.995  14.122 -0.2816 -0.1692  0.2622
 2144SOL    HW117891   1.734   4.030  14.193 -0.2314 -0.1768  0.3049
 2144SOL    HW217892   1.868   3.970  14.169 -0.9446 -0.0818  1.4387
 2145SOL     OW17893   1.746   0.286   5.953  0.2099  0.6303  0.5847
 2145SOL    HW117894   1.687   0.308   6.025 -3.7573  1.3373 -2.8808
 2145SOL    HW217895   1.823   0.258   6.002  0.2394 -1.0508 -0.3955
 2146SOL     OW17896   0.337   0.823   4.094 -0.5058 -0.4896 -0.1023
 2146SOL    HW117897   0.269   0.870   4.046 -0.9496 -1.4996 -0.4659
 2146SOL    HW217898   0.372   0.765   4.026 -1.3780 -0.0722 -0.9034
 2147SOL     OW17899   1.150   1.587   0.156 -0.1626 -0.3323  0.1045
 2147SOL    HW117900   1.056   1.600   0.170  0.2071  1.4874  0.8125
 2147SOL    HW217901   1.146   1.524   0.084  0.6135  0.1290 -0.3282
 2148SOL     OW17902   2.947   1.082   0.253 -0.4139  0.1568  0.3569
 2148SOL    HW117903   2.935   1.054   0.343  2.7164  1.3466  1.1629
 2148SOL    HW217904   2.997   1.163   0.263  0.8388 -0.3464 -1.8460
 2149SOL     OW17905   3.170   2.008  11.880  0.1998 -0.0505 -0.0236
 2149SOL    HW117906   3.094   1.950  11.885 -1.0390  1.6173  0.5962
 2149SOL    HW217907   3.130   2.095  11.873 -1.2033 -0.8144 -1.4639
 2150SOL     OW17908   2.486   1.854   5.888  0.0779  0.4679  0.1094
 2150SOL    HW117909   2.490   1.793   5.962 -2.3894  0.7037  0.4541
 2150SOL    HW217910   2.458   1.797   5.817  1.2168  0.8499 -0.6319
 2151SOL     OW17911   2.369   0.199   5.625 -0.6663  0.4158 -0.1728
 2151SOL    HW117912   2.291   0.188   5.679 -1.0755  0.6411 -0.7128
 2151SOL    HW217913   2.442   0.177   5.683 -0.9670 -2.5478 -0.9327
 2152SOL     OW17914   2.561   2.978   6.020  0.7013 -0.2223  0.0996
 2152SOL    HW117915   2.545   2.888   6.046 -3.1796  0.8085  1.2274
 2152SOL    HW217916   2.625   2.994   6.089 -0.6861  1.2609  1.0431
 2153SOL     OW17917   4.109   1.856  11.735 -0.2327  0.1360  0.5768
 2153SOL    HW117918   4.051   1.920  11.694 -0.1098 -1.3944 -1.9554
 2153SOL    HW217919   4.105   1.781  11.675 -1.9245  0.8972 -0.2661
 2154SOL     OW17920   1.756   1.151   6.032 -0.2360 -0.0204  0.5937
 2154SOL    HW117921   1.662   1.166   6.025  0.1083  2.3927  1.1063
 2154SOL    HW217922   1.778   1.217   6.097 -0.8660  1.2490 -0.4869
 2155SOL     OW17923   2.451   0.679   9.896 -0.2921  0.0665 -0.1135
 2155SOL    HW117924   2.405   0.604   9.934 -2.0718  0.5702 -1.2777
 2155SOL    HW217925   2.387   0.691   9.826 -0.7249 -0.5631  0.1732
 2156SOL     OW17926   1.803   2.694  10.234  0.1602  0.0388 -0.0426
 2156SOL    HW117927   1.892   2.682  10.201  0.7260  2.9107  0.4361
 2156SOL    HW217928   1.808   2.615  10.288 -0.9967 -1.4256 -2.0445
 2157SOL     OW17929   1.795   2.054   9.871  0.3036 -0.3988  0.3311
 2157SOL    HW117930   1.888   2.069   9.884  0.9160 -2.6413 -1.4506
 2157SOL    HW217931   1.796   1.976   9.816 -1.9394  1.1448 -1.9319
 2158SOL     OW17932   1.669   2.262   3.419 -0.2336 -0.6938 -0.5543
 2158SOL    HW117933   1.603   2.255   3.487  0.9840 -0.3227  0.6679
 2158SOL    HW217934   1.693   2.169   3.409  1.4994 -0.4473  1.2246
 2159SOL     OW17935   3.798   3.753   8.684  0.0721  0.2554 -0.1895
 2159SOL    HW117936   3.859   3.788   8.749  0.0107 -0.0981  0.0558
 2159SOL    HW217937   3.827   3.662   8.687  1.6080  0.6530 -2.2880
 2160SOL     OW17938   3.687   3.524   5.636  0.0515 -0.0159  0.1353
 2160SOL    HW117939   3.696   3.434   5.605  0.7947  1.0098 -2.6713
 2160SOL    HW217940   3.777   3.533   5.667  0.5926 -4.1669 -0.2857
 2161SOL     OW17941   2.637   3.604   8.689  1.1832 -0.3172  0.1770
 2161SOL    HW117942   2.614   3.553   8.611  0.6190  0.6952 -0.3087
 2161SOL    HW217943   2.619   3.693   8.660  3.1213 -0.3242 -1.0614
 2162SOL     OW17944   4.650   4.620   4.142 -0.0213  0.1446  0.2762
 2162SOL    HW117945   0.004   4.678   4.139  1.3766 -1.6823  0.3979
 2162SOL    HW217946   4.675   4.568   4.218  0.3495 -0.2537 -0.1196
 2163SOL     OW17947   2.359   1.678  15.462 -0.6437  0.4428  0.0984
 2163SOL    HW117948   2.441   1.651  15.503 -1.4941  1.2635  2.3415
 2163SOL    HW217949   2.294   1.609  15.474 -0.6373  0.8993  2.6122
 2164SOL     OW17950   1.791   3.629   1.386 -0.2533 -0.4479 -0.0649
 2164SOL    HW117951   1.821   3.719   1.394  0.0628 -0.4768 -0.8792
 2164SOL    HW217952   1.826   3.604   1.301 -1.0260 -3.3521  0.4796
 2165SOL     OW17953   3.625   0.831   4.158  0.1579  0.0642  1.1853
 2165SOL    HW117954   3.645   0.909   4.106 -1.0671  0.4140  1.2426
 2165SOL    HW217955   3.618   0.866   4.247  2.6980 -0.0557  1.4192
 2166SOL     OW17956   2.467   3.352   2.522  0.3536 -0.6051  0.4989
 2166SOL    HW117957   2.519   3.372   2.444 -0.9821  2.2262  0.3291
 2166SOL    HW217958   2.537   3.335   2.584  0.5648  0.5740  0.5713
 2167SOL     OW17959   3.382   1.447  15.260  0.4316 -0.1173  0.0785
 2167SOL    HW117960   3.400   1.395  15.182  1.2915 -1.0108  0.8772
 2167SOL    HW217961   3.298   1.407  15.281  0.7442 -0.3248  0.9207
 2168SOL     OW17962   0.526   4.545   8.795  0.0340 -0.4258 -0.0577
 2168SOL    HW117963   0.588   4.600   8.748 -1.2424 -1.1850 -2.6288
 2168SOL    HW217964   0.539   4.461   8.751  0.6758 -0.4438  0.1753
 2169SOL     OW17965   0.288   2.199   6.161  0.0116 -0.2975  0.1682
 2169SOL    HW117966   0.239   2.176   6.239  1.8806 -0.8447  1.1809
 2169SOL    HW217967   0.232   2.265   6.121 -0.1684 -0.2214  0.5519
 2170SOL     OW17968   1.590   2.183   9.189 -0.3677 -0.8810 -0.2425
 2170SOL    HW117969   1.576   2.195   9.282  0.3460 -0.7386 -0.1491
 2170SOL    HW217970   1.604   2.089   9.180 -0.2147 -0.9689  1.0315
 2171SOL     OW17971   2.705   2.301   2.790 -0.5298  0.0996 -0.4154
 2171SOL    HW117972   2.791   2.289   2.829 -1.8613  0.3879  2.5737
 2171SOL    HW217973   2.670   2.355   2.861  1.7854  0.0006  0.7975
 2172SOL     OW17974   1.146   3.533  11.427 -0.0679  0.3109 -0.4267
 2172SOL    HW117975   1.173   3.445  11.401 -2.5414 -0.2932 -0.8905
 2172SOL    HW217976   1.059   3.522  11.465  0.9396 -1.0100  1.5602
 2173SOL     OW17977   4.253   0.371   3.609  0.4465 -0.3553 -0.0330
 2173SOL    HW117978   4.158   0.364   3.597  0.2489  0.7870  0.8864
 2173SOL    HW217979   4.281   0.317   3.535  1.0310 -0.2596  0.1263
 2174SOL     OW17980   1.760   0.326   2.907  0.2756 -0.6724 -0.0303
 2174SOL    HW117981   1.711   0.351   2.829  1.4816  0.9194 -0.2940
 2174SOL    HW217982   1.823   0.397   2.924 -0.9416  0.6819 -1.1631
 2175SOL     OW17983   3.291   2.819  17.562  0.2678 -0.2899  0.1262
 2175SOL    HW117984   3.336   2.737  17.541  2.3556  1.4846 -2.2986
 2175SOL    HW217985   3.274   2.793  17.653 -3.1507 -0.7128 -0.6420
 2176SOL     OW17986   2.345   1.577   8.657 -0.2315  0.5957  0.6357
 2176SOL    HW117987   2.256   1.565   8.689  0.0612  0.3993  1.3780
 2176SOL    HW217988   2.399   1.573   8.735  0.8021 -0.3090 -0.1179
 2177SOL     OW17989   0.721   3.143   4.738 -0.0994 -0.3348 -0.2186
 2177SOL    HW117990   0.628   3.149   4.716  0.3316  1.0145 -1.6933
 2177SOL    HW217991   0.720   3.100   4.824 -1.9152 -2.9774 -1.5588
 2178SOL     OW17992   0.760   3.163  14.302 -0.7800  0.0297  0.2280
 2178SOL    HW117993   0.775   3.103  14.376  2.5098  1.3488  0.6035
 2178SOL    HW217994   0.844   3.207  14.310 -1.3583  1.7476 -3.0181
 2179SOL     OW17995   3.444   1.478   4.133  0.6171  0.0477 -0.3655
 2179SOL    HW117996   3.387   1.542   4.177  0.2285 -0.6541  0.1649
 2179SOL    HW217997   3.467   1.513   4.047  0.2261  2.6342  0.5730
 2180SOL     OW17998   3.706   3.999  12.095  0.5529 -0.3006 -0.2632
 2180SOL    HW117999   3.690   4.072  12.156 -0.3415  1.1419 -2.2264
 2180SOL    HW218000   3.664   3.924  12.138  0.5872 -0.9066 -1.3002
 2181SOL     OW18001   0.508   2.190   8.126  0.3182  0.2695  0.0356
 2181SOL    HW118002   0.478   2.118   8.182  0.5960  0.1774  0.0668
 2181SOL    HW218003   0.451   2.263   8.150  1.2759  0.4965  1.6550
 2182SOL     OW18004   4.191   1.342   5.589  0.4889 -0.0033  0.5802
 2182SOL    HW118005   4.250   1.313   5.520 -1.2477  1.9100 -1.7339
 2182SOL    HW218006   4.112   1.289   5.574  0.1130  1.5736 -3.1497
 2183SOL     OW18007   0.593   0.604   7.141  0.1797  0.0900 -0.2598
 2183SOL    HW118008   0.592   0.670   7.210  2.6336 -1.6853  1.4760
 2183SOL    HW218009   0.512   0.635   7.100  0.7479  0.3476 -1.1883
 2184SOL     OW18010   4.077   3.768   0.659  0.2588 -0.1292 -0.3271
 2184SOL    HW118011   4.040   3.700   0.715 -2.0057  0.4692 -1.1249
 2184SOL    HW218012   4.107   3.828   0.728  1.0826  0.1389 -0.9108
 2185SOL     OW18013   1.566   2.996   2.889 -0.4035 -0.1193 -0.3567
 2185SOL    HW118014   1.568   2.923   2.827 -0.5225 -0.5942  0.1970
 2185SOL    HW218015   1.494   3.045   2.851 -2.9911 -3.0742  0.7201
 2186SOL     OW18016   3.924   2.690   2.930  0.1342 -0.9161 -0.2275
 2186SOL    HW118017   3.988   2.758   2.908 -0.7302  0.0677  0.2525
 2186SOL    HW218018   3.856   2.713   2.866  3.2102  1.6274 -2.6070
 2187SOL     OW18019   4.612   2.677   2.167  0.1302 -0.6280  0.2962
 2187SOL    HW118020   4.691   2.666   2.219  0.6670  1.9505  0.0133
 2187SOL    HW218021   4.555   2.616   2.215  0.2134 -0.7900  0.1916
 2188SOL     OW18022   1.685   3.486  16.155 -0.2663  0.5988 -0.0418
 2188SOL    HW118023   1.702   3.566  16.106 -0.0522  0.2486 -0.5470
 2188SOL    HW218024   1.764   3.481  16.208 -0.1325  1.8045 -0.1335
 2189SOL     OW18025   3.557   1.729  12.472  0.4338 -0.0914  0.3118
 2189SOL    HW118026   3.464   1.710  12.460  0.1433 -0.1387  2.6363
 2189SOL    HW218027   3.555   1.753  12.565  0.2366  0.3849  0.1850
 2190SOL     OW18028   4.443   1.114   2.854 -0.1386 -0.2789 -0.2415
 2190SOL    HW118029   4.472   1.162   2.777 -0.2612 -0.1036 -0.1775
 2190SOL    HW218030   4.517   1.130   2.913 -0.1998  0.7583 -0.4421
 2191SOL     OW18031   2.609   4.257   5.572  0.0182  0.1893 -0.2145
 2191SOL    HW118032   2.673   4.201   5.528  0.3523  0.2481  0.1846
 2191SOL    HW218033   2.539   4.254   5.508  1.9348 -1.2634 -2.2621
 2192SOL     OW18034   0.594   1.779  14.049 -0.0095 -0.4850  0.4691
 2192SOL    HW118035   0.561   1.698  14.011  1.5674 -1.0989  0.4111
 2192SOL    HW218036   0.682   1.752  14.075  0.4790  1.3380  0.7499
 2193SOL     OW18037   0.814   2.293   8.017  0.2218  0.4952 -0.2234
 2193SOL    HW118038   0.782   2.281   7.927  3.1581  1.0782 -1.3394
 2193SOL    HW218039   0.734   2.307   8.068  0.0710  3.3432 -1.2429
 2194SOL     OW18040   4.406   3.920   5.506  0.5753 -1.0516  0.0319
 2194SOL    HW118041   4.407   3.903   5.411 -0.9160 -0.6452 -0.0598
 2194SOL    HW218042   4.477   3.983   5.518  1.6154 -2.2770  0.2337
 2195SOL     OW18043   0.273   3.848   6.903  0.0167  0.2415  0.0474
 2195SOL    HW118044   0.312   3.880   6.984 -0.5666  0.5498  0.2050
 2195SOL    HW218045   0.213   3.920   6.883  0.3703  0.9248  1.4713
 2196SOL     OW18046   0.612   0.765  10.740  0.3986  0.3780 -0.5092
 2196SOL    HW118047   0.591   0.680  10.780  3.0148  0.3938  0.9314
 2196SOL    HW218048   0.684   0.748  10.679  0.3573 -0.1007 -0.4231
 2197SOL     OW18049   0.151   2.279   4.392  0.0626  0.4627 -0.1429
 2197SOL    HW118050   0.069   2.250   4.353  0.2891 -0.4414  0.0538
 2197SOL    HW218051   0.173   2.340   4.321 -1.0289 -0.7820 -1.5636
 2198SOL     OW18052   1.943   3.302   7.135  0.7447 -0.2855 -0.0036
 2198SOL    HW118053   2.011   3.294   7.068  0.1273  1.3776 -0.8426
 2198SOL    HW218054   1.998   3.304   7.213 -1.9745 -0.6634  1.8882
 2199SOL     OW18055   0.638   2.202   3.014 -0.8575  0.0361  0.4935
 2199SOL    HW118056   0.696   2.277   3.008 -0.0290 -0.6855 -0.7051
 2199SOL    HW218057   0.669   2.153   3.090  1.2128  2.3175  1.1050
 2200SOL     OW18058   0.895   4.177   7.322 -0.0058 -0.3304 -0.7202
 2200SOL    HW118059   0.974   4.146   7.280 -0.8168 -3.5652  0.1367
 2200SOL    HW218060   0.911   4.145   7.411 -0.3611  0.1512 -0.4800
 2201SOL     OW18061   3.803   2.068   0.818  0.3082 -0.0608  0.1980
 2201SOL    HW118062   3.719   2.055   0.861 -0.2466  0.4324 -0.7563
 2201SOL    HW218063   3.827   1.976   0.828  0.3033  0.1179  1.9339
 2202SOL     OW18064   4.043   1.517  14.167 -0.0508 -0.0120 -0.7750
 2202SOL    HW118065   4.067   1.568  14.245  2.2253 -0.6259 -1.0571
 2202SOL    HW218066   4.031   1.429  14.201  0.3087 -0.1969 -1.1250
 2203SOL     OW18067   2.305   3.547   1.130  0.4078  0.4701  0.3975
 2203SOL    HW118068   2.285   3.541   1.037 -0.4857 -0.6725  0.6597
 2203SOL    HW218069   2.267   3.632   1.151 -1.7873 -0.2699 -0.5858
 2204SOL     OW18070   2.299   4.233   7.318 -0.8687  0.0785  0.4976
 2204SOL    HW118071   2.335   4.213   7.404 -0.2722 -0.3031  0.1585
 2204SOL    HW218072   2.304   4.328   7.331  0.1098 -0.2314  2.3933
 2205SOL     OW18073   1.999   4.657  11.923  0.7638  0.1125  0.2780
 2205SOL    HW118074   2.059   0.007  11.945  1.0117 -0.0252  0.0527
 2205SOL    HW218075   2.034   4.647  11.835 -0.2323  2.3597 -0.3862
 2206SOL     OW18076   1.295   1.604   8.804  0.0300  0.0466 -0.0651
 2206SOL    HW118077   1.284   1.686   8.757  0.2400  0.0944 -0.0303
 2206SOL    HW218078   1.368   1.569   8.753 -0.6612  0.3328 -1.2628
 2207SOL     OW18079   4.033   2.225   8.115 -0.1877  0.2499 -0.4817
 2207SOL    HW118080   3.994   2.168   8.049 -1.3629 -0.1815  0.6095
 2207SOL    HW218081   3.957   2.280   8.133  0.5788  0.9038  0.7458
 2208SOL     OW18082   2.203   1.856   1.020 -0.2451  0.4026 -0.3370
 2208SOL    HW118083   2.128   1.892   1.069  0.2120  1.7928 -0.6599
 2208SOL    HW218084   2.222   1.930   0.962  0.2298 -0.1703 -0.9050
 2209SOL     OW18085   3.888   4.671  12.574 -0.5906  0.2218 -1.0563
 2209SOL    HW118086   3.797   4.667  12.601 -0.5239 -1.2871 -1.0592
 2209SOL    HW218087   3.871   0.003  12.497 -1.0531  1.0395 -0.3774
 2210SOL     OW18088   2.881   1.379   0.218  0.1056 -0.2358 -0.2587
 2210SOL    HW118089   2.846   1.358   0.304 -0.2397 -2.7377 -1.0116
 2210SOL    HW218090   2.884   1.475   0.214  2.1610 -0.1818  3.2320
 2211SOL     OW18091   3.444   2.397  16.234  0.1616  0.1162  0.5231
 2211SOL    HW118092   3.370   2.340  16.216 -0.1021  0.3712  0.8010
 2211SOL    HW218093   3.511   2.354  16.181 -0.7408  0.1373 -0.6453
 2212SOL     OW18094   2.483   1.414   6.364  0.5690 -0.3688  0.1866
 2212SOL    HW118095   2.404   1.378   6.322  1.2554 -2.4811  0.6920
 2212SOL    HW218096   2.475   1.498   6.319 -2.3820 -0.2139  0.9951
 2213SOL     OW18097   1.211   0.129   2.742 -0.0065 -0.3208  0.1279
 2213SOL    HW118098   1.272   0.109   2.671  1.1115 -0.4263  1.1228
 2213SOL    HW218099   1.274   0.144   2.812 -1.9463 -0.9929  2.0364
 2214SOL     OW18100   0.927   0.557  10.347  0.1428 -0.5044  0.9788
 2214SOL    HW118101   0.966   0.470  10.342 -0.5053 -0.7253 -0.4460
 2214SOL    HW218102   0.946   0.577  10.255 -2.3948 -2.1321  0.0888
 2215SOL     OW18103   0.190   3.533  17.001 -0.3128  0.3452  0.3503
 2215SOL    HW118104   0.231   3.616  16.976 -1.2319 -0.1023 -2.6771
 2215SOL    HW218105   0.270   3.492  17.036  0.4578 -1.1235 -3.1095
 2216SOL     OW18106   1.442   1.579   7.276  0.5931  0.0048 -0.5198
 2216SOL    HW118107   1.472   1.489   7.285 -2.4745 -0.9105  0.2575
 2216SOL    HW218108   1.481   1.590   7.189  3.6380 -0.3887  0.7854
 2217SOL     OW18109   2.511   2.900   6.590  0.3779  0.1683 -0.3707
 2217SOL    HW118110   2.595   2.945   6.588  0.3700  0.0753 -2.7212
 2217SOL    HW218111   2.463   2.942   6.662  1.4673 -0.1913  0.5494
 2218SOL     OW18112   3.956   0.765   3.742  0.3315 -0.4236 -0.3155
 2218SOL    HW118113   3.937   0.802   3.829  3.2252 -0.3985  0.3122
 2218SOL    HW218114   3.867   0.746   3.711 -0.1865  0.4310  0.6382
 2219SOL     OW18115   3.919   1.592   4.390 -0.5292  0.1254 -0.2513
 2219SOL    HW118116   3.997   1.638   4.360  0.9993 -1.5857  1.0800
 2219SOL    HW218117   3.939   1.562   4.479  0.0937 -0.5735 -0.6242
 2220SOL     OW18118   4.412   1.868   6.272  0.8494  0.2481 -0.4931
 2220SOL    HW118119   4.351   1.805   6.312  0.0899  0.9474 -0.5562
 2220SOL    HW218120   4.361   1.912   6.204  2.7358 -0.3398 -2.2899
 2221SOL     OW18121   4.204   2.973  16.508  0.2358  0.5980  0.1784
 2221SOL    HW118122   4.130   2.935  16.460  0.1274 -0.3927  1.1223
 2221SOL    HW218123   4.232   3.041  16.447  2.8420  0.3318  1.0994
 2222SOL     OW18124   3.361   2.435   0.840  0.3172 -0.7299 -0.5106
 2222SOL    HW118125   3.394   2.518   0.874  1.2162 -0.1237 -2.8408
 2222SOL    HW218126   3.383   2.373   0.910  0.4256 -1.9507 -1.6301
 2223SOL     OW18127   3.254   2.150   8.742 -0.4316 -0.1203  0.1109
 2223SOL    HW118128   3.223   2.217   8.680  4.5674  2.9903  0.9566
 2223SOL    HW218129   3.333   2.120   8.698  0.3095  1.2910  0.4670
 2224SOL     OW18130   0.379   1.074   9.169 -0.0053  0.0791  0.0076
 2224SOL    HW118131   0.472   1.095   9.158  0.1159 -0.5695 -0.2208
 2224SOL    HW218132   0.370   1.145   9.233  0.9107  0.0612  0.1560
 2225SOL     OW18133   2.269   1.111   9.507  0.2767  0.1834 -0.5996
 2225SOL    HW118134   2.359   1.078   9.512 -0.4382 -1.3949  2.1921
 2225SOL    HW218135   2.268   1.184   9.569 -1.4223 -2.4192  2.4593
 2226SOL     OW18136   2.188   0.960  17.011 -0.2438  0.1409 -0.2828
 2226SOL    HW118137   2.106   0.974  17.059 -1.0370 -2.1098 -1.0016
 2226SOL    HW218138   2.159   0.979  16.922 -0.9011  0.2852 -0.0353
 2227SOL     OW18139   3.114   0.809   5.269 -0.3135 -0.7228  0.3486
 2227SOL    HW118140   3.186   0.751   5.243 -0.1441  1.0956 -3.2100
 2227SOL    HW218141   3.030   0.771   5.243  0.2545 -0.4917 -1.7794
 2228SOL     OW18142   4.248   1.035  14.678  0.2582  0.4941 -0.1732
 2228SOL    HW118143   4.170   0.997  14.718  0.6783 -0.8903 -0.6599
 2228SOL    HW218144   4.256   0.978  14.602  0.2983 -0.9358  0.8902
 2229SOL     OW18145   3.720   1.835  13.672 -0.0492 -0.1397 -0.0052
 2229SOL    HW118146   3.737   1.927  13.693 -0.2554  0.7258 -3.6341
 2229SOL    HW218147   3.716   1.844  13.577 -0.3796 -0.4880 -0.0243
 2230SOL     OW18148   4.495   4.091   8.415 -0.2467  0.4010 -0.8485
 2230SOL    HW118149   4.554   4.081   8.490 -0.1350  1.3881 -0.8120
 2230SOL    HW218150   4.510   4.182   8.390 -0.3611  0.1598 -1.7951
 2231SOL     OW18151   1.834   3.167   8.205 -0.3047  0.0226 -0.1124
 2231SOL    HW118152   1.886   3.092   8.236  0.4506  0.8596  0.6630
 2231SOL    HW218153   1.878   3.241   8.248 -2.4576 -1.0744  3.9476
 2232SOL     OW18154   1.193   1.641  12.401  0.7425 -0.5938 -0.2544
 2232SOL    HW118155   1.106   1.641  12.441  0.8461  0.2099 -0.0370
 2232SOL    HW218156   1.184   1.729  12.365  0.1952 -0.5594 -0.0288
 2233SOL     OW18157   3.253   1.064   0.300  0.2043 -0.2461 -0.1028
 2233SOL    HW118158   3.212   1.140   0.342  0.5525  0.0940 -0.3740
 2233SOL    HW218159   3.327   1.052   0.360  2.3054  2.0825 -2.2179
 2234SOL     OW18160   0.986   3.577   3.129  0.4616 -0.2031  0.4187
 2234SOL    HW118161   0.956   3.576   3.220  0.5572 -1.3675  0.4311
 2234SOL    HW218162   0.945   3.660   3.105 -0.1006  0.0077  2.1074
 2235SOL     OW18163   1.024   0.470   6.367 -0.0800  0.1339 -0.6247
 2235SOL    HW118164   1.109   0.425   6.364  0.1873  0.6247 -0.4618
 2235SOL    HW218165   1.035   0.547   6.422  1.4489 -0.9556  0.6025
 2236SOL     OW18166   2.350   2.002  13.273 -0.6793  0.0903  0.4997
 2236SOL    HW118167   2.327   1.910  13.290 -1.4191 -0.0886 -1.5104
 2236SOL    HW218168   2.267   2.042  13.247 -1.9653 -0.9304  2.9671
 2237SOL     OW18169   3.272   0.737   4.329 -0.1012  0.2278 -0.0493
 2237SOL    HW118170   3.347   0.700   4.284  2.3599  2.2527  2.4121
 2237SOL    HW218171   3.202   0.744   4.264 -1.3770  1.9694  1.4800
 2238SOL     OW18172   1.281   3.589   1.649  0.2440  0.6483 -0.2227
 2238SOL    HW118173   1.222   3.621   1.717 -1.0241  1.3177 -1.6148
 2238SOL    HW218174   1.348   3.654   1.670  1.8486 -1.0493 -0.0854
 2239SOL     OW18175   3.068   2.420  12.454  0.0667  0.1456 -0.0002
 2239SOL    HW118176   3.060   2.396  12.362 -0.4341 -0.8556  0.3085
 2239SOL    HW218177   3.153   2.466  12.462  0.2497 -0.0260 -0.9789
 2240SOL     OW18178   4.507   0.674   9.443 -0.7086 -0.4204  0.1806
 2240SOL    HW118179   4.562   0.699   9.369 -2.4968 -0.4858 -1.1452
 2240SOL    HW218180   4.575   0.659   9.510 -0.2434 -0.8680 -0.3879
 2241SOL     OW18181   1.248   0.939   3.298  0.9820 -0.0194  0.2976
 2241SOL    HW118182   1.165   0.977   3.329  0.7837  0.5647 -0.9079
 2241SOL    HW218183   1.221   0.880   3.228 -1.1998  1.7250 -0.3544
 2242SOL     OW18184   2.277   2.253  10.012  0.0030 -0.5740  0.8406
 2242SOL    HW118185   2.299   2.331  10.062 -1.9683  0.7933 -0.4176
 2242SOL    HW218186   2.321   2.272   9.929  0.3231  1.5009  1.4927
 2243SOL     OW18187   4.440   3.794   8.429 -0.2215 -0.4875  0.4427
 2243SOL    HW118188   4.469   3.863   8.369 -0.7307 -2.2493 -1.8617
 2243SOL    HW218189   4.438   3.719   8.369 -2.8355  0.2279 -0.4064
 2244SOL     OW18190   3.721   2.072   5.170  0.3086 -0.0155 -0.2846
 2244SOL    HW118191   3.811   2.103   5.182  0.4990 -0.4258 -0.6604
 2244SOL    HW218192   3.733   1.977   5.159  0.0474 -0.0239 -0.5016
 2245SOL     OW18193   2.737   1.996   3.860  0.3430  0.0978  0.1643
 2245SOL    HW118194   2.688   1.949   3.928  3.8140 -3.2448  0.3602
 2245SOL    HW218195   2.701   2.084   3.871  1.6791  0.7390 -0.5270
 2246SOL     OW18196   0.575   2.975  15.017  0.2646  1.3151  0.3900
 2246SOL    HW118197   0.629   3.043  14.977  1.4991 -2.4417 -4.2333
 2246SOL    HW218198   0.620   2.891  15.010 -0.5883  0.6590  2.5154
 2247SOL     OW18199   2.505   2.723   3.243  0.2960  0.4266  0.6339
 2247SOL    HW118200   2.447   2.723   3.166  1.0767 -3.2197  0.0261
 2247SOL    HW218201   2.490   2.632   3.269 -2.1102  0.5594 -0.2831
 2248SOL     OW18202   4.526   0.464   5.036  0.4645 -0.8843  0.0962
 2248SOL    HW118203   4.596   0.515   4.995  0.7310 -0.3460  1.2365
 2248SOL    HW218204   4.533   0.466   5.131  0.8461  3.1652 -0.0481
 2249SOL     OW18205   0.542   0.830   8.848 -0.1845  0.1245 -0.4774
 2249SOL    HW118206   0.497   0.746   8.857 -0.3594  0.2260 -0.3984
 2249SOL    HW218207   0.603   0.828   8.922  0.2892  0.1878 -0.8699
 2250SOL     OW18208   2.112   4.251   8.764 -0.1544 -0.0552  0.0417
 2250SOL    HW118209   2.053   4.236   8.838 -0.7140  4.2958  0.4813
 2250SOL    HW218210   2.044   4.262   8.699  0.8573  3.2760 -0.4360
 2251SOL     OW18211   1.403   1.165  12.119 -0.3138  0.0478 -0.3962
 2251SOL    HW118212   1.404   1.230  12.189 -0.6790  0.2792 -0.6045
 2251SOL    HW218213   1.485   1.118  12.131  1.5493  3.5780  0.5910
 2252SOL     OW18214   0.746   1.343   9.414  0.5030  0.2698 -1.1144
 2252SOL    HW118215   0.736   1.248   9.426  1.4706  0.3213  0.1063
 2252SOL    HW218216   0.776   1.361   9.503 -2.2343 -0.5651 -0.0280
 2253SOL     OW18217   3.019   2.022   4.010 -0.9355  0.1249  0.1163
 2253SOL    HW118218   2.946   2.081   3.991 -0.1209  1.0854 -0.0308
 2253SOL    HW218219   2.994   1.966   4.084  0.1546 -0.4406  0.0526
 2254SOL     OW18220   0.237   2.990   1.551 -0.1712  0.3059 -0.0997
 2254SOL    HW118221   0.283   3.000   1.634 -2.0933  0.7298  0.9228
 2254SOL    HW218222   0.271   2.913   1.505 -1.0704 -0.8219  1.1296
 2255SOL     OW18223   3.142   1.223  11.527 -0.1048 -0.3246 -0.3197
 2255SOL    HW118224   3.215   1.190  11.580 -0.3621  0.6613  0.6456
 2255SOL    HW218225   3.068   1.163  11.538  2.4575 -3.3106  0.7859
 2256SOL     OW18226   0.602   1.765   3.806 -0.1572 -0.1698 -0.0563
 2256SOL    HW118227   0.673   1.703   3.823  0.5685  0.9245  0.9544
 2256SOL    HW218228   0.586   1.811   3.889 -0.8516 -0.2220 -0.1602
 2257SOL     OW18229   3.553   3.921   2.957  0.1519  0.2338  0.1880
 2257SOL    HW118230   3.546   3.855   3.027  0.5665 -1.0616 -0.9922
 2257SOL    HW218231   3.610   3.873   2.896  1.6817  1.5192  0.6134
 2258SOL     OW18232   2.497   3.774  11.226  0.1721 -0.2482  0.4644
 2258SOL    HW118233   2.532   3.711  11.163 -0.0618  1.2024 -1.1336
 2258SOL    HW218234   2.579   3.779  11.275 -0.5326 -2.7330  1.8942
 2259SOL     OW18235   0.111   4.446   1.200  0.0874 -0.2010 -0.4277
 2259SOL    HW118236   0.049   4.392   1.150 -0.4817 -0.2947  0.3803
 2259SOL    HW218237   0.107   4.413   1.290 -0.8071 -0.3917 -0.5317
 2260SOL     OW18238   4.369   0.934   5.553 -0.0312  0.1050 -0.3404
 2260SOL    HW118239   4.385   0.949   5.459 -1.6934 -0.9208 -0.7826
 2260SOL    HW218240   4.452   0.911   5.595  0.2752  2.7333  0.4866
 2261SOL     OW18241   0.048   1.741   5.610 -0.6351 -0.6805  0.1237
 2261SOL    HW118242   0.016   1.831   5.611  1.7369  0.1654 -1.2596
 2261SOL    HW218243   0.142   1.740   5.630 -0.4355 -0.9137 -0.7970
 2262SOL     OW18244   3.933   2.017   9.432 -0.4031 -0.1901 -0.1615
 2262SOL    HW118245   4.015   2.063   9.448 -0.8341 -0.3918  2.5983
 2262SOL    HW218246   3.960   1.925   9.443  0.7620  0.2257  0.4958
 2263SOL     OW18247   1.315   3.350  13.107  0.4628  0.8650 -0.0255
 2263SOL    HW118248   1.267   3.417  13.155  1.4593  1.2168  0.4841
 2263SOL    HW218249   1.402   3.390  13.106  0.4275  1.0521  3.6993
 2264SOL     OW18250   0.901   3.817   6.719 -0.2980  0.6066 -0.0384
 2264SOL    HW118251   0.882   3.808   6.625  0.4447  0.4123 -0.1719
 2264SOL    HW218252   0.946   3.733   6.729  2.5342  2.1976  0.8307
 2265SOL     OW18253   1.342   3.479  15.863  0.0592 -0.3697 -0.6654
 2265SOL    HW118254   1.437   3.490  15.858 -0.0196  0.6413 -0.0727
 2265SOL    HW218255   1.310   3.566  15.885  0.7721 -0.6341  1.4471
 2266SOL     OW18256   1.008   2.707  13.061 -0.5939  0.0813 -0.0273
 2266SOL    HW118257   0.996   2.756  13.142  0.0529  0.1569  0.0258
 2266SOL    HW218258   0.970   2.628  13.100  2.4342 -0.6048  1.5219
 2267SOL     OW18259   2.212   0.170   7.434  0.1136 -0.0348 -0.7003
 2267SOL    HW118260   2.207   0.217   7.517 -0.0306  1.0167 -1.3154
 2267SOL    HW218261   2.127   0.184   7.392 -0.6883 -4.3641 -0.5323
 2268SOL     OW18262   1.215   3.719  17.176  0.6036 -0.0672  0.7488
 2268SOL    HW118263   1.172   3.654  17.120 -0.9114  1.4576  0.1446
 2268SOL    HW218264   1.244   3.789  17.118 -1.6755 -0.9507 -1.4222
 2269SOL     OW18265   3.295   0.131  16.754  0.5370  0.0650  0.3793
 2269SOL    HW118266   3.274   0.056  16.809 -1.1653  0.8669  0.8033
 2269SOL    HW218267   3.381   0.158  16.789 -0.1408  1.4736  0.9535
 2270SOL     OW18268   3.455   1.417   6.290 -0.1798  0.0007  0.1768
 2270SOL    HW118269   3.425   1.468   6.215 -0.4527  1.6753  1.4304
 2270SOL    HW218270   3.463   1.337   6.238  1.8189  1.0968 -1.2483
 2271SOL     OW18271   4.253   1.166   7.591  0.1231  0.3273  0.1778
 2271SOL    HW118272   4.180   1.225   7.610 -1.4929 -0.8123 -2.4765
 2271SOL    HW218273   4.325   1.223   7.564 -0.2374  0.3824 -0.6564
 2272SOL     OW18274   4.218   0.904   4.647 -0.5673  0.6712  0.0491
 2272SOL    HW118275   4.238   0.998   4.640  0.7642  0.2311 -2.1554
 2272SOL    HW218276   4.301   0.867   4.616 -2.3613 -3.5935  0.4473
 2273SOL     OW18277   0.566   0.023  17.223 -0.4010 -0.0273  0.5745
 2273SOL    HW118278   0.593   0.108  17.187 -1.0600  0.4050  1.0787
 2273SOL    HW218279   0.647   0.005  17.270 -0.0518 -2.1715 -0.8801
 2274SOL     OW18280   1.800   2.021  17.685  0.3748 -0.0076  0.1054
 2274SOL    HW118281   1.874   1.967  17.657  2.0743  2.0569  0.6511
 2274SOL    HW218282   1.752   2.034  17.604  1.0656  0.5496 -0.2129
 2275SOL     OW18283   0.606   2.013   0.692 -0.3928 -0.0899  0.1087
 2275SOL    HW118284   0.674   1.971   0.745 -0.8358 -0.4644  0.3756
 2275SOL    HW218285   0.646   2.003   0.605 -2.2262  0.9856 -0.8607
 2276SOL     OW18286   4.180   2.028   2.574  0.1632 -0.7886 -0.0094
 2276SOL    HW118287   4.133   1.980   2.642 -0.5479 -1.1810 -0.7824
 2276SOL    HW218288   4.134   1.988   2.501 -1.5284 -1.1291  1.2534
 2277SOL     OW18289   3.037   1.591   2.509  0.0547  0.2798 -0.4389
 2277SOL    HW118290   3.003   1.507   2.540  0.4970  1.2513  2.7444
 2277SOL    HW218291   2.987   1.617   2.432 -0.8983 -0.6439 -0.1444
 2278SOL     OW18292   4.117   0.667  11.219 -0.5712  0.0517  0.3371
 2278SOL    HW118293   4.094   0.744  11.270  1.2012 -1.0740  2.8691
 2278SOL    HW218294   4.040   0.639  11.170 -0.7013 -0.2629  0.7268
 2279SOL     OW18295   2.385   2.674   4.347 -0.0623 -0.0773 -0.0229
 2279SOL    HW118296   2.374   2.580   4.341  2.2359 -0.3030 -0.5989
 2279SOL    HW218297   2.460   2.691   4.404  2.0599  0.2905 -2.9354
 2280SOL     OW18298   3.529   4.192   4.667  0.5553 -0.0745  0.5875
 2280SOL    HW118299   3.523   4.169   4.574  2.0866 -0.6577  0.6448
 2280SOL    HW218300   3.504   4.111   4.711  0.8736 -0.7496 -0.4836
 2281SOL     OW18301   0.788   0.321   6.321 -0.1697 -0.4825 -0.1182
 2281SOL    HW118302   0.873   0.363   6.328  0.2903 -1.8397  2.5234
 2281SOL    HW218303   0.720   0.388   6.335 -1.2693 -1.4371 -0.8923
 2282SOL     OW18304   1.709   2.279   5.836  0.3542  0.0413 -0.4337
 2282SOL    HW118305   1.657   2.357   5.856 -1.3742 -1.5657  1.2926
 2282SOL    HW218306   1.652   2.211   5.873  1.3385  0.0689  1.1170
 2283SOL     OW18307   2.845   3.384   6.940  0.1006 -0.3858  0.1174
 2283SOL    HW118308   2.814   3.460   6.990  0.9484 -1.3972  2.1996
 2283SOL    HW218309   2.768   3.328   6.943 -1.2801  1.4653 -0.5556
 2284SOL     OW18310   4.565   3.453   8.524 -0.2524 -0.0904 -0.0946
 2284SOL    HW118311   4.544   3.364   8.495 -0.5782  0.7777 -2.5191
 2284SOL    HW218312   4.612   3.431   8.604  0.7423 -2.9089 -1.4105
 2285SOL     OW18313   4.274   2.259   2.659  0.1282  0.4361 -0.8992
 2285SOL    HW118314   4.304   2.223   2.742 -1.4024 -2.4587 -1.5857
 2285SOL    HW218315   4.233   2.181   2.621  0.3710 -0.0977 -0.0597
 2286SOL     OW18316   1.627   0.634   4.682 -0.1267  0.2903 -0.2944
 2286SOL    HW118317   1.547   0.608   4.637 -1.2176  0.0481  1.7958
 2286SOL    HW218318   1.666   0.698   4.623 -0.8598  0.5795 -0.4645
 2287SOL     OW18319   1.634   4.257   6.898 -0.0794  0.1973  0.6339
 2287SOL    HW118320   1.648   4.250   6.992 -1.0958 -0.4770  0.7287
 2287SOL    HW218321   1.707   4.317   6.883 -1.2245  1.6453  0.8793
 2288SOL     OW18322   4.489   0.448   6.787 -0.0372  0.0729  0.2833
 2288SOL    HW118323   4.410   0.497   6.809 -0.0984  0.2108 -0.2649
 2288SOL    HW218324   4.549   0.523   6.780 -1.1230  1.0943  1.7645
 2289SOL     OW18325   1.601   0.938  16.434  0.4016 -0.3723  0.1885
 2289SOL    HW118326   1.619   0.989  16.355  0.1223 -0.7316 -0.1049
 2289SOL    HW218327   1.681   0.950  16.485 -0.2869 -1.2964  1.4874
 2290SOL     OW18328   0.547   1.728   1.506 -0.3234 -0.4171 -0.5796
 2290SOL    HW118329   0.504   1.751   1.423 -0.7797  0.7500 -0.0338
 2290SOL    HW218330   0.633   1.743   1.468  0.0939 -1.1036  0.1034
 2291SOL     OW18331   3.229   0.365   5.770  0.1512 -0.3028  0.2011
 2291SOL    HW118332   3.188   0.446   5.802  1.5530 -0.3053  1.9772
 2291SOL    HW218333   3.294   0.401   5.711 -0.2673 -0.5683 -0.4178
 2292SOL     OW18334   3.710   2.014   5.920  0.3266 -0.2513 -0.5144
 2292SOL    HW118335   3.724   2.099   5.879  0.5299  0.2270  0.5506
 2292SOL    HW218336   3.773   2.008   5.992 -0.3821  0.2006  0.1433
 2293SOL     OW18337   0.801   4.008  11.728  0.2251  0.3779 -0.3141
 2293SOL    HW118338   0.741   3.938  11.755 -0.5218  1.8165  1.7325
 2293SOL    HW218339   0.763   4.081  11.778 -2.4960 -0.5514 -1.0067
 2294SOL     OW18340   3.116   0.813  11.696 -0.4451  0.7128  0.3638
 2294SOL    HW118341   3.127   0.854  11.611  0.1027 -0.2436 -0.0285
 2294SOL    HW218342   3.200   0.766  11.697  0.0054  1.5558  2.1008
 2295SOL     OW18343   0.651   0.407   4.292  0.5661 -0.1229 -0.1274
 2295SOL    HW118344   0.563   0.373   4.311  1.1618 -0.8172  1.3354
 2295SOL    HW218345   0.630   0.500   4.291 -1.0813 -0.5301 -3.6142
 2296SOL     OW18346   4.607   4.462  12.586 -0.3446  0.1735  0.1120
 2296SOL    HW118347   4.559   4.379  12.592 -0.0815 -0.1992 -2.5294
 2296SOL    HW218348   4.580   4.514  12.661 -0.4329 -0.6722  0.6659
 2297SOL     OW18349   1.196   2.136  14.362 -0.1018 -0.5286  0.7355
 2297SOL    HW118350   1.254   2.196  14.409 -0.2991  0.8624 -0.7957
 2297SOL    HW218351   1.121   2.195  14.351  1.5565  1.4197  0.0925
 2298SOL     OW18352   2.532   2.935  14.488  0.7578 -0.2858 -0.1260
 2298SOL    HW118353   2.550   2.845  14.515 -2.0731 -1.1364 -1.0658
 2298SOL    HW218354   2.505   2.978  14.569  0.3687  0.9472 -0.8998
 2299SOL     OW18355   4.110   2.973   3.546  0.6719 -0.4934 -0.4169
 2299SOL    HW118356   4.065   2.903   3.593 -1.3344  1.4131  0.4961
 2299SOL    HW218357   4.067   3.051   3.578  0.3860  0.2193 -2.5158
 2300SOL     OW18358   1.258   1.794  16.870 -0.3844 -0.1656  0.2105
 2300SOL    HW118359   1.259   1.735  16.794 -0.8642  0.6494 -0.4246
 2300SOL    HW218360   1.333   1.851  16.850  0.3512 -0.1945  2.9509
 2301SOL     OW18361   2.470   0.712   3.346  0.6271 -0.1382  0.4160
 2301SOL    HW118362   2.478   0.790   3.291 -0.2983  0.1526  0.6937
 2301SOL    HW218363   2.473   0.756   3.431  3.2773  1.3396 -0.4272
 2302SOL     OW18364   0.763   3.380   7.675  0.5404 -0.0390  0.4882
 2302SOL    HW118365   0.684   3.344   7.634  1.8143 -2.3963  0.0773
 2302SOL    HW218366   0.726   3.457   7.717  0.8414  2.2261 -3.3738
 2303SOL     OW18367   4.101   2.072   3.392  0.0452 -0.1068  0.1608
 2303SOL    HW118368   4.129   1.995   3.342  0.8905  1.0122 -1.0772
 2303SOL    HW218369   4.165   2.137   3.364 -0.2036 -0.0764 -0.3488
 2304SOL     OW18370   3.484   3.890   7.267 -0.1637 -0.2489  0.2505
 2304SOL    HW118371   3.403   3.923   7.228 -0.0497 -2.3905 -1.7972
 2304SOL    HW218372   3.510   3.840   7.189 -0.9415  1.0170 -0.8329
 2305SOL     OW18373   3.020   1.524  11.318 -0.1105 -0.5462  0.3232
 2305SOL    HW118374   2.946   1.475  11.353 -0.5639  0.7179  1.1253
 2305SOL    HW218375   3.056   1.547  11.404 -1.3274 -1.0292  0.9503
 2306SOL     OW18376   1.449   4.419   4.406 -0.2650 -0.1522  0.0788
 2306SOL    HW118377   1.465   4.454   4.494 -1.4081  1.2310 -0.2602
 2306SOL    HW218378   1.521   4.356   4.404  0.1102  0.2387  1.1542
 2307SOL     OW18379   1.932   1.136   6.742 -0.2923  0.4521 -0.2292
 2307SOL    HW118380   1.888   1.051   6.750  0.0068  0.2792 -0.4110
 2307SOL    HW218381   1.963   1.131   6.651  1.2524 -0.8677  0.3697
 2308SOL     OW18382   3.315   3.521   4.967 -0.0239 -0.0002  0.3886
 2308SOL    HW118383   3.395   3.516   5.019 -0.1434 -2.1573  0.3726
 2308SOL    HW218384   3.353   3.507   4.880 -0.1425  0.5417  0.2486
 2309SOL     OW18385   4.464   2.286  10.944  0.6374 -0.2337  0.0891
 2309SOL    HW118386   4.454   2.307  11.037 -1.0008 -1.5671  0.2309
 2309SOL    HW218387   4.558   2.273  10.935  0.1695 -2.3544 -1.9635
 2310SOL     OW18388   3.965   0.930   6.697  0.1216 -0.3275  0.0277
 2310SOL    HW118389   3.932   0.859   6.642  2.0881  0.3304 -2.0275
 2310SOL    HW218390   4.041   0.957   6.645  0.0624  1.4024  0.8356
 2311SOL     OW18391   0.591   0.314  14.187 -0.4360 -0.4638  0.0869
 2311SOL    HW118392   0.679   0.320  14.223  0.0213  0.2149 -1.1528
 2311SOL    HW218393   0.581   0.219  14.190  0.5171 -0.5826 -0.8302
 2312SOL     OW18394   4.459   0.410   1.101 -0.1296  0.2131  0.1109
 2312SOL    HW118395   4.421   0.384   1.017 -0.1355 -1.5169  0.6446
 2312SOL    HW218396   4.406   0.484   1.131  0.2544  0.5156  0.0458
 2313SOL     OW18397   2.672   1.646   3.962  0.1551  0.0936 -0.4055
 2313SOL    HW118398   2.714   1.574   3.915  0.3643  1.1706 -1.8408
 2313SOL    HW218399   2.718   1.655   4.046 -0.3970  1.0496 -0.2091
 2314SOL     OW18400   3.320   3.744   2.153  0.2659  0.1744  0.4541
 2314SOL    HW118401   3.226   3.725   2.152  0.5898 -1.4471  0.3623
 2314SOL    HW218402   3.353   3.671   2.101  0.2416  0.2102  0.3891
 2315SOL     OW18403   3.229   1.279  11.222  0.5302  0.0308 -0.3585
 2315SOL    HW118404   3.221   1.203  11.278 -2.0963 -0.2083 -1.0767
 2315SOL    HW218405   3.163   1.340  11.256 -0.9026 -1.6858 -0.0629
 2316SOL     OW18406   3.853   4.641   7.753 -0.5191 -0.5081  0.1618
 2316SOL    HW118407   3.858   4.555   7.710  4.1026 -0.1235 -0.0323
 2316SOL    HW218408   3.775   4.684   7.719  0.0815 -0.5658 -1.2803
 2317SOL     OW18409   0.820   4.472   2.654 -0.5102  0.5461  0.3892
 2317SOL    HW118410   0.806   4.397   2.712 -0.2505 -0.6413 -1.0838
 2317SOL    HW218411   0.758   4.464   2.581  2.2129  2.2039 -2.1165
 2318SOL     OW18412   4.346   2.817   3.508 -0.2302 -0.4663  0.0519
 2318SOL    HW118413   4.379   2.829   3.419 -0.0758  1.4524  0.3747
 2318SOL    HW218414   4.273   2.879   3.507 -1.6856 -2.1757 -0.5389
 2319SOL     OW18415   4.319   2.379   4.723  0.0100  0.2727 -0.5530
 2319SOL    HW118416   4.347   2.465   4.691  0.3796  1.4058  2.8287
 2319SOL    HW218417   4.270   2.408   4.800  1.7254 -1.2395  1.1215
 2320SOL     OW18418   1.834   1.921  12.163 -0.1840 -0.4934  0.1076
 2320SOL    HW118419   1.766   1.875  12.113  0.4042  0.4759 -1.5994
 2320SOL    HW218420   1.871   1.857  12.223  2.6408  1.0362  0.0348
 2321SOL     OW18421   3.606   1.329   4.340 -0.5741  0.0508  0.3107
 2321SOL    HW118422   3.552   1.380   4.279  1.6059  1.8987 -0.0813
 2321SOL    HW218423   3.689   1.376   4.340 -0.0502 -0.8865 -0.5765
 2322SOL     OW18424   4.572   1.886  15.730  0.3157 -0.6584  0.7438
 2322SOL    HW118425   4.549   1.976  15.706 -0.2871 -0.8866  0.4854
 2322SOL    HW218426   4.631   1.895  15.805 -0.5894 -2.1367  1.6428
 2323SOL     OW18427   4.255   4.348   6.650 -0.0552 -0.5238 -0.0484
 2323SOL    HW118428   4.277   4.268   6.603  1.0735  2.8911 -5.4523
 2323SOL    HW218429   4.179   4.321   6.701  0.3545 -2.0586 -0.2594
 2324SOL     OW18430   1.583   1.990  10.033 -0.6656  0.3466  0.0768
 2324SOL    HW118431   1.666   1.987   9.985 -0.2614  2.3257  0.6586
 2324SOL    HW218432   1.557   1.899  10.020 -1.0323  0.3151  1.0447
 2325SOL     OW18433   0.699   2.504  16.659 -0.5925  0.3626 -0.4027
 2325SOL    HW118434   0.631   2.551  16.610 -0.0202  0.2875 -1.2694
 2325SOL    HW218435   0.651   2.422  16.670 -0.4160 -0.0076 -2.4185
 2326SOL     OW18436   4.586   2.613   4.833 -0.6603  0.2588  0.3071
 2326SOL    HW118437   4.680   2.599   4.822 -0.6107  1.3742 -0.7526
 2326SOL    HW218438   4.562   2.604   4.741  0.7827  1.9623 -0.2547
 2327SOL     OW18439   2.812   3.263   9.574 -0.9945  0.0203  0.0365
 2327SOL    HW118440   2.861   3.320   9.633 -1.4831  0.3894  0.0824
 2327SOL    HW218441   2.816   3.192   9.638  0.7233  0.8979  0.9058
 2328SOL     OW18442   0.325   0.061   4.875  0.2652  0.0550  0.5495
 2328SOL    HW118443   0.256   0.123   4.898  0.0588  0.7770 -2.1086
 2328SOL    HW218444   0.310   4.703   4.926 -1.2114 -0.7544 -1.1923
 2329SOL     OW18445   3.851   3.900   8.944  0.0396 -0.2576  0.2508
 2329SOL    HW118446   3.910   3.971   8.918 -2.1631  1.6671  0.5593
 2329SOL    HW218447   3.782   3.904   8.877  0.3540  1.3260  0.0206
 2330SOL     OW18448   1.893   2.309  13.413 -0.4245 -0.2659 -0.4907
 2330SOL    HW118449   1.846   2.227  13.429 -0.9869  0.2613  0.5229
 2330SOL    HW218450   1.985   2.281  13.418 -0.4271 -0.2508 -0.3487
 2331SOL     OW18451   2.446   0.461   0.127 -0.2951 -0.0609  0.2904
 2331SOL    HW118452   2.381   0.460   0.057  1.1393 -0.9601 -1.0432
 2331SOL    HW218453   2.482   0.373   0.119 -1.3477 -0.6942  2.4871
 2332SOL     OW18454   1.841   1.379   9.225  0.1819 -0.0763  0.4119
 2332SOL    HW118455   1.778   1.398   9.155  0.9030  0.2660 -0.1409
 2332SOL    HW218456   1.798   1.310   9.277 -1.4686  0.9097  0.3485
 2333SOL     OW18457   3.613   0.018  12.735 -0.1317 -0.2465 -0.2128
 2333SOL    HW118458   3.620   0.105  12.696  0.4756 -1.0893 -1.9736
 2333SOL    HW218459   3.520   0.006  12.716 -0.8343  3.3322  0.9077
 2334SOL     OW18460   0.212   2.891  14.836 -0.2868 -0.3968 -0.4450
 2334SOL    HW118461   0.159   2.818  14.803  0.1361 -0.6220 -0.6316
 2334SOL    HW218462   0.226   2.930  14.750 -0.5744 -0.6428 -0.6052
 2335SOL     OW18463   1.191   1.423  10.773 -0.3085  0.3136 -0.2613
 2335SOL    HW118464   1.173   1.457  10.861 -0.5642  0.8336 -0.5091
 2335SOL    HW218465   1.255   1.355  10.794 -2.3248 -1.0748  1.3749
 2336SOL     OW18466   1.582   1.524   4.417 -0.4544 -0.1928  0.7306
 2336SOL    HW118467   1.639   1.476   4.478 -0.4269 -0.4227  0.5246
 2336SOL    HW218468   1.541   1.592   4.471 -0.4066 -1.4890  2.4130
 2337SOL     OW18469   0.848   0.815   1.761 -0.0702 -0.0036  0.0832
 2337SOL    HW118470   0.851   0.905   1.730  3.9872  0.5485  2.1068
 2337SOL    HW218471   0.825   0.828   1.853  0.2755 -1.1474  0.3388
 2338SOL     OW18472   0.901   0.837   5.148  0.4591  0.8367  0.2804
 2338SOL    HW118473   0.890   0.823   5.242  2.1841  0.9883  0.5079
 2338SOL    HW218474   0.974   0.778   5.130 -0.4064  0.7913 -3.0519
 2339SOL     OW18475   1.009   4.444   3.603 -0.9638  0.8483 -0.6082
 2339SOL    HW118476   0.959   4.526   3.599 -0.6251  1.1261  1.0407
 2339SOL    HW218477   1.099   4.465   3.578 -0.2970 -1.7710 -0.3518
 2340SOL     OW18478   1.397   3.547   6.821 -0.3233  0.2762  0.4112
 2340SOL    HW118479   1.385   3.505   6.906  0.2211  0.4507  0.5726
 2340SOL    HW218480   1.431   3.474   6.770  0.8599  0.4030  1.0100
 2341SOL     OW18481   0.186   3.326   1.724  0.2279 -0.5070 -1.3116
 2341SOL    HW118482   0.142   3.299   1.804  0.5333  0.8533 -0.6851
 2341SOL    HW218483   0.232   3.406   1.750  1.3382 -1.2855 -0.8790
 2342SOL     OW18484   3.054   2.726   2.788  0.5974 -0.3494 -0.3649
 2342SOL    HW118485   3.023   2.804   2.835  0.2998 -1.2649  0.9818
 2342SOL    HW218486   3.043   2.752   2.697  0.9092  0.5208 -0.1508
 2343SOL     OW18487   3.407   3.969   6.555  0.2666 -0.2595 -0.4410
 2343SOL    HW118488   3.437   4.023   6.482 -1.4565  1.1529 -0.1070
 2343SOL    HW218489   3.427   4.034   6.622  1.0774 -1.4361  0.4603
 2344SOL     OW18490   2.005   4.264   5.475  0.5040  0.4642  0.0680
 2344SOL    HW118491   2.091   4.304   5.461  0.4182  0.1258 -1.4626
 2344SOL    HW218492   1.999   4.277   5.570 -0.4821 -2.3122  0.3638
 2345SOL     OW18493   0.013   3.624   4.501  0.5526  0.5775  0.2873
 2345SOL    HW118494   4.655   3.573   4.515  0.5863 -0.5581 -3.4146
 2345SOL    HW218495   0.068   3.590   4.571  0.8158  0.1769 -0.1158
 2346SOL     OW18496   3.335   0.703  10.052  0.0537 -0.1572  0.0058
 2346SOL    HW118497   3.319   0.629  10.110  0.6252 -0.5129 -0.2911
 2346SOL    HW218498   3.254   0.754  10.061  0.1397  0.5754 -3.5176
 2347SOL     OW18499   1.212   0.494   7.941  0.0020 -0.3715  0.0079
 2347SOL    HW118500   1.222   0.543   7.858  0.0620  1.6769  1.2212
 2347SOL    HW218501   1.272   0.543   7.997  0.6003 -0.6819 -0.3560
 2348SOL     OW18502   4.204   2.966  14.421 -0.2169 -0.5495  0.0329
 2348SOL    HW118503   4.256   3.037  14.459 -2.0302  1.4262 -1.1689
 2348SOL    HW218504   4.273   2.899  14.420  0.7206  0.3915  1.6698
 2349SOL     OW18505   1.795   2.612  14.383  0.1207 -0.0928 -0.3057
 2349SOL    HW118506   1.761   2.525  14.405 -3.1899  1.3721  0.3482
 2349SOL    HW218507   1.842   2.604  14.300  1.9646 -0.8459  0.7908
 2350SOL     OW18508   4.629   3.646  10.584  0.1228 -0.8378  0.5097
 2350SOL    HW118509   4.548   3.624  10.539 -0.5603  0.5674  1.0623
 2350SOL    HW218510   4.599   3.698  10.658 -3.5178  0.3994 -1.8499
 2351SOL     OW18511   3.392   2.618  10.453 -0.3137  0.2391  0.0224
 2351SOL    HW118512   3.368   2.648  10.365  0.0089 -0.2589 -0.2354
 2351SOL    HW218513   3.312   2.575  10.485 -0.8953  1.0732 -0.3006
 2352SOL     OW18514   4.671   4.031  17.551 -0.5378 -0.0913  0.2331
 2352SOL    HW118515   4.597   4.057  17.605  0.5476  1.7409  0.8547
 2352SOL    HW218516   0.005   4.106  17.568  0.3970 -0.5164 -0.9899
 2353SOL     OW18517   0.240   2.823   8.558 -0.1653 -0.4089  0.0250
 2353SOL    HW118518   0.192   2.757   8.608  0.0235  0.7174  1.6967
 2353SOL    HW218519   0.246   2.891   8.625 -0.3610  0.1128 -0.4852
 2354SOL     OW18520   3.005   1.570  14.445  0.2195  0.3526  0.1806
 2354SOL    HW118521   3.020   1.476  14.443  1.8906  0.5345  2.9490
 2354SOL    HW218522   3.081   1.597  14.394  0.6208  0.1434  0.6648
 2355SOL     OW18523   4.458   3.561   1.754  0.1951 -0.2876 -0.3343
 2355SOL    HW118524   4.465   3.476   1.710  0.5429 -0.2812 -0.2915
 2355SOL    HW218525   4.546   3.584   1.782 -0.1799  0.0885  0.5251
 2356SOL     OW18526   1.795   4.591   8.779  0.0708 -0.1086  0.2834
 2356SOL    HW118527   1.805   4.544   8.696  0.2011  1.7239 -0.7437
 2356SOL    HW218528   1.701   4.609   8.772 -0.0756 -1.2531 -0.7005
 2357SOL     OW18529   0.610   2.875   6.709 -0.4911  0.5603 -0.7981
 2357SOL    HW118530   0.595   2.888   6.802 -2.7083  1.3745 -1.2520
 2357SOL    HW218531   0.524   2.898   6.672 -0.2006  1.2721 -1.0382
 2358SOL     OW18532   0.252   2.910   2.808  0.5604  0.6028 -0.3225
 2358SOL    HW118533   0.224   2.824   2.777  0.4081  0.8002 -0.7523
 2358SOL    HW218534   0.333   2.894   2.855  0.1373  0.4863  0.3580
 2359SOL     OW18535   3.266   4.207   5.314  0.6373 -0.7376  0.5691
 2359SOL    HW118536   3.253   4.154   5.236 -1.9870 -1.1160  1.2823
 2359SOL    HW218537   3.361   4.214   5.311  0.6615 -1.2394  0.2346
 2360SOL     OW18538   0.267   4.332   3.605  0.3751 -0.2368  0.5091
 2360SOL    HW118539   0.233   4.400   3.547  1.1113  0.4647  0.8961
 2360SOL    HW218540   0.189   4.276   3.609 -0.4011  0.7897 -0.2155
 2361SOL     OW18541   1.108   1.796   0.789 -0.2032  0.1434  0.7294
 2361SOL    HW118542   1.048   1.743   0.842 -0.5510  0.5171  0.7092
 2361SOL    HW218543   1.156   1.740   0.728  0.0985  1.7974 -0.5512
 2362SOL     OW18544   1.240   2.473   3.226  0.4106 -0.3236  0.4284
 2362SOL    HW118545   1.201   2.523   3.297  0.3817  2.4225 -1.5205
 2362SOL    HW218546   1.325   2.456   3.266 -0.9766 -2.1243  2.6036
 2363SOL     OW18547   0.335   2.542   8.986 -0.5439  0.3986  0.3106
 2363SOL    HW118548   0.289   2.625   8.995 -1.2593  0.0194  0.1593
 2363SOL    HW218549   0.275   2.484   9.032 -1.3221  1.2803  0.3980
 2364SOL     OW18550   3.581   2.421  11.804  0.4935  0.1613 -0.3044
 2364SOL    HW118551   3.545   2.489  11.748 -0.5078  1.2092  1.6238
 2364SOL    HW218552   3.618   2.360  11.741  1.3791  0.9327 -0.5301
 2365SOL     OW18553   0.355   0.432   2.829 -0.1877  0.2707 -0.0029
 2365SOL    HW118554   0.308   0.515   2.837 -0.5902  0.0259  0.1417
 2365SOL    HW218555   0.386   0.419   2.919  0.7062  0.2011 -0.3231
 2366SOL     OW18556   0.235   2.517   1.012  0.0099 -0.3814  0.5103
 2366SOL    HW118557   0.196   2.599   0.982  0.2568 -0.9247 -1.3107
 2366SOL    HW218558   0.185   2.453   0.962  2.4525 -1.8481 -0.0980
 2367SOL     OW18559   0.270   2.006  10.220  0.1962 -0.4158  0.2555
 2367SOL    HW118560   0.277   1.939  10.152  2.2555 -0.3184  0.3793
 2367SOL    HW218561   0.232   2.075  10.166 -0.2648 -1.7138 -1.0613
 2368SOL     OW18562   4.309   1.271  14.573 -0.1486 -0.5596 -0.4397
 2368SOL    HW118563   4.288   1.183  14.606 -0.0483  0.2031  1.6338
 2368SOL    HW218564   4.324   1.314  14.657 -1.9141  0.0567 -0.4646
 2369SOL     OW18565   4.710   0.418   6.202 -0.2905  0.1524 -0.0236
 2369SOL    HW118566   4.641   0.371   6.250 -0.8194  0.4521 -0.4881
 2369SOL    HW218567   0.037   0.426   6.284 -0.1439 -2.0659  0.1063
 2370SOL     OW18568   1.168   2.535  17.540  0.0627 -0.0206  0.1350
 2370SOL    HW118569   1.140   2.594  17.610 -0.0090  0.2716 -0.1361
 2370SOL    HW218570   1.246   2.586  17.515  1.5526 -1.0344  2.6737
 2371SOL     OW18571   3.017   1.976   1.032 -0.2064  0.1260 -0.1633
 2371SOL    HW118572   3.074   1.986   0.956  1.6248 -1.7560  0.9752
 2371SOL    HW218573   3.042   1.889   1.065 -1.5347 -1.5872 -3.6147
 2372SOL     OW18574   2.946   4.602  16.713  0.4726  0.1186  0.6529
 2372SOL    HW118575   2.935   4.525  16.769 -0.8639 -0.1791 -0.0161
 2372SOL    HW218576   2.859   4.643  16.720 -0.0345 -1.1297  1.6466
 2373SOL     OW18577   3.604   4.254  16.883  0.1679  0.0151 -0.5684
 2373SOL    HW118578   3.557   4.336  16.899  0.4278  0.4354 -1.9728
 2373SOL    HW218579   3.583   4.237  16.792  1.8890 -2.5379 -0.4836
 2374SOL     OW18580   3.984   3.948   5.327  0.5071  0.2758 -0.5021
 2374SOL    HW118581   3.978   4.033   5.371  3.7112  0.7418 -0.9320
 2374SOL    HW218582   3.892   3.925   5.331  0.3661  0.8940 -0.1569
 2375SOL     OW18583   3.048   4.541   5.529 -0.0597 -0.7230  0.0538
 2375SOL    HW118584   3.077   4.455   5.558  0.3518 -0.4506  0.4440
 2375SOL    HW218585   2.989   4.546   5.604  0.4146  0.0095  0.3803
 2376SOL     OW18586   3.851   3.416   1.746 -0.2406  0.3175 -0.2624
 2376SOL    HW118587   3.935   3.458   1.763  0.4019 -2.2462  2.9477
 2376SOL    HW218588   3.826   3.455   1.662 -1.2715 -0.9165 -0.5394
 2377SOL     OW18589   1.421   2.187   4.807  0.0282  0.0148 -0.2069
 2377SOL    HW118590   1.412   2.195   4.712 -2.9314 -1.4362 -0.0492
 2377SOL    HW218591   1.505   2.143   4.808  1.2867  2.4618  0.4907
 2378SOL     OW18592   2.218   0.717   7.061 -0.0979 -0.1571 -0.2387
 2378SOL    HW118593   2.283   0.781   7.087 -0.4862  0.6180 -1.2076
 2378SOL    HW218594   2.149   0.741   7.123 -0.2696  1.8353 -1.2193
 2379SOL     OW18595   0.316   2.664   2.024  0.3254  0.3873 -0.1458
 2379SOL    HW118596   0.317   2.692   1.933 -2.4357  0.1382 -0.2629
 2379SOL    HW218597   0.250   2.595   2.028  0.2998  0.4886  1.2553
 2380SOL     OW18598   4.016   2.317   5.835 -0.1254 -0.0186 -0.2536
 2380SOL    HW118599   4.065   2.389   5.795 -1.1018  1.1901  0.7474
 2380SOL    HW218600   4.013   2.365   5.917 -0.3836 -2.5016  1.1839
 2381SOL     OW18601   0.527   1.686  11.575 -0.1457 -0.5684 -0.0725
 2381SOL    HW118602   0.577   1.740  11.636 -2.2706 -0.0997  1.2688
 2381SOL    HW218603   0.564   1.602  11.602 -0.7804  0.5316  4.2446
 2382SOL     OW18604   3.243   2.320   4.866 -0.1000 -0.5988  0.4989
 2382SOL    HW118605   3.151   2.310   4.890 -0.0971  1.0693  1.1870
 2382SOL    HW218606   3.283   2.310   4.952 -1.6156  0.3029  1.3106
 2383SOL     OW18607   4.346   2.532   2.666  0.7245  0.2747  0.4011
 2383SOL    HW118608   4.419   2.483   2.627 -1.4694 -1.8752 -1.0191
 2383SOL    HW218609   4.305   2.454   2.703 -0.1790  0.4186 -0.2813
 2384SOL     OW18610   2.888   3.631   5.591  0.6118 -0.0497 -0.8018
 2384SOL    HW118611   2.803   3.637   5.548 -0.2988  0.1721  1.0329
 2384SOL    HW218612   2.936   3.576   5.529 -1.6425 -0.5174 -2.1423
 2385SOL     OW18613   4.618   4.316   1.093 -0.0855  0.0963  0.0999
 2385SOL    HW118614   4.606   4.334   0.999  2.8360 -2.6542 -0.8234
 2385SOL    HW218615   4.656   4.230   1.076  1.7747  0.2256  3.7187
 2386SOL     OW18616   4.478   2.536   7.287 -0.2574 -0.1608 -0.0852
 2386SOL    HW118617   4.475   2.617   7.236  1.4034  0.2376  0.4435
 2386SOL    HW218618   4.533   2.487   7.226  0.7521 -0.0747  0.7521
 2387SOL     OW18619   0.195   2.557   3.898  0.0833 -0.1313  0.7409
 2387SOL    HW118620   0.163   2.640   3.863 -1.6449 -1.9355 -1.8808
 2387SOL    HW218621   0.271   2.539   3.844  0.3488 -0.9890  1.3902
 2388SOL     OW18622   2.884   0.729   0.481 -0.0019  0.1031  0.0351
 2388SOL    HW118623   2.942   0.711   0.407 -1.0954 -1.5691 -0.4135
 2388SOL    HW218624   2.799   0.748   0.441 -0.8685  1.2140  2.4423
 2389SOL     OW18625   0.154   2.469   4.768  0.3288  0.3981  0.0335
 2389SOL    HW118626   0.090   2.415   4.723 -1.1103  0.2725  2.2077
 2389SOL    HW218627   0.178   2.530   4.698 -1.9553  1.3584  0.0928
 2390SOL     OW18628   3.881   3.239  17.414  0.1880  0.2408 -0.1910
 2390SOL    HW118629   3.851   3.226  17.504  1.9299  0.6357  0.4404
 2390SOL    HW218630   3.856   3.159  17.368 -0.9569  0.7747 -0.5161
 2391SOL     OW18631   3.082   3.098   7.958  0.1666 -0.0399 -0.0758
 2391SOL    HW118632   3.135   3.071   7.883  0.1921  0.5212 -0.2558
 2391SOL    HW218633   3.003   3.046   7.944 -0.9247  0.8170  2.7714
 2392SOL     OW18634   3.335   0.183   2.694  0.4142  0.0196 -0.2297
 2392SOL    HW118635   3.294   0.255   2.646 -0.4100 -0.4603 -0.2414
 2392SOL    HW218636   3.428   0.181   2.670  0.5491  1.8761  0.1688
 2393SOL     OW18637   3.403   4.144   3.751 -0.5607 -0.0015 -0.0123
 2393SOL    HW118638   3.348   4.212   3.711 -2.4419 -1.4841 -0.0011
 2393SOL    HW218639   3.437   4.183   3.831 -0.1447  0.3054 -0.3398
 2394SOL     OW18640   4.235   0.734   7.488  0.2560  0.3782 -0.0382
 2394SOL    HW118641   4.305   0.690   7.439 -0.1307 -0.4019  0.1030
 2394SOL    HW218642   4.181   0.657   7.503  1.4390 -0.1945  1.2979
 2395SOL     OW18643   4.036   4.442   9.590 -0.0180  0.4858 -0.9077
 2395SOL    HW118644   4.010   4.534   9.589  2.5754  1.2400  0.7815
 2395SOL    HW218645   3.987   4.409   9.665 -0.7167  0.7942 -1.2280
 2396SOL     OW18646   3.797   3.900   0.540  0.0075 -0.1723  0.0537
 2396SOL    HW118647   3.868   3.838   0.561 -1.0492 -1.1919  0.6014
 2396SOL    HW218648   3.729   3.868   0.600  1.4291  0.7628  2.1617
 2397SOL     OW18649   3.752   0.340   8.876  0.0023 -0.5397 -0.5152
 2397SOL    HW118650   3.799   0.423   8.870 -0.5611 -0.0862  1.2973
 2397SOL    HW218651   3.719   0.324   8.787  0.6225 -0.5489 -0.7430
 2398SOL     OW18652   4.411   2.930   5.413  0.7913 -0.0512  0.2892
 2398SOL    HW118653   4.342   2.958   5.353  0.3845  1.7632  1.5891
 2398SOL    HW218654   4.471   2.928   5.338  1.7239 -0.5721  1.0512
 2399SOL     OW18655   4.718   1.001   4.275 -0.1753 -0.2446 -0.4124
 2399SOL    HW118656   4.706   1.078   4.219 -2.1017  0.6092  1.1820
 2399SOL    HW218657   4.666   0.936   4.227  2.7960 -0.5695 -3.1927
 2400SOL     OW18658   3.196   3.415   9.085 -0.1814  0.5845  0.3555
 2400SOL    HW118659   3.212   3.506   9.061 -0.9579  1.6881  4.0154
 2400SOL    HW218660   3.147   3.421   9.168 -1.2437 -1.9041 -0.0768
 2401SOL     OW18661   0.964   1.617   5.866  0.3638 -0.4461  0.2206
 2401SOL    HW118662   1.027   1.690   5.864 -0.5893  0.3896  0.9813
 2401SOL    HW218663   0.940   1.615   5.774 -0.0128 -0.1763  0.3145
 2402SOL     OW18664   0.069   4.527   8.299 -0.2850 -0.6912  0.8575
 2402SOL    HW118665   0.060   4.618   8.329  0.8299 -0.5679  0.8262
 2402SOL    HW218666   0.161   4.507   8.314  0.6339  0.2772 -3.2684
 2403SOL     OW18667   0.839   0.534  14.631 -0.0741 -0.3678 -0.3159
 2403SOL    HW118668   0.910   0.597  14.617  0.7348 -1.5983 -1.8378
 2403SOL    HW218669   0.893   0.458  14.654 -0.0406 -0.2809 -0.1071
 2404SOL     OW18670   1.613   3.496  12.479 -0.1686 -0.2491 -0.0034
 2404SOL    HW118671   1.697   3.542  12.491 -1.0459  1.5652 -0.8373
 2404SOL    HW218672   1.652   3.413  12.453 -3.2983 -1.2956 -1.2280
 2405SOL     OW18673   2.624   0.150  13.362 -0.2088 -0.1078  0.3382
 2405SOL    HW118674   2.530   0.153  13.345 -0.2113  0.9931  0.5549
 2405SOL    HW218675   2.651   0.124  13.274  4.1762 -0.0377  1.6787
 2406SOL     OW18676   2.231   3.318  12.806 -0.3852  0.2589 -0.3506
 2406SOL    HW118677   2.290   3.265  12.859 -1.5422 -1.4800 -0.8010
 2406SOL    HW218678   2.148   3.331  12.851  0.2499 -0.7018  1.0977
 2407SOL     OW18679   4.470   3.284   3.162 -0.4179 -0.0588 -0.6969
 2407SOL    HW118680   4.477   3.308   3.069  1.0497  3.5459  0.3502
 2407SOL    HW218681   4.418   3.359   3.191 -3.0005 -1.9416 -0.3647
 2408SOL     OW18682   4.132   1.833   5.754 -0.1942  0.8785  0.0450
 2408SOL    HW118683   4.177   1.801   5.676 -1.4570  2.8558 -1.4955
 2408SOL    HW218684   4.139   1.757   5.812 -0.1143  0.5454 -0.4002
 2409SOL     OW18685   1.365   0.716   2.554 -0.6603  0.2827  0.8961
 2409SOL    HW118686   1.421   0.740   2.481  0.1823  0.0264  1.4558
 2409SOL    HW218687   1.295   0.665   2.513 -0.0980 -1.5932  2.2425
 2410SOL     OW18688   2.570   2.754   2.115  0.0124  0.0648  0.2513
 2410SOL    HW118689   2.617   2.681   2.075 -0.0137  1.2595 -1.9958
 2410SOL    HW218690   2.536   2.796   2.036  0.8871  1.2994  0.5377
 2411SOL     OW18691   4.546   4.461  10.257  0.0604  0.5702 -0.4867
 2411SOL    HW118692   4.492   4.397  10.210 -0.2870  1.1338 -0.8569
 2411SOL    HW218693   4.588   4.406  10.323 -0.4992  0.7198 -0.0032
 2412SOL     OW18694   3.033   0.158   7.710 -0.1522  0.0289  0.1849
 2412SOL    HW118695   3.033   0.161   7.805  1.0921 -1.4634  0.2421
 2412SOL    HW218696   2.997   0.070   7.696  0.3106 -0.3799  1.6107
 2413SOL     OW18697   0.435   0.619   2.586 -0.3410  0.4479 -0.3347
 2413SOL    HW118698   0.363   0.615   2.523 -0.1669 -0.7068 -0.4620
 2413SOL    HW218699   0.495   0.553   2.551  0.5540  2.1111 -1.9531
 2414SOL     OW18700   1.771   0.076  11.206  0.5977  0.1816 -0.7575
 2414SOL    HW118701   1.744   0.144  11.267  2.1934  0.5365 -0.4469
 2414SOL    HW218702   1.694   0.067  11.151 -0.4711  1.9039  0.4804
 2415SOL     OW18703   3.103   3.293   4.229 -0.1279  0.3087  0.5317
 2415SOL    HW118704   3.197   3.277   4.224 -0.1569  0.0971  0.6738
 2415SOL    HW218705   3.091   3.263   4.319 -1.2920 -0.0636  0.2509
 2416SOL     OW18706   2.519   3.142   2.099  0.1848 -0.5059  0.2693
 2416SOL    HW118707   2.575   3.207   2.057  1.1592 -0.2346  1.9829
 2416SOL    HW218708   2.498   3.076   2.033 -0.6015  0.6770 -0.6702
 2417SOL     OW18709   0.932   1.240  14.629 -0.2410  0.2392  0.6446
 2417SOL    HW118710   0.929   1.335  14.632  0.0910  0.2273  1.3809
 2417SOL    HW218711   1.024   1.228  14.608 -0.1192  1.4244  0.5319
 2418SOL     OW18712   1.908   2.025   0.955  0.2274 -0.5039 -0.4239
 2418SOL    HW118713   1.919   1.936   0.988  1.8513  0.4664  1.6415
 2418SOL    HW218714   1.943   2.075   1.028 -0.4693 -0.5968 -0.0294
 2419SOL     OW18715   3.164   3.502   3.635  0.7095 -0.3738 -0.1968
 2419SOL    HW118716   3.143   3.427   3.690 -0.1497  0.8649  1.1661
 2419SOL    HW218717   3.099   3.510   3.565  2.4068  2.7116 -1.4393
 2420SOL     OW18718   0.172   0.649   2.798 -0.5197 -0.0672  0.3020
 2420SOL    HW118719   0.185   0.692   2.713  1.8541  1.0664  1.2606
 2420SOL    HW218720   0.172   0.720   2.862  0.5308  1.0964 -1.0007
 2421SOL     OW18721   4.135   1.710   4.294  0.3153 -0.3500 -0.5769
 2421SOL    HW118722   4.122   1.769   4.219  1.1122 -0.1274 -0.5457
 2421SOL    HW218723   4.229   1.720   4.309  0.4068 -2.6993  0.3196
 2422SOL     OW18724   1.117   2.231   2.861  0.4734 -0.2019 -0.1013
 2422SOL    HW118725   1.205   2.261   2.882 -0.2661  1.1427  1.1567
 2422SOL    HW218726   1.072   2.303   2.907  1.0414  0.6545 -0.8861
 2423SOL     OW18727   3.243   0.304   4.840 -0.2838 -0.2892 -0.1351
 2423SOL    HW118728   3.338   0.300   4.830 -0.2643  0.1092 -0.0879
 2423SOL    HW218729   3.222   0.327   4.749 -1.0898 -1.7814 -0.3380
 2424SOL     OW18730   3.223   0.239   1.623 -0.3602 -0.0721 -0.3615
 2424SOL    HW118731   3.261   0.265   1.539  1.1893  1.0673  0.6866
 2424SOL    HW218732   3.144   0.193   1.593 -0.5501 -1.0972  1.6496
 2425SOL     OW18733   0.908   3.485  17.178  0.7018 -0.8358 -0.1611
 2425SOL    HW118734   0.941   3.414  17.123  1.1719 -0.4221 -0.4056
 2425SOL    HW218735   0.934   3.559  17.124  0.9941  0.5596  1.8905
 2426SOL     OW18736   4.680   3.145   6.115 -0.2904 -0.2129 -0.0312
 2426SOL    HW118737   4.681   3.194   6.033 -0.0481 -0.5235 -0.2164
 2426SOL    HW218738   4.699   3.216   6.176  0.8949 -2.8243  2.6364
 2427SOL     OW18739   3.466   3.049   0.423  0.1539 -0.8648  0.1133
 2427SOL    HW118740   3.554   3.075   0.448 -0.4352 -0.4150  1.7079
 2427SOL    HW218741   3.453   2.971   0.478  0.4462 -1.0169 -0.0328
 2428SOL     OW18742   4.364   3.884   2.298 -0.2702 -0.3763  0.4743
 2428SOL    HW118743   4.399   3.798   2.275  1.8803  0.2032  1.5829
 2428SOL    HW218744   4.384   3.941   2.223 -0.2343 -1.2229 -0.1643
 2429SOL     OW18745   4.517   4.046   2.087  0.0514 -0.1887 -0.7485
 2429SOL    HW118746   4.587   4.059   2.023 -0.4275  0.4742 -1.1287
 2429SOL    HW218747   4.452   4.014   2.025 -1.1496 -0.6839  0.7697
 2430SOL     OW18748   1.875   0.847   6.800  0.0545 -0.0667 -0.0739
 2430SOL    HW118749   1.886   0.844   6.896  2.9904  0.9575 -0.3571
 2430SOL    HW218750   1.962   0.829   6.766 -0.1375  0.2317 -0.7090
 2431SOL     OW18751   0.231   2.094  13.123 -0.0760 -0.1062 -0.4503
 2431SOL    HW118752   0.241   2.184  13.155  5.4478 -0.0590 -2.2881
 2431SOL    HW218753   0.251   2.113  13.031 -0.6788 -1.9268 -0.9546
 2432SOL     OW18754   2.663   4.412  12.173 -0.3206  0.4672 -0.4622
 2432SOL    HW118755   2.612   4.386  12.250 -2.5664 -0.6077 -2.2941
 2432SOL    HW218756   2.712   4.331  12.158  0.9977  1.0124  0.9471
 2433SOL     OW18757   0.684   1.554   6.389  0.0044  0.7071 -0.2055
 2433SOL    HW118758   0.622   1.624   6.364 -2.3385 -0.7741  1.4133
 2433SOL    HW218759   0.720   1.572   6.475 -0.0586 -0.0670 -0.0211
 2434SOL     OW18760   1.457   0.969  10.027  0.3157 -0.3636  0.3395
 2434SOL    HW118761   1.454   0.937  10.117  0.9496  0.9257  0.8225
 2434SOL    HW218762   1.402   0.907   9.981 -1.0611  0.5985  0.6948
 2435SOL     OW18763   0.268   0.564   2.402  0.5167  0.1009 -0.2660
 2435SOL    HW118764   0.209   0.499   2.442 -0.1866  1.1608  0.4357
 2435SOL    HW218765   0.259   0.540   2.310 -0.1217  0.1216 -0.2092
 2436SOL     OW18766   0.881   3.509   6.563  0.1277  0.0938  0.5593
 2436SOL    HW118767   0.973   3.534   6.550  0.0395  0.4461  0.5986
 2436SOL    HW218768   0.877   3.478   6.654 -2.0626  1.4990  0.9453
 2437SOL     OW18769   3.708   2.869   8.008  0.4124  0.0306 -0.1503
 2437SOL    HW118770   3.758   2.794   8.040  1.1913  0.4540 -0.3824
 2437SOL    HW218771   3.764   2.947   8.008  1.0761 -0.4481  2.2811
 2438SOL     OW18772   2.263   3.131  17.668  0.0260  0.5437  0.3338
 2438SOL    HW118773   2.214   3.211  17.688 -1.9998 -0.3214 -1.1804
 2438SOL    HW218774   2.223   3.100  17.587  0.9362 -1.1565  0.5379
 2439SOL     OW18775   1.909   0.544   6.738  0.1532  0.4407  0.2053
 2439SOL    HW118776   1.957   0.534   6.820  0.2763 -1.6671 -0.1151
 2439SOL    HW218777   1.936   0.627   6.699 -3.3894  1.0387 -0.9710
 2440SOL     OW18778   4.324   4.569   6.552 -0.2712 -0.2326 -0.2419
 2440SOL    HW118779   4.399   4.521   6.518 -0.9112 -2.7950  1.8702
 2440SOL    HW218780   4.288   4.491   6.595  0.3801 -1.4895 -1.9698
 2441SOL     OW18781   0.649   2.492   7.586  0.8020  0.6918 -0.7692
 2441SOL    HW118782   0.586   2.531   7.647 -0.0268 -1.2588 -0.3865
 2441SOL    HW218783   0.667   2.416   7.642  1.7968  1.8164  0.4538
 2442SOL     OW18784   2.051   3.677   0.813  0.1327 -0.2572  0.7317
 2442SOL    HW118785   2.043   3.687   0.718  0.9309 -2.0208  0.4707
 2442SOL    HW218786   1.963   3.654   0.843 -0.0531 -1.6047 -0.8754
 2443SOL     OW18787   0.971   1.093   3.747 -0.1287 -0.3575 -0.4410
 2443SOL    HW118788   1.044   1.058   3.798 -0.2041  1.0941  0.6518
 2443SOL    HW218789   0.908   1.120   3.814 -0.9354 -0.7505 -1.0452
 2444SOL     OW18790   2.003   1.443   7.652 -0.0679 -0.3745 -0.0960
 2444SOL    HW118791   2.059   1.369   7.676 -0.0748 -0.8953 -1.7295
 2444SOL    HW218792   1.927   1.398   7.617  1.2321 -2.1438 -0.6329
 2445SOL     OW18793   4.661   1.085  13.208 -0.4941 -0.6836 -0.4758
 2445SOL    HW118794   4.575   1.116  13.182  0.7134  1.1666 -2.2553
 2445SOL    HW218795   4.692   1.047  13.126 -0.7783 -0.2126 -0.8005
 2446SOL     OW18796   3.562   3.925  10.205 -0.3525  0.2327  0.0378
 2446SOL    HW118797   3.585   3.870  10.280  0.0795  0.8430  0.3480
 2446SOL    HW218798   3.531   3.865  10.137  0.0858 -0.8517  0.7926
 2447SOL     OW18799   3.299   3.935   1.599  0.5084 -0.1949  0.2742
 2447SOL    HW118800   3.345   3.912   1.518 -0.2135 -0.3171 -0.1124
 2447SOL    HW218801   3.303   4.030   1.595  1.1433 -0.1812  1.3434
 2448SOL     OW18802   1.362   2.260   7.188 -0.8125 -0.1209  0.0932
 2448SOL    HW118803   1.290   2.323   7.179  0.5068  1.8726  3.5087
 2448SOL    HW218804   1.334   2.225   7.272 -0.7370  1.4636  0.7846
 2449SOL     OW18805   2.339   1.779  17.058  0.1272 -0.1298  0.1430
 2449SOL    HW118806   2.332   1.870  17.088 -2.6301  0.1255 -1.2640
 2449SOL    HW218807   2.374   1.735  17.135  1.9128  0.2367 -0.4610
 2450SOL     OW18808   3.265   2.477   1.243  0.0078 -0.0117  0.2887
 2450SOL    HW118809   3.232   2.396   1.281 -1.7696  0.4717 -0.2341
 2450SOL    HW218810   3.342   2.494   1.298  0.6404 -0.2742 -0.5039
 2451SOL     OW18811   4.649   3.413  14.864 -0.3715 -0.0673  0.1538
 2451SOL    HW118812   0.015   3.418  14.900 -0.6598 -0.1192  0.8887
 2451SOL    HW218813   4.603   3.447  14.941  2.2163  1.3460  1.0428
 2452SOL     OW18814   4.395   3.449   3.575  0.4965 -0.2735  0.2142
 2452SOL    HW118815   4.330   3.432   3.643 -1.4260  1.6085 -1.1549
 2452SOL    HW218816   4.343   3.455   3.495 -1.7957  0.7246  1.8043
 2453SOL     OW18817   1.281   1.009  14.113 -0.6120  0.9322  0.1060
 2453SOL    HW118818   1.372   1.038  14.106 -0.5916  0.9282  0.3496
 2453SOL    HW218819   1.241   1.059  14.041 -3.0330 -0.6508  0.3457
 2454SOL     OW18820   4.188   4.661   7.253  0.2748 -0.6455 -0.3904
 2454SOL    HW118821   4.195   4.624   7.341 -0.6308  1.9250  0.7656
 2454SOL    HW218822   4.252   4.604   7.210 -1.0470 -0.0109 -3.1905
 2455SOL     OW18823   0.068   3.961   0.655  0.4836 -0.1822 -0.0760
 2455SOL    HW118824   0.082   4.009   0.574 -0.2941  2.9370  1.6559
 2455SOL    HW218825   0.113   4.012   0.722  1.4223  0.4034 -1.1613
 2456SOL     OW18826   1.379   3.524   3.726  0.3994  0.2365  0.0957
 2456SOL    HW118827   1.352   3.461   3.659  0.2057  1.1263 -0.6689
 2456SOL    HW218828   1.375   3.458   3.795  2.5231 -1.1755 -1.1053
 2457SOL     OW18829   1.815   0.697   3.676 -0.2424 -0.3367  0.1034
 2457SOL    HW118830   1.790   0.605   3.666 -2.6308  0.3131  0.1033
 2457SOL    HW218831   1.756   0.749   3.622  0.1001  1.4682  1.4685
 2458SOL     OW18832   2.864   0.052  10.976 -0.2543 -0.2780  0.2045
 2458SOL    HW118833   2.839   0.123  10.918 -1.4710 -0.1068  0.9392
 2458SOL    HW218834   2.887   0.103  11.054 -0.8268 -0.4409  0.4817
 2459SOL     OW18835   2.724   2.431   1.540 -0.4344  0.2635 -0.8179
 2459SOL    HW118836   2.813   2.439   1.508  0.0408 -1.0584  0.1836
 2459SOL    HW218837   2.729   2.340   1.568 -0.4221 -0.2634 -2.5395
 2460SOL     OW18838   1.826   1.555   3.723 -0.4061  0.2753  0.5625
 2460SOL    HW118839   1.888   1.552   3.795  0.5366  0.8867 -0.2205
 2460SOL    HW218840   1.853   1.466   3.701 -0.6491  0.3285  0.0278
 2461SOL     OW18841   2.018   4.015   3.811 -0.0320  0.1248  0.2301
 2461SOL    HW118842   1.932   3.981   3.833  0.6037 -1.3154  0.5155
 2461SOL    HW218843   2.029   4.072   3.887 -0.2964  2.3616 -1.4167
 2462SOL     OW18844   2.868   1.447   3.367 -0.3224 -0.1994 -0.0552
 2462SOL    HW118845   2.835   1.535   3.383  1.1866  0.3298  0.0949
 2462SOL    HW218846   2.831   1.427   3.281  0.4247 -1.0136 -0.1828
 2463SOL     OW18847   1.267   3.203   9.867 -0.0524  0.1170 -0.2657
 2463SOL    HW118848   1.319   3.169   9.794 -2.0560  2.2244 -2.6978
 2463SOL    HW218849   1.252   3.295   9.844 -1.3064 -0.2295 -0.8580
 2464SOL     OW18850   0.778   0.774  11.016 -0.9626 -0.0027 -0.1557
 2464SOL    HW118851   0.829   0.693  11.007 -0.6785  0.3669 -1.7807
 2464SOL    HW218852   0.803   0.813  11.100  0.8354 -0.8101 -0.3101
 2465SOL     OW18853   4.163   1.736   6.610  0.9590  0.1792  0.0444
 2465SOL    HW118854   4.068   1.725   6.610  1.0893 -1.0468  0.3997
 2465SOL    HW218855   4.168   1.799   6.682  2.0530  0.4626 -0.2790
 2466SOL     OW18856   4.308   1.062  12.841  0.0812 -0.0409  0.3406
 2466SOL    HW118857   4.226   1.094  12.877 -0.2139  1.3339 -1.5380
 2466SOL    HW218858   4.323   1.134  12.779  0.2584  0.5549  1.0747
 2467SOL     OW18859   1.657   4.689   3.498  0.4937 -0.1926 -0.1856
 2467SOL    HW118860   1.644   4.633   3.574  0.7036  0.9932  0.7221
 2467SOL    HW218861   1.696   4.628   3.435  0.0532 -1.2199  0.5635
 2468SOL     OW18862   1.726   1.996   3.437 -0.4155  0.1320  0.2257
 2468SOL    HW118863   1.766   2.013   3.522  0.7468  3.0951 -0.9364
 2468SOL    HW218864   1.661   1.930   3.461 -2.5199  1.7667 -0.9356
 2469SOL     OW18865   0.128   2.013   4.687 -0.3414 -0.6025  0.1468
 2469SOL    HW118866   0.221   2.029   4.707 -0.5037 -0.0655  0.4649
 2469SOL    HW218867   0.091   2.076   4.749  0.3303  1.4991 -1.5868
 2470SOL     OW18868   1.160   3.549   6.037 -0.5104  0.7955 -0.8241
 2470SOL    HW118869   1.200   3.634   6.018 -2.0779  1.3877 -1.5457
 2470SOL    HW218870   1.129   3.548   6.127  1.9942  0.3033  0.0169
 2471SOL     OW18871   4.577   0.168   8.427  0.3330 -0.5278  0.5254
 2471SOL    HW118872   4.646   0.103   8.433  0.3101 -0.6335 -0.3834
 2471SOL    HW218873   4.512   0.147   8.494  1.7205  0.3985  2.1845
 2472SOL     OW18874   0.178   0.068   7.176  0.3077  0.0534 -0.1318
 2472SOL    HW118875   0.204   0.050   7.267  2.3036  4.0809  0.1309
 2472SOL    HW218876   0.172   0.164   7.178  2.4735  0.2539 -2.5948
 2473SOL     OW18877   3.581   3.371   3.005  0.3529  0.3551  0.1605
 2473SOL    HW118878   3.583   3.437   2.936  0.8500  2.6227  2.3191
 2473SOL    HW218879   3.561   3.290   2.959 -0.4385  1.2928 -1.1529
 2474SOL     OW18880   2.550   2.880  12.117  0.0433  0.3621 -0.1622
 2474SOL    HW118881   2.574   2.788  12.126 -0.4429  0.2276 -0.2213
 2474SOL    HW218882   2.610   2.904  12.047  0.1225 -2.7103 -1.1039
 2475SOL     OW18883   0.832   1.978   4.184  0.7260 -0.0677  0.2564
 2475SOL    HW118884   0.767   1.967   4.253  2.7749 -1.5871  1.9213
 2475SOL    HW218885   0.887   2.049   4.217  0.3099 -0.2977  1.4293
 2476SOL     OW18886   3.980   0.361  15.776 -0.6526 -0.0215 -0.0830
 2476SOL    HW118887   4.069   0.395  15.772 -1.0127  0.9409 -0.0093
 2476SOL    HW218888   3.999   0.292  15.839  0.5163  0.8772  0.5432
 2477SOL     OW18889   2.826   1.518   6.435 -0.1121 -0.1467  0.4466
 2477SOL    HW118890   2.827   1.515   6.530 -0.2958  3.2008  0.5305
 2477SOL    HW218891   2.793   1.431   6.410  0.3287  0.0860 -0.9326
 2478SOL     OW18892   1.441   2.812  16.976  0.2438  0.1810  0.1441
 2478SOL    HW118893   1.508   2.753  17.012 -2.9492 -3.1373  0.7091
 2478SOL    HW218894   1.373   2.753  16.944  0.1549  1.3850 -1.8345
 2479SOL     OW18895   1.117   1.316  11.085 -0.0021 -0.1074 -0.1890
 2479SOL    HW118896   1.037   1.344  11.128  0.2310  2.0727 -1.2188
 2479SOL    HW218897   1.163   1.399  11.081  0.6738 -0.5148 -0.8689
 2480SOL     OW18898   2.489   2.293   1.397  0.4144  0.7981  0.0136
 2480SOL    HW118899   2.555   2.362   1.408  2.8416 -1.2637 -1.6871
 2480SOL    HW218900   2.522   2.240   1.324 -1.1294 -0.9429  0.5694
 2481SOL     OW18901   0.825   1.698   2.744 -0.5517 -0.0026 -0.2802
 2481SOL    HW118902   0.802   1.605   2.737 -0.0111 -0.0520 -1.3560
 2481SOL    HW218903   0.844   1.719   2.836  0.5586 -3.9069  0.4094
 2482SOL     OW18904   4.414   1.460   7.341 -0.4695 -0.5677  0.1518
 2482SOL    HW118905   4.325   1.483   7.369 -1.7442 -0.7686 -3.7497
 2482SOL    HW218906   4.440   1.541   7.299  0.6651 -0.3180  1.3591
 2483SOL     OW18907   3.036   0.169  13.059 -0.2925 -0.6734  0.1502
 2483SOL    HW118908   2.996   0.223  12.991 -0.2725 -0.0569  0.6363
 2483SOL    HW218909   3.126   0.154  13.029 -0.2072 -1.2486  0.6902
 2484SOL     OW18910   1.649   1.752  15.334 -0.9125 -0.0910  0.4590
 2484SOL    HW118911   1.744   1.755  15.345 -0.9004 -1.4310  0.7007
 2484SOL    HW218912   1.647   1.717  15.245 -0.4999 -0.0319  0.4269
 2485SOL     OW18913   2.032   3.645  17.347 -0.7907 -0.4932 -0.2461
 2485SOL    HW118914   2.084   3.569  17.320  1.1739  0.8268 -0.1932
 2485SOL    HW218915   2.092   3.674  17.416 -0.1444  0.4004 -1.1994
 2486SOL     OW18916   0.221   4.033   8.958 -0.3369 -0.2770  0.1499
 2486SOL    HW118917   0.226   4.084   8.877 -1.5626  1.1965  0.9793
 2486SOL    HW218918   0.276   4.084   9.018 -1.0678 -1.5026  1.8644
 2487SOL     OW18919   4.367   0.831  17.235 -0.2263  0.1590 -0.0291
 2487SOL    HW118920   4.459   0.826  17.260  0.2123 -1.3468 -1.9263
 2487SOL    HW218921   4.366   0.902  17.170  0.7073  1.2670  1.1638
 2488SOL     OW18922   3.147   1.391   8.151 -0.1007  0.3957 -0.0911
 2488SOL    HW118923   3.202   1.468   8.159  0.7701  0.0460 -2.7626
 2488SOL    HW218924   3.137   1.390   8.056 -1.6542 -1.3495  0.0847
 2489SOL     OW18925   0.284   3.598   0.227  0.3850 -0.3230  0.1935
 2489SOL    HW118926   0.252   3.523   0.176  1.5282 -1.0273  0.5125
 2489SOL    HW218927   0.315   3.552   0.305  3.2749 -0.9017 -1.3031
 2490SOL     OW18928   4.084   0.376   0.669  0.0292  0.4996 -0.4117
 2490SOL    HW118929   4.116   0.463   0.692  0.7617  0.2159 -0.3533
 2490SOL    HW218930   3.999   0.384   0.713  0.6614 -2.8656  1.4595
 2491SOL     OW18931   3.668   1.473   1.637  0.0148  0.2117 -0.0915
 2491SOL    HW118932   3.659   1.485   1.543 -0.1948 -0.3072 -0.1414
 2491SOL    HW218933   3.763   1.478   1.645  0.1443  0.0201 -1.4859
 2492SOL     OW18934   1.919   1.400   6.847  0.6123 -0.3443 -0.3675
 2492SOL    HW118935   1.840   1.374   6.896  0.3502 -1.0191 -1.1385
 2492SOL    HW218936   1.913   1.327   6.785  3.5157 -1.0362  0.1620
 2493SOL     OW18937   2.206   3.443   0.115  0.8555 -0.5733 -0.1477
 2493SOL    HW118938   2.132   3.438   0.055 -0.4534 -1.4060  1.5481
 2493SOL    HW218939   2.227   3.536   0.111  0.8413 -0.6557 -2.1093
 2494SOL     OW18940   3.087   1.361   6.204  0.1292 -0.1197 -0.2822
 2494SOL    HW118941   3.004   1.378   6.160 -1.4432  1.2638  3.2745
 2494SOL    HW218942   3.080   1.270   6.235  0.7747 -0.0910 -0.0470
 2495SOL     OW18943   2.927   0.387   2.640 -0.2436 -0.1613  0.0922
 2495SOL    HW118944   2.879   0.318   2.686 -0.4135  0.1210  0.3419
 2495SOL    HW218945   2.905   0.459   2.699  0.8136 -1.1157  1.6676
 2496SOL     OW18946   0.890   4.005   9.356 -0.6750  0.0721  0.0238
 2496SOL    HW118947   0.812   4.042   9.397 -0.7299 -1.0864  0.9431
 2496SOL    HW218948   0.949   4.043   9.422  0.5556  0.2242 -1.1742
 2497SOL     OW18949   4.665   2.580   8.109  0.6884  0.4825  0.1252
 2497SOL    HW118950   4.575   2.580   8.078  0.6967 -0.1379  0.1097
 2497SOL    HW218951   4.712   2.618   8.034 -0.4954 -2.0791 -1.8715
 2498SOL     OW18952   3.898   4.003  11.304 -1.0584 -0.3150 -0.1217
 2498SOL    HW118953   3.978   4.042  11.341 -0.6063 -1.3165 -0.0628
 2498SOL    HW218954   3.863   3.957  11.380  0.4374  0.6901  1.1926
 2499SOL     OW18955   0.301   1.885   6.468  0.0473  0.1053 -0.3579
 2499SOL    HW118956   0.219   1.872   6.420 -0.5433 -0.6439  0.8671
 2499SOL    HW218957   0.294   1.972   6.507 -0.2691 -0.4729  0.8663
 2500SOL     OW18958   3.229   4.123   8.300 -0.1460 -0.2800 -0.1790
 2500SOL    HW118959   3.148   4.122   8.352  1.7219  1.2546  2.7244
 2500SOL    HW218960   3.290   4.123   8.374 -1.5951  2.1196  1.0171
 2501SOL     OW18961   4.091   4.413   4.655 -0.6410  0.2036  0.0101
 2501SOL    HW118962   4.158   4.470   4.618  0.7719 -0.9386  0.8252
 2501SOL    HW218963   4.020   4.433   4.594  0.0825  2.0150 -0.2335
 2502SOL     OW18964   3.965   2.796   4.934  0.0075 -0.1330 -0.3158
 2502SOL    HW118965   3.913   2.793   4.854 -0.4863  0.8331 -0.0341
 2502SOL    HW218966   3.890   2.777   4.991  0.3812  1.2697  0.6447
 2503SOL     OW18967   3.191   3.298   5.583  0.2117  0.1803  0.7245
 2503SOL    HW118968   3.099   3.299   5.555  0.1459  1.6670  0.9755
 2503SOL    HW218969   3.200   3.391   5.602  0.2424 -0.1871  2.4920
 2504SOL     OW18970   3.388   2.455  15.270 -0.0631  0.0993 -0.2124
 2504SOL    HW118971   3.362   2.371  15.307 -0.7864 -0.0644 -1.1152
 2504SOL    HW218972   3.306   2.481  15.229  0.6746  0.8647 -1.1921
 2505SOL     OW18973   2.137   4.486  11.443 -0.0280 -0.3428 -0.7374
 2505SOL    HW118974   2.052   4.442  11.437 -1.6412  2.4404  1.3751
 2505SOL    HW218975   2.197   4.435  11.389  1.1027  0.6800 -0.4554
 2506SOL     OW18976   0.923   2.616  14.174 -0.6317  0.1069  0.3320
 2506SOL    HW118977   0.837   2.635  14.135 -0.3416 -1.3904 -1.0610
 2506SOL    HW218978   0.949   2.539  14.123 -1.4750  0.2932 -0.3827
 2507SOL     OW18979   3.499   2.891   2.182 -0.3515 -0.2903 -0.3369
 2507SOL    HW118980   3.550   2.965   2.150 -0.6198  1.0881  2.4032
 2507SOL    HW218981   3.427   2.937   2.226 -1.6156 -1.0115 -1.6172
 2508SOL     OW18982   3.030   4.196   4.547  0.0252 -0.5255 -0.1373
 2508SOL    HW118983   3.002   4.163   4.462 -1.9180 -2.2845  1.1905
 2508SOL    HW218984   2.998   4.118   4.591 -0.3848 -0.1320  0.2512
 2509SOL     OW18985   3.136   2.658   1.446  0.2536  0.2815  0.3129
 2509SOL    HW118986   3.230   2.666   1.433  0.1209 -1.4292 -1.5979
 2509SOL    HW218987   3.122   2.714   1.523  1.6858 -0.3725  1.0626
 2510SOL     OW18988   1.552   0.671  12.599 -0.5506  0.2596  0.1683
 2510SOL    HW118989   1.510   0.661  12.514  0.7936 -2.3603 -0.1876
 2510SOL    HW218990   1.517   0.756  12.623 -0.3270  0.9510 -1.9787
 2511SOL     OW18991   0.067   0.002   2.740 -1.1853  0.0146 -0.3428
 2511SOL    HW118992   0.123   0.014   2.817  0.1115  1.2405 -1.4900
 2511SOL    HW218993   0.070   0.092   2.709  0.6909 -0.0238 -0.2761
 2512SOL     OW18994   0.095   2.352   2.335 -0.1748  0.2763  0.3714
 2512SOL    HW118995   0.075   2.265   2.370 -0.9384  0.3233  0.0638
 2512SOL    HW218996   0.170   2.332   2.281 -0.3813  1.6905 -0.4394
 2513SOL     OW18997   1.334   3.123   6.421  0.2694  0.3109  0.1063
 2513SOL    HW118998   1.353   3.030   6.434  0.9641  0.0310 -2.7032
 2513SOL    HW218999   1.334   3.127   6.325 -1.5982  2.2735  0.2009
 2514SOL     OW19000   4.192   1.395   2.462 -0.0392  0.2093  0.3960
 2514SOL    HW119001   4.135   1.363   2.393  0.9972 -0.3778 -0.1995
 2514SOL    HW219002   4.174   1.488   2.468  0.7393  0.2921  1.4545
 2515SOL     OW19003   4.487   1.977  14.945  0.9465 -0.5499 -0.6240
 2515SOL    HW119004   4.497   1.895  14.994  3.1721  1.2533  1.9590
 2515SOL    HW219005   4.527   2.039  15.007  1.0070  0.2230 -1.4486
 2516SOL     OW19006   1.678   0.402   6.705  0.1138 -0.0521 -0.1165
 2516SOL    HW119007   1.753   0.346   6.685 -0.0428  0.2917 -1.6116
 2516SOL    HW219008   1.727   0.473   6.746 -1.0575  0.3550  0.5558
 2517SOL     OW19009   2.942   0.581   0.724 -0.2355  0.3673  0.1391
 2517SOL    HW119010   2.994   0.616   0.796 -1.6435  3.5505 -0.4187
 2517SOL    HW219011   2.934   0.658   0.668  2.2496  1.0026  0.6838
 2518SOL     OW19012   2.807   3.613  12.515 -0.0096  0.2978  0.0419
 2518SOL    HW119013   2.808   3.518  12.526 -0.4211  0.5104  1.9837
 2518SOL    HW219014   2.715   3.638  12.530  0.2390 -0.2231  2.5394
 2519SOL     OW19015   1.644   0.675   6.918 -0.0643  0.1849  0.1641
 2519SOL    HW119016   1.633   0.688   6.824 -0.7647 -0.4513  0.1558
 2519SOL    HW219017   1.740   0.683   6.920 -0.0682 -0.1486  2.0721
 2520SOL     OW19018   1.996   4.335   9.812  0.0240  0.4477 -0.4209
 2520SOL    HW119019   2.085   4.367   9.826 -0.3691  1.5118 -0.3755
 2520SOL    HW219020   2.005   4.242   9.832  1.7263  0.5323 -0.8174
 2521SOL     OW19021   4.473   2.769   9.524 -0.2956 -0.3832 -0.0450
 2521SOL    HW119022   4.399   2.827   9.541 -0.6707 -0.6208 -0.8769
 2521SOL    HW219023   4.480   2.769   9.429 -0.4720  0.5790 -0.0619
 2522SOL     OW19024   1.497   1.419  13.416 -0.1119 -0.3541 -0.3549
 2522SOL    HW119025   1.487   1.470  13.335 -1.6999 -2.3421 -1.3981
 2522SOL    HW219026   1.526   1.484  13.480 -0.8582 -0.5228  0.1617
 2523SOL     OW19027   4.585   2.329   7.162 -0.0167 -0.6910  0.0292
 2523SOL    HW119028   4.641   2.261   7.198  0.2566  0.1495  1.1785
 2523SOL    HW219029   4.614   2.321   7.071  0.2576 -2.6164  0.2952
 2524SOL     OW19030   2.364   4.443   2.835  0.1643 -0.0405  0.6013
 2524SOL    HW119031   2.410   4.472   2.756  0.6955  1.0569  1.3256
 2524SOL    HW219032   2.375   4.524   2.883 -1.4814  0.2601  0.5016
 2525SOL     OW19033   2.492   2.054  15.075 -0.1412  0.1835  0.6178
 2525SOL    HW119034   2.562   2.017  15.129 -1.2742 -0.3913  1.7101
 2525SOL    HW219035   2.538   2.072  14.993 -1.1201 -2.1256 -0.4297
 2526SOL     OW19036   4.401   0.108   1.085 -0.8011  0.7014 -0.2113
 2526SOL    HW119037   4.359   0.162   1.018  1.1372  1.9438 -0.4328
 2526SOL    HW219038   4.404   0.030   1.030  1.5545  0.5300  0.1792
 2527SOL     OW19039   1.984   0.388   6.427  0.3675 -0.1121  0.2394
 2527SOL    HW119040   1.991   0.441   6.506 -1.9959 -0.7800  0.8896
 2527SOL    HW219041   1.891   0.389   6.404  0.6295  0.6522 -0.7895
 2528SOL     OW19042   2.358   0.234  13.320 -0.4882  0.3411 -0.2124
 2528SOL    HW119043   2.277   0.271  13.285 -0.7236 -1.1934 -1.2304
 2528SOL    HW219044   2.370   0.289  13.398 -2.2043  2.6355 -1.5688
 2529SOL     OW19045   1.138   3.444   2.836  0.3626  0.2512 -0.0171
 2529SOL    HW119046   1.101   3.532   2.838  0.9374  0.4977 -0.2448
 2529SOL    HW219047   1.209   3.464   2.775  0.2446  0.7165 -0.0072
 2530SOL     OW19048   0.013   3.275   7.733 -0.0275 -0.6505  0.4859
 2530SOL    HW119049   4.690   3.191   7.730  0.3136 -0.7721 -1.5357
 2530SOL    HW219050   0.046   3.285   7.644  1.5057  1.2949  1.2755
 2531SOL     OW19051   3.399   2.809   1.834  0.2237  0.2956  0.6639
 2531SOL    HW119052   3.486   2.849   1.841  1.1749 -2.1061  2.8740
 2531SOL    HW219053   3.413   2.731   1.781  2.2512 -0.4674  2.3101
 2532SOL     OW19054   2.662   4.715   2.107  0.0060 -0.3731  0.1023
 2532SOL    HW119055   2.709   0.075   2.096 -0.9690  0.0853 -0.6756
 2532SOL    HW219056   2.703   4.664   2.037  0.5903 -0.2510  0.3635
 2533SOL     OW19057   3.323   4.178   7.509 -0.3311 -0.0802 -0.2106
 2533SOL    HW119058   3.306   4.205   7.599 -1.0700  0.3639 -0.4827
 2533SOL    HW219059   3.319   4.083   7.515 -1.9874  0.1451  2.1926
 2534SOL     OW19060   3.994   4.281   0.197  0.3313 -0.4409 -0.2346
 2534SOL    HW119061   3.940   4.350   0.158 -0.2260  0.6802  2.5386
 2534SOL    HW219062   4.084   4.298   0.170  0.0998 -1.4800 -1.6771
 2535SOL     OW19063   0.142   1.337   8.421 -0.6962  0.5107  0.4032
 2535SOL    HW119064   0.194   1.257   8.413  1.1600  1.6784  1.0413
 2535SOL    HW219065   0.085   1.334   8.343 -1.8288 -1.1682  1.2909
 2536SOL     OW19066   3.119   1.425   7.898 -0.3336 -0.2691 -0.4028
 2536SOL    HW119067   3.114   1.521   7.891  0.7856 -0.1902 -0.0427
 2536SOL    HW219068   3.037   1.396   7.858 -0.3186  1.2412 -1.5558
 2537SOL     OW19069   0.649   1.377  17.299  0.1618  0.5136 -0.0768
 2537SOL    HW119070   0.652   1.393  17.205  0.0433  2.1987  0.2095
 2537SOL    HW219071   0.672   1.461  17.338 -0.0357  0.0506  1.0621
 2538SOL     OW19072   2.048   3.270   5.476  0.1698 -0.0996  0.3012
 2538SOL    HW119073   2.112   3.273   5.547 -0.6833  0.0878  1.0709
 2538SOL    HW219074   1.986   3.340   5.497 -2.3762 -1.3066 -3.2274
 2539SOL     OW19075   1.476   0.865  10.273 -0.1509  0.6912 -0.2607
 2539SOL    HW119076   1.438   0.778  10.267  1.3944 -0.0619  0.9160
 2539SOL    HW219077   1.495   0.850  10.366  1.6400  2.3544 -0.3319
 2540SOL     OW19078   0.186   1.615   3.143  0.3939 -0.1081 -0.3737
 2540SOL    HW119079   0.244   1.690   3.131 -1.0918  1.3587  1.7622
 2540SOL    HW219080   0.210   1.583   3.230 -0.5921 -0.4043 -0.2071
 2541SOL     OW19081   3.115   2.771  15.949  0.5263  0.2192  0.3631
 2541SOL    HW119082   3.100   2.865  15.939 -1.0929 -0.4243 -3.0410
 2541SOL    HW219083   3.063   2.761  16.029 -0.6129 -1.6796 -0.6307
 2542SOL     OW19084   2.223   1.370   4.596 -0.0499 -0.6727  0.2281
 2542SOL    HW119085   2.212   1.433   4.667  1.6595 -0.8521  0.6490
 2542SOL    HW219086   2.258   1.430   4.530  0.4561 -0.9470  0.2460
 2543SOL     OW19087   1.126   3.856   5.161  0.1259  0.2944  0.4365
 2543SOL    HW119088   1.063   3.839   5.091 -0.1011  3.0950 -0.0489
 2543SOL    HW219089   1.091   3.941   5.188 -1.0922 -0.2169  0.4662
 2544SOL     OW19090   1.126   2.692   3.688  0.3618  0.2682 -0.1158
 2544SOL    HW119091   1.051   2.686   3.748  0.9858 -0.4403  0.5870
 2544SOL    HW219092   1.145   2.786   3.692  1.7864 -0.1285  2.4718
 2545SOL     OW19093   4.693   3.069   1.221 -0.4930  0.0718  0.3534
 2545SOL    HW119094   0.044   3.082   1.161  0.2946  1.0431  1.5287
 2545SOL    HW219095   4.636   3.145   1.208 -0.6877  0.1220  1.4452
 2546SOL     OW19096   4.438   4.576  11.645  0.6750  0.3238 -0.3491
 2546SOL    HW119097   4.455   4.508  11.580 -1.1751 -0.7634  0.3016
 2546SOL    HW219098   4.421   4.651  11.587  3.2102  1.0787 -0.0920
 2547SOL     OW19099   4.670   1.339   8.208  0.1233  0.4712  0.2574
 2547SOL    HW119100   4.599   1.275   8.216 -0.1948  0.8071  0.1105
 2547SOL    HW219101   4.641   1.394   8.136 -1.3957  0.1727  0.6400
 2548SOL     OW19102   4.247   3.789  16.540 -0.3778 -0.4052 -0.3250
 2548SOL    HW119103   4.214   3.699  16.538  0.6605 -0.7908 -0.0726
 2548SOL    HW219104   4.197   3.832  16.472 -0.8580 -1.4394 -0.6306
 2549SOL     OW19105   1.721   0.295  15.158 -0.1496  0.6387  0.2479
 2549SOL    HW119106   1.762   0.378  15.183  0.2857  0.4695  0.1050
 2549SOL    HW219107   1.631   0.319  15.181  0.6411  0.4033  3.4575
 2550SOL     OW19108   1.233   4.438   4.173 -0.1414 -0.2843 -0.5508
 2550SOL    HW119109   1.310   4.389   4.200  1.5224  2.4942 -0.1851
 2550SOL    HW219110   1.188   4.433   4.257  1.5824 -2.5171  0.2280
 2551SOL     OW19111   2.492   1.838   1.528  0.0392  0.3344  0.3800
 2551SOL    HW119112   2.491   1.892   1.607  0.1158  1.1829 -0.1933
 2551SOL    HW219113   2.484   1.749   1.562  2.2276 -1.2000 -3.0825
 2552SOL     OW19114   4.505   2.405  15.475 -0.1761  0.4106 -0.5296
 2552SOL    HW119115   4.560   2.454  15.536  1.3410 -1.1370 -0.6541
 2552SOL    HW219116   4.416   2.431  15.497  0.4890  1.4841  0.8999
 2553SOL     OW19117   1.446   2.047  17.092  0.5340 -0.2170  0.1243
 2553SOL    HW119118   1.507   2.120  17.107 -1.2635  0.9356  1.8637
 2553SOL    HW219119   1.500   1.970  17.105  2.1252  0.7872 -0.5384
 2554SOL     OW19120   2.571   1.681   4.998 -0.2005  0.0617 -0.1547
 2554SOL    HW119121   2.627   1.607   5.021  1.6913  1.5384  0.0084
 2554SOL    HW219122   2.637   1.749   4.982 -0.2945  0.3466  0.6607
 2555SOL     OW19123   0.505   2.444   5.440 -0.1478 -0.0460 -0.1212
 2555SOL    HW119124   0.409   2.447   5.430  0.2305  1.2892 -3.4424
 2555SOL    HW219125   0.518   2.404   5.526 -4.8222  0.0256  0.6644
 2556SOL     OW19126   1.167   0.306   9.227  0.1053 -0.3143  0.2405
 2556SOL    HW119127   1.163   0.210   9.223 -0.0098 -0.2913 -0.3065
 2556SOL    HW219128   1.219   0.311   9.307 -0.8434 -1.0958  0.9101
 2557SOL     OW19129   4.443   1.501   4.110 -0.2916  0.0865 -0.0314
 2557SOL    HW119130   4.483   1.579   4.149  0.1489 -0.4113  0.5035
 2557SOL    HW219131   4.379   1.479   4.178 -1.8051  0.4166 -1.3625
 2558SOL     OW19132   3.858   2.760   6.915  0.1374 -0.2815  0.6895
 2558SOL    HW119133   3.821   2.832   6.864 -1.6467 -1.8610 -0.2417
 2558SOL    HW219134   3.784   2.700   6.903  0.0331  0.4538 -2.2482
 2559SOL     OW19135   1.435   2.050  11.435 -0.1043  0.0682  0.2486
 2559SOL    HW119136   1.444   2.119  11.369  0.5726  1.9963  2.3856
 2559SOL    HW219137   1.522   2.047  11.474  0.1493  0.8118 -0.2627
 2560SOL     OW19138   1.767   2.419   5.143  0.2081 -0.7841  0.5821
 2560SOL    HW119139   1.855   2.452   5.162 -0.2977  1.4920 -1.0526
 2560SOL    HW219140   1.716   2.479   5.198 -0.5753 -0.5209 -0.4328
 2561SOL     OW19141   3.985   2.887   7.772  0.0644 -0.4426 -0.2780
 2561SOL    HW119142   3.914   2.825   7.788 -1.8599  1.8399  0.0416
 2561SOL    HW219143   4.027   2.858   7.853 -1.2433 -0.6871  0.3226
 2562SOL     OW19144   1.986   4.312  15.359  0.1091  0.2161  0.2314
 2562SOL    HW119145   1.897   4.291  15.332  0.0313  1.3082 -0.3621
 2562SOL    HW219146   1.984   4.402  15.390 -1.0735  1.4292 -3.3305
 2563SOL     OW19147   0.953   3.862   1.280  0.5290 -0.1868 -0.0361
 2563SOL    HW119148   0.863   3.890   1.263  1.3272  1.8587 -0.9130
 2563SOL    HW219149   0.951   3.811   1.361  1.5643  0.7721  0.5970
 2564SOL     OW19150   2.307   3.264  14.356  0.4799 -0.1804 -0.3258
 2564SOL    HW119151   2.348   3.339  14.312  1.9643 -1.5075 -1.2273
 2564SOL    HW219152   2.217   3.271  14.325 -0.2607  1.3020  2.2370
 2565SOL     OW19153   2.346   0.293   3.352 -0.0166 -0.0208  0.9940
 2565SOL    HW119154   2.442   0.289   3.350 -0.0096  0.6802  0.2350
 2565SOL    HW219155   2.317   0.370   3.304 -1.0334 -0.8521  0.2586
 2566SOL     OW19156   3.769   0.892   5.004  0.5976 -0.2893  0.7658
 2566SOL    HW119157   3.742   0.828   5.069 -2.9179  0.1608 -0.2823
 2566SOL    HW219158   3.688   0.940   4.986  0.1922 -1.4894 -0.6697
 2567SOL     OW19159   2.769   2.306   4.316  0.6144 -0.0634 -0.2149
 2567SOL    HW119160   2.840   2.288   4.377  0.2718 -2.3710 -0.5045
 2567SOL    HW219161   2.790   2.397   4.293 -0.5136  0.3228  0.2491
 2568SOL     OW19162   1.411   0.823   0.756 -1.0203 -0.3047  0.1835
 2568SOL    HW119163   1.422   0.891   0.689 -0.9305  1.1083  1.6326
 2568SOL    HW219164   1.494   0.776   0.753 -0.3959  0.8832 -0.9995
 2569SOL     OW19165   2.388   0.414  10.376 -0.1599  0.6197  0.2978
 2569SOL    HW119166   2.463   0.357  10.362  0.6317  1.9063 -0.6405
 2569SOL    HW219167   2.344   0.373  10.451  0.2672  0.1497  0.2924
 2570SOL     OW19168   3.843   1.062   0.226  0.0233 -0.0239 -0.3318
 2570SOL    HW119169   3.755   1.038   0.253 -0.5653  2.1729 -0.3127
 2570SOL    HW219170   3.859   0.998   0.157  0.7451 -0.2544  0.0439
 2571SOL     OW19171   4.285   0.897   0.325 -0.1706 -0.4236  0.0804
 2571SOL    HW119172   4.309   0.844   0.401  1.4401  0.7506  0.3801
 2571SOL    HW219173   4.343   0.973   0.328 -1.4726  0.6729 -2.3819
 2572SOL     OW19174   4.710   1.614   7.976 -0.0212  0.3255 -0.1366
 2572SOL    HW119175   4.674   1.533   7.940  1.9425 -0.7354  0.2715
 2572SOL    HW219176   4.664   1.689   7.939 -1.1920  0.0516  0.7573
 2573SOL     OW19177   2.286   2.656   2.549  0.0032  0.0071  0.2956
 2573SOL    HW119178   2.337   2.638   2.470 -1.4828  1.1263 -0.9265
 2573SOL    HW219179   2.207   2.608   2.524 -0.9537  0.3266  2.6797
 2574SOL     OW19180   1.669   1.261  12.967 -0.3935  0.0130  0.1549
 2574SOL    HW119181   1.710   1.175  12.975  2.2626  1.2237 -0.3580
 2574SOL    HW219182   1.688   1.303  13.051 -1.0175  1.8551 -0.6239
 2575SOL     OW19183   4.653   3.919   5.014  0.0447 -0.3186  0.3008
 2575SOL    HW119184   4.642   4.011   5.039  1.3617  0.3018 -1.4331
 2575SOL    HW219185   4.688   3.921   4.925  0.3264 -0.9866  0.3912
 2576SOL     OW19186   1.417   1.200   0.326 -0.7896 -0.4696 -0.3946
 2576SOL    HW119187   1.481   1.264   0.294 -2.2248  0.6930 -0.9416
 2576SOL    HW219188   1.473   1.133   0.364 -1.0594 -0.4614  0.0153
 2577SOL     OW19189   1.780   2.262   1.384  0.2101  0.3270  0.0692
 2577SOL    HW119190   1.840   2.235   1.315  0.8651 -1.9219  1.4898
 2577SOL    HW219191   1.705   2.204   1.371  1.2783 -1.3960  1.6647
 2578SOL     OW19192   2.414   2.496   2.126  0.2451  0.1051 -0.1439
 2578SOL    HW119193   2.383   2.424   2.071  1.5966 -0.7492  0.1879
 2578SOL    HW219194   2.347   2.564   2.127  0.3774  0.2615 -1.4433
 2579SOL     OW19195   4.601   4.678   7.760  0.3581  0.2336 -0.6649
 2579SOL    HW119196   4.678   4.686   7.703  0.2414  0.6732 -0.7643
 2579SOL    HW219197   4.635   4.654   7.846 -1.2066  1.2875  0.2500
 2580SOL     OW19198   3.247   4.589  16.299  0.3581  0.3878  0.5080
 2580SOL    HW119199   3.255   4.678  16.335  0.3178  0.9032 -0.7324
 2580SOL    HW219200   3.180   4.564  16.362  1.2792 -0.0371  1.3171
 2581SOL     OW19201   3.940   2.365   6.727 -0.1524  0.3340  0.0188
 2581SOL    HW119202   3.866   2.305   6.714 -0.6390  0.2110  3.3206
 2581SOL    HW219203   3.912   2.450   6.694 -2.5944 -1.1221 -1.6934
 2582SOL     OW19204   2.362   0.487   8.185  0.4180  0.0169  0.1236
 2582SOL    HW119205   2.370   0.485   8.280  1.0580 -0.3524  0.0584
 2582SOL    HW219206   2.273   0.522   8.176 -0.3403 -2.2865 -1.3207
 2583SOL     OW19207   2.186   0.917   2.447 -0.1257  0.6826  0.7107
 2583SOL    HW119208   2.274   0.951   2.430  0.9297 -1.4423  1.8721
 2583SOL    HW219209   2.200   0.823   2.435  1.3767  0.9955  0.0468
 2584SOL     OW19210   4.029   0.165   6.550  0.0744 -0.5462 -0.2574
 2584SOL    HW119211   3.973   0.183   6.626 -0.5643  2.8495 -1.5187
 2584SOL    HW219212   3.963   0.137   6.488 -1.0536 -0.6706  0.9854
 2585SOL     OW19213   1.979   3.423   8.229 -0.4592  0.0687 -0.2590
 2585SOL    HW119214   2.024   3.457   8.152 -0.2095  0.2970 -0.0137
 2585SOL    HW219215   2.017   3.483   8.293  1.2883  0.5846 -1.7951
 2586SOL     OW19216   0.235   3.558  14.233 -0.5043 -0.0369  0.0850
 2586SOL    HW119217   0.170   3.611  14.279 -0.5365 -1.1258  1.2989
 2586SOL    HW219218   0.316   3.603  14.258 -0.6820 -0.9615  2.3221
 2587SOL     OW19219   1.986   0.752   7.672  0.9888  0.6876  0.0363
 2587SOL    HW119220   1.993   0.670   7.722 -2.5524 -0.1106 -0.7591
 2587SOL    HW219221   2.053   0.742   7.604  0.7998 -0.7146  0.0467
 2588SOL     OW19222   1.579   0.131   8.780  0.4635 -0.4893  0.4590
 2588SOL    HW119223   1.559   0.042   8.753 -2.2324  0.1184  0.4050
 2588SOL    HW219224   1.518   0.166   8.715  0.4655  1.4420  1.4802
 2589SOL     OW19225   3.206   0.230   2.971  0.2161 -0.1421  0.3404
 2589SOL    HW119226   3.132   0.269   3.018  0.5279 -0.7735  1.3683
 2589SOL    HW219227   3.171   0.141   2.959  0.9131 -0.2067 -1.1705
 2590SOL     OW19228   0.419   0.268   3.103 -0.1119 -0.2599 -0.1049
 2590SOL    HW119229   0.460   0.182   3.099  0.6977  0.0746  0.9474
 2590SOL    HW219230   0.488   0.326   3.137  0.8975 -1.9318  0.7071
 2591SOL     OW19231   0.297   4.122   5.201 -0.1108  0.5791  0.8621
 2591SOL    HW119232   0.341   4.046   5.238  4.1165  2.7650  0.2720
 2591SOL    HW219233   0.363   4.172   5.153 -1.5829  1.2487 -0.4698
 2592SOL     OW19234   3.128   0.010   7.452 -0.7205 -0.0173  0.4333
 2592SOL    HW119235   3.160   4.705   7.537 -2.0583 -2.4370  0.1565
 2592SOL    HW219236   3.162   4.663   7.395 -0.3527  0.1127  0.4984
 2593SOL     OW19237   1.368   1.821  13.999  0.0905 -0.0043 -0.4732
 2593SOL    HW119238   1.305   1.832  13.928 -1.0891 -2.8134  0.1105
 2593SOL    HW219239   1.438   1.767  13.961 -0.4001 -0.2334 -1.0590
 2594SOL     OW19240   0.750   2.300   6.725 -0.6363  0.1187 -0.1837
 2594SOL    HW119241   0.834   2.344   6.741 -1.3291  1.4476 -0.2054
 2594SOL    HW219242   0.764   2.241   6.651 -3.0525  0.1084 -0.6218
 2595SOL     OW19243   0.578   1.448   4.390 -0.2272  0.1272  0.6780
 2595SOL    HW119244   0.491   1.471   4.357 -1.1259 -2.2366  1.3880
 2595SOL    HW219245   0.612   1.530   4.426  0.5447  0.2988 -0.4347
 2596SOL     OW19246   0.272   2.880   0.883 -0.4099  0.4429  0.0944
 2596SOL    HW119247   0.362   2.870   0.851 -0.6793 -1.5852 -0.0416
 2596SOL    HW219248   0.290   2.883   0.977 -0.6315  1.2586  0.1077
 2597SOL     OW19249   0.896   0.014  10.475 -0.0233  0.1715 -0.6494
 2597SOL    HW119250   0.969   0.056  10.521  1.7918 -3.6054 -0.0439
 2597SOL    HW219251   0.928   4.647  10.465  2.9404  1.5290 -3.2923
 2598SOL     OW19252   1.019   1.354   7.227  0.0783 -0.2425 -0.4476
 2598SOL    HW119253   1.014   1.278   7.168  0.1888  0.4715 -1.3853
 2598SOL    HW219254   1.080   1.407   7.176  0.5036 -0.0851  0.2365
 2599SOL     OW19255   2.633   0.898   7.432 -0.1160 -0.3442  0.6091
 2599SOL    HW119256   2.654   0.927   7.521  0.0323 -0.9798  0.7767
 2599SOL    HW219257   2.617   0.804   7.437 -2.3352 -0.0600 -0.8083
 2600SOL     OW19258   0.204   2.273  11.264  0.1819  0.2837  0.0078
 2600SOL    HW119259   0.210   2.201  11.201 -0.0774  0.7558 -0.5567
 2600SOL    HW219260   0.240   2.230  11.341 -0.8885  2.7681  1.8923
 2601SOL     OW19261   2.585   4.245   2.261  0.6239 -0.1214 -0.0819
 2601SOL    HW119262   2.615   4.335   2.248 -1.6955  0.4703 -1.3507
 2601SOL    HW219263   2.653   4.199   2.212 -1.1219 -1.1780 -1.4817
 2602SOL     OW19264   3.879   3.660   0.035 -0.4684 -0.6465 -0.2756
 2602SOL    HW119265   3.825   3.633   0.109 -1.7245 -0.2623 -1.0430
 2602SOL    HW219266   3.840   3.588  17.676 -0.1531  0.2054 -1.7542
 2603SOL     OW19267   1.538   0.925   4.254 -0.1255 -0.1658  0.8265
 2603SOL    HW119268   1.610   0.975   4.217  0.4121 -0.2628  1.7394
 2603SOL    HW219269   1.459   0.979   4.252  1.5612  2.2839  0.2172
 2604SOL     OW19270   4.635   0.403   5.561  0.7559 -0.5604 -0.5256
 2604SOL    HW119271   4.569   0.434   5.623 -0.6242 -1.4252 -1.5452
 2604SOL    HW219272   4.712   0.439   5.605  0.3882  1.2940 -1.4053
 2605SOL     OW19273   2.705   1.629   8.265  0.3176  0.3535  0.0397
 2605SOL    HW119274   2.660   1.590   8.340  0.0105 -1.1014 -0.9055
 2605SOL    HW219275   2.779   1.660   8.317  1.1780 -1.6299  0.0110
 2606SOL     OW19276   2.948   4.252  17.305 -0.0847 -0.1298  0.3010
 2606SOL    HW119277   2.889   4.205  17.245 -0.3064  1.1085 -0.4402
 2606SOL    HW219278   2.954   4.181  17.370  3.1087 -2.2173 -2.2860
 2607SOL     OW19279   3.990   0.738   5.027 -0.0408  0.3575  0.1528
 2607SOL    HW119280   4.056   0.755   4.960 -0.4789  0.7828 -0.1800
 2607SOL    HW219281   3.922   0.801   5.004 -0.0311  1.5249  3.4079
 2608SOL     OW19282   3.666   3.567   8.148  0.1684  0.3739  0.0108
 2608SOL    HW119283   3.633   3.500   8.208 -0.8935  0.0485 -0.9211
 2608SOL    HW219284   3.743   3.521   8.114  0.6798 -0.3573  2.1676
 2609SOL     OW19285   0.402   3.369   5.791 -0.0006 -0.5010 -0.0417
 2609SOL    HW119286   0.426   3.279   5.767  1.6251 -0.1480  0.2288
 2609SOL    HW219287   0.311   3.370   5.762  0.3040  2.3539 -0.8640
 2610SOL     OW19288   3.010   2.183   7.354 -0.2659  0.3272  0.6409
 2610SOL    HW119289   3.047   2.235   7.425  2.9297 -2.9098  1.3511
 2610SOL    HW219290   2.934   2.232   7.320 -1.4877 -1.9937  0.0510
 2611SOL     OW19291   0.132   0.403  15.138  0.0273 -0.2478 -0.7412
 2611SOL    HW119292   0.042   0.383  15.114 -0.2009 -1.4669  1.1291
 2611SOL    HW219293   0.132   0.378  15.231 -0.0810  1.4507 -0.2847
 2612SOL     OW19294   3.945   0.566   9.182  0.0063 -0.2305 -0.3665
 2612SOL    HW119295   3.971   0.626   9.112  0.2723 -1.0461 -0.9583
 2612SOL    HW219296   3.882   0.505   9.144  0.5775  0.0056 -1.6986
 2613SOL     OW19297   4.091   3.833  17.688  0.1541  0.4242 -0.1160
 2613SOL    HW119298   3.998   3.811  17.679  1.3142 -4.2607 -0.7272
 2613SOL    HW219299   4.074   3.898   0.064 -0.9341  1.0630 -1.0099
 2614SOL     OW19300   0.739   4.358  15.866 -0.0016  0.4310 -0.2707
 2614SOL    HW119301   0.766   4.412  15.941 -2.5543 -2.1508  2.4702
 2614SOL    HW219302   0.649   4.387  15.857 -0.0872 -0.0729 -0.9925
 2615SOL     OW19303   3.387   2.013   4.479 -0.0286  0.1156  0.5981
 2615SOL    HW119304   3.414   2.076   4.547 -0.0345 -0.3169  1.0026
 2615SOL    HW219305   3.392   1.926   4.519  2.3226  0.8057  1.7910
 2616SOL     OW19306   4.256   4.053   8.785 -0.2850  0.4076  1.0485
 2616SOL    HW119307   4.216   4.007   8.859 -0.4676 -1.1573 -0.0484
 2616SOL    HW219308   4.234   3.992   8.716  0.2904  3.2304 -1.6337
 2617SOL     OW19309   3.725   3.525   3.683  0.4999  0.2438 -0.1049
 2617SOL    HW119310   3.731   3.582   3.606 -1.9006  0.3616 -0.2205
 2617SOL    HW219311   3.642   3.483   3.658  0.2920  1.1363 -0.9533
 2618SOL     OW19312   2.394   2.034  12.784  0.9805  0.0882 -0.4905
 2618SOL    HW119313   2.330   1.998  12.845  3.0690 -1.8470  0.5180
 2618SOL    HW219314   2.477   1.997  12.813  1.5514  0.8831 -1.0965
 2619SOL     OW19315   4.607   3.743   3.077  0.8159  0.5695  0.0971
 2619SOL    HW119316   4.700   3.728   3.061  0.5901 -0.6951 -0.0367
 2619SOL    HW219317   4.582   3.802   3.006 -1.4126  2.2617  2.2805
 2620SOL     OW19318   4.641   3.321  11.790 -0.0351  0.2906  0.6041
 2620SOL    HW119319   4.681   3.291  11.708  0.4381  0.1003  0.9022
 2620SOL    HW219320   4.593   3.394  11.754  0.2269 -0.8376 -2.0287
 2621SOL     OW19321   0.365   2.063   4.819 -0.6578  0.2619 -0.1964
 2621SOL    HW119322   0.430   1.998   4.792 -0.9170 -0.2608  0.4400
 2621SOL    HW219323   0.404   2.140   4.777  1.6654  0.5682  2.5577
 2622SOL     OW19324   0.476   2.061   5.062  0.1060 -0.4451 -0.0667
 2622SOL    HW119325   0.440   2.067   4.973  1.7247  0.1717 -0.6761
 2622SOL    HW219326   0.538   2.133   5.055 -0.3986 -0.2777 -2.9488
 2623SOL     OW19327   4.721   0.343   8.664  0.0627 -0.6914 -0.0826
 2623SOL    HW119328   4.701   0.253   8.639 -0.7210 -0.7549  0.7882
 2623SOL    HW219329   0.065   0.366   8.598 -1.0329  2.0430 -0.2534
 2624SOL     OW19330   2.581   3.030   8.656  0.2986  0.0555 -0.1449
 2624SOL    HW119331   2.493   3.042   8.693  0.4234  4.3964 -1.2007
 2624SOL    HW219332   2.631   3.096   8.703  0.7944 -1.2272  1.1107
 2625SOL     OW19333   2.542   1.276   8.242  0.5958 -0.3555 -0.4050
 2625SOL    HW119334   2.577   1.200   8.288 -2.1685 -1.5917 -0.3629
 2625SOL    HW219335   2.619   1.333   8.240 -0.5229  1.1042 -2.2321
 2626SOL     OW19336   0.177   2.759  12.859 -0.0748 -0.1054  0.6828
 2626SOL    HW119337   0.152   2.671  12.828  0.5587  0.3807 -1.2280
 2626SOL    HW219338   0.251   2.740  12.916  1.3033 -1.5656 -1.5817
 2627SOL     OW19339   3.133   2.406   5.158  0.1428 -0.1169  0.5383
 2627SOL    HW119340   3.225   2.379   5.149 -0.1706 -0.8050 -0.5078
 2627SOL    HW219341   3.083   2.326   5.141  0.8765 -0.4097 -0.2598
 2628SOL     OW19342   0.561   1.239   4.714  0.0160  0.5191  0.2735
 2628SOL    HW119343   0.595   1.170   4.657  1.4936  0.9449  0.6385
 2628SOL    HW219344   0.644   1.284   4.724 -0.8883  2.2910 -0.2404
 2629SOL     OW19345   2.271   0.450   1.199 -0.9395  0.0736  0.1549
 2629SOL    HW119346   2.259   0.522   1.138  1.8765 -0.1416 -0.6629
 2629SOL    HW219347   2.195   0.398   1.174  0.3583 -0.1382 -3.3445
 2630SOL     OW19348   2.668   2.596  14.681 -0.1187 -0.1730 -0.1143
 2630SOL    HW119349   2.639   2.627  14.595  0.9495  0.9093 -0.0970
 2630SOL    HW219350   2.636   2.663  14.742 -1.3747  2.1633 -3.3216
 2631SOL     OW19351   1.033   2.065   0.731 -0.1230 -0.5189 -0.0854
 2631SOL    HW119352   1.112   2.109   0.764 -0.1215  0.5514 -1.5164
 2631SOL    HW219353   1.054   1.971   0.729  1.3076 -0.2112  0.3780
 2632SOL     OW19354   2.718   2.861   5.704  0.0949 -0.0999 -0.0303
 2632SOL    HW119355   2.641   2.913   5.728 -0.5385 -1.6709  1.3180
 2632SOL    HW219356   2.664   2.789   5.674 -0.0728  0.2103 -0.4727
 2633SOL     OW19357   4.291   1.137   5.718 -0.2856 -0.4076 -0.5289
 2633SOL    HW119358   4.249   1.205   5.665 -1.0152 -0.5914 -0.1830
 2633SOL    HW219359   4.326   1.082   5.648 -0.5605  0.0834 -1.0526
 2634SOL     OW19360   0.961   3.859   5.382 -0.1045 -0.8390  0.6166
 2634SOL    HW119361   0.970   3.937   5.328  2.1398 -1.5705 -0.0894
 2634SOL    HW219362   1.027   3.800   5.345 -1.4699 -1.7118 -0.3816
 2635SOL     OW19363   2.457   3.512   2.166  0.2466  0.8104  0.3503
 2635SOL    HW119364   2.513   3.527   2.090 -0.9107 -0.2224 -0.7097
 2635SOL    HW219365   2.518   3.512   2.239  1.5296  2.5903 -0.7035
 2636SOL     OW19366   1.613   2.599   5.589 -0.1296  0.3367  0.2898
 2636SOL    HW119367   1.567   2.535   5.644 -0.6182 -0.3689 -0.9238
 2636SOL    HW219368   1.688   2.617   5.645 -0.5292  0.6733  0.7208
 2637SOL     OW19369   1.407   4.444   6.170 -0.4089 -0.3802  0.1786
 2637SOL    HW119370   1.487   4.409   6.131  0.7056  1.1333  1.1269
 2637SOL    HW219371   1.429   4.398   6.251  0.5880 -0.6105 -0.2236
 2638SOL     OW19372   4.349   0.549   4.672 -0.2390  0.3429  0.3865
 2638SOL    HW119373   4.374   0.464   4.636 -0.4866 -0.2089  1.5336
 2638SOL    HW219374   4.377   0.608   4.602 -1.4196  1.7436  1.1077
 2639SOL     OW19375   1.719   4.129  12.504  0.4810  0.1283 -0.0371
 2639SOL    HW119376   1.700   4.115  12.412 -1.5668 -0.0501  0.4080
 2639SOL    HW219377   1.661   4.058  12.533 -1.8595  3.2103  2.8432
 2640SOL     OW19378   3.603   3.246   9.190  0.0932  0.2196 -0.3183
 2640SOL    HW119379   3.653   3.218   9.113  1.2516  1.8307 -0.1250
 2640SOL    HW219380   3.591   3.338   9.168 -0.4566  0.2165 -0.0316
 2641SOL     OW19381   3.051   2.636   4.512  0.6235  0.6021 -0.3619
 2641SOL    HW119382   3.014   2.709   4.561 -0.0438 -1.0740  1.6245
 2641SOL    HW219383   3.125   2.625   4.571 -1.3379  1.7638  2.3135
 2642SOL     OW19384   0.400   1.633   3.680  0.3100  0.2643  0.4160
 2642SOL    HW119385   0.455   1.692   3.731  1.3881 -1.6544  1.5012
 2642SOL    HW219386   0.442   1.548   3.694  0.7665  0.5833  0.9661
 2643SOL     OW19387   2.256   3.221  11.784  0.1073 -0.0765 -0.2310
 2643SOL    HW119388   2.242   3.313  11.805 -1.0668 -0.3500  0.1756
 2643SOL    HW219389   2.165   3.191  11.789 -0.0855  0.2831 -1.6416
 2644SOL     OW19390   1.691   0.673   2.938  0.1112 -0.2372  0.0547
 2644SOL    HW119391   1.744   0.648   2.862  2.7623  0.1835  1.7337
 2644SOL    HW219392   1.618   0.716   2.894  1.5366  2.0682 -0.0590
 2645SOL     OW19393   0.066   2.545  12.735  0.3535 -0.0521 -0.7972
 2645SOL    HW119394   0.027   2.520  12.651 -1.4883 -1.6798  0.5492
 2645SOL    HW219395   0.099   2.458  12.760 -3.0443 -1.3129 -0.6432
 2646SOL     OW19396   3.227   2.745   7.142 -0.3064  0.6268 -0.3190
 2646SOL    HW119397   3.165   2.708   7.080  2.3284 -3.0059 -0.7764
 2646SOL    HW219398   3.222   2.840   7.128  2.0285  0.9822  1.2790
 2647SOL     OW19399   0.903   1.638   4.712  0.0155 -0.3079 -0.4373
 2647SOL    HW119400   0.880   1.687   4.791 -0.5501 -1.4944  0.1352
 2647SOL    HW219401   0.998   1.648   4.714  0.3056 -3.5648  3.0926
 2648SOL     OW19402   3.302   1.821  13.058 -0.1416  0.0500 -0.0929
 2648SOL    HW119403   3.238   1.891  13.071 -0.6213 -0.8194  2.2741
 2648SOL    HW219404   3.275   1.748  13.113 -1.3530 -0.7310 -1.7138
 2649SOL     OW19405   2.490   0.963   9.406  0.9644 -0.1979 -0.2800
 2649SOL    HW119406   2.473   0.914   9.325 -2.8511 -0.5657  0.7305
 2649SOL    HW219407   2.517   1.050   9.376 -0.0115 -0.1531 -1.0252
 2650SOL     OW19408   0.696   0.233  15.458  0.1361  0.0968 -0.7386
 2650SOL    HW119409   0.603   0.251  15.440  0.0069  0.1247 -0.0605
 2650SOL    HW219410   0.690   0.168  15.528 -2.2156 -0.2396 -1.2277
 2651SOL     OW19411   3.909   3.824   6.642 -0.1091 -0.1895  0.5684
 2651SOL    HW119412   3.885   3.899   6.589 -3.7371 -0.3438  1.9622
 2651SOL    HW219413   3.986   3.791   6.596 -1.0266  1.0210 -1.7858
 2652SOL     OW19414   2.024   0.399  11.889 -0.0108  0.0714 -0.2152
 2652SOL    HW119415   2.031   0.473  11.948  0.4745 -0.1001 -0.0562
 2652SOL    HW219416   2.102   0.415  11.835 -0.2118 -1.2025 -0.8936
 2653SOL     OW19417   0.118   1.673  15.435 -0.7384 -0.0195  0.3939
 2653SOL    HW119418   0.095   1.764  15.456  0.7263  0.8675 -1.8334
 2653SOL    HW219419   0.213   1.674  15.444 -0.5171  1.1751 -2.0091
 2654SOL     OW19420   2.861   4.377   2.281  0.4011 -0.4646 -0.2337
 2654SOL    HW119421   2.917   4.427   2.222 -0.9224  1.3906  0.0947
 2654SOL    HW219422   2.780   4.428   2.274  0.1372 -0.6990  1.1166
 2655SOL     OW19423   0.605   0.908  10.380 -0.1801  0.0991 -0.8033
 2655SOL    HW119424   0.668   0.906  10.308 -0.0912  0.5700 -0.7423
 2655SOL    HW219425   0.534   0.953  10.335  0.3960  1.5877 -0.2271
 2656SOL     OW19426   0.835   0.993   2.521  0.3178  0.2599  0.1458
 2656SOL    HW119427   0.785   0.915   2.544  3.1016 -1.6417 -0.2126
 2656SOL    HW219428   0.781   1.067   2.550  1.9758  2.1008 -1.4212
 2657SOL     OW19429   4.118   3.705   7.523  0.1894 -0.3134 -0.2150
 2657SOL    HW119430   4.123   3.618   7.484 -1.3429 -0.2758 -0.4944
 2657SOL    HW219431   4.113   3.689   7.617 -0.7900 -0.7030 -0.3327
 2658SOL     OW19432   4.295   3.917   6.338  0.5255 -0.3186  0.5628
 2658SOL    HW119433   4.206   3.912   6.301  1.4759 -3.4270 -1.3311
 2658SOL    HW219434   4.320   3.829   6.368  0.5136 -0.5863 -0.2200
 2659SOL     OW19435   2.303   3.313   2.235  0.0258  0.1222 -0.8861
 2659SOL    HW119436   2.375   3.273   2.186  0.3963 -0.5961  0.2561
 2659SOL    HW219437   2.328   3.405   2.241 -2.3229  0.6656  0.4158
 2660SOL     OW19438   3.018   1.759   3.791  0.0885 -0.3878  0.1810
 2660SOL    HW119439   3.108   1.791   3.782 -0.1843  0.1360 -0.6829
 2660SOL    HW219440   2.973   1.834   3.831 -1.0406 -0.7753 -0.3639
 2661SOL     OW19441   1.174   4.045   5.531  0.4459 -0.9550 -0.4828
 2661SOL    HW119442   1.100   4.105   5.532  0.2178 -1.2382 -1.4043
 2661SOL    HW219443   1.239   4.075   5.595  0.7733  0.5846 -1.5354
 2662SOL     OW19444   2.071   2.507  14.369  0.2059  0.2142  0.0452
 2662SOL    HW119445   2.012   2.432  14.364  1.4881 -0.8726  1.2563
 2662SOL    HW219446   2.053   2.549  14.285 -0.3804  1.6893  0.9135
 2663SOL     OW19447   3.061   2.043   7.655  0.5352 -0.2083  0.2057
 2663SOL    HW119448   3.110   1.996   7.723 -0.5420  0.8558  1.7498
 2663SOL    HW219449   2.972   2.014   7.678  1.4217 -3.0462 -0.0742
 2664SOL     OW19450   2.307   4.709   3.838 -0.3726  0.1412  0.7593
 2664SOL    HW119451   2.327   4.644   3.906 -0.3203 -1.5400 -0.8621
 2664SOL    HW219452   2.213   4.688   3.833 -0.4605  0.2207  1.9158
 2665SOL     OW19453   3.120   0.745   3.051  0.3693 -0.5351  0.2176
 2665SOL    HW119454   3.158   0.763   2.965 -1.5179 -1.5187 -0.8261
 2665SOL    HW219455   3.117   0.832   3.091  0.6110  0.1779 -1.3212
 2666SOL     OW19456   2.615   4.705   5.586  0.0086 -0.3886 -0.1492
 2666SOL    HW119457   2.633   4.696   5.493  1.1656 -2.1193  0.2358
 2666SOL    HW219458   2.691   0.027   5.623  0.3112  0.6548 -2.0204
 2667SOL     OW19459   1.211   4.267  14.243 -0.0749 -0.2753 -0.4339
 2667SOL    HW119460   1.298   4.250  14.207  0.2023  0.1331  0.0491
 2667SOL    HW219461   1.236   4.256  14.335 -1.2214  0.4420 -0.0405
 2668SOL     OW19462   0.181   0.901   3.480 -0.0163 -0.2951 -0.2161
 2668SOL    HW119463   0.242   0.970   3.454 -1.0928  0.2404 -1.2797
 2668SOL    HW219464   0.119   0.946   3.537  1.2128  0.6817  0.3684
 2669SOL     OW19465   2.942   1.869   4.219  0.0775  0.0369 -0.0386
 2669SOL    HW119466   2.907   1.785   4.249 -0.4144 -0.0331 -0.7927
 2669SOL    HW219467   2.916   1.930   4.288 -0.6681 -0.3985  0.0661
 2670SOL     OW19468   0.880   0.052  13.770  0.0917 -0.3045 -0.4583
 2670SOL    HW119469   0.972   0.075  13.783  0.5160 -1.9413 -0.6490
 2670SOL    HW219470   0.860   0.020  13.858  1.0606  1.9636  0.5744
 2671SOL     OW19471   1.086   1.272   5.325  0.2423  0.4424 -0.5738
 2671SOL    HW119472   1.100   1.352   5.273  0.2354  0.5055 -0.4788
 2671SOL    HW219473   1.154   1.288   5.390 -0.1581  0.3327 -0.1293
 2672SOL     OW19474   4.160   4.637   3.694 -0.7004  0.0498 -0.4331
 2672SOL    HW119475   4.176   4.543   3.687 -1.7671 -0.0957 -0.8528
 2672SOL    HW219476   4.072   4.638   3.731 -0.4755 -0.3769  0.1206
 2673SOL     OW19477   3.723   3.617   0.272  0.5279 -0.3031 -0.6240
 2673SOL    HW119478   3.663   3.691   0.281  0.7628 -0.1242 -0.5274
 2673SOL    HW219479   3.670   3.538   0.267 -0.5134  0.2429  1.6022
 2674SOL     OW19480   0.943   0.362   0.619  0.0742  0.1981 -0.1505
 2674SOL    HW119481   0.933   0.342   0.526 -0.5315  0.6697 -0.1822
 2674SOL    HW219482   0.907   0.280   0.653 -0.6181  0.5200 -0.1136
 2675SOL     OW19483   0.573   0.321   3.743 -0.3611 -0.4036  0.1124
 2675SOL    HW119484   0.640   0.309   3.810  0.4560 -0.6701 -0.7509
 2675SOL    HW219485   0.628   0.354   3.672 -1.3672 -1.2099 -1.0651
 2676SOL     OW19486   1.987   3.361   7.875 -0.0845 -0.2465 -0.1907
 2676SOL    HW119487   2.010   3.269   7.865  0.2137  0.0101 -2.0042
 2676SOL    HW219488   1.892   3.365   7.884  0.0358  1.2481  0.3973
 2677SOL     OW19489   0.546   0.350  15.702 -0.2618 -0.1453  0.0535
 2677SOL    HW119490   0.539   0.327  15.609  2.7500 -2.2123  0.3419
 2677SOL    HW219491   0.458   0.333  15.735  0.5910 -0.2897  2.2450
 2678SOL     OW19492   2.298   4.269   6.692 -0.1220  0.5734  0.1193
 2678SOL    HW119493   2.370   4.206   6.698 -0.5613 -0.1270 -2.0871
 2678SOL    HW219494   2.258   4.248   6.608 -1.0637  1.4788  0.3349
 2679SOL     OW19495   1.188   0.948   3.838 -0.0707 -0.2966  0.2376
 2679SOL    HW119496   1.244   0.912   3.768  0.7128  0.0852  0.6685
 2679SOL    HW219497   1.222   0.900   3.913 -0.2131  1.0240  1.1368
 2680SOL     OW19498   2.353   2.214   8.449  0.0815  0.3080 -0.4772
 2680SOL    HW119499   2.388   2.267   8.521 -2.8913 -0.7310  1.7567
 2680SOL    HW219500   2.415   2.142   8.444 -0.3875  0.0528 -2.5061
 2681SOL     OW19501   1.115   2.747   6.089 -0.3502 -0.4610 -0.1780
 2681SOL    HW119502   1.198   2.791   6.104  0.3548 -1.9753  0.2864
 2681SOL    HW219503   1.076   2.766   6.175  1.5200  1.0392  0.3266
 2682SOL     OW19504   0.378   2.912   6.366  0.0934 -0.6361  0.3072
 2682SOL    HW119505   0.445   2.867   6.316  0.3345 -1.7767  1.6393
 2682SOL    HW219506   0.368   2.860   6.446 -0.8439  1.1286  1.3400
 2683SOL     OW19507   2.025   1.646  16.453  0.3501 -0.0541 -0.0041
 2683SOL    HW119508   1.964   1.578  16.480  0.5805  0.5787  2.1773
 2683SOL    HW219509   2.109   1.613  16.484 -0.5010 -0.7994  1.5160
 2684SOL     OW19510   4.377   2.736   2.854 -0.0462 -0.9056  0.3031
 2684SOL    HW119511   4.457   2.745   2.803 -0.5867 -0.9009 -0.5383
 2684SOL    HW219512   4.333   2.679   2.790 -0.7206 -0.2531  0.1880
 2685SOL     OW19513   2.662   2.618   9.674 -0.1481  0.8972 -0.2700
 2685SOL    HW119514   2.605   2.587   9.604  0.2139  1.0495 -0.6353
 2685SOL    HW219515   2.698   2.533   9.702  0.0776  1.1931  0.3421
 2686SOL     OW19516   2.358   3.587   3.821  0.4627  0.0867 -0.0995
 2686SOL    HW119517   2.425   3.576   3.888  1.2258 -0.1642 -0.9105
 2686SOL    HW219518   2.343   3.682   3.827 -1.0005 -0.3415  3.0342
 2687SOL     OW19519   3.864   2.879   7.380 -0.3881  0.1140 -1.0876
 2687SOL    HW119520   3.773   2.853   7.389  0.3120 -1.6035  1.0437
 2687SOL    HW219521   3.873   2.841   7.293  0.6521  0.8021 -1.2896
 2688SOL     OW19522   1.391   0.925   5.122  0.5145 -0.3804  0.3785
 2688SOL    HW119523   1.314   0.980   5.140  1.3934  0.7785  0.6276
 2688SOL    HW219524   1.371   0.905   5.030 -1.6758  0.7188  0.6096
 2689SOL     OW19525   0.301   3.788   4.053 -0.2073 -0.3857  0.3122
 2689SOL    HW119526   0.379   3.835   4.082 -0.7402 -0.0370  1.2015
 2689SOL    HW219527   0.340   3.701   4.053  0.8491  0.1008 -1.6996
 2690SOL     OW19528   2.744   1.185   2.763 -0.1485  0.1952 -0.5539
 2690SOL    HW119529   2.838   1.173   2.780 -0.4848 -1.6422  0.0381
 2690SOL    HW219530   2.715   1.100   2.796  1.3416  0.3138  1.0933
 2691SOL     OW19531   2.021   2.981   8.287  0.4039  0.1518 -0.0458
 2691SOL    HW119532   2.029   2.947   8.376 -0.7047  1.9878  0.7523
 2691SOL    HW219533   2.055   2.908   8.235  1.1639  0.5879 -0.1734
 2692SOL     OW19534   2.968   4.612   7.711 -0.1220  0.4868  0.3161
 2692SOL    HW119535   2.886   4.568   7.735  0.8010 -0.7072  1.2991
 2692SOL    HW219536   3.029   4.538   7.706  0.3786  0.9953 -1.1082
 2693SOL     OW19537   0.230   4.381   3.943 -0.5324 -0.2053  0.5942
 2693SOL    HW119538   0.232   4.467   3.899  1.7134  1.9343  4.8733
 2693SOL    HW219539   0.240   4.333   3.861 -0.8452  0.6046  0.0773
 2694SOL     OW19540   3.069   2.966  10.785  0.8363 -0.9446  0.3125
 2694SOL    HW119541   3.102   2.883  10.751  1.7673 -1.3459  2.1486
 2694SOL    HW219542   3.103   2.967  10.875 -0.3915 -2.3495  0.7915
 2695SOL     OW19543   0.872   2.205   6.520  0.3035  0.5943 -0.0316
 2695SOL    HW119544   0.964   2.209   6.548  0.0536 -1.8888  1.0997
 2695SOL    HW219545   0.880   2.178   6.429  0.7662  0.2123  0.1223
 2696SOL     OW19546   2.773   2.142  16.846 -0.5421 -0.0778  0.4994
 2696SOL    HW119547   2.784   2.204  16.918  0.3340 -0.7539  0.9626
 2696SOL    HW219548   2.701   2.087  16.879 -0.1794  0.1752  1.7275
 2697SOL     OW19549   3.074   2.660  15.495  0.8308 -0.1276  0.2569
 2697SOL    HW119550   3.101   2.640  15.406 -1.0527  0.4609 -0.4275
 2697SOL    HW219551   3.090   2.754  15.492 -0.0644  0.0174  0.0620
 2698SOL     OW19552   4.458   2.883  17.099 -0.0272 -0.5300  0.1328
 2698SOL    HW119553   4.536   2.921  17.139 -0.4652  0.4619  0.0335
 2698SOL    HW219554   4.468   2.790  17.121  1.1025 -0.5873 -0.6198
 2699SOL     OW19555   3.682   0.988  16.922 -0.2294 -0.0557  0.1094
 2699SOL    HW119556   3.659   0.916  16.981  1.8599 -1.5745 -0.9389
 2699SOL    HW219557   3.665   1.063  16.978  1.9841 -0.1622  0.9513
 2700SOL     OW19558   2.323   2.934   4.945  0.3306 -0.3497 -0.0942
 2700SOL    HW119559   2.241   2.928   4.993  1.4370  1.2460  2.0085
 2700SOL    HW219560   2.299   2.895   4.861  2.9521  0.5863 -1.2895
 2701SOL     OW19561   1.232   4.333  15.298  0.5363 -0.2068 -0.5157
 2701SOL    HW119562   1.167   4.322  15.228  1.1366 -2.1141 -0.7732
 2701SOL    HW219563   1.202   4.406  15.351 -1.4841 -1.4932  0.1171
 2702SOL     OW19564   0.483   0.847   6.721  0.4248 -0.7775 -0.3463
 2702SOL    HW119565   0.490   0.896   6.803  2.4285  0.3413 -1.1895
 2702SOL    HW219566   0.512   0.915   6.661 -1.2755  1.0116  0.8558
 2703SOL     OW19567   3.688   4.551  14.222  0.2085  0.9060  0.0065
 2703SOL    HW119568   3.764   4.551  14.163  0.1947  0.5371 -0.0086
 2703SOL    HW219569   3.709   4.490  14.292 -1.6752 -0.9471 -1.0513
 2704SOL     OW19570   1.312   1.731   9.219 -0.4375  0.1715  0.0507
 2704SOL    HW119571   1.230   1.773   9.245  0.0645 -0.9319  3.3334
 2704SOL    HW219572   1.370   1.755   9.292  0.3735  1.3154 -0.9509
 2705SOL     OW19573   0.256   1.435   0.643 -0.1890  0.4429 -0.2179
 2705SOL    HW119574   0.298   1.450   0.558  2.1048  0.7971  0.9591
 2705SOL    HW219575   0.260   1.523   0.681  0.3378  1.0308 -1.6499
 2706SOL     OW19576   0.088   0.145   6.907  0.0992 -0.2068 -0.6846
 2706SOL    HW119577   0.098   0.076   6.842  2.9665 -1.0296  0.6096
 2706SOL    HW219578   0.099   0.101   6.991 -2.3231  1.5269  0.5420
 2707SOL     OW19579   0.561   1.594   9.179  0.1491 -0.0326  0.1534
 2707SOL    HW119580   0.494   1.551   9.125  3.0382  0.0262 -3.4486
 2707SOL    HW219581   0.516   1.675   9.202  1.2128  0.3182  0.9693
 2708SOL     OW19582   4.043   1.026   6.967  0.2302  0.4875  0.0990
 2708SOL    HW119583   4.094   1.098   6.929 -1.7104  1.8484  0.0865
 2708SOL    HW219584   4.113   0.969   7.000 -0.1336  0.5043  0.8972
 2709SOL     OW19585   1.714   1.213   5.723 -0.3390  0.4164  0.4153
 2709SOL    HW119586   1.801   1.230   5.689 -0.5540 -0.1911 -0.4276
 2709SOL    HW219587   1.695   1.298   5.765 -1.1503  0.0080  0.8849
 2710SOL     OW19588   0.100   1.058   4.552  0.0614 -0.3807  0.6408
 2710SOL    HW119589   0.092   1.035   4.459 -0.3822  0.0389  0.5813
 2710SOL    HW219590   0.172   0.998   4.574  0.0210 -1.0773 -1.1203
 2711SOL     OW19591   1.589   0.816   8.088  0.3323 -0.0725  0.4560
 2711SOL    HW119592   1.634   0.857   8.162 -0.9019 -0.5760  1.4777
 2711SOL    HW219593   1.664   0.798   8.031 -0.2299  1.0373 -0.6304
 2712SOL     OW19594   3.964   4.676   4.326 -0.1656 -0.0430  0.0366
 2712SOL    HW119595   3.908   4.648   4.399 -1.6413 -0.0027 -1.0668
 2712SOL    HW219596   3.951   4.614   4.254  0.2090  0.2170 -0.2535
 2713SOL     OW19597   1.503   3.463   2.904  0.3018  0.6633 -0.3962
 2713SOL    HW119598   1.536   3.387   2.855  0.0804  0.7718 -0.7123
 2713SOL    HW219599   1.450   3.497   2.832 -1.5415 -1.4436 -0.0272
 2714SOL     OW19600   2.710   4.276   6.366 -0.2673 -0.4885 -0.3543
 2714SOL    HW119601   2.635   4.217   6.371  0.3864 -1.2853  0.0267
 2714SOL    HW219602   2.774   4.208   6.348  0.1583 -0.4752  1.0638
 2715SOL     OW19603   0.165   0.819   5.645 -0.4908  0.1310 -0.3253
 2715SOL    HW119604   0.150   0.794   5.554 -0.0577 -1.6308  0.0901
 2715SOL    HW219605   0.131   0.748   5.698  0.5850 -0.2473 -0.1353
 2716SOL     OW19606   1.848   0.082   8.465  0.2536 -0.1826 -0.6519
 2716SOL    HW119607   1.885   0.114   8.547 -0.7819 -1.4677  0.3020
 2716SOL    HW219608   1.788   0.149   8.432 -0.6018  0.1508  1.6233
 2717SOL     OW19609   3.352   3.169   2.285  0.2097 -0.1509  0.0920
 2717SOL    HW119610   3.337   3.263   2.297 -0.1994 -0.3190  0.8937
 2717SOL    HW219611   3.437   3.182   2.243 -0.6383 -0.5426 -1.7448
 2718SOL     OW19612   4.088   3.714   7.788  0.1811  0.2530  0.0060
 2718SOL    HW119613   3.997   3.732   7.812  1.1208  0.3936  3.5147
 2718SOL    HW219614   4.134   3.778   7.842 -1.7104  1.5472  0.1017
 2719SOL     OW19615   1.110   3.710   1.809  0.1388 -0.2543 -0.3862
 2719SOL    HW119616   1.022   3.705   1.847 -0.2590  0.5129 -1.2221
 2719SOL    HW219617   1.110   3.794   1.764  1.1038 -0.1562 -0.2062
 2720SOL     OW19618   4.142   2.507   7.635  0.3060 -0.3238 -0.3802
 2720SOL    HW119619   4.145   2.518   7.540 -0.4267 -2.6032 -0.6515
 2720SOL    HW219620   4.145   2.412   7.642 -0.0018 -0.2232  1.0298
 2721SOL     OW19621   2.783   2.683   8.267 -0.6269 -0.2517  0.2161
 2721SOL    HW119622   2.716   2.619   8.293  0.8804 -1.9597 -0.0740
 2721SOL    HW219623   2.817   2.707   8.354 -0.3494  1.7094 -0.4449
 2722SOL     OW19624   3.334   0.784   2.530 -0.6549  0.5268 -0.1952
 2722SOL    HW119625   3.427   0.806   2.523 -0.1424 -0.6429  3.0447
 2722SOL    HW219626   3.300   0.840   2.460 -2.6188  0.8049  0.9792
 2723SOL     OW19627   1.065   1.605  11.281 -0.1564  0.0522  0.1232
 2723SOL    HW119628   1.015   1.537  11.236  0.4906  0.2001 -0.8144
 2723SOL    HW219629   1.010   1.654  11.343 -1.8131 -0.3200 -1.0363
 2724SOL     OW19630   2.612   2.715   6.425  0.2961 -0.4874 -0.3279
 2724SOL    HW119631   2.570   2.775   6.487  2.1283  0.5743 -0.1354
 2724SOL    HW219632   2.698   2.756   6.427 -0.5959  1.1622  2.7204
 2725SOL     OW19633   2.046   2.393   8.911 -0.6248 -0.1691 -0.0089
 2725SOL    HW119634   2.135   2.380   8.944 -0.3970 -0.5369 -0.7746
 2725SOL    HW219635   2.047   2.487   8.928 -0.5003  0.1504 -1.7759
 2726SOL     OW19636   0.505   3.189   7.325  0.0736 -0.0579 -0.5182
 2726SOL    HW119637   0.586   3.191   7.275 -1.2014 -0.9425 -2.6091
 2726SOL    HW219638   0.442   3.142   7.270  0.0555  0.3973 -0.8867
 2727SOL     OW19639   3.620   2.758   6.343  0.3840  0.3369  0.1350
 2727SOL    HW119640   3.649   2.751   6.434  0.1511  0.1956  0.1988
 2727SOL    HW219641   3.541   2.706   6.359 -0.4631  1.2542 -1.0750
 2728SOL     OW19642   0.735   3.025   6.101  0.2045 -0.0105 -0.6322
 2728SOL    HW119643   0.717   3.098   6.160  1.8641  0.4576 -0.7206
 2728SOL    HW219644   0.680   2.960   6.145  2.4711 -1.0179  0.6941
 2729SOL     OW19645   0.493   1.782   6.706 -0.4737  0.0949  0.1725
 2729SOL    HW119646   0.452   1.860   6.744  0.5216  0.0167  1.4277
 2729SOL    HW219647   0.475   1.805   6.615 -2.0376 -0.5924  0.3077
 2730SOL     OW19648   3.518   1.026   4.931 -0.1307  0.2639 -0.1800
 2730SOL    HW119649   3.529   1.027   4.836 -0.0805 -2.2286 -0.2041
 2730SOL    HW219650   3.470   1.107   4.946 -1.4076 -0.9134  2.1127
 2731SOL     OW19651   0.060   0.826   2.526  0.1750 -0.8572  0.2329
 2731SOL    HW119652   4.717   0.777   2.475  1.5108 -2.7330  0.3150
 2731SOL    HW219653   0.122   0.840   2.455  1.0300 -1.9792  0.7604
 2732SOL     OW19654   4.713   0.276   1.460 -0.3420  0.6308 -0.2729
 2732SOL    HW119655   0.058   0.288   1.394  1.3135  2.9624  1.8423
 2732SOL    HW219656   4.713   0.362   1.503  1.2924  0.7779 -0.5888
 2733SOL     OW19657   2.786   3.929   9.208  0.4980  0.1996  0.4754
 2733SOL    HW119658   2.879   3.915   9.191  0.1249  0.5583 -1.9052
 2733SOL    HW219659   2.788   4.008   9.260  1.7473  1.3993 -1.3832
 2734SOL     OW19660   4.142   3.736   5.100 -0.4866  0.6885  0.3092
 2734SOL    HW119661   4.149   3.831   5.112 -1.8653  0.8102  0.1293
 2734SOL    HW219662   4.210   3.726   5.034 -0.1226  2.6863  0.3562
 2735SOL     OW19663   3.744   0.209  10.468  0.3058 -0.5897 -0.5496
 2735SOL    HW119664   3.743   0.125  10.515 -0.6678  0.1335  0.7387
 2735SOL    HW219665   3.749   0.276  10.536 -0.0477 -0.0045 -1.1012
 2736SOL     OW19666   1.930   1.123   8.280 -0.5944  0.5268  0.4337
 2736SOL    HW119667   1.877   1.176   8.339 -0.2994  1.8314 -0.4489
 2736SOL    HW219668   1.857   1.070   8.248  0.6458 -0.3700 -0.9285
 2737SOL     OW19669   1.051   1.783   9.293  0.0823 -0.2980 -0.2889
 2737SOL    HW119670   0.999   1.861   9.310  2.3262  1.1305 -0.0169
 2737SOL    HW219671   0.985   1.714   9.285 -0.8020  0.6943 -1.5326
 2738SOL     OW19672   4.330   3.313  14.372  0.5378  0.0707 -0.5506
 2738SOL    HW119673   4.375   3.289  14.291  1.5595  1.8921 -0.5050
 2738SOL    HW219674   4.357   3.244  14.433  2.7940  1.3020 -0.2002
 2739SOL     OW19675   4.277   4.390   1.076 -0.0581 -0.3213  0.4168
 2739SOL    HW119676   4.251   4.474   1.115  1.4739  0.2266  0.2343
 2739SOL    HW219677   4.360   4.416   1.036  0.3936 -3.6701 -0.8333
 2740SOL     OW19678   1.355   4.257   0.039  0.3059  0.0440 -0.0411
 2740SOL    HW119679   1.334   4.343   0.076 -1.4234 -0.5806  0.4240
 2740SOL    HW219680   1.356   4.211   0.123 -0.7418 -0.2177 -0.1703
 2741SOL     OW19681   4.577   4.050   6.298  0.4105  0.4028  0.1527
 2741SOL    HW119682   4.487   4.022   6.317 -0.3090  2.8024  0.2567
 2741SOL    HW219683   4.569   4.131   6.249 -0.7065  0.0603 -0.2324
 2742SOL     OW19684   2.744   3.998   2.867  0.8624  0.4678 -0.1060
 2742SOL    HW119685   2.684   3.974   2.938  1.5080 -2.0590 -0.4052
 2742SOL    HW219686   2.735   4.093   2.862  1.2473  0.3673 -2.5916
 2743SOL     OW19687   1.178   3.377   2.441  0.1163  0.3391 -0.4393
 2743SOL    HW119688   1.269   3.377   2.473  0.2698  0.6596 -0.8813
 2743SOL    HW219689   1.183   3.329   2.359 -2.2165 -0.9838  0.1852
 2744SOL     OW19690   1.417   3.344   3.938  0.2916 -0.1281 -0.9278
 2744SOL    HW119691   1.389   3.334   4.029 -0.2681  2.5199 -0.7941
 2744SOL    HW219692   1.421   3.252   3.912  2.3434 -0.1995 -0.3866
 2745SOL     OW19693   3.383   1.210   4.053  0.4355 -0.0495  0.1711
 2745SOL    HW119694   3.468   1.168   4.048  1.0179  0.8011  2.6822
 2745SOL    HW219695   3.411   1.299   4.078 -2.0118  0.7829 -0.0066
 2746SOL     OW19696   3.207   4.353  16.565  0.2093  0.2918  0.3861
 2746SOL    HW119697   3.188   4.264  16.535 -2.7698  0.6907  1.1173
 2746SOL    HW219698   3.298   4.361  16.537 -0.3970 -1.0954 -1.9918
 2747SOL     OW19699   3.323   4.040   4.053 -0.0148 -0.0823 -0.5304
 2747SOL    HW119700   3.262   4.113   4.061  0.7430  0.0977  3.2226
 2747SOL    HW219701   3.264   3.971   4.022 -0.0551  0.0809 -0.8218
 2748SOL     OW19702   0.471   0.534  14.260 -0.5023  0.1032  0.6852
 2748SOL    HW119703   0.377   0.522  14.271 -0.2361 -1.8563  0.8211
 2748SOL    HW219704   0.490   0.445  14.229  0.3280 -0.2041  2.0650
 2749SOL     OW19705   3.013   3.012   7.103 -0.7690 -0.1489 -0.2655
 2749SOL    HW119706   2.940   2.989   7.160 -0.4131 -0.2549  0.1477
 2749SOL    HW219707   3.018   2.940   7.040  0.6758 -0.6791  0.4651
 2750SOL     OW19708   0.975   3.447  11.826  0.6072 -0.1994  0.1457
 2750SOL    HW119709   1.017   3.385  11.766 -0.9721 -0.6389 -0.4924
 2750SOL    HW219710   0.962   3.387  11.900  1.4161  1.4594  1.6204
 2751SOL     OW19711   3.425   3.904  11.104  0.0110 -0.5973 -0.9624
 2751SOL    HW119712   3.353   3.901  11.041  0.5386  1.0221 -1.6545
 2751SOL    HW219713   3.425   3.998  11.123 -1.0262 -0.4399 -1.7497
 2752SOL     OW19714   0.698   4.219   7.607 -0.6192 -0.5628  0.3570
 2752SOL    HW119715   0.679   4.299   7.558  0.9617 -0.5752 -0.2687
 2752SOL    HW219716   0.668   4.148   7.549 -1.0197 -0.1290  0.0305
 2753SOL     OW19717   3.622   4.125   0.111  0.0075 -0.3480 -0.7305
 2753SOL    HW119718   3.679   4.077   0.171  1.6976  1.9600 -0.4741
 2753SOL    HW219719   3.676   4.194   0.074  1.3724 -1.0765 -0.0695
 2754SOL     OW19720   3.496   3.581  16.282  0.3432 -0.3242  0.0261
 2754SOL    HW119721   3.469   3.490  16.276  2.2229 -0.8025 -1.1481
 2754SOL    HW219722   3.451   3.626  16.211  1.8157  1.6023  0.2780
 2755SOL     OW19723   4.639   1.639   9.492 -0.2048  0.1169 -0.2089
 2755SOL    HW119724   0.000   1.672   9.458  0.3701  0.2472  1.3399
 2755SOL    HW219725   4.589   1.713   9.457  0.9801  1.8022  1.6960
 2756SOL     OW19726   2.893   1.347   3.069 -1.0111 -0.0514 -0.5507
 2756SOL    HW119727   2.834   1.360   2.994 -2.6672 -2.3541  0.3654
 2756SOL    HW219728   2.971   1.388   3.033 -0.8874  0.5215  0.3873
 2757SOL     OW19729   3.453   2.817   4.457  0.6446  0.1526 -0.2760
 2757SOL    HW119730   3.528   2.861   4.417 -0.0213  0.6335 -0.9969
 2757SOL    HW219731   3.492   2.760   4.523 -1.5447  0.5703  1.3842
 2758SOL     OW19732   1.577   3.351   5.822 -0.2584  0.0511  0.9808
 2758SOL    HW119733   1.560   3.424   5.762  2.6013  0.4332  0.6723
 2758SOL    HW219734   1.489   3.344   5.859 -0.9457 -0.6655 -0.7893
 2759SOL     OW19735   0.398   4.138   3.397  0.3551  0.1762 -0.3493
 2759SOL    HW119736   0.439   4.214   3.356  1.0637  0.5817  1.1235
 2759SOL    HW219737   0.324   4.176   3.445 -0.7675 -0.1419 -1.8021
 2760SOL     OW19738   1.017   3.521   4.817  0.5350  0.0245  0.1919
 2760SOL    HW119739   1.091   3.530   4.877  2.6222 -4.4810 -1.6897
 2760SOL    HW219740   0.950   3.578   4.855  1.5740 -0.5340  2.8649
 2761SOL     OW19741   3.436   3.471   9.254 -0.1469 -0.3618 -0.1817
 2761SOL    HW119742   3.364   3.417   9.220 -1.8968  2.7824 -1.5644
 2761SOL    HW219743   3.464   3.440   9.339  0.2439 -1.4531 -0.7102
 2762SOL     OW19744   0.345   2.264  11.806  0.0244  0.1328  0.7764
 2762SOL    HW119745   0.249   2.258  11.802  0.0686  0.2896 -0.9091
 2762SOL    HW219746   0.347   2.176  11.768  3.5350 -0.1804  1.7261
 2763SOL     OW19747   3.297   1.813   3.684 -0.7359 -0.6172  0.4896
 2763SOL    HW119748   3.363   1.883   3.675  2.1423 -3.5039 -0.9331
 2763SOL    HW219749   3.258   1.811   3.597 -1.2352 -0.7530  0.7192
 2764SOL     OW19750   1.832   0.095   5.460  0.3320  0.3756  0.3493
 2764SOL    HW119751   1.821   0.002   5.478  0.9119  0.0060 -1.1521
 2764SOL    HW219752   1.844   0.133   5.547  1.2140 -3.2570  1.7720
 2765SOL     OW19753   1.362   2.594   9.262  0.1883 -0.0199  0.5869
 2765SOL    HW119754   1.321   2.545   9.333 -1.6513 -0.1147 -0.5588
 2765SOL    HW219755   1.363   2.520   9.201  0.5125 -0.3622  1.0056
 2766SOL     OW19756   0.953   1.233   3.347  0.7522  0.2225 -0.5388
 2766SOL    HW119757   1.028   1.292   3.356  2.1378 -1.4506 -1.1081
 2766SOL    HW219758   1.003   1.152   3.357  1.3620  0.7509  0.8066
 2767SOL     OW19759   2.801   0.435   2.417  0.1824 -0.4316 -0.0781
 2767SOL    HW119760   2.842   0.521   2.409 -0.8344  0.0181 -0.3208
 2767SOL    HW219761   2.851   0.403   2.493  0.1555  0.8709  0.4918
 2768SOL     OW19762   0.938   3.003   5.912 -0.0749 -0.3698  0.3637
 2768SOL    HW119763   0.935   3.095   5.937  0.6733 -0.4939  0.8920
 2768SOL    HW219764   0.871   2.961   5.966 -0.5529  0.7580  0.6470
 2769SOL     OW19765   2.341   4.577   8.701 -0.0261  0.3041 -0.5227
 2769SOL    HW119766   2.392   4.602   8.777 -1.0713 -0.6845  0.5025
 2769SOL    HW219767   2.326   4.658   8.653  0.6520 -0.5579 -2.2357
 2770SOL     OW19768   3.040   4.129   9.469 -0.5006 -0.2980 -0.5996
 2770SOL    HW119769   2.969   4.116   9.407 -0.9291 -0.6265 -0.0298
 2770SOL    HW219770   3.027   4.224   9.470  0.8175 -0.0950 -2.0676
 2771SOL     OW19771   4.392   1.585   8.347 -0.5020 -0.2784 -0.3113
 2771SOL    HW119772   4.354   1.646   8.283 -0.3933  1.0554  0.8842
 2771SOL    HW219773   4.483   1.586   8.317 -1.0515  0.0633 -1.9622
 2772SOL     OW19774   3.706   4.427   4.082  0.1039  0.2261  0.5768
 2772SOL    HW119775   3.766   4.393   4.149  1.5442  1.3021 -0.1634
 2772SOL    HW219776   3.657   4.496   4.128 -0.2726  0.6828 -0.5005
 2773SOL     OW19777   1.649   2.172   8.011 -0.0403 -0.5769  0.4535
 2773SOL    HW119778   1.677   2.164   8.102  1.1652 -0.0354  0.1385
 2773SOL    HW219779   1.684   2.256   7.980 -2.9490  0.1465 -0.9099
 2774SOL     OW19780   2.654   0.439   3.085 -0.1644  0.2529 -0.0452
 2774SOL    HW119781   2.591   0.371   3.065  2.2888 -1.5361 -1.7772
 2774SOL    HW219782   2.638   0.508   3.020 -2.1281  0.1284  0.3283
 2775SOL     OW19783   2.921   1.631   8.448  0.0235 -0.6987  0.2733
 2775SOL    HW119784   2.973   1.659   8.523 -2.0889  2.3349  0.6224
 2775SOL    HW219785   2.900   1.542   8.475 -0.4857 -0.3658  0.9832
 2776SOL     OW19786   2.942   3.031  10.477 -0.0681 -0.3974 -0.1835
 2776SOL    HW119787   3.034   3.008  10.463  1.1193  3.5894  0.9510
 2776SOL    HW219788   2.944   3.018  10.572 -1.1255 -1.4885 -0.3127
 2777SOL     OW19789   2.396   4.638   2.997  0.2977 -0.6835  0.6789
 2777SOL    HW119790   2.348   4.721   2.984  0.2040 -1.4235 -3.5773
 2777SOL    HW219791   2.475   4.679   3.031 -0.0259 -1.0213  1.8487
 2778SOL     OW19792   0.960   3.788   0.113  0.3670 -0.0227 -0.1824
 2778SOL    HW119793   1.000   3.868   0.078  1.6280  0.4625  2.3764
 2778SOL    HW219794   0.972   3.733   0.035  0.8882  0.9402 -0.7783
 2779SOL     OW19795   2.129   3.020   6.813  0.2050 -0.1101  0.0827
 2779SOL    HW119796   2.221   2.998   6.821  0.1167 -0.9806 -1.3610
 2779SOL    HW219797   2.121   3.076   6.891  0.2586 -1.2951  0.9347
 2780SOL     OW19798   3.438   3.808   6.067 -0.1909  0.4963 -0.4670
 2780SOL    HW119799   3.366   3.801   6.005  0.4607 -0.3558 -1.1248
 2780SOL    HW219800   3.479   3.888   6.033 -0.9838  0.5472 -1.3200
 2781SOL     OW19801   2.030   1.212   9.111  0.0511  0.1906 -0.1646
 2781SOL    HW119802   2.016   1.177   9.023  0.4885 -1.1165  0.2858
 2781SOL    HW219803   1.963   1.278   9.127 -1.1745 -0.8189 -1.1706
 2782SOL     OW19804   2.577   3.190   3.073 -0.2489  0.3889 -0.1382
 2782SOL    HW119805   2.506   3.253   3.066  0.0291  1.0793  3.2442
 2782SOL    HW219806   2.521   3.117   3.046  1.0612 -1.4431  2.0762
 2783SOL     OW19807   1.442   3.340  10.112  0.1034  0.0348 -0.7245
 2783SOL    HW119808   1.426   3.380  10.027  2.9017  2.5646 -0.0675
 2783SOL    HW219809   1.480   3.417  10.153 -0.9266 -0.3809  1.0410
 2784SOL     OW19810   1.463   2.230  11.243 -0.1097  0.0101 -0.0337
 2784SOL    HW119811   1.554   2.260  11.241 -0.1227  0.0632  0.1848
 2784SOL    HW219812   1.440   2.230  11.150  2.1635 -1.9910 -0.5800
 2785SOL     OW19813   1.853   1.721   2.682  0.0097  0.0370  0.0009
 2785SOL    HW119814   1.818   1.726   2.593  0.7378 -1.2864 -0.3713
 2785SOL    HW219815   1.831   1.805   2.721  2.7182  0.5348  0.4726
 2786SOL     OW19816   0.593   1.353   6.634 -0.2455  0.0989  0.4296
 2786SOL    HW119817   0.667   1.295   6.652 -0.1403  1.5101  4.6265
 2786SOL    HW219818   0.648   1.425   6.601 -0.3091 -0.1271 -0.1619
 2787SOL     OW19819   0.921   4.520   3.272 -0.3496 -0.4482 -0.4635
 2787SOL    HW119820   0.897   4.583   3.204  0.3664 -2.1373 -2.3028
 2787SOL    HW219821   0.974   4.576   3.329 -2.0752  0.2990  0.3853
 2788SOL     OW19822   3.542   2.418   3.086  0.4970  0.3449 -0.4114
 2788SOL    HW119823   3.622   2.469   3.098  1.5054 -1.9485  2.5931
 2788SOL    HW219824   3.551   2.359   3.161  0.5181  1.7467  0.6761
 2789SOL     OW19825   0.351   1.351   7.929  0.1786  0.3857 -0.6050
 2789SOL    HW119826   0.427   1.367   7.873  0.7031 -0.6202 -0.1982
 2789SOL    HW219827   0.328   1.428   7.979  4.3321  3.4508 -3.4211
 2790SOL     OW19828   2.071   2.098   7.801 -0.0900 -0.2155  0.2417
 2790SOL    HW119829   2.119   2.035   7.855  0.5339 -0.4195 -0.5579
 2790SOL    HW219830   2.056   2.044   7.723 -0.2387 -0.2394  0.2874
 2791SOL     OW19831   4.308   3.891   6.961  0.3275 -0.4149 -0.4860
 2791SOL    HW119832   4.329   3.833   6.887 -0.2800 -1.2922  0.0229
 2791SOL    HW219833   4.386   3.946   6.962  0.9319 -1.2833 -0.0403
 2792SOL     OW19834   1.041   3.651  14.746  0.0638 -0.3513 -0.0443
 2792SOL    HW119835   1.075   3.618  14.829 -1.2480 -1.8052 -0.0639
 2792SOL    HW219836   0.948   3.645  14.769 -0.0073  1.3039  0.0717
 2793SOL     OW19837   2.519   2.585   1.551 -0.0165  0.2137 -0.0632
 2793SOL    HW119838   2.453   2.517   1.538 -0.7966  1.0151 -0.3165
 2793SOL    HW219839   2.595   2.528   1.562 -0.2226 -0.0178  0.1609
 2794SOL     OW19840   1.700   4.001   5.582  0.2496 -0.1289 -0.2160
 2794SOL    HW119841   1.728   4.021   5.671 -0.9000 -1.1678  0.3834
 2794SOL    HW219842   1.605   3.992   5.592  0.1032  1.1426 -0.4398
 2795SOL     OW19843   2.196   2.940   5.658  0.4196  0.2075 -0.1655
 2795SOL    HW119844   2.202   2.894   5.574 -0.9531 -1.2064  0.4995
 2795SOL    HW219845   2.213   3.033   5.641  1.0189  0.4108  1.5730
 2796SOL     OW19846   2.442   3.439   6.819 -0.9202 -0.5132 -0.2439
 2796SOL    HW119847   2.468   3.431   6.727  2.8383 -0.3509  0.7801
 2796SOL    HW219848   2.348   3.443   6.806 -1.0379 -0.9518  0.4590
 2797SOL     OW19849   0.890   2.454   8.540  0.2692  0.4610  0.1452
 2797SOL    HW119850   0.827   2.382   8.550 -0.3827  1.0147  0.0836
 2797SOL    HW219851   0.961   2.438   8.602 -0.1346 -2.1005 -0.0544
 2798SOL     OW19852   4.433   1.880   1.485  0.5204  0.1434  0.2486
 2798SOL    HW119853   4.398   1.897   1.573  0.2533  2.7718 -0.3591
 2798SOL    HW219854   4.527   1.902   1.492  0.3015  0.5512  2.0656
 2799SOL     OW19855   3.936   4.053   0.946  0.0026 -0.0085  0.5449
 2799SOL    HW119856   4.015   4.017   0.907 -1.1881 -1.5865 -0.4318
 2799SOL    HW219857   3.876   3.978   0.944 -1.7278  1.3788  0.4971
 2800SOL     OW19858   2.843   0.471  10.317  0.5538  0.1909  0.2996
 2800SOL    HW119859   2.768   0.411  10.320 -0.4832  1.4700 -0.5339
 2800SOL    HW219860   2.921   0.415  10.321 -0.3909 -1.1220  0.2342
 2801SOL     OW19861   3.435   2.628   8.787  0.2363  0.4110 -0.0637
 2801SOL    HW119862   3.394   2.564   8.728 -0.0692 -0.6735  1.3483
 2801SOL    HW219863   3.426   2.590   8.874 -0.2361 -0.4499 -0.4852
 2802SOL     OW19864   0.732   2.360  14.262  0.0344 -0.5854  0.1485
 2802SOL    HW119865   0.714   2.422  14.192 -2.8522 -0.0632  1.3541
 2802SOL    HW219866   0.694   2.408  14.335  1.5358  2.9830 -1.3986
 2803SOL     OW19867   3.088   3.899   3.531  0.4552  0.4748 -0.4873
 2803SOL    HW119868   3.097   3.837   3.459  0.1204 -1.0319  0.7797
 2803SOL    HW219869   3.153   3.965   3.507  0.1329  0.7150 -0.6881
 2804SOL     OW19870   1.180   0.652   6.130 -0.0358 -0.0991  0.0334
 2804SOL    HW119871   1.150   0.741   6.112  1.3110  0.1244 -1.0988
 2804SOL    HW219872   1.120   0.613   6.067 -0.8073 -0.6956  1.1369
 2805SOL     OW19873   2.369   1.923   7.405 -0.0572  0.2951 -0.5038
 2805SOL    HW119874   2.360   1.907   7.311 -3.0419 -5.6098  0.7646
 2805SOL    HW219875   2.420   2.004   7.410  3.4818 -1.9950  0.1645
 2806SOL     OW19876   3.928   2.997   2.100  0.2342  0.8592 -0.1932
 2806SOL    HW119877   4.009   3.046   2.085  1.9020 -1.8925 -0.1691
 2806SOL    HW219878   3.909   3.018   2.191 -1.9357 -1.2329 -0.1900
 2807SOL     OW19879   4.228   3.975   5.190  0.0991  0.5525 -0.3029
 2807SOL    HW119880   4.157   3.962   5.253  0.7355 -1.8370 -0.0899
 2807SOL    HW219881   4.216   4.063   5.154  0.7562  0.5343 -0.5637
 2808SOL     OW19882   3.439   3.258  13.142 -0.5514  0.0573 -0.1792
 2808SOL    HW119883   3.423   3.246  13.235  0.5877 -0.3012 -0.0308
 2808SOL    HW219884   3.385   3.190  13.102 -2.1784 -0.5623  3.1104
 2809SOL     OW19885   3.858   2.624  16.697  0.0868  0.1475 -0.2786
 2809SOL    HW119886   3.913   2.588  16.767  1.2106  2.0556 -0.1530
 2809SOL    HW219887   3.827   2.548  16.648 -1.5823  0.4008  0.4077
 2810SOL     OW19888   2.135   1.925  16.393 -0.0161 -0.1781 -0.4944
 2810SOL    HW119889   2.134   1.837  16.433 -0.5643 -0.8128 -1.9189
 2810SOL    HW219890   2.097   1.986  16.456  0.4741  0.3871 -0.7514
 2811SOL     OW19891   2.447   3.937   8.233  0.5045 -0.5485 -0.1311
 2811SOL    HW119892   2.374   3.892   8.277  0.0867 -1.9462 -2.2625
 2811SOL    HW219893   2.437   4.026   8.266 -1.9971 -1.8663  2.6818
 2812SOL     OW19894   4.091   3.741  16.187  0.7189  0.4594  0.2726
 2812SOL    HW119895   4.092   3.822  16.238  1.0881  1.1007 -0.7331
 2812SOL    HW219896   3.999   3.716  16.185  0.6112  0.9838 -1.9541
 2813SOL     OW19897   3.503   3.291   5.888 -0.4456 -0.3787  0.7937
 2813SOL    HW119898   3.443   3.355   5.850  0.6740  1.0912  1.4975
 2813SOL    HW219899   3.441   3.221   5.909 -2.6490  1.6531  1.0167
 2814SOL     OW19900   2.364   3.039   4.400  0.5497 -0.3784  0.1302
 2814SOL    HW119901   2.364   3.072   4.490 -1.6577  3.1426 -1.1909
 2814SOL    HW219902   2.444   3.078   4.366 -1.9042  2.9540 -1.7355
 2815SOL     OW19903   3.141   4.436   3.427 -0.4880 -1.0063  0.1051
 2815SOL    HW119904   3.112   4.393   3.347 -0.1107  3.0012 -2.1980
 2815SOL    HW219905   3.188   4.512   3.394 -1.5284 -0.5116 -0.2412
 2816SOL     OW19906   1.418   1.289   7.253  0.0490  0.1397  0.1525
 2816SOL    HW119907   1.471   1.221   7.293  0.6774  0.6983  0.2605
 2816SOL    HW219908   1.349   1.286   7.320 -0.7908 -0.6188 -0.7333
 2817SOL     OW19909   1.469   3.179   3.549  0.4151 -0.8249  0.1807
 2817SOL    HW119910   1.463   3.110   3.615 -0.0225 -0.4130  0.5724
 2817SOL    HW219911   1.377   3.194   3.528  0.9101  0.5878 -0.9846
 2818SOL     OW19912   3.741   4.381   4.868  0.0648  0.3714 -0.0578
 2818SOL    HW119913   3.777   4.349   4.951  0.8956  0.3706 -0.4203
 2818SOL    HW219914   3.762   4.472   4.889 -3.2163  0.9704  0.7203
 2819SOL     OW19915   2.977   3.072   6.369 -0.3771 -0.3550 -0.7896
 2819SOL    HW119916   2.968   3.167   6.355 -0.3282 -0.3561 -0.8273
 2819SOL    HW219917   3.051   3.061   6.309  1.8422 -0.5700  1.9809
 2820SOL     OW19918   3.959   3.581   0.810 -0.1265  0.5396  0.1584
 2820SOL    HW119919   3.896   3.590   0.881  2.7425  1.6434  2.5786
 2820SOL    HW219920   3.902   3.531   0.751  0.1217  2.2290 -1.5100
 2821SOL     OW19921   0.073   2.752   4.162  0.1697  0.0684 -0.3597
 2821SOL    HW119922   0.025   2.832   4.183 -0.4998 -0.0195 -1.5373
 2821SOL    HW219923   0.026   2.722   4.084  1.2932  0.7982 -1.3215
 2822SOL     OW19924   1.773   1.951   2.146  0.5271  0.1405  0.3163
 2822SOL    HW119925   1.707   1.964   2.078 -3.5864 -3.0370  3.6743
 2822SOL    HW219926   1.856   1.966   2.100 -0.9376  0.9654 -2.0799
 2823SOL     OW19927   0.929   2.803   4.949 -0.1487 -0.3275  0.1254
 2823SOL    HW119928   0.928   2.846   4.863  6.8580  0.1522  0.3013
 2823SOL    HW219929   0.998   2.737   4.938 -0.0180  0.1583 -1.9477
 2824SOL     OW19930   1.113   0.838   8.283 -0.0024  0.0731 -0.6342
 2824SOL    HW119931   1.179   0.870   8.345 -0.1654  0.2462 -0.5504
 2824SOL    HW219932   1.097   0.750   8.316  0.0172 -0.0478 -0.9391
 2825SOL     OW19933   1.269   3.707   7.455 -0.2237 -0.2552  0.1933
 2825SOL    HW119934   1.264   3.612   7.448 -2.3128 -0.0267 -1.2825
 2825SOL    HW219935   1.310   3.734   7.373  0.8357 -2.2101  0.0779
 2826SOL     OW19936   0.115   0.071   4.121  0.1702  0.1247 -0.3247
 2826SOL    HW119937   0.186   0.023   4.077  0.4826 -0.0378  0.3600
 2826SOL    HW219938   0.153   0.108   4.201 -1.4698  0.4869  0.2849
 2827SOL     OW19939   2.541   1.682  11.507 -0.6597  0.4795  0.6005
 2827SOL    HW119940   2.491   1.619  11.455 -0.6382 -0.8031  2.1417
 2827SOL    HW219941   2.476   1.748  11.529 -0.6301  0.9741 -0.7610
 2828SOL     OW19942   0.739   3.428   4.911  0.2127  0.3688  0.1957
 2828SOL    HW119943   0.724   3.482   4.834  0.4471 -0.2529 -0.2840
 2828SOL    HW219944   0.816   3.382   4.877 -1.2052 -0.3110 -2.0349
 2829SOL     OW19945   3.008   1.111   7.333  0.4562 -0.6641  0.0302
 2829SOL    HW119946   3.042   1.043   7.391  1.3217  0.6468  1.0712
 2829SOL    HW219947   2.938   1.149   7.386  0.5176 -1.2242  0.5202
 2830SOL     OW19948   0.931   2.391   7.031 -0.6528 -0.4661 -0.0340
 2830SOL    HW119949   0.902   2.304   7.058 -0.2782 -0.4940  0.2691
 2830SOL    HW219950   0.850   2.440   7.015 -2.0057 -2.2931  1.3314
 2831SOL     OW19951   0.616   0.255   7.703 -0.0685  0.4691 -0.0585
 2831SOL    HW119952   0.652   0.168   7.720 -0.8249  1.0973  4.7641
 2831SOL    HW219953   0.611   0.294   7.790  0.3438  0.7454 -0.1604
 2832SOL     OW19954   3.804   1.118  10.935  0.5671 -0.2737 -0.6433
 2832SOL    HW119955   3.899   1.120  10.949  0.4827  1.9717 -0.4765
 2832SOL    HW219956   3.769   1.199  10.897  1.0955  0.5831  0.7129
 2833SOL     OW19957   0.299   0.989   6.299 -0.0836  0.2344  0.5805
 2833SOL    HW119958   0.274   1.081   6.289  2.0357  0.7482  0.0155
 2833SOL    HW219959   0.216   0.944   6.309  0.5973 -0.7627  1.7220
 2834SOL     OW19960   0.863   3.186   5.104  0.0891 -0.4208  0.5976
 2834SOL    HW119961   0.903   3.215   5.022 -0.8486  0.0299  0.3007
 2834SOL    HW219962   0.784   3.140   5.074 -0.7102 -0.1166  2.2434
 2835SOL     OW19963   0.757   1.503   5.030  0.2765  0.6460 -0.7283
 2835SOL    HW119964   0.781   1.565   5.100  2.4014  1.0023 -1.7734
 2835SOL    HW219965   0.697   1.447   5.079 -0.4449  1.6173 -0.4850
 2836SOL     OW19966   4.547   2.565  10.812 -0.2972 -0.1363  0.4950
 2836SOL    HW119967   4.608   2.578  10.884 -0.0916 -1.2098  0.5130
 2836SOL    HW219968   4.588   2.613  10.741 -0.6125  0.4886  0.7308
 2837SOL     OW19969   1.671   4.272   4.704  0.4680 -0.3428  0.8801
 2837SOL    HW119970   1.711   4.358   4.713 -1.8793  0.7844  0.6657
 2837SOL    HW219971   1.724   4.220   4.764 -0.3314 -0.4509  1.4911
 2838SOL     OW19972   2.306   3.389   9.703  0.3957 -0.7236  0.6501
 2838SOL    HW119973   2.224   3.439   9.710  0.3785 -0.5104 -1.0240
 2838SOL    HW219974   2.283   3.307   9.748 -2.0150 -0.0759  0.5944
 2839SOL     OW19975   1.058   4.366  16.567 -0.3588 -0.0343  0.3239
 2839SOL    HW119976   1.032   4.363  16.474  0.4128 -0.0449  0.1101
 2839SOL    HW219977   0.972   4.379  16.607  0.4265 -0.5835  2.1501
 2840SOL     OW19978   2.711   2.010   8.316 -0.1817 -0.4585  0.3517
 2840SOL    HW119979   2.793   2.026   8.363 -1.2696  0.6013  1.8443
 2840SOL    HW219980   2.635   2.029   8.370  1.2753 -0.7015  2.4782
 2841SOL     OW19981   0.278   1.323   4.320  0.4732 -0.2622  0.6728
 2841SOL    HW119982   0.279   1.335   4.415 -0.2131  2.4821  0.3314
 2841SOL    HW219983   0.199   1.370   4.296  0.2179 -1.2176 -0.3418
 2842SOL     OW19984   2.497   0.205   1.253 -0.4584  0.3246  0.5251
 2842SOL    HW119985   2.583   0.246   1.239  0.3547 -1.2304  0.9834
 2842SOL    HW219986   2.446   0.275   1.294  0.2846  0.9296  0.4295
 2843SOL     OW19987   2.299   1.919   3.118  0.5137 -0.2503 -0.2558
 2843SOL    HW119988   2.360   1.946   3.187  1.3356 -2.2788 -0.1989
 2843SOL    HW219989   2.305   1.825   3.134 -1.4476 -0.5788 -1.4873
 2844SOL     OW19990   4.333   4.191   3.540  0.0263  0.4603 -0.0710
 2844SOL    HW119991   4.361   4.245   3.466 -1.0566  1.5522  0.3263
 2844SOL    HW219992   4.240   4.203   3.526 -0.2778 -4.3049 -2.3259
 2845SOL     OW19993   4.605   4.409  17.026 -0.7465 -0.2448 -0.0448
 2845SOL    HW119994   4.625   4.483  16.969  0.7535  0.5320  1.4661
 2845SOL    HW219995   4.515   4.429  17.051 -0.6757 -1.1451  0.9237
 2846SOL     OW19996   1.566   0.621   7.462  0.2104  0.2347 -0.4115
 2846SOL    HW119997   1.659   0.640   7.476 -0.3943  2.1754  0.8944
 2846SOL    HW219998   1.543   0.572   7.541 -1.4114  2.8900  0.7657
 2847SOL     OW19999   0.425   4.280  12.244 -0.1817 -0.1448 -0.6434
 2847SOL    HW120000   0.402   4.194  12.210  0.7422 -0.5689 -0.2018
 2847SOL    HW220001   0.521   4.279  12.249 -0.3684 -0.5871  3.0513
 2848SOL     OW20002   3.421   4.696   8.555  0.3294  0.7556  0.3643
 2848SOL    HW120003   3.429   0.069   8.558  1.8911  0.6281  0.4836
 2848SOL    HW220004   3.464   4.679   8.639 -0.3622 -0.6502  0.4402
 2849SOL     OW20005   1.352   3.491   8.628 -0.2122 -0.2176 -0.5445
 2849SOL    HW120006   1.358   3.402   8.592 -0.3074 -0.1110 -0.8194
 2849SOL    HW220007   1.320   3.484   8.717  3.0581  1.6400  0.7860
 2850SOL     OW20008   3.829   0.285   9.215  0.1637  0.1415 -0.0046
 2850SOL    HW120009   3.778   0.323   9.287  0.9701  1.0148  0.1022
 2850SOL    HW220010   3.759   0.235   9.173 -1.8230  1.6057  1.5810
 2851SOL     OW20011   1.476   3.173   5.114  0.0753  0.4119  0.1480
 2851SOL    HW120012   1.505   3.166   5.023 -0.7410  3.2045 -0.3115
 2851SOL    HW220013   1.410   3.104   5.113  2.4847 -1.9144 -0.1480
 2852SOL     OW20014   0.511   3.611  12.133  0.1569  0.3102  0.4147
 2852SOL    HW120015   0.598   3.651  12.124  0.1401  0.5966  1.6088
 2852SOL    HW220016   0.534   3.521  12.155 -1.7612 -0.4423 -0.6781
 2853SOL     OW20017   1.660   3.572   4.671  0.6439 -0.3579  0.4556
 2853SOL    HW120018   1.721   3.539   4.606  0.8656 -2.0861  1.5321
 2853SOL    HW220019   1.634   3.488   4.708 -0.5511  0.0659  0.5796
 2854SOL     OW20020   1.449   1.643  12.316 -0.4210  0.8810  0.4839
 2854SOL    HW120021   1.434   1.673  12.226  1.5260 -0.9807 -0.4712
 2854SOL    HW220022   1.369   1.664  12.363 -1.3302 -1.3250 -0.0934
 2855SOL     OW20023   1.484   4.590   2.156  0.0756 -0.1955  0.9157
 2855SOL    HW120024   1.534   4.655   2.205 -0.5213  0.4216  0.7261
 2855SOL    HW220025   1.523   4.597   2.069  0.3221 -0.7021  0.9877
 2856SOL     OW20026   1.123   3.041  14.473 -0.1923 -0.0455 -0.0921
 2856SOL    HW120027   1.160   2.961  14.434  0.4846  0.7281 -1.0424
 2856SOL    HW220028   1.030   3.023  14.482 -0.5030  1.3932 -0.5748
 2857SOL     OW20029   1.763   3.973   8.434  0.7584  0.0232  0.2224
 2857SOL    HW120030   1.708   3.941   8.505 -1.0653  0.2238 -1.0889
 2857SOL    HW220031   1.848   3.950   8.471  0.9657  0.3471 -0.0457
 2858SOL     OW20032   1.906   2.989   6.182  0.6028 -0.5401  0.0161
 2858SOL    HW120033   1.994   3.014   6.155  0.3427 -0.1271 -0.4362
 2858SOL    HW220034   1.920   2.902   6.221 -1.0658 -0.8251 -0.0009
 2859SOL     OW20035   3.685   1.680   5.978 -0.6736 -0.2115  0.7837
 2859SOL    HW120036   3.746   1.642   5.915 -0.6471 -0.1456  0.7699
 2859SOL    HW220037   3.676   1.772   5.953  0.9389 -0.8407 -2.1055
 2860SOL     OW20038   2.881   4.401   8.166  0.1320  0.4040  0.6215
 2860SOL    HW120039   2.927   4.381   8.084 -0.3083  0.5496  0.3373
 2860SOL    HW220040   2.863   4.315   8.204  0.1456 -0.7922 -2.1044
 2861SOL     OW20041   1.301   2.063   5.044  0.3427 -0.5188  0.6307
 2861SOL    HW120042   1.341   2.079   4.959 -1.2765 -0.0926 -0.0322
 2861SOL    HW220043   1.353   2.115   5.106  0.0332  1.1627 -0.5197
 2862SOL     OW20044   4.228   3.427   5.681  0.1596 -0.0809  0.3641
 2862SOL    HW120045   4.266   3.452   5.766  0.5851 -1.6893  0.6571
 2862SOL    HW220046   4.287   3.481   5.629 -1.2432  0.1403 -0.9906
 2863SOL     OW20047   4.701   2.970   6.884  0.8404 -0.3124  0.3384
 2863SOL    HW120048   0.044   3.006   6.823  1.0541  1.7867  1.8066
 2863SOL    HW220049   4.699   2.881   6.849 -0.4104 -1.0121  2.1920
 2864SOL     OW20050   1.095   2.198   1.430  0.0402 -0.1567  0.5603
 2864SOL    HW120051   1.122   2.272   1.376 -0.0368  1.7182  3.1189
 2864SOL    HW220052   1.020   2.228   1.481 -0.1195  0.6051 -0.1244
 2865SOL     OW20053   3.888   0.060  17.342 -0.2727 -0.0028 -0.9092
 2865SOL    HW120054   3.856   0.134  17.394  0.8545  1.8400 -2.8208
 2865SOL    HW220055   3.825   0.063  17.269 -0.1360 -0.4198 -1.0407
 2866SOL     OW20056   2.901   0.967   2.037 -0.2446  0.0311  0.5525
 2866SOL    HW120057   2.857   0.943   1.955 -0.1869  1.7474  0.0182
 2866SOL    HW220058   2.818   0.992   2.078 -0.7182  1.6136 -1.3649
 2867SOL     OW20059   2.137   0.734   8.526 -0.2053  0.1929  0.6573
 2867SOL    HW120060   2.102   0.764   8.610 -0.8526 -3.7885  1.8164
 2867SOL    HW220061   2.224   0.773   8.531 -0.3072  0.5599 -0.4369
 2868SOL     OW20062   3.261   2.601  12.206  0.1481 -0.3069  0.2111
 2868SOL    HW120063   3.347   2.635  12.180 -0.9500  1.8656 -0.5994
 2868SOL    HW220064   3.285   2.509  12.214 -1.8316 -0.9278 -0.7832
 2869SOL     OW20065   0.106   4.656   1.946  0.6196  0.4991 -0.2383
 2869SOL    HW120066   0.154   4.652   1.863 -0.0826 -0.4887 -0.6044
 2869SOL    HW220067   0.014   4.662   1.918  0.2375 -1.1230  0.6531
 2870SOL     OW20068   2.237   0.641   9.737  0.0959  0.1290 -0.0139
 2870SOL    HW120069   2.160   0.608   9.783  0.5342  0.1359  0.7290
 2870SOL    HW220070   2.203   0.715   9.687  1.3201 -1.4308 -3.0811
 2871SOL     OW20071   4.640   0.187  15.022  0.2018 -0.1751 -0.4778
 2871SOL    HW120072   4.700   0.168  15.093  0.7344 -0.7350 -1.0791
 2871SOL    HW220073   4.697   0.169  14.947 -0.0161 -1.6897 -0.2693
 2872SOL     OW20074   0.427   3.756   6.365  0.4190 -0.4049 -0.3572
 2872SOL    HW120075   0.452   3.721   6.450 -0.3607  0.1710  0.1064
 2872SOL    HW220076   0.513   3.798   6.357 -0.0443  0.4293 -1.0308
 2873SOL     OW20077   1.684   2.727   4.117  0.0857 -0.6770 -0.2903
 2873SOL    HW120078   1.668   2.639   4.081  1.8112 -1.0201 -0.2135
 2873SOL    HW220079   1.761   2.752   4.067 -2.4868  3.7881 -2.0114
 2874SOL     OW20080   2.854   3.676   2.426 -0.4427 -0.1896  0.5651
 2874SOL    HW120081   2.813   3.753   2.465  3.9072  2.4181  0.0916
 2874SOL    HW220082   2.940   3.677   2.468  0.3626 -3.5314 -1.0294
 2875SOL     OW20083   3.760   2.756   2.171 -0.1520 -0.2539  0.0297
 2875SOL    HW120084   3.804   2.829   2.215 -1.6314  1.2074 -0.9593
 2875SOL    HW220085   3.672   2.770   2.205 -0.5655 -1.3872 -0.5716
 2876SOL     OW20086   1.452   0.484  14.614  0.0318  0.1000  1.1663
 2876SOL    HW120087   1.435   0.535  14.534 -0.3863  0.6532  1.6146
 2876SOL    HW220088   1.471   0.557  14.672  0.1430 -0.1051  1.3868
 2877SOL     OW20089   2.268   3.194   3.539  0.3053 -0.0696  0.1445
 2877SOL    HW120090   2.311   3.272   3.574  0.8972 -0.1329 -0.4262
 2877SOL    HW220091   2.179   3.228   3.529  0.4882  0.4250  0.2117
 2878SOL     OW20092   1.317   0.207   6.043 -0.0195  0.2234  0.3425
 2878SOL    HW120093   1.270   0.136   6.087 -1.2504  0.2660 -0.9051
 2878SOL    HW220094   1.245   0.237   5.989  0.0497  1.1872  0.7823
 2879SOL     OW20095   4.451   2.072   7.776  0.0709 -0.5888  0.0750
 2879SOL    HW120096   4.531   2.122   7.762 -1.7205  1.4145 -2.9588
 2879SOL    HW220097   4.391   2.108   7.711  1.6189 -0.1143 -1.1056
 2880SOL     OW20098   2.230   0.609  13.550  0.3604  0.0454  0.2404
 2880SOL    HW120099   2.211   0.595  13.457  0.1867 -2.5144  0.6477
 2880SOL    HW220100   2.144   0.624  13.589 -0.2004 -0.3458 -0.8366
 2881SOL     OW20101   1.052   0.372  13.666  0.6599 -0.4935  0.1579
 2881SOL    HW120102   0.988   0.301  13.655  2.6505 -2.0973 -1.1820
 2881SOL    HW220103   0.997   0.442  13.630 -1.9212 -2.4570  0.3017
 2882SOL     OW20104   0.033   1.970   3.111 -0.4583  1.1599 -0.1545
 2882SOL    HW120105   0.128   1.974   3.098 -0.2523 -0.2802  0.8858
 2882SOL    HW220106   4.715   1.980   3.025  1.2531 -3.1771 -1.4562
 2883SOL     OW20107   2.525   2.732   6.163  0.3410 -0.3632  0.2949
 2883SOL    HW120108   2.457   2.670   6.192 -1.0636  0.7723 -0.5668
 2883SOL    HW220109   2.561   2.753   6.250  1.7495 -1.5062 -0.0107
 2884SOL     OW20110   2.749   2.644  16.408  0.3330 -0.7064  0.3448
 2884SOL    HW120111   2.771   2.695  16.486  1.5286 -1.6400  0.6066
 2884SOL    HW220112   2.667   2.602  16.434  0.4279 -0.3105  1.2979
 2885SOL     OW20113   2.921   1.352   9.850  0.2819 -0.3943  0.0086
 2885SOL    HW120114   2.919   1.329   9.942 -2.3632 -0.8382 -0.1590
 2885SOL    HW220115   2.951   1.441   9.868  0.2740  0.0376 -2.0625
 2886SOL     OW20116   3.862   3.293   3.795  0.4914  0.4446  0.5588
 2886SOL    HW120117   3.857   3.310   3.889 -2.8543  0.5388  0.3568
 2886SOL    HW220118   3.867   3.377   3.750  0.1689  0.6138  0.8404
 2887SOL     OW20119   0.345   0.739  16.270 -0.2919  0.2906 -0.6638
 2887SOL    HW120120   0.383   0.815  16.314 -0.1234 -0.2979  0.1948
 2887SOL    HW220121   0.280   0.787  16.219 -1.4864 -1.2826 -0.6167
 2888SOL     OW20122   3.653   2.113   7.259  0.3455  0.1856  0.3418
 2888SOL    HW120123   3.651   2.081   7.349  0.3095  0.5003  0.4549
 2888SOL    HW220124   3.649   2.035   7.205 -0.5720 -0.5161  1.4373
 2889SOL     OW20125   1.727   1.007   8.998 -0.6303 -0.3807  0.0973
 2889SOL    HW120126   1.756   0.959   9.076  1.2576  0.9646  0.2406
 2889SOL    HW220127   1.803   1.059   8.971  0.7400 -2.2323  0.3334
 2890SOL     OW20128   4.294   1.872   2.333  0.2595  0.4832  0.3963
 2890SOL    HW120129   4.380   1.865   2.292 -1.1929  1.0567 -2.7103
 2890SOL    HW220130   4.243   1.926   2.273 -0.8941  0.4175  1.3327
 2891SOL     OW20131   2.818   1.518   4.543 -0.3466  0.9594 -0.5775
 2891SOL    HW120132   2.761   1.460   4.593  2.1616 -0.5358  0.5519
 2891SOL    HW220133   2.867   1.443   4.509 -0.5824  1.2230 -1.4960
 2892SOL     OW20134   4.419   3.572   3.184  0.6313  0.6645  0.3752
 2892SOL    HW120135   4.484   3.579   3.113 -0.0799  0.9469 -0.2554
 2892SOL    HW220136   4.371   3.654   3.169  2.1916  1.6929  1.0585
 2893SOL     OW20137   3.439   4.167  11.205  0.0356  0.2856 -0.1388
 2893SOL    HW120138   3.384   4.198  11.277 -0.7576 -1.9493  0.2176
 2893SOL    HW220139   3.400   4.217  11.134 -1.1342 -0.4994 -0.0383
 2894SOL     OW20140   0.414   1.079   2.727 -0.1969  0.1639  0.1204
 2894SOL    HW120141   0.405   1.028   2.647 -1.0846  0.1742  0.2212
 2894SOL    HW220142   0.391   1.167   2.698 -1.3039  0.2814  1.3440
 2895SOL     OW20143   0.202   1.027   5.011  0.4657  0.3767  0.3273
 2895SOL    HW120144   0.261   1.046   4.938  2.3122  1.5800  2.1392
 2895SOL    HW220145   0.130   1.090   5.009 -0.0202 -0.1683  0.5693
 2896SOL     OW20146   3.833   4.440   7.387 -0.0675  0.4119 -0.0289
 2896SOL    HW120147   3.784   4.436   7.469  0.1176  0.8389  0.1017
 2896SOL    HW220148   3.907   4.495   7.413  0.0271  0.8631 -1.2886
 2897SOL     OW20149   3.442   4.462   8.183 -0.9339  0.2046 -0.0967
 2897SOL    HW120150   3.514   4.492   8.127 -2.3229  0.3389 -1.7982
 2897SOL    HW220151   3.494   4.400   8.235 -2.1205 -3.5105 -3.4103
 2898SOL     OW20152   3.755   0.079   6.481 -0.7962 -0.5356 -0.0411
 2898SOL    HW120153   3.730   4.709   6.473 -0.0505 -0.7827  0.4051
 2898SOL    HW220154   3.686   0.123   6.530  0.1850  0.2142  0.6923
 2899SOL     OW20155   4.521   4.002   3.534  0.3178  0.3978  0.2961
 2899SOL    HW120156   4.522   3.977   3.442  3.2483  1.8880 -0.0599
 2899SOL    HW220157   4.457   4.074   3.533 -0.5995 -0.4213  0.3679
 2900SOL     OW20158   1.394   3.317  17.194  0.0797 -0.3287  0.1853
 2900SOL    HW120159   1.472   3.262  17.205 -1.0656 -1.6660  1.4445
 2900SOL    HW220160   1.428   3.402  17.223 -2.9005  1.2277 -0.8837
 2901SOL     OW20161   3.801   1.872  15.978 -0.3854 -0.1482 -0.3239
 2901SOL    HW120162   3.755   1.816  16.041  0.0447  0.8388  0.8670
 2901SOL    HW220163   3.891   1.844  15.994 -0.6705 -0.1078  1.4056
 2902SOL     OW20164   4.014   1.427   0.376 -0.3091  0.0957  0.8287
 2902SOL    HW120165   3.921   1.405   0.369 -0.1667 -0.5298  0.8769
 2902SOL    HW220166   4.059   1.352   0.338 -0.7437  1.4583 -2.3930
 2903SOL     OW20167   3.746   0.964   4.410  0.3536 -0.0037 -0.7588
 2903SOL    HW120168   3.767   0.873   4.430  2.0219  0.4478 -0.4216
 2903SOL    HW220169   3.815   0.983   4.346  1.7225  0.2233  0.7907
 2904SOL     OW20170   2.336   4.287   8.615  0.2035 -0.0654 -0.0965
 2904SOL    HW120171   2.328   4.382   8.624 -0.1438  0.0096 -1.3050
 2904SOL    HW220172   2.261   4.256   8.666  0.2057 -0.1304 -0.1327
 2905SOL     OW20173   0.203   2.438   3.317 -0.1226  0.4433  0.0644
 2905SOL    HW120174   0.135   2.372   3.326  1.5650 -1.3742 -0.5411
 2905SOL    HW220175   0.276   2.381   3.295 -1.0018 -1.1103  1.2325
 2906SOL     OW20176   3.658   3.029   4.905 -0.2979 -0.2718  0.1489
 2906SOL    HW120177   3.615   3.107   4.939 -0.3801 -0.5505  0.6790
 2906SOL    HW220178   3.632   2.961   4.967 -1.8599  1.0160  0.8836
 2907SOL     OW20179   3.912   1.886   8.724  0.0525 -0.3155  0.4079
 2907SOL    HW120180   3.865   1.949   8.778  0.2528  0.3393 -0.1760
 2907SOL    HW220181   3.974   1.946   8.683 -1.0140  0.0022 -0.7567
 2908SOL     OW20182   3.058   1.304  14.447  0.0480 -0.9831 -0.0769
 2908SOL    HW120183   2.988   1.259  14.495 -0.7184  1.1062  0.7607
 2908SOL    HW220184   3.115   1.235  14.413  0.2512 -0.5069 -0.6896
 2909SOL     OW20185   1.133   2.900   1.188  0.0560 -0.6741  0.0087
 2909SOL    HW120186   1.049   2.927   1.152 -0.1354 -0.0058  0.9574
 2909SOL    HW220187   1.179   2.984   1.193 -0.1277 -0.4406 -1.9986
 2910SOL     OW20188   0.465   3.721   2.397 -0.1335 -0.0699  0.2941
 2910SOL    HW120189   0.449   3.662   2.471  1.5893 -0.1307  0.6032
 2910SOL    HW220190   0.390   3.780   2.407 -1.7433 -2.2749  1.2329
 2911SOL     OW20191   2.670   0.655   8.445 -0.0849 -0.1248  0.2090
 2911SOL    HW120192   2.765   0.663   8.435 -0.3017  1.5418 -0.5912
 2911SOL    HW220193   2.640   0.745   8.428  0.1487 -0.1910 -0.5675
 2912SOL     OW20194   2.303   0.397  17.610  0.0913  0.1781  0.3236
 2912SOL    HW120195   2.309   0.391  17.514 -1.4902 -1.9657  0.3553
 2912SOL    HW220196   2.320   0.307  17.637  1.5077  0.4128  0.2539
 2913SOL     OW20197   1.430   1.701   3.905  0.0176  0.1702 -0.0259
 2913SOL    HW120198   1.498   1.763   3.932 -1.0022  0.9808  0.6597
 2913SOL    HW220199   1.476   1.625   3.868 -0.0555  0.5647 -0.9131
 2914SOL     OW20200   1.438   1.725  10.209 -0.3649  0.1663  0.1564
 2914SOL    HW120201   1.438   1.682  10.123 -0.7739 -1.9682  1.2216
 2914SOL    HW220202   1.512   1.682  10.251  1.2801  0.3498 -2.5152
 2915SOL     OW20203   1.251   0.165   7.294 -0.5176  0.1840 -0.1574
 2915SOL    HW120204   1.283   0.246   7.256 -1.1200  1.7964  2.7412
 2915SOL    HW220205   1.212   0.132   7.214 -0.3236  0.0596 -0.2006
 2916SOL     OW20206   0.264   4.359   0.208  0.0566 -0.1128 -0.0062
 2916SOL    HW120207   0.256   4.289   0.272 -2.9562 -1.2957 -1.6881
 2916SOL    HW220208   0.294   4.306   0.133 -2.1925  1.1095 -1.7493
 2917SOL     OW20209   4.681   0.665   3.717  0.1669 -0.8331 -0.4186
 2917SOL    HW120210   0.001   0.650   3.802 -2.3415  1.1088  1.1676
 2917SOL    HW220211   0.004   0.603   3.659  1.1146 -0.2122 -0.3458
 2918SOL     OW20212   1.383   1.285   3.303  0.3170 -0.0651 -0.3572
 2918SOL    HW120213   1.441   1.267   3.230  3.4628 -1.6793  2.5679
 2918SOL    HW220214   1.308   1.323   3.258  0.1033 -0.6981 -0.5316
 2919SOL     OW20215   2.081   4.335   8.191 -0.2191  0.3293 -0.0502
 2919SOL    HW120216   2.019   4.311   8.260 -0.0023  2.7899  1.0067
 2919SOL    HW220217   2.107   4.425   8.214  0.4746  0.3943 -1.0939
 2920SOL     OW20218   1.704   2.020  11.501 -0.4790  0.3268 -0.2760
 2920SOL    HW120219   1.727   1.963  11.427  1.6314 -1.5264  1.8009
 2920SOL    HW220220   1.765   1.991  11.569  0.4096 -1.2266 -1.7235
 2921SOL     OW20221   0.767   2.300   7.733  0.4278  0.5003 -0.4047
 2921SOL    HW120222   0.850   2.338   7.703 -0.5158  0.8299 -2.5664
 2921SOL    HW220223   0.773   2.211   7.698  0.0924  0.2570  0.1476
 2922SOL     OW20224   2.679   2.732  13.135 -0.2533  0.2202 -0.6126
 2922SOL    HW120225   2.683   2.826  13.121 -0.5567  0.4678  0.8799
 2922SOL    HW220226   2.586   2.720  13.114 -0.3323 -1.2531  0.5349
 2923SOL     OW20227   1.495   2.485   3.343 -0.2277 -0.1327 -0.1644
 2923SOL    HW120228   1.518   2.536   3.266  1.5902 -0.5358  0.0931
 2923SOL    HW220229   1.569   2.424   3.344  0.9311  1.2702 -0.2378
 2924SOL     OW20230   0.301   0.358   7.173  0.0663 -0.3762 -0.0818
 2924SOL    HW120231   0.243   0.426   7.207  0.3647 -0.3533  0.3818
 2924SOL    HW220232   0.347   0.336   7.255  0.5170 -2.4085 -0.8795
 2925SOL     OW20233   1.747   3.127   7.447 -0.3321  0.1172 -0.0482
 2925SOL    HW120234   1.682   3.059   7.426  0.0839 -1.1135  2.6467
 2925SOL    HW220235   1.728   3.152   7.538 -1.6402  0.6343 -0.4653
 2926SOL     OW20236   0.020   0.827   3.263  0.2302  0.0952 -0.4792
 2926SOL    HW120237   0.081   0.774   3.211 -0.2512  0.8759 -1.8670
 2926SOL    HW220238   0.073   0.843   3.341  2.2518 -0.0907 -1.8150
 2927SOL     OW20239   2.380   2.225   3.764  0.7459  0.1306 -0.5012
 2927SOL    HW120240   2.350   2.156   3.823  1.6962 -1.2852 -1.6760
 2927SOL    HW220241   2.299   2.275   3.753  1.0422  1.1097  1.7131
 2928SOL     OW20242   1.788   3.760   5.488 -0.4676 -0.3016 -0.1621
 2928SOL    HW120243   1.739   3.840   5.508  2.9596  1.7190  0.1776
 2928SOL    HW220244   1.732   3.707   5.431 -1.1758 -2.1778  2.2840
 2929SOL     OW20245   4.290   2.596  10.671  0.7471  0.7880 -1.0585
 2929SOL    HW120246   4.311   2.662  10.605 -0.5410  0.4015 -1.8623
 2929SOL    HW220247   4.247   2.648  10.739 -1.5026  0.4383 -2.1972
 2930SOL     OW20248   3.081   1.660   8.740  0.5068 -0.6503  0.7508
 2930SOL    HW120249   3.096   1.571   8.772 -2.2218 -1.5030 -0.3327
 2930SOL    HW220250   3.164   1.704   8.754  0.4376 -0.2672  0.0051
 2931SOL     OW20251   2.517   4.354   0.627 -0.4539 -0.2728  0.2716
 2931SOL    HW120252   2.591   4.383   0.574 -1.2334 -0.4887 -0.9624
 2931SOL    HW220253   2.499   4.429   0.684 -1.3787 -0.6640  0.5060
 2932SOL     OW20254   4.057   3.597  15.176 -0.2348 -0.6466  0.0611
 2932SOL    HW120255   4.109   3.626  15.100  0.2391  0.9663  1.0064
 2932SOL    HW220256   3.997   3.671  15.174 -0.1219 -0.5793 -0.8915
 2933SOL     OW20257   3.446   0.677   4.669 -0.4234 -0.6178  0.1646
 2933SOL    HW120258   3.458   0.677   4.574 -1.1121 -0.7911  0.0807
 2933SOL    HW220259   3.530   0.715   4.695 -0.7674  0.0007  0.3463
 2934SOL     OW20260   4.432   0.028   2.157  0.2383 -0.0002  0.0858
 2934SOL    HW120261   4.510   0.079   2.136  1.4743 -1.4154  1.2727
 2934SOL    HW220262   4.371   0.052   2.086 -0.3019  2.3011  1.3241
 2935SOL     OW20263   3.451   0.652   6.974  0.2271 -0.3543  0.6494
 2935SOL    HW120264   3.448   0.556   6.965 -0.2442 -0.1954 -1.0000
 2935SOL    HW220265   3.363   0.669   7.007 -0.5949 -0.5572 -1.3926
 2936SOL     OW20266   3.018   0.282   2.100  0.5261  0.3887 -0.1363
 2936SOL    HW120267   3.009   0.216   2.032  1.3864  0.7974 -0.6472
 2936SOL    HW220268   3.043   0.352   2.039  2.7336 -0.9288 -0.7568
 2937SOL     OW20269   2.861   3.607   7.501  0.1395 -0.7452  0.4281
 2937SOL    HW120270   2.927   3.642   7.440  0.5981 -1.5038  0.4872
 2937SOL    HW220271   2.917   3.552   7.556 -0.0419 -1.1606  0.1997
 2938SOL     OW20272   2.498   2.404  10.113  0.0652  0.3559 -0.0125
 2938SOL    HW120273   2.449   2.454  10.048  0.3029  1.3138  0.5429
 2938SOL    HW220274   2.580   2.453  10.105  1.2873 -1.8661 -1.0335
 2939SOL     OW20275   4.680   2.181   2.684 -0.7561 -0.5866  0.4092
 2939SOL    HW120276   4.649   2.103   2.731  1.8964 -1.0505  1.3947
 2939SOL    HW220277   4.617   2.245   2.719  0.9311  2.4605 -2.1478
 2940SOL     OW20278   2.635   1.295   4.612 -0.4309  0.3367 -0.4958
 2940SOL    HW120279   2.585   1.255   4.541 -1.4782  0.3402  0.2363
 2940SOL    HW220280   2.561   1.334   4.658  0.5225 -0.4385  1.7274
 2941SOL     OW20281   2.748   4.150   3.244 -0.0426  0.5402  0.6716
 2941SOL    HW120282   2.835   4.161   3.206  0.3766 -0.4640  1.3299
 2941SOL    HW220283   2.738   4.241   3.270 -0.7189  1.0930 -1.4989
 2942SOL     OW20284   1.618   2.824   2.650  0.3677  0.0861 -0.2153
 2942SOL    HW120285   1.662   2.745   2.681 -1.6980 -0.7067  0.6749
 2942SOL    HW220286   1.687   2.890   2.654 -0.1764  0.8502 -3.0345
 2943SOL     OW20287   0.394   3.392   8.352 -0.6569  0.0203  0.6086
 2943SOL    HW120288   0.367   3.332   8.283 -1.1598  0.0858  0.7429
 2943SOL    HW220289   0.350   3.351   8.426 -0.2604 -0.5484  0.5253
 2944SOL     OW20290   1.147   3.977   1.708 -0.5440  0.9098  0.3841
 2944SOL    HW120291   1.089   4.048   1.680 -1.2668 -0.0768 -0.6298
 2944SOL    HW220292   1.165   3.922   1.632  3.8516  1.8022  0.7954
 2945SOL     OW20293   0.930   3.740   6.222 -0.4570 -0.0065  0.2332
 2945SOL    HW120294   0.866   3.708   6.158 -0.2949  4.2589 -2.0944
 2945SOL    HW220295   0.969   3.657   6.249  0.9968  0.1511 -1.3976
 2946SOL     OW20296   3.283   2.353   1.714  0.5558  0.4000 -0.7421
 2946SOL    HW120297   3.303   2.273   1.763 -1.2255  0.1474 -0.4508
 2946SOL    HW220298   3.198   2.380   1.748  0.4101 -0.9609 -0.0383
 2947SOL     OW20299   4.613   3.798  15.240 -0.1432 -0.0887 -0.4516
 2947SOL    HW120300   4.562   3.731  15.286 -1.3470  0.7787 -0.5374
 2947SOL    HW220301   4.634   3.755  15.156 -1.1871 -0.3493 -0.5737
 2948SOL     OW20302   1.137   1.337  16.371 -0.2809  0.4771  0.1883
 2948SOL    HW120303   1.079   1.355  16.297 -0.3353  1.6672  0.5254
 2948SOL    HW220304   1.222   1.325  16.329  0.4201  2.5780  1.0265
 2949SOL     OW20305   4.631   3.695  17.291 -0.3258  0.4033  0.0629
 2949SOL    HW120306   4.588   3.707  17.376  0.9367  0.9872  0.6173
 2949SOL    HW220307   4.718   3.725  17.318  0.8943 -1.4237 -1.8227
 2950SOL     OW20308   1.971   0.487  13.136 -0.5961  0.1216  0.1861
 2950SOL    HW120309   1.878   0.489  13.157 -0.4718 -1.5934  0.8798
 2950SOL    HW220310   1.975   0.451  13.048 -0.3493  0.0039  0.2463
 2951SOL     OW20311   0.898   3.174  10.522 -0.2460 -0.0897  0.2078
 2951SOL    HW120312   0.980   3.222  10.510 -0.9012  0.3235 -2.5369
 2951SOL    HW220313   0.911   3.146  10.613  2.4742 -2.6137 -0.9677
 2952SOL     OW20314   2.621   1.552  15.490  0.4506  0.0382  0.0609
 2952SOL    HW120315   2.652   1.575  15.402 -1.2552 -1.9212 -1.0568
 2952SOL    HW220316   2.615   1.457  15.485  0.9895  0.0402 -0.6871
 2953SOL     OW20317   3.007   2.431   3.209  0.0217  0.4030 -0.4619
 2953SOL    HW120318   3.063   2.380   3.268 -0.1718 -2.0176 -2.3551
 2953SOL    HW220319   3.075   2.492   3.182 -1.0772  1.4310 -0.8984
 2954SOL     OW20320   1.717   0.128   6.461  0.4631  0.0597  0.2706
 2954SOL    HW120321   1.759   0.061   6.407 -1.3838 -1.0347  0.2031
 2954SOL    HW220322   1.632   0.141   6.419 -0.4132 -2.8637  1.1618
 2955SOL     OW20323   3.768   0.250   2.037  0.2160  0.6221  0.1383
 2955SOL    HW120324   3.741   0.159   2.022 -1.0810  0.9941  0.1830
 2955SOL    HW220325   3.683   0.284   2.064  1.1337  2.7035  0.3454
 2956SOL     OW20326   0.878   4.428   7.924  0.5606  0.2584  0.5662
 2956SOL    HW120327   0.874   4.470   7.838  2.2722 -2.0496 -0.6593
 2956SOL    HW220328   0.791   4.387   7.924 -0.8557  3.2092 -0.8002
 2957SOL     OW20329   0.506   1.293   7.060 -0.2085  0.2086 -0.1419
 2957SOL    HW120330   0.540   1.235   7.128  1.7820  0.5282 -0.8543
 2957SOL    HW220331   0.445   1.353   7.102  0.3241 -0.2027  1.2169
 2958SOL     OW20332   3.734   2.980   6.788  0.2617  0.3923  0.1066
 2958SOL    HW120333   3.682   3.060   6.795  0.9831  0.8770 -0.0965
 2958SOL    HW220334   3.725   2.969   6.693 -0.6718 -0.9990  0.3626
 2959SOL     OW20335   2.816   2.658  11.824 -0.2279 -0.6501  0.0140
 2959SOL    HW120336   2.738   2.633  11.773  0.1248  0.9457 -1.2883
 2959SOL    HW220337   2.785   2.729  11.879 -2.1482  0.0656 -1.9860
 2960SOL     OW20338   2.860   0.231   9.244 -0.3655  0.4854 -0.0346
 2960SOL    HW120339   2.898   0.183   9.318  0.3988  0.2387 -0.5897
 2960SOL    HW220340   2.883   0.322   9.261 -0.7408  0.6852 -0.5923
 2961SOL     OW20341   3.834   4.357   6.572  0.0723  0.2320  0.4115
 2961SOL    HW120342   3.850   4.395   6.486 -0.3565  0.5253  0.4635
 2961SOL    HW220343   3.769   4.419   6.605 -0.1729 -0.2739  0.8659
 2962SOL     OW20344   0.534   2.617   8.250  0.0581 -0.5319  0.2712
 2962SOL    HW120345   0.629   2.605   8.260 -0.0474 -0.8102  0.9548
 2962SOL    HW220346   0.501   2.604   8.339  1.3997  0.1236  0.8740
 2963SOL     OW20347   0.643   2.490   5.221 -0.7139 -0.3827 -0.0857
 2963SOL    HW120348   0.728   2.528   5.245 -1.2051 -0.2152  1.3811
 2963SOL    HW220349   0.600   2.461   5.302 -0.0813 -2.0851 -0.3497
 2964SOL     OW20350   2.865   1.460   4.935  0.6141  0.0166  0.5649
 2964SOL    HW120351   2.907   1.416   4.862  0.0766  1.5737 -0.6755
 2964SOL    HW220352   2.932   1.525   4.957  0.8750 -0.0542 -0.0318
 2965SOL     OW20353   4.109   4.665   9.795 -0.0058  0.2918  0.4630
 2965SOL    HW120354   4.198   4.630   9.787 -0.5114 -0.8034 -0.3746
 2965SOL    HW220355   4.127   0.028   9.836 -0.4794 -0.4574  2.2029
 2966SOL     OW20356   3.994   4.260  12.247 -0.1543  0.0303  0.8230
 2966SOL    HW120357   3.998   4.324  12.318  1.6110  1.8229 -0.8712
 2966SOL    HW220358   3.932   4.303  12.188  0.8085  1.1891  0.6271
 2967SOL     OW20359   2.970   2.617  15.755  0.1991  0.3361 -0.2877
 2967SOL    HW120360   3.038   2.656  15.810  1.2987 -0.4590 -1.0955
 2967SOL    HW220361   3.004   2.631  15.667  1.8813 -0.0107  0.3190
 2968SOL     OW20362   4.563   0.421   8.317 -0.7774  0.0018  0.2131
 2968SOL    HW120363   4.563   0.325   8.316 -3.6078 -0.0050  2.6565
 2968SOL    HW220364   4.624   0.448   8.386  0.0459 -3.1856  0.7514
 2969SOL     OW20365   4.394   0.878  16.462  0.4219 -0.1731 -0.6398
 2969SOL    HW120366   4.438   0.961  16.481 -3.6296  1.4591  1.6951
 2969SOL    HW220367   4.342   0.898  16.384 -1.5547 -1.2812  0.4132
 2970SOL     OW20368   0.162   4.267  14.720  0.4486 -0.6416 -0.0898
 2970SOL    HW120369   0.067   4.265  14.731  0.4599  0.9235  0.3720
 2970SOL    HW220370   0.180   4.352  14.761  3.1441 -1.3995  0.2986
 2971SOL     OW20371   4.587   0.474  15.622  0.3111 -0.1341  0.0427
 2971SOL    HW120372   4.586   0.424  15.540 -0.5987  0.5862 -0.3774
 2971SOL    HW220373   4.596   0.415  15.697 -1.9463 -1.7400 -0.9333
 2972SOL     OW20374   4.512   4.044   0.880  0.2467  0.0414 -0.1822
 2972SOL    HW120375   4.458   4.052   0.959  1.4872  0.4143  0.6213
 2972SOL    HW220376   4.519   4.134   0.848 -1.3149  1.0626  2.2532
 2973SOL     OW20377   1.638   1.420   5.911 -0.6741 -0.3835 -0.1523
 2973SOL    HW120378   1.640   1.489   5.977  2.6532  0.7045 -1.4060
 2973SOL    HW220379   1.598   1.348   5.960 -0.5582 -0.8274 -0.7109
 2974SOL     OW20380   2.144   2.723   9.261  0.0514 -0.0781 -0.2450
 2974SOL    HW120381   2.146   2.749   9.353  1.3835 -0.5561 -0.1356
 2974SOL    HW220382   2.064   2.670   9.261  0.6998 -1.0827  3.3758
 2975SOL     OW20383   1.800   4.526  11.433  0.4838  0.3117  0.2263
 2975SOL    HW120384   1.799   4.506  11.527  1.4488  2.3385  0.6670
 2975SOL    HW220385   1.757   4.610  11.448  0.7532  0.3533  0.7849
 2976SOL     OW20386   1.211   3.173  10.121 -0.7501 -0.4989 -0.3639
 2976SOL    HW120387   1.271   3.243  10.147 -0.8051 -0.3766 -0.5602
 2976SOL    HW220388   1.206   3.183  10.026  0.8623 -0.1944 -0.4201
 2977SOL     OW20389   2.346   4.494   2.336  0.7611 -0.3005 -0.1119
 2977SOL    HW120390   2.319   4.479   2.246  1.2966  0.0184 -0.3257
 2977SOL    HW220391   2.277   4.546   2.379  0.8214  0.5920 -1.0867
 2978SOL     OW20392   1.381   2.602  15.660  0.3441 -0.3179  1.1215
 2978SOL    HW120393   1.371   2.509  15.679 -0.9571 -0.3773  0.1531
 2978SOL    HW220394   1.435   2.645  15.726  0.1743  1.4007  0.1574
 2979SOL     OW20395   1.539   3.119  10.270 -0.0826  0.0449  0.3642
 2979SOL    HW120396   1.524   3.200  10.221  1.2583  0.2976  0.3668
 2979SOL    HW220397   1.585   3.060  10.210 -2.8473 -1.2554 -0.4863
 2980SOL     OW20398   2.643   2.846   9.860 -0.5045  0.8339 -0.1285
 2980SOL    HW120399   2.614   2.788   9.790  0.2604  2.9157 -2.1578
 2980SOL    HW220400   2.617   2.935   9.837  2.1438  1.6647  0.1390
 2981SOL     OW20401   3.258   3.888   7.542 -0.1999 -0.4276 -0.4366
 2981SOL    HW120402   3.267   3.795   7.564  2.3310  0.6110  2.8392
 2981SOL    HW220403   3.332   3.905   7.485 -0.2291  0.3460 -0.2384
 2982SOL     OW20404   0.169   2.036   2.154  0.1480  0.1057  0.1807
 2982SOL    HW120405   0.218   2.085   2.220 -1.0738  0.5894  0.7214
 2982SOL    HW220406   0.169   2.090   2.075 -3.5223 -0.3919 -0.1578
 2983SOL     OW20407   3.577   3.679   1.498  0.3640 -0.1775  0.7675
 2983SOL    HW120408   3.630   3.675   1.578  1.5676  2.6614  0.1263
 2983SOL    HW220409   3.625   3.626   1.435 -0.3561  1.4354 -1.1126
 2984SOL     OW20410   2.305   3.423   1.380 -0.7660 -0.1322 -0.2331
 2984SOL    HW120411   2.288   3.330   1.366 -3.4334  0.1959  0.8852
 2984SOL    HW220412   2.295   3.456   1.291  2.6050  0.4134 -0.4078
 2985SOL     OW20413   3.998   0.426   3.387  0.0471 -0.2327 -0.0044
 2985SOL    HW120414   4.081   0.472   3.398  0.7783 -1.5951  0.1877
 2985SOL    HW220415   3.999   0.408   3.293  1.7980 -0.1703  0.0160
 2986SOL     OW20416   1.048   2.135   7.913  0.0337 -0.7156 -0.0799
 2986SOL    HW120417   1.113   2.170   7.974 -0.3418 -0.8436  0.3855
 2986SOL    HW220418   0.969   2.186   7.929  0.1511 -1.1349  1.7843
 2987SOL     OW20419   2.851   2.471   6.762 -0.0232 -0.0459 -0.5134
 2987SOL    HW120420   2.825   2.396   6.709  1.9484 -0.9876 -0.1407
 2987SOL    HW220421   2.834   2.434   6.849 -0.4271  0.6203 -0.3118
 2988SOL     OW20422   1.142   1.654  17.437 -0.1841 -0.5878 -0.0418
 2988SOL    HW120423   1.132   1.610  17.353  1.0474 -0.2539 -0.3572
 2988SOL    HW220424   1.111   1.743  17.416 -0.2036 -0.8274 -1.0113
 2989SOL     OW20425   4.286   2.201   6.058 -0.0636  0.4946  0.2845
 2989SOL    HW120426   4.373   2.226   6.028  0.5015 -0.8746  0.7856
 2989SOL    HW220427   4.245   2.178   5.974  2.5196  0.1419 -0.8691
 2990SOL     OW20428   4.018   3.642   0.314 -0.3433 -0.0244 -0.8752
 2990SOL    HW120429   4.005   3.669   0.223 -1.0539  1.2831 -0.3758
 2990SOL    HW220430   3.932   3.637   0.355  0.2991 -3.3866  0.0791
 2991SOL     OW20431   2.629   1.987   2.950 -0.1551  0.1694 -0.3854
 2991SOL    HW120432   2.558   2.049   2.968  0.5370  1.4606 -2.0555
 2991SOL    HW220433   2.685   1.987   3.027 -0.7914 -0.9340  0.0742
 2992SOL     OW20434   3.576   4.004   4.165 -0.0252  0.1763 -0.0601
 2992SOL    HW120435   3.544   3.935   4.223  0.4506 -0.0244 -0.0353
 2992SOL    HW220436   3.494   4.018   4.118  0.7676  0.9759 -1.2225
 2993SOL     OW20437   2.725   0.683  10.402  0.5119  0.0747  0.1080
 2993SOL    HW120438   2.739   0.633  10.482 -4.2461 -0.6540  0.4646
 2993SOL    HW220439   2.764   0.620  10.342  2.3981  0.0312  1.3617
 2994SOL     OW20440   3.643   3.623  13.123 -0.0085  0.5917 -0.1937
 2994SOL    HW120441   3.612   3.694  13.067  0.6070 -1.0582 -2.6321
 2994SOL    HW220442   3.728   3.662  13.146 -0.2640  0.4741  0.9399
 2995SOL     OW20443   3.705   3.725  12.222  0.4073  0.3733  0.0898
 2995SOL    HW120444   3.758   3.677  12.285 -0.4925  1.7175  1.8566
 2995SOL    HW220445   3.618   3.703  12.253  0.4190  0.0128 -0.1350
 2996SOL     OW20446   1.949   0.980   5.983  0.6637  0.0368 -0.1954
 2996SOL    HW120447   1.886   1.052   5.989  0.2834 -0.1821 -1.5615
 2996SOL    HW220448   1.883   0.910   5.983 -0.3278  0.9748 -2.2908
 2997SOL     OW20449   3.018   4.227   1.996 -0.0186  0.1996 -0.0093
 2997SOL    HW120450   3.023   4.320   2.016  0.8954  0.6341 -2.2971
 2997SOL    HW220451   2.938   4.199   2.040  0.6333  0.6197  1.4687
 2998SOL     OW20452   2.050   0.930   7.205  0.4854  0.2269 -0.1629
 2998SOL    HW120453   2.119   0.994   7.188 -0.2415  0.6065 -1.7049
 2998SOL    HW220454   2.034   0.956   7.296  1.0146  1.7851 -0.5052
 2999SOL     OW20455   4.189   0.863   4.908  0.2813  0.1498 -0.8604
 2999SOL    HW120456   4.265   0.805   4.911 -0.3282 -0.6626 -0.9628
 2999SOL    HW220457   4.182   0.882   4.814  2.0447  1.6365 -0.7029
 3000SOL     OW20458   0.781   3.316  17.623 -0.4078 -0.1363  0.1945
 3000SOL    HW120459   0.875   3.324  17.609  0.1597 -3.6122  2.1402
 3000SOL    HW220460   0.773   3.234  17.672 -0.0098 -0.9940 -1.1737
 3001SOL     OW20461   2.554   4.357  17.242 -0.6388 -0.1929  0.0820
 3001SOL    HW120462   2.629   4.415  17.232 -1.0313  0.2641 -0.2446
 3001SOL    HW220463   2.598   4.277  17.270 -0.3136 -0.6095 -1.5867
 3002SOL     OW20464   2.121   4.559   5.725 -0.4751 -0.1736 -0.6508
 3002SOL    HW120465   2.121   4.616   5.801  1.2953 -1.3800  0.2641
 3002SOL    HW220466   2.215   4.567   5.708 -0.0236  1.0661  2.5428
 3003SOL     OW20467   4.094   1.992   6.774  0.1468  0.4315 -0.4301
 3003SOL    HW120468   4.005   1.999   6.808 -0.3693 -0.6554 -1.5567
 3003SOL    HW220469   4.090   2.035   6.688  1.1361 -0.8749 -1.1185
 3004SOL     OW20470   1.806   1.273   4.394 -0.1315 -0.3478  0.0603
 3004SOL    HW120471   1.866   1.268   4.468 -0.0422  0.9168  0.0755
 3004SOL    HW220472   1.745   1.202   4.413 -1.1108  0.5518  0.2630
 3005SOL     OW20473   2.392   1.414   5.127 -0.6938 -0.6742  0.1021
 3005SOL    HW120474   2.355   1.370   5.203  1.5939 -2.1109  0.3775
 3005SOL    HW220475   2.484   1.424   5.154 -1.1600  2.3534  0.6415
 3006SOL     OW20476   4.280   4.422   9.930 -0.1218 -0.4898 -0.9987
 3006SOL    HW120477   4.261   4.480  10.004  2.2894  0.9048 -1.4860
 3006SOL    HW220478   4.334   4.485   9.882  0.3262 -0.5591 -0.5840
 3007SOL     OW20479   0.069   2.973   2.404 -0.0261 -0.6941 -0.0052
 3007SOL    HW120480   0.096   2.916   2.476 -2.0788 -1.1969  0.3691
 3007SOL    HW220481   0.110   2.928   2.330 -0.4688 -0.1190 -0.6003
 3008SOL     OW20482   2.455   2.785   7.398 -0.1538  0.0085  0.0341
 3008SOL    HW120483   2.458   2.713   7.462 -0.3555  1.3355  1.5240
 3008SOL    HW220484   2.516   2.755   7.330  1.0012 -1.0335  1.5118
 3009SOL     OW20485   0.131   0.844   6.928 -0.0812  0.0372  0.3022
 3009SOL    HW120486   0.040   0.819   6.939 -0.1164 -0.2517 -0.6367
 3009SOL    HW220487   0.152   0.813   6.840 -1.7953  2.2533 -0.9065
 3010SOL     OW20488   1.130   3.651   6.829  0.5573 -0.6310  0.3283
 3010SOL    HW120489   1.218   3.626   6.859  0.8352  0.6347  0.5534
 3010SOL    HW220490   1.120   3.706   6.906  0.3414 -2.5042  1.6360
 3011SOL     OW20491   1.279   1.429  15.595  0.2447 -0.0291  0.4936
 3011SOL    HW120492   1.373   1.444  15.583 -0.3457  2.5499 -0.8585
 3011SOL    HW220493   1.259   1.356  15.537  2.9244  0.0295 -0.5351
 3012SOL     OW20494   2.796   4.699   7.374 -0.3471 -0.2152  0.3806
 3012SOL    HW120495   2.768   4.646   7.299 -1.1320 -1.9668  1.9023
 3012SOL    HW220496   2.716   0.005   7.420 -1.8183 -2.0377 -1.0512
 3013SOL     OW20497   1.176   3.325   7.982  0.1401  0.0429 -0.3490
 3013SOL    HW120498   1.116   3.317   7.907  0.0002 -0.5182 -0.1762
 3013SOL    HW220499   1.188   3.231   7.989 -1.5123 -0.0255  1.4960
 3014SOL     OW20500   1.293   0.419   5.056  0.5223 -0.1029  0.1692
 3014SOL    HW120501   1.364   0.402   5.118 -0.5756 -0.0361  1.4367
 3014SOL    HW220502   1.271   0.328   5.039 -1.1401 -0.0119  1.7898
 3015SOL     OW20503   1.130   0.749  10.462 -0.0312 -0.0287  0.4537
 3015SOL    HW120504   1.092   0.833  10.484 -2.0760 -0.6154 -0.8698
 3015SOL    HW220505   1.050   0.697  10.460  0.2005 -0.3082 -1.4159
 3016SOL     OW20506   2.283   4.382   8.919 -0.2192  0.1105 -0.7701
 3016SOL    HW120507   2.242   4.309   8.873  1.0263 -1.5551  0.7822
 3016SOL    HW220508   2.234   4.457   8.884  1.1910  0.9080 -1.0833
 3017SOL     OW20509   4.423   2.313   7.416  0.1967  0.1195 -0.2889
 3017SOL    HW120510   4.436   2.256   7.340 -1.2470 -0.2241 -0.2733
 3017SOL    HW220511   4.434   2.402   7.383 -0.1951 -1.0507 -3.5684
 3018SOL     OW20512   2.541   1.639   8.831 -0.0541  0.0324 -0.1285
 3018SOL    HW120513   2.508   1.713   8.882  3.7083  1.9618 -0.5207
 3018SOL    HW220514   2.623   1.609   8.869  0.3043  0.1710 -0.7924
 3019SOL     OW20515   1.313   0.084   0.794  0.1714  0.8621 -0.3371
 3019SOL    HW120516   1.386   0.077   0.732  0.0176  1.2819 -0.5655
 3019SOL    HW220517   1.326   0.013   0.857 -1.8694  1.9464  1.3090
 3020SOL     OW20518   4.691   1.294   3.392  0.2175 -0.2717  0.2949
 3020SOL    HW120519   4.657   1.341   3.468  2.2992  2.4815 -0.4575
 3020SOL    HW220520   4.668   1.206   3.422  1.0815 -0.9076 -0.9531
 3021SOL     OW20521   4.690   2.762   8.849  0.2158  0.3095  0.1585
 3021SOL    HW120522   0.017   2.704   8.792 -2.8371 -2.1836  0.0767
 3021SOL    HW220523   4.620   2.791   8.790 -0.9184 -0.1946  1.2511
 3022SOL     OW20524   2.689   4.689   1.120 -0.0829 -0.0371  0.3160
 3022SOL    HW120525   2.610   0.019   1.109  0.0003 -0.3733 -1.8919
 3022SOL    HW220526   2.683   4.655   1.209 -0.1959 -0.8274  0.0082
 3023SOL     OW20527   1.922   1.815   5.439 -0.3497  0.3309 -0.0137
 3023SOL    HW120528   1.889   1.905   5.427  0.3218  0.6070  0.2177
 3023SOL    HW220529   1.998   1.831   5.496 -0.5558 -0.3209  0.4410
 3024SOL     OW20530   3.470   0.598   5.867 -0.2492  0.0337 -0.2700
 3024SOL    HW120531   3.497   0.690   5.866  1.1306 -0.3563  3.0732
 3024SOL    HW220532   3.380   0.619   5.841 -0.5387 -0.6435  0.1969
 3025SOL     OW20533   3.009   3.479   5.823 -0.1156  0.3565 -0.8673
 3025SOL    HW120534   2.976   3.537   5.755 -2.4026  1.0224  0.7923
 3025SOL    HW220535   2.948   3.509   5.891 -0.4957  0.5473 -1.2954
 3026SOL     OW20536   2.250   1.122   7.180 -0.2951 -0.1711  0.0534
 3026SOL    HW120537   2.341   1.150   7.192 -0.3780 -0.4641  1.3183
 3026SOL    HW220538   2.240   1.133   7.085  2.3923  0.0323 -0.2144
 3027SOL     OW20539   0.230   2.259   2.770  0.2388 -0.1343 -0.1668
 3027SOL    HW120540   0.149   2.252   2.719  1.0823 -0.8106 -1.4239
 3027SOL    HW220541   0.291   2.236   2.699  0.4599  0.6990 -0.2431
 3028SOL     OW20542   3.480   0.588   8.450  0.2417 -0.0284 -0.2338
 3028SOL    HW120543   3.456   0.543   8.368 -0.7259 -2.1595  1.2265
 3028SOL    HW220544   3.403   0.638   8.476 -0.6996 -0.6025 -1.8531
 3029SOL     OW20545   2.461   0.074   0.983  0.1002 -0.6677 -0.2448
 3029SOL    HW120546   2.411   0.134   1.039 -0.2497 -1.2040  0.0282
 3029SOL    HW220547   2.522   0.141   0.953 -0.0667 -0.4351 -0.0663
 3030SOL     OW20548   1.840   1.073   6.351 -0.3084 -0.1915  0.7297
 3030SOL    HW120549   1.818   1.158   6.389  0.4410 -0.0446  0.8271
 3030SOL    HW220550   1.912   1.051   6.411  0.9830  2.6761  0.2200
 3031SOL     OW20551   1.933   0.810   5.586  0.6133 -0.1943  0.3881
 3031SOL    HW120552   1.990   0.775   5.518  0.2640  1.8395 -0.9838
 3031SOL    HW220553   1.997   0.845   5.647  1.2851 -0.5603 -0.1176
 3032SOL     OW20554   4.382   3.620   8.623 -0.3329  0.3273 -0.1715
 3032SOL    HW120555   4.387   3.695   8.564  0.5046 -0.0291 -0.5659
 3032SOL    HW220556   4.459   3.568   8.598 -0.2924  0.3578 -0.1082
 3033SOL     OW20557   4.635   1.917  16.477  0.3273  1.3340 -0.3025
 3033SOL    HW120558   4.587   1.925  16.560  0.3225  0.3938 -0.2232
 3033SOL    HW220559   0.002   1.905  16.511 -0.1856  1.2053  1.0104
 3034SOL     OW20560   3.763   3.173  17.648 -0.3732 -0.4116  0.3119
 3034SOL    HW120561   3.786   3.135   0.043  0.5932  2.3144  1.2441
 3034SOL    HW220562   3.695   3.113  17.616 -0.9966  0.9243 -0.8578
 3035SOL     OW20563   4.141   0.281  17.213 -0.5149 -0.9478  0.4410
 3035SOL    HW120564   4.138   0.223  17.289  1.9397  0.4797  1.6493
 3035SOL    HW220565   4.236   0.297  17.216 -0.5357 -1.1387  1.9999
 3036SOL     OW20566   2.501   1.363  13.494  0.4161 -0.3989  0.2527
 3036SOL    HW120567   2.555   1.309  13.436  0.9579 -1.2307  1.5194
 3036SOL    HW220568   2.564   1.419  13.539  2.6733 -1.0467 -2.0778
 3037SOL     OW20569   3.344   1.700  17.347 -0.9410  0.2718  0.1909
 3037SOL    HW120570   3.363   1.794  17.337  1.2917 -0.2458 -0.5504
 3037SOL    HW220571   3.281   1.712  17.418  0.3199 -0.0279  1.3591
 3038SOL     OW20572   2.370   0.459   3.779  0.1445  0.0546  0.2410
 3038SOL    HW120573   2.275   0.455   3.769  0.2620 -0.8586 -0.5586
 3038SOL    HW220574   2.381   0.403   3.855 -2.8694 -1.3517 -0.3507
 3039SOL     OW20575   4.308   0.860   3.946 -0.6155  0.4018 -0.0374
 3039SOL    HW120576   4.254   0.881   4.022  0.6804  1.3272  0.6310
 3039SOL    HW220577   4.258   0.908   3.880 -1.9701 -1.2646 -0.2266
 3040SOL     OW20578   3.543   0.181   7.957 -0.3783  0.0588  0.5853
 3040SOL    HW120579   3.572   0.229   7.880  0.1213  0.6967  1.1767
 3040SOL    HW220580   3.479   0.231   8.007 -0.5260 -1.6984  2.1779
 3041SOL     OW20581   1.365   3.710   2.376  0.4449 -0.0326  0.2179
 3041SOL    HW120582   1.420   3.655   2.321  0.4550  0.4658 -0.2684
 3041SOL    HW220583   1.400   3.797   2.356 -2.0654  0.9511  0.1906
 3042SOL     OW20584   3.933   1.669   3.318  0.4221  0.7188  0.4245
 3042SOL    HW120585   3.877   1.592   3.316  0.9283  0.3296  1.0259
 3042SOL    HW220586   3.891   1.720   3.387 -0.7479 -0.0627  0.3015
 3043SOL     OW20587   0.851   1.821  11.441 -0.1768  0.1537 -0.3031
 3043SOL    HW120588   0.763   1.804  11.406 -0.4291  0.1292  0.3446
 3043SOL    HW220589   0.822   1.832  11.531 -1.0888  1.6773 -0.7835
 3044SOL     OW20590   2.850   1.346   8.210 -0.2192  0.2371  0.4650
 3044SOL    HW120591   2.845   1.303   8.125  2.2213 -0.2198  0.5593
 3044SOL    HW220592   2.943   1.369   8.211 -0.6648  2.1249 -1.2588
 3045SOL     OW20593   0.803   3.490   1.369  0.0597  0.3112  0.2526
 3045SOL    HW120594   0.893   3.458   1.371  0.6977  2.0368 -1.2929
 3045SOL    HW220595   0.825   3.573   1.411 -2.2572  1.2085 -0.3086
 3046SOL     OW20596   1.729   0.632  12.265  0.4140  0.6640 -0.4480
 3046SOL    HW120597   1.778   0.562  12.309  1.4192  3.2490  2.5581
 3046SOL    HW220598   1.786   0.706  12.286  1.4384 -0.0058 -0.8786
 3047SOL     OW20599   3.668   4.051   8.432  0.4324 -0.1841  0.0891
 3047SOL    HW120600   3.735   4.050   8.501  0.0776 -2.3393  0.4199
 3047SOL    HW220601   3.718   4.020   8.356  1.3918 -0.2254  0.7332
 3048SOL     OW20602   0.572   1.913   8.534 -0.1692  0.1554  0.7813
 3048SOL    HW120603   0.506   1.853   8.568  0.9867 -0.3317  2.1334
 3048SOL    HW220604   0.650   1.880   8.578  1.2383  1.0150 -1.0752
 3049SOL     OW20605   0.143   3.092   6.710 -0.3601 -0.3351 -0.2541
 3049SOL    HW120606   0.152   3.185   6.689 -2.5380 -0.1582 -0.4411
 3049SOL    HW220607   0.140   3.049   6.625 -2.0461  2.5860 -1.6886
 3050SOL     OW20608   0.781   3.848   7.200  0.1481 -0.4657  0.3134
 3050SOL    HW120609   0.866   3.866   7.240  0.0350 -0.6560  0.6339
 3050SOL    HW220610   0.791   3.755   7.177  1.2893 -0.7752  2.1403
 3051SOL     OW20611   0.120   3.533   4.238  0.0439 -0.2718 -0.2860
 3051SOL    HW120612   0.064   3.575   4.303  2.5308  0.2324  1.5469
 3051SOL    HW220613   0.088   3.579   4.160  2.0180 -1.0261 -1.5470
 3052SOL     OW20614   1.825   4.491   4.959 -0.4574  0.7876 -0.0018
 3052SOL    HW120615   1.804   4.523   4.872 -0.5364 -0.4127 -0.4112
 3052SOL    HW220616   1.920   4.506   4.968 -0.7322  0.5308  3.4637
 3053SOL     OW20617   3.640   2.764   8.675  0.3082  0.2849 -0.4395
 3053SOL    HW120618   3.686   2.823   8.734 -0.3788 -2.5679  2.9726
 3053SOL    HW220619   3.576   2.729   8.737 -1.6741  1.3279 -1.8518
 3054SOL     OW20620   0.899   1.498  12.670 -0.5532 -0.0012 -0.1774
 3054SOL    HW120621   0.979   1.447  12.654 -0.4829  0.2397 -0.5975
 3054SOL    HW220622   0.909   1.557  12.595 -0.2220  2.6975  1.9860
 3055SOL     OW20623   2.753   1.029   6.562  0.3568 -0.3360 -1.1491
 3055SOL    HW120624   2.809   1.005   6.488  1.0048 -2.7289  0.1455
 3055SOL    HW220625   2.819   1.057   6.626 -2.9766  3.3327  0.6617
 3056SOL     OW20626   1.079   2.500   3.020  0.0926 -0.0718  0.0207
 3056SOL    HW120627   1.140   2.475   3.090 -0.6576 -0.9894  0.3468
 3056SOL    HW220628   1.129   2.560   2.965  0.8432 -0.9768 -0.2815
 3057SOL     OW20629   4.236   1.580  15.255 -0.3431 -0.4265 -0.4157
 3057SOL    HW120630   4.289   1.516  15.206  2.6472  1.5114  0.2585
 3057SOL    HW220631   4.289   1.583  15.335  0.3196 -2.0442 -0.7883
 3058SOL     OW20632   2.990   3.325   6.242 -0.3629 -0.3348 -0.3627
 3058SOL    HW120633   2.996   3.269   6.165 -0.7305 -1.4143  0.3979
 3058SOL    HW220634   3.067   3.379   6.223 -0.8595  0.7665  0.7563
 3059SOL     OW20635   0.469   3.227   4.745 -0.1281 -0.1600  0.3888
 3059SOL    HW120636   0.445   3.319   4.739  0.3390 -0.1919 -2.1312
 3059SOL    HW220637   0.399   3.188   4.692 -2.0918  2.6170  0.9697
 3060SOL     OW20638   3.091   0.807   8.580  0.2218  0.0123  0.0511
 3060SOL    HW120639   3.180   0.839   8.593  0.7292 -0.9652 -1.0349
 3060SOL    HW220640   3.104   0.723   8.535 -2.4840  0.4145 -1.4700
 3061SOL     OW20641   1.496   3.704   8.722  0.1329 -0.7992  0.1978
 3061SOL    HW120642   1.482   3.697   8.816  0.7192 -1.5368  0.2357
 3061SOL    HW220643   1.458   3.621   8.691  1.6511 -0.8454 -1.5556
 3062SOL     OW20644   1.553   2.068   5.934  0.2836  0.0931 -0.5804
 3062SOL    HW120645   1.573   1.981   5.900 -2.3220 -0.5944 -0.4120
 3062SOL    HW220646   1.459   2.074   5.916 -0.0082 -0.6795  0.6606
 3063SOL     OW20647   1.995   4.675   2.118 -0.4089  0.2580  0.5210
 3063SOL    HW120648   1.969   4.592   2.157 -1.3485  0.6815  0.8128
 3063SOL    HW220649   2.066   4.649   2.059 -0.3986  0.8371  0.2708
 3064SOL     OW20650   0.341   1.403   4.589 -0.0530  0.4364 -0.0841
 3064SOL    HW120651   0.419   1.358   4.622  0.4628 -0.1374 -2.1047
 3064SOL    HW220652   0.272   1.364   4.642 -0.5066  1.3366 -0.0215
 3065SOL     OW20653   0.267   1.001  13.311  0.4782  0.3547 -0.1331
 3065SOL    HW120654   0.211   0.976  13.384  0.7642  0.5456  0.1545
 3065SOL    HW220655   0.208   1.047  13.252  1.0973 -0.9911 -1.8145
 3066SOL     OW20656   4.515   3.044   7.859  0.0903  0.2664  0.3119
 3066SOL    HW120657   4.423   3.069   7.847  0.3285  1.8254  1.8174
 3066SOL    HW220658   4.499   2.950   7.853  1.0650  0.2093 -1.3266
 3067SOL     OW20659   0.787   1.346   7.366  0.3932 -0.0685  0.2946
 3067SOL    HW120660   0.800   1.353   7.460  0.3798  1.2419  0.1956
 3067SOL    HW220661   0.872   1.366   7.326 -0.0859  1.0087 -0.1684
 3068SOL     OW20662   0.781   0.028   3.129  0.0851  0.1568 -0.2332
 3068SOL    HW120663   0.757   0.113   3.092  0.4515  0.3481 -0.0308
 3068SOL    HW220664   0.792   4.702   3.047 -0.1237 -0.4830  0.1105
 3069SOL     OW20665   4.294   4.435   3.928 -0.0583  0.0475 -0.0985
 3069SOL    HW120666   4.245   4.417   4.009 -0.9297  1.4685 -0.3130
 3069SOL    HW220667   4.265   4.383   3.853 -3.3522 -1.9833  2.5740
 3070SOL     OW20668   3.781   1.225   7.984  0.4551 -0.5292  0.5210
 3070SOL    HW120669   3.795   1.305   8.034  5.5406 -0.9847 -0.2105
 3070SOL    HW220670   3.833   1.244   7.906  0.2462  1.6911  0.9329
 3071SOL     OW20671   0.698   0.013   3.396 -0.7744  0.3567 -0.9788
 3071SOL    HW120672   0.680   0.105   3.377 -0.3041  0.9839  1.6387
 3071SOL    HW220673   0.752   4.715   3.320 -0.2022 -0.3346 -0.3931
 3072SOL     OW20674   1.136   3.859   3.567 -0.2031 -0.0393 -0.6098
 3072SOL    HW120675   1.054   3.873   3.520  0.0847 -0.1785 -1.1531
 3072SOL    HW220676   1.183   3.821   3.492  2.4718  0.4424  0.8210
 3073SOL     OW20677   4.649   1.212   4.104  0.0149  0.1951  0.2488
 3073SOL    HW120678   4.580   1.185   4.043  0.5639 -1.3201  0.3050
 3073SOL    HW220679   4.626   1.304   4.118  0.5891  0.6564 -1.8147
 3074SOL     OW20680   3.396   0.988  13.925 -0.0503 -0.2974 -0.1251
 3074SOL    HW120681   3.398   1.064  13.984 -1.2253 -0.6625  0.3924
 3074SOL    HW220682   3.334   1.025  13.862  2.4250  0.6672 -1.9771
 3075SOL     OW20683   0.791   2.247  10.486 -0.2077 -0.0416 -0.2956
 3075SOL    HW120684   0.723   2.188  10.519 -0.3141  0.5537  0.5767
 3075SOL    HW220685   0.763   2.328  10.529  2.0960  2.3070 -3.2329
 3076SOL     OW20686   1.235   0.692   3.551  0.2582 -0.0468  0.0097
 3076SOL    HW120687   1.261   0.713   3.461  1.3041 -3.0189 -0.3867
 3076SOL    HW220688   1.271   0.768   3.598  0.7015  0.3856 -1.0222
 3077SOL     OW20689   2.775   1.788   2.623  0.1542 -0.3045  0.0114
 3077SOL    HW120690   2.719   1.798   2.700  0.7491 -3.4934  0.8607
 3077SOL    HW220691   2.729   1.711   2.588  2.4773 -2.2285  1.1910
 3078SOL     OW20692   2.929   3.142   3.440  0.0346  0.1368  0.1723
 3078SOL    HW120693   2.904   3.235   3.435  0.9107  0.3157 -1.0583
 3078SOL    HW220694   3.023   3.159   3.429  0.3344 -1.7467 -0.0525
 3079SOL     OW20695   1.382   4.052   5.305  0.2409  0.2124 -0.1903
 3079SOL    HW120696   1.317   4.111   5.342 -0.7375  0.1626 -1.8253
 3079SOL    HW220697   1.463   4.086   5.342 -0.1586  0.2294  0.6838
 3080SOL     OW20698   1.290   2.143  13.186 -0.3629  0.2278 -0.5331
 3080SOL    HW120699   1.264   2.084  13.257  0.1614  0.8186  0.1479
 3080SOL    HW220700   1.203   2.163  13.151 -0.8792 -0.3645  0.4086
 3081SOL     OW20701   2.408   3.421   6.067 -0.1179 -0.5887 -0.2429
 3081SOL    HW120702   2.453   3.420   6.152  0.0939 -2.9971 -0.3586
 3081SOL    HW220703   2.315   3.419   6.090  0.4563  0.2408  2.1890
 3082SOL     OW20704   4.690   3.242   2.480  0.2965  0.2082  0.0500
 3082SOL    HW120705   0.001   3.251   2.569  1.1305 -3.0127  0.0716
 3082SOL    HW220706   0.008   3.162   2.445  0.5633  0.1815  0.4172
 3083SOL     OW20707   0.501   1.656   6.955  0.4776 -0.0585 -0.2742
 3083SOL    HW120708   0.493   1.706   6.874  1.3202  2.7453  1.3531
 3083SOL    HW220709   0.595   1.636   6.954  0.2251 -1.3414  1.9889
 3084SOL     OW20710   4.156   4.215   5.891  0.0737  0.3230  0.0936
 3084SOL    HW120711   4.113   4.145   5.940 -2.0556  1.7962  0.3257
 3084SOL    HW220712   4.211   4.164   5.831  1.6790 -0.4103  2.1828
 3085SOL     OW20713   1.145   4.061   2.713  0.0184 -0.1154  0.4465
 3085SOL    HW120714   1.121   3.974   2.683  1.5436 -0.5001  0.3319
 3085SOL    HW220715   1.097   4.114   2.650  1.9041  0.1546 -0.7703
 3086SOL     OW20716   1.607   1.614   7.028 -0.0138  0.1866 -0.1108
 3086SOL    HW120717   1.620   1.589   6.936 -1.9840 -3.5892  0.6235
 3086SOL    HW220718   1.638   1.704   7.031 -2.5533  1.0322  0.1102
 3087SOL     OW20719   3.746   0.659   2.307  0.3235  0.1247 -0.5765
 3087SOL    HW120720   3.693   0.613   2.242  3.0165 -2.7281 -0.7242
 3087SOL    HW220721   3.833   0.622   2.296 -0.1987 -1.6551  1.3422
 3088SOL     OW20722   3.160   1.703   1.937  0.4247 -0.3915 -0.9912
 3088SOL    HW120723   3.236   1.738   1.891  0.8670 -1.3447 -0.9802
 3088SOL    HW220724   3.097   1.776   1.934  1.3335  0.4485  0.0847
 3089SOL     OW20725   1.604   0.064  17.084 -0.2687  0.2785 -0.2774
 3089SOL    HW120726   1.691   0.102  17.071  1.0233 -2.8242 -0.9868
 3089SOL    HW220727   1.583   0.104  17.168  0.7961 -0.5432  0.3783
 3090SOL     OW20728   1.282   0.150   3.253  0.4885 -0.1079  0.0681
 3090SOL    HW120729   1.364   0.200   3.251 -0.7785  2.0553  2.0166
 3090SOL    HW220730   1.320   0.063   3.239 -1.9015 -0.6200 -3.0058
 3091SOL     OW20731   1.833   3.442  15.149  0.7517  0.2160 -0.0914
 3091SOL    HW120732   1.768   3.504  15.115  0.7330  0.1173 -0.2378
 3091SOL    HW220733   1.791   3.357  15.139  0.0802  0.1836  3.0206
 3092SOL     OW20734   4.344   4.237   2.713 -0.3093 -0.7971  0.0904
 3092SOL    HW120735   4.287   4.310   2.690  1.1013  1.1316  2.7138
 3092SOL    HW220736   4.390   4.277   2.787  3.8487 -1.7696 -1.9575
 3093SOL     OW20737   1.641   3.399   1.342  0.1848  0.1683 -0.0311
 3093SOL    HW120738   1.672   3.366   1.258 -1.2801  2.2093 -1.4024
 3093SOL    HW220739   1.688   3.481   1.359  1.9265 -1.4331  2.8048
 3094SOL     OW20740   2.341   2.590  16.143 -0.0237 -0.1279 -0.1450
 3094SOL    HW120741   2.267   2.648  16.161 -0.3324 -0.1843 -1.2684
 3094SOL    HW220742   2.388   2.642  16.078  0.3945  0.4464  0.6209
 3095SOL     OW20743   0.276   4.315   2.722  0.0809  0.3038 -0.3317
 3095SOL    HW120744   0.303   4.395   2.767 -1.4327  0.9392 -0.5638
 3095SOL    HW220745   0.267   4.346   2.632  0.6854  1.0646 -0.1253
 3096SOL     OW20746   1.585   4.579  10.472  0.2114  0.1681 -0.0687
 3096SOL    HW120747   1.511   4.637  10.486 -1.1152 -1.5605  0.0782
 3096SOL    HW220748   1.629   4.569  10.557  1.0909  0.2097 -0.5121
 3097SOL     OW20749   3.214   2.559   7.816  0.1221 -0.1248  0.4990
 3097SOL    HW120750   3.293   2.580   7.766  0.8972 -2.1731  0.8559
 3097SOL    HW220751   3.210   2.464   7.804 -0.7620 -0.1511  1.0169
 3098SOL     OW20752   2.547   3.570   4.490 -0.3615 -0.0840  0.2114
 3098SOL    HW120753   2.592   3.625   4.426  1.0170 -0.6095  0.7386
 3098SOL    HW220754   2.453   3.585   4.486 -0.1502  0.7772 -1.2657
 3099SOL     OW20755   0.574   1.533   3.018  0.2810 -0.1153  0.3521
 3099SOL    HW120756   0.595   1.458   3.074  2.2841 -0.4496 -0.8413
 3099SOL    HW220757   0.661   1.563   2.992 -0.4983  2.0315  0.2296
 3100SOL     OW20758   3.028   4.289  11.648 -0.0161 -0.6669  0.3747
 3100SOL    HW120759   2.967   4.278  11.720 -0.4499 -0.1017  0.0954
 3100SOL    HW220760   3.014   4.383  11.633 -0.5096 -1.0290 -1.4719
 3101SOL     OW20761   3.150   3.441  16.095  0.6421 -0.4124 -0.3307
 3101SOL    HW120762   3.152   3.484  16.010 -2.6718 -1.9378 -1.1706
 3101SOL    HW220763   3.069   3.391  16.088  0.3639  0.0214 -0.1992
 3102SOL     OW20764   1.657   4.480   9.112 -0.2647  0.5590 -0.4216
 3102SOL    HW120765   1.630   4.430   9.189  0.3186  2.5916  1.1066
 3102SOL    HW220766   1.604   4.444   9.042  2.1162  0.0105 -1.9475
 3103SOL     OW20767   3.731   2.992   4.502 -0.7421 -0.0483 -0.0974
 3103SOL    HW120768   3.821   2.987   4.472 -1.4093  0.0803 -2.1038
 3103SOL    HW220769   3.744   2.933   4.576  0.9581  0.9320  0.3742
 3104SOL     OW20770   3.223   4.533   9.318 -0.1495 -0.4270 -0.3128
 3104SOL    HW120771   3.208   4.456   9.263  1.9633 -1.0026 -0.0954
 3104SOL    HW220772   3.307   4.566   9.284 -0.5367 -0.2852 -1.1247
 3105SOL     OW20773   4.268   1.096   3.186  0.3159  0.0236 -0.4941
 3105SOL    HW120774   4.292   1.051   3.267  0.3951 -1.0918 -1.1374
 3105SOL    HW220775   4.322   1.175   3.185 -0.8398  0.7976 -0.5416
 3106SOL     OW20776   2.654   4.643   1.380 -0.0665  0.1685 -0.2169
 3106SOL    HW120777   2.681   0.012   1.393  0.7065 -0.1114  0.1732
 3106SOL    HW220778   2.560   4.644   1.397  0.1065 -0.8588  0.7425
 3107SOL     OW20779   2.047   3.478   5.028  0.4523 -0.2166 -0.6811
 3107SOL    HW120780   2.069   3.402   5.082  1.0305 -0.9291 -1.9389
 3107SOL    HW220781   2.034   3.549   5.091 -1.9032 -1.7750  0.6111
 3108SOL     OW20782   3.846   3.743   8.357 -0.4008  0.1374  0.1084
 3108SOL    HW120783   3.913   3.727   8.423 -1.2768 -0.7782  0.7688
 3108SOL    HW220784   3.793   3.667   8.382  0.5488 -0.8791 -0.9703
 3109SOL     OW20785   2.684   3.338  13.986  0.1642 -0.2058  1.2356
 3109SOL    HW120786   2.778   3.351  13.993  0.3709 -1.0658  0.1627
 3109SOL    HW220787   2.664   3.421  13.944  1.6085 -0.1577  0.6567
 3110SOL     OW20788   2.519   3.859  16.767 -0.5078 -0.8117  0.0229
 3110SOL    HW120789   2.604   3.866  16.724 -0.6810  0.8404 -0.0403
 3110SOL    HW220790   2.475   3.937  16.734  0.9528 -0.7393 -1.7522
 3111SOL     OW20791   3.225   1.665   6.649 -0.0360  0.5411 -0.1908
 3111SOL    HW120792   3.233   1.606   6.574  0.3726  1.4564 -0.8686
 3111SOL    HW220793   3.160   1.610   6.692 -0.9245  1.9929  0.3025
 3112SOL     OW20794   3.082   3.221   2.439  0.3641  0.6111 -0.1877
 3112SOL    HW120795   3.153   3.168   2.401 -0.8000 -0.2948 -1.0836
 3112SOL    HW220796   3.034   3.243   2.359  2.2499 -1.9291 -2.0006
 3113SOL     OW20797   1.529   0.864  15.684  0.0406  0.3825 -0.1870
 3113SOL    HW120798   1.460   0.815  15.728  2.3243 -1.7150  1.0508
 3113SOL    HW220799   1.595   0.859  15.752 -0.8531 -1.6748  0.5404
 3114SOL     OW20800   0.229   0.819   8.141  0.1101  0.3348 -0.4956
 3114SOL    HW120801   0.234   0.724   8.149 -0.4226  0.3066 -0.5077
 3114SOL    HW220802   0.321   0.841   8.160  0.3641 -0.4180 -0.8495
 3115SOL     OW20803   1.014   0.631   4.492  0.0124  0.3118  0.0463
 3115SOL    HW120804   1.054   0.562   4.440  0.4746  2.0584 -1.9219
 3115SOL    HW220805   0.955   0.682   4.436 -0.4972 -0.8987 -0.5122
 3116SOL     OW20806   2.721   3.198   4.739  1.2569 -0.1805  0.2365
 3116SOL    HW120807   2.794   3.253   4.766  0.4119  0.0915  1.9398
 3116SOL    HW220808   2.718   3.136   4.811  0.0726 -0.8269 -0.3723
 3117SOL     OW20809   4.240   2.013   8.837 -0.2297  0.0152 -0.3270
 3117SOL    HW120810   4.197   2.020   8.752 -0.4111  2.0539 -0.0833
 3117SOL    HW220811   4.305   2.084   8.834  2.2315 -2.2461  0.2451
 3118SOL     OW20812   3.804   1.817   9.173 -0.4307  0.4855 -0.3494
 3118SOL    HW120813   3.812   1.723   9.188 -1.5219  0.6146  1.0599
 3118SOL    HW220814   3.725   1.815   9.120  1.2183 -2.5015 -2.6367
 3119SOL     OW20815   1.502   1.422   3.552  0.1389  0.3388  0.3697
 3119SOL    HW120816   1.411   1.432   3.523  0.0214 -0.0599  0.5891
 3119SOL    HW220817   1.545   1.442   3.469  0.2066  2.5860  0.9554
 3120SOL     OW20818   1.171   4.018   1.960 -0.5797 -0.0791 -0.1155
 3120SOL    HW120819   1.179   4.015   1.865 -2.8823  0.5473 -0.3333
 3120SOL    HW220820   1.259   3.985   1.977 -0.8406 -1.5179 -1.6787
 3121SOL     OW20821   0.835   3.765   7.626 -0.1621  0.5673  0.7692
 3121SOL    HW120822   0.900   3.696   7.617 -0.8045  0.0909 -0.2405
 3121SOL    HW220823   0.822   3.777   7.720 -0.9541 -1.5874  0.9335
 3122SOL     OW20824   3.620   0.676   2.552  0.4742 -0.2203 -0.8162
 3122SOL    HW120825   3.656   0.764   2.567 -0.6209  0.2103 -0.7298
 3122SOL    HW220826   3.671   0.651   2.475 -2.0691  0.1701 -2.6137
 3123SOL     OW20827   1.253   3.812   5.931 -0.5666 -0.4152 -0.4843
 3123SOL    HW120828   1.308   3.766   5.868  1.5893  0.8321  0.4706
 3123SOL    HW220829   1.230   3.888   5.878 -1.8019 -0.1846  0.3860
 3124SOL     OW20830   0.130   0.267   2.731 -0.6508  0.3262 -0.2882
 3124SOL    HW120831   0.224   0.247   2.720 -0.9095 -1.6370  1.0618
 3124SOL    HW220832   0.128   0.312   2.816 -0.3290 -0.1768 -0.0156
 3125SOL     OW20833   4.378   2.573   5.460  0.2151 -0.1212 -0.2545
 3125SOL    HW120834   4.307   2.518   5.429  1.5482 -2.7981  1.4802
 3125SOL    HW220835   4.411   2.601   5.374  1.5089 -1.1933 -0.1133
 3126SOL     OW20836   3.195   2.606  16.637  0.1277  0.4233  0.5259
 3126SOL    HW120837   3.203   2.514  16.662  0.2759  0.2528 -0.1324
 3126SOL    HW220838   3.271   2.617  16.579 -0.2302 -1.3749 -0.2986
 3127SOL     OW20839   3.397   3.429  16.755 -0.8112 -0.0846  0.5646
 3127SOL    HW120840   3.421   3.347  16.797 -1.1752 -0.9229 -0.8507
 3127SOL    HW220841   3.420   3.494  16.822 -0.6179 -0.0053  0.4229
 3128SOL     OW20842   2.837   1.539   5.331  0.3482  0.3737  0.5937
 3128SOL    HW120843   2.805   1.470   5.274  0.5205 -0.5235  1.5899
 3128SOL    HW220844   2.874   1.609   5.277 -0.8367 -1.8825 -3.1026
 3129SOL     OW20845   4.494   0.156  13.128  0.1054  0.6017  0.0375
 3129SOL    HW120846   4.514   0.235  13.177  2.1738 -0.0599  0.2645
 3129SOL    HW220847   4.583   0.125  13.108  0.1247  0.9108 -0.3515
 3130SOL     OW20848   4.484   4.221  13.272  0.0914  0.2523 -0.1210
 3130SOL    HW120849   4.399   4.179  13.261 -0.2658  0.9306  0.0501
 3130SOL    HW220850   4.461   4.279  13.344 -1.4247  1.6739 -1.7799
 3131SOL     OW20851   4.596   3.712   8.807  1.2458  0.1411 -0.3159
 3131SOL    HW120852   4.606   3.622   8.838 -1.8488 -0.0235  0.2090
 3131SOL    HW220853   4.538   3.688   8.735  0.2830  0.6823  0.2814
 3132SOL     OW20854   2.879   1.822  14.492  0.4907  0.0514 -0.2527
 3132SOL    HW120855   2.910   1.837  14.581  2.2231 -2.2102 -0.4623
 3132SOL    HW220856   2.935   1.752  14.458 -0.1464  0.1483 -1.5237
 3133SOL     OW20857   1.042   1.341   4.004 -0.3741  0.6011  0.4939
 3133SOL    HW120858   0.976   1.383   4.060  0.0067  1.8285  0.0010
 3133SOL    HW220859   1.003   1.253   4.010  0.6660  0.1223  0.2471
 3134SOL     OW20860   0.575   2.929   3.352  0.0776  0.1557 -0.2413
 3134SOL    HW120861   0.501   2.934   3.292  1.0878 -1.9461 -1.6427
 3134SOL    HW220862   0.637   2.989   3.311  0.6174 -0.6225 -0.5579
 3135SOL     OW20863   3.721   0.534  14.610  0.5092 -0.0524  0.3507
 3135SOL    HW120864   3.702   0.625  14.589 -1.0700 -0.2923  0.7817
 3135SOL    HW220865   3.660   0.515  14.681  1.5932 -3.2209  0.4574
 3136SOL     OW20866   3.054   4.448  15.234  0.7799 -0.4679 -0.7046
 3136SOL    HW120867   3.027   4.534  15.201  1.8228  0.2199  0.2488
 3136SOL    HW220868   3.139   4.441  15.192  0.6339  1.3019 -1.2839
 3137SOL     OW20869   0.590   4.470   4.028 -0.2685 -0.3267  0.3913
 3137SOL    HW120870   0.654   4.477   3.957 -2.8922 -1.4486 -2.0554
 3137SOL    HW220871   0.514   4.444   3.977  0.5569  0.4538 -1.2225
 3138SOL     OW20872   1.703   3.146   7.934  0.0153 -0.0208 -0.4244
 3138SOL    HW120873   1.790   3.113   7.911 -0.3647 -0.1092 -1.7641
 3138SOL    HW220874   1.726   3.192   8.015 -2.1396  0.6550 -0.1916
 3139SOL     OW20875   1.977   0.700   6.168 -0.0385 -0.1511 -0.0730
 3139SOL    HW120876   1.887   0.710   6.138 -0.1334 -1.2362 -0.1197
 3139SOL    HW220877   1.957   0.720   6.260 -1.6729 -0.4654 -0.3616
 3140SOL     OW20878   1.776   0.090   7.002  0.3312  0.2109  0.0800
 3140SOL    HW120879   1.810   0.081   6.913 -0.9114 -2.8263 -0.1002
 3140SOL    HW220880   1.681   0.104   7.000  0.5895  2.2458  2.7091
 3141SOL     OW20881   0.539   1.675   4.985 -0.1618  0.5524 -0.3112
 3141SOL    HW120882   0.621   1.627   5.000 -0.7274  0.6573  3.2263
 3141SOL    HW220883   0.485   1.600   4.965 -2.5493  2.2345 -0.1646
 3142SOL     OW20884   1.612   2.826  14.681  0.6763  0.7568  0.1825
 3142SOL    HW120885   1.682   2.855  14.622  0.9007  0.5477  0.3495
 3142SOL    HW220886   1.586   2.743  14.641  2.5016  1.3602 -2.2536
 3143SOL     OW20887   4.423   1.408   5.214 -0.5051  0.0222 -0.0872
 3143SOL    HW120888   4.422   1.487   5.267 -0.2167  0.7789 -1.1960
 3143SOL    HW220889   4.402   1.453   5.131  0.6697  0.7769  0.0285
 3144SOL     OW20890   2.842   1.223   2.405  0.0446 -0.5311 -0.1894
 3144SOL    HW120891   2.929   1.194   2.433  0.8256  0.9007 -1.1585
 3144SOL    HW220892   2.853   1.249   2.314 -1.8975 -0.3428 -0.3813
 3145SOL     OW20893   4.505   4.597  12.792 -0.2302 -0.2699  0.1635
 3145SOL    HW120894   4.511   4.533  12.864  2.5216 -0.2587 -0.0570
 3145SOL    HW220895   4.410   4.602  12.792 -0.3668 -2.7457 -2.2468
 3146SOL     OW20896   4.439   1.594   7.625 -0.0284 -0.1629  0.2241
 3146SOL    HW120897   4.362   1.648   7.609  0.4560  0.7568  1.0027
 3146SOL    HW220898   4.409   1.526   7.685 -0.7750 -0.0543 -0.0308
 3147SOL     OW20899   3.762   0.641   8.854 -0.6770  0.3372  0.2699
 3147SOL    HW120900   3.822   0.711   8.879 -1.0563  0.4285  0.9230
 3147SOL    HW220901   3.793   0.611   8.769  1.5335  2.1390  0.4295
 3148SOL     OW20902   2.285   2.659   7.765  0.1111 -0.1869 -0.3846
 3148SOL    HW120903   2.218   2.591   7.757  0.3324 -0.4960  0.3318
 3148SOL    HW220904   2.355   2.610   7.809  1.1975  1.4636 -0.3181
 3149SOL     OW20905   1.444   2.774   5.953 -0.1289 -0.5388  0.4391
 3149SOL    HW120906   1.404   2.808   6.033 -0.8295 -0.5322  0.0844
 3149SOL    HW220907   1.390   2.696   5.938 -1.5954  0.4426  0.5885
 3150SOL     OW20908   4.265   4.396  16.562 -0.3333 -0.5532 -0.6014
 3150SOL    HW120909   4.237   4.481  16.596  0.6275 -1.0744  1.4665
 3150SOL    HW220910   4.321   4.372  16.636  0.4646  0.4203 -0.8983
 3151SOL     OW20911   3.407   1.736   5.251 -0.1666 -0.8209 -0.0966
 3151SOL    HW120912   3.321   1.747   5.292 -0.6597  0.0359 -1.3568
 3151SOL    HW220913   3.408   1.641   5.259 -0.4527 -0.7628  0.5918
 3152SOL     OW20914   0.658   4.552   5.990  0.0541  0.5446  0.4062
 3152SOL    HW120915   0.592   4.533   5.923 -0.1660 -3.6065  1.7751
 3152SOL    HW220916   0.600   4.591   6.056 -0.0352 -0.2288  0.7956
 3153SOL     OW20917   2.539   1.104   6.705  0.1617 -0.3790  0.2226
 3153SOL    HW120918   2.578   1.176   6.754 -0.3759  0.1013 -0.0448
 3153SOL    HW220919   2.599   1.075   6.636  1.0895  1.0111  0.4350
 3154SOL     OW20920   2.899   1.236   5.584 -0.3172  0.5037  0.2897
 3154SOL    HW120921   2.952   1.196   5.515 -2.2507  0.7528 -1.3442
 3154SOL    HW220922   2.812   1.222   5.548  0.4340  0.9694 -1.6942
 3155SOL     OW20923   4.165   1.810   4.589  0.2057  0.0268  0.1333
 3155SOL    HW120924   4.143   1.859   4.510 -2.9892 -2.6101 -0.5970
 3155SOL    HW220925   4.139   1.720   4.568  1.3697  0.0356 -1.3563
 3156SOL     OW20926   1.441   0.185   2.896 -0.6493 -0.0214  0.2114
 3156SOL    HW120927   1.461   0.261   2.842  2.1139 -0.4161  0.7113
 3156SOL    HW220928   1.478   0.199   2.983  0.7480 -3.6956  0.1845
 3157SOL     OW20929   2.242   4.383   5.427 -0.2300 -0.5916  0.5399
 3157SOL    HW120930   2.308   4.371   5.359 -0.6165 -0.4057  0.1393
 3157SOL    HW220931   2.253   4.477   5.437  1.5626 -0.5772 -1.5801
 3158SOL     OW20932   2.795   2.940   9.132  0.6643  0.0375  0.0312
 3158SOL    HW120933   2.834   3.003   9.193  0.6613  0.2798 -0.2178
 3158SOL    HW220934   2.794   2.988   9.049  0.4615 -0.3144 -0.1677
 3159SOL     OW20935   2.672   1.150   0.348  0.9465  0.2721 -0.0551
 3159SOL    HW120936   2.647   1.167   0.438 -1.4231  0.3747 -0.7388
 3159SOL    HW220937   2.716   1.065   0.352  0.6561  0.1493  0.4322
 3160SOL     OW20938   1.360   1.494   5.106 -0.1443  0.3606 -0.0224
 3160SOL    HW120939   1.269   1.478   5.083 -0.5065 -0.5371  2.0054
 3160SOL    HW220940   1.394   1.405   5.119 -1.4194 -0.5109 -2.5696
 3161SOL     OW20941   0.442   3.909   4.290 -0.0748  0.0234 -0.6159
 3161SOL    HW120942   0.420   4.001   4.302 -0.4048 -0.5201  3.0655
 3161SOL    HW220943   0.504   3.901   4.218  0.7520 -1.6347  0.2805
 3162SOL     OW20944   0.980   0.838   9.971  0.1153  0.7694 -0.1304
 3162SOL    HW120945   0.944   0.763  10.018 -0.4053  1.3192  0.3393
 3162SOL    HW220946   0.968   0.905  10.038  1.9829 -0.9088  1.8993
 3163SOL     OW20947   0.342   1.185  11.402  0.0183  0.3728 -0.4263
 3163SOL    HW120948   0.266   1.127  11.393  0.2217  0.0312  0.1119
 3163SOL    HW220949   0.316   1.244  11.331  1.2065  1.5185  0.0955
 3164SOL     OW20950   0.593   3.913   4.974 -0.6991 -0.2879 -0.2334
 3164SOL    HW120951   0.608   4.006   4.989 -0.0851 -0.3207 -0.6584
 3164SOL    HW220952   0.629   3.881   5.057 -0.6253  0.1274 -0.1067
 3165SOL     OW20953   3.463   3.494   0.462 -0.2594  0.3905 -0.2689
 3165SOL    HW120954   3.371   3.492   0.438  0.2336  0.1488 -2.1187
 3165SOL    HW220955   3.489   3.437   0.390 -1.5929 -1.8301  0.9806
 3166SOL     OW20956   0.200   2.188  12.361 -0.3695  0.0035 -0.1760
 3166SOL    HW120957   0.204   2.094  12.344 -1.0726 -0.0024 -0.3037
 3166SOL    HW220958   0.112   2.199  12.399 -0.4238  0.3964 -0.4203
 3167SOL     OW20959   3.562   4.243   2.614  0.2178 -0.4010 -0.6515
 3167SOL    HW120960   3.552   4.199   2.530 -0.5483 -0.2408 -0.6455
 3167SOL    HW220961   3.486   4.219   2.666 -0.3566  1.1945 -0.7335
 3168SOL     OW20962   4.477   3.043   2.566  0.3633 -0.5271  0.4762
 3168SOL    HW120963   4.516   3.030   2.479  0.5207  1.1920  0.2800
 3168SOL    HW220964   4.533   3.115   2.594 -2.4869  1.0857  2.0715
 3169SOL     OW20965   2.335   0.997   4.019 -0.8802  0.5546  0.4019
 3169SOL    HW120966   2.284   0.916   4.017 -2.6047  1.6116  1.4491
 3169SOL    HW220967   2.298   1.047   4.092 -2.3588  0.5309 -0.3443
 3170SOL     OW20968   2.002   4.240   6.162 -0.2311 -0.2199 -0.0753
 3170SOL    HW120969   1.982   4.280   6.078 -0.7381  0.5727  0.4268
 3170SOL    HW220970   2.074   4.177   6.151  0.0330  0.3364 -1.5425
 3171SOL     OW20971   3.175   1.443   5.258 -0.1957  1.0201 -0.3234
 3171SOL    HW120972   3.133   1.370   5.304 -0.3457 -0.4739 -2.8284
 3171SOL    HW220973   3.255   1.473   5.300  0.1221 -0.1668 -0.0847
 3172SOL     OW20974   3.132   0.551   8.166 -0.1453 -0.3589 -0.0170
 3172SOL    HW120975   3.159   0.613   8.098 -0.9826 -1.0680 -0.9916
 3172SOL    HW220976   3.103   0.491   8.097  1.2482 -0.3648 -0.6127
 3173SOL     OW20977   2.760   4.379  15.769  0.3784  0.2945  0.2485
 3173SOL    HW120978   2.691   4.344  15.825 -0.3532  0.8308 -0.3067
 3173SOL    HW220979   2.754   4.331  15.686 -0.9440 -1.6819  1.4931
 3174SOL     OW20980   3.378   0.933   9.126  0.0449 -0.2902  0.3197
 3174SOL    HW120981   3.317   0.996   9.164  0.2888  0.7192 -0.9530
 3174SOL    HW220982   3.315   0.885   9.071 -0.3189 -1.0860  1.4267
 3175SOL     OW20983   1.717   1.830  16.696 -0.2791 -0.2295  0.1738
 3175SOL    HW120984   1.748   1.813  16.607  1.4691  2.5778  0.2452
 3175SOL    HW220985   1.798   1.817  16.747  0.7402  2.6003 -0.7377
 3176SOL     OW20986   3.851   0.160  11.027 -0.6785  0.1626 -0.3186
 3176SOL    HW120987   3.896   0.243  11.011  1.7112 -0.7648  1.6754
 3176SOL    HW220988   3.925   0.101  11.030 -0.4305  0.4768 -0.2803
 3177SOL     OW20989   3.961   0.683   2.533 -0.1745  0.6345 -0.7227
 3177SOL    HW120990   3.917   0.625   2.595  2.1815 -0.3060  0.0632
 3177SOL    HW220991   4.025   0.621   2.496  0.3551  1.5574 -1.3668
 3178SOL     OW20992   2.579   0.344   2.762  0.1093 -0.2336  0.3773
 3178SOL    HW120993   2.555   0.372   2.674  3.4640  0.9555 -0.1742
 3178SOL    HW220994   2.632   0.271   2.729 -0.5705  0.0077 -1.2468
 3179SOL     OW20995   2.813   3.612   3.895  0.1985 -0.0037 -0.4921
 3179SOL    HW120996   2.873   3.540   3.914 -0.6043 -0.1914  1.3702
 3179SOL    HW220997   2.872   3.687   3.886  2.7873 -2.0005 -0.3152
 3180SOL     OW20998   0.917   2.402   5.334 -0.5112  0.6367  0.0952
 3180SOL    HW120999   0.949   2.350   5.261  3.8396  0.8613  1.8742
 3180SOL    HW221000   0.840   2.352   5.361  0.3219  0.0750  1.4840
 3181SOL     OW21001   3.528   0.570   8.973 -0.0095 -0.1538  0.0898
 3181SOL    HW121002   3.617   0.580   8.938 -0.1436 -0.1105 -0.2463
 3181SOL    HW221003   3.465   0.604   8.909  0.5922  2.0396  0.6715
 3182SOL     OW21004   1.160   1.004  14.494  0.0190 -0.1171  0.3624
 3182SOL    HW121005   1.134   1.051  14.415  0.2781 -0.9826 -0.2375
 3182SOL    HW221006   1.199   0.927  14.453  1.3009  0.8421 -0.1923
 3183SOL     OW21007   3.920   4.464   2.191 -0.0473 -0.8131 -0.0311
 3183SOL    HW121008   3.996   4.407   2.179  0.5707  0.0545 -0.1702
 3183SOL    HW221009   3.941   4.540   2.137  0.3555 -1.3466 -0.6331
 3184SOL     OW21010   1.179   4.128  17.512  0.4205  0.3053 -0.0535
 3184SOL    HW121011   1.275   4.118  17.515  0.0530 -3.2341 -0.2957
 3184SOL    HW221012   1.157   4.119  17.420  0.5121  1.6169 -0.2078
 3185SOL     OW21013   4.631   0.806   4.146 -0.7337  0.1748  0.0631
 3185SOL    HW121014   4.600   0.730   4.196 -0.7862  0.2049  0.0770
 3185SOL    HW221015   4.693   0.772   4.082 -1.4160  0.3061 -0.6723
 3186SOL     OW21016   1.984   3.667   2.186  0.6019  0.4461 -0.0378
 3186SOL    HW121017   1.925   3.682   2.260 -0.9591  2.0736 -1.6241
 3186SOL    HW221018   2.065   3.647   2.234 -0.2497  1.5306  1.8432
 3187SOL     OW21019   4.329   0.885   8.367 -0.1739 -0.5615  0.1576
 3187SOL    HW121020   4.333   0.800   8.324 -0.8799  0.0627 -1.1472
 3187SOL    HW221021   4.358   0.871   8.458 -0.5852 -0.9331  0.2351
 3188SOL     OW21022   0.486   4.264   3.748 -0.0903  0.5742  0.1962
 3188SOL    HW121023   0.412   4.283   3.690 -0.1832  0.2156  0.1990
 3188SOL    HW221024   0.458   4.201   3.815  0.7106  0.8115  0.7499
 3189SOL     OW21025   2.545   4.704   7.462  0.4962  0.1809 -0.0865
 3189SOL    HW121026   2.519   0.058   7.411  0.6190 -0.3068 -0.8818
 3189SOL    HW221027   2.530   4.719   7.555 -0.4042  0.4656 -0.2849
 3190SOL     OW21028   1.080   2.275   8.703  0.0956 -0.7843  0.1868
 3190SOL    HW121029   1.149   2.267   8.770  0.9565 -0.1494 -0.6220
 3190SOL    HW221030   1.140   2.295   8.631 -0.4880  0.6976  0.1150
 3191SOL     OW21031   2.360   1.946   4.963  0.1751 -0.0369  0.0390
 3191SOL    HW121032   2.326   1.913   5.047 -0.3406  0.5778  0.0719
 3191SOL    HW221033   2.383   1.866   4.916 -2.6019  0.0916 -1.5218
 3192SOL     OW21034   3.535   3.665   4.000  0.4012  0.3271 -0.2806
 3192SOL    HW121035   3.497   3.711   4.075  1.6965 -2.0246  1.7795
 3192SOL    HW221036   3.598   3.734   3.981  1.9200 -1.0091 -0.0471
 3193SOL     OW21037   2.211   4.507   0.617 -0.5838 -0.4442  0.1753
 3193SOL    HW121038   2.299   4.537   0.641 -0.7944 -0.5859  1.1359
 3193SOL    HW221039   2.188   4.571   0.550 -1.4163 -0.5136  0.3971
 3194SOL     OW21040   4.380   0.866   3.100  0.5369  0.4434 -0.4557
 3194SOL    HW121041   4.350   0.859   3.010  2.1635  2.8399 -1.1844
 3194SOL    HW221042   4.335   0.947   3.121  2.5858  1.2895  0.7179
 3195SOL     OW21043   3.810   1.153  17.205 -0.8750 -0.1364  0.6279
 3195SOL    HW121044   3.860   1.233  17.221  0.3037 -0.1420 -2.9943
 3195SOL    HW221045   3.750   1.141  17.278 -1.1818 -1.1548  0.2145
 3196SOL     OW21046   2.470   3.326  16.735 -0.1849  0.2945 -0.2359
 3196SOL    HW121047   2.418   3.336  16.814 -0.7884 -0.5492 -0.5303
 3196SOL    HW221048   2.404   3.362  16.676 -0.1982  0.9624  0.1900
 3197SOL     OW21049   0.360   2.848  16.250 -0.7214  0.3052 -0.1465
 3197SOL    HW121050   0.438   2.858  16.195  0.4597  0.1833  1.4789
 3197SOL    HW221051   0.315   2.778  16.202 -1.2483 -0.2457  1.1386
 3198SOL     OW21052   1.440   4.323   3.888 -0.1699  0.1136  0.1598
 3198SOL    HW121053   1.349   4.352   3.901 -0.3497 -0.6526  0.5659
 3198SOL    HW221054   1.458   4.294   3.977 -0.9894  1.3515  0.7303
 3199SOL     OW21055   3.631   4.503  11.205  0.3608  0.0918  0.0475
 3199SOL    HW121056   3.709   4.535  11.250 -0.0821 -0.7465  1.4181
 3199SOL    HW221057   3.636   4.408  11.214  1.9543  0.1477 -0.3188
 3200SOL     OW21058   4.301   0.501  10.260 -0.3889 -0.2027  0.1529
 3200SOL    HW121059   4.240   0.574  10.262 -0.1533 -0.1014  3.4858
 3200SOL    HW221060   4.374   0.562  10.270 -0.4144 -0.5158  2.1559
 3201SOL     OW21061   2.367   1.419   1.469  0.2261 -0.6278  1.0606
 3201SOL    HW121062   2.306   1.402   1.397  0.5005 -1.7277  1.0847
 3201SOL    HW221063   2.367   1.332   1.509  1.2170 -1.4812 -0.7897
 3202SOL     OW21064   2.909   2.193   3.009  0.1821  0.0402  0.6731
 3202SOL    HW121065   2.965   2.179   3.085  1.2023 -1.1475 -0.2958
 3202SOL    HW221066   2.921   2.284   2.982 -0.6449 -0.3302 -0.9522
 3203SOL     OW21067   0.985   1.527  14.591  0.4716  0.0114 -0.8990
 3203SOL    HW121068   0.946   1.570  14.514  0.2258  1.3808 -0.0123
 3203SOL    HW221069   0.979   1.594  14.659 -0.7594  1.4334 -2.3959
 3204SOL     OW21070   4.195   2.699   1.162  0.2746 -0.4577 -0.1059
 3204SOL    HW121071   4.193   2.788   1.195 -2.3019 -0.8912  0.9266
 3204SOL    HW221072   4.277   2.703   1.112  2.0405  1.4738  2.9516
 3205SOL     OW21073   0.282   4.192   7.619 -0.2082  0.0395 -0.6338
 3205SOL    HW121074   0.333   4.213   7.541  0.6543  1.2708  0.2605
 3205SOL    HW221075   0.318   4.112   7.657  0.7961  0.9380  0.3229
 3206SOL     OW21076   4.166   3.374   6.611  0.5643 -0.4554  0.0752
 3206SOL    HW121077   4.076   3.401   6.595  0.7322  1.5875  2.6038
 3206SOL    HW221078   4.157   3.363   6.705  0.0380 -0.1958  0.0541
 3207SOL     OW21079   4.359   1.828   5.581 -0.1094 -0.0339 -0.0795
 3207SOL    HW121080   4.415   1.793   5.651  1.7588  0.4522 -1.3374
 3207SOL    HW221081   4.344   1.915   5.616 -1.5718 -0.6182  0.7562
 3208SOL     OW21082   0.873   2.722   0.095 -0.1221  0.1517 -0.1925
 3208SOL    HW121083   0.959   2.763   0.085  0.4302 -0.6464  1.3197
 3208SOL    HW221084   0.847   2.687   0.010 -0.7212  1.4712 -0.5544
 3209SOL     OW21085   1.764   3.709   2.671 -0.1367 -0.3628  0.2470
 3209SOL    HW121086   1.779   3.725   2.578  1.6549 -0.4795  0.5066
 3209SOL    HW221087   1.680   3.751   2.692  0.4321  1.3203 -0.8281
 3210SOL     OW21088   4.578   2.319   7.670 -0.3541  0.2335  0.1234
 3210SOL    HW121089   4.527   2.296   7.592  1.4874 -1.4999 -0.5672
 3210SOL    HW221090   4.521   2.387   7.707 -0.7906 -0.1478  0.1587
 3211SOL     OW21091   2.083   0.251  13.579  0.2556  0.5826 -0.3360
 3211SOL    HW121092   2.133   0.328  13.607 -0.7441  1.1184 -0.0158
 3211SOL    HW221093   2.141   0.180  13.605 -1.0424 -1.2356 -2.4833
 3212SOL     OW21094   0.585   2.472  13.051  0.1693 -0.5019  0.6516
 3212SOL    HW121095   0.679   2.490  13.060 -0.1918  1.4943  0.5974
 3212SOL    HW221096   0.565   2.412  13.123 -0.4859 -1.3500 -0.2593
 3213SOL     OW21097   1.683   3.797  17.206  0.3714 -0.5326 -0.0597
 3213SOL    HW121098   1.763   3.850  17.212  0.1119  0.2067 -2.9657
 3213SOL    HW221099   1.634   3.832  17.132 -0.7531  0.1652  1.0112
 3214SOL     OW21100   0.066   0.008  12.274  0.8423 -1.0899 -0.3324
 3214SOL    HW121101   4.713   0.026  12.332  0.9817  0.3409 -0.5962
 3214SOL    HW221102   0.075   4.636  12.278  1.1427 -0.9696  1.7818
 3215SOL     OW21103   4.083   4.576  16.746 -0.2180  0.4300  0.1668
 3215SOL    HW121104   4.045   4.569  16.833  1.3251 -1.4264  0.6729
 3215SOL    HW221105   4.169   4.612  16.767 -1.3019  1.8061  2.2265
 3216SOL     OW21106   2.615   0.568  17.557  0.3008 -0.1173 -0.0759
 3216SOL    HW121107   2.569   0.550  17.639 -0.4027 -0.2552 -0.5000
 3216SOL    HW221108   2.554   0.623  17.508 -1.1347 -2.7942 -1.2760
 3217SOL     OW21109   2.194   1.641   4.704 -0.6382  0.5382 -0.7680
 3217SOL    HW121110   2.223   1.617   4.792 -0.8419  1.1226 -0.5420
 3217SOL    HW221111   2.247   1.717   4.679  3.1899 -2.0738 -0.5179
 3218SOL     OW21112   3.489   3.797   4.316  0.3898  0.5560  0.3314
 3218SOL    HW121113   3.543   3.719   4.323  0.2391  0.3306 -0.9589
 3218SOL    HW221114   3.443   3.799   4.400  0.5686  2.6917  0.3975
 3219SOL     OW21115   3.637   1.840   6.872  0.1523 -0.5336 -0.1363
 3219SOL    HW121116   3.639   1.852   6.967 -2.6347 -1.0364 -0.0174
 3219SOL    HW221117   3.546   1.810   6.862 -0.0419  0.2078 -0.6314
 3220SOL     OW21118   2.584   2.522   0.452 -0.6031 -0.5629  0.1860
 3220SOL    HW121119   2.639   2.444   0.458  3.3187  2.4554  3.2616
 3220SOL    HW221120   2.535   2.509   0.533 -0.8461  2.4483  0.5420
 3221SOL     OW21121   1.296   4.490   8.203 -0.2814 -0.1104  0.4389
 3221SOL    HW121122   1.224   4.518   8.146  1.2035 -0.6248 -1.6962
 3221SOL    HW221123   1.330   4.420   8.148  2.5133  1.0676  0.6954
 3222SOL     OW21124   4.010   1.519  12.480  0.1850 -0.0694 -0.4941
 3222SOL    HW121125   4.087   1.476  12.442  1.2037  2.0916 -0.8634
 3222SOL    HW221126   4.031   1.522  12.573  2.7102 -1.4005 -1.0360
 3223SOL     OW21127   4.643   4.080   5.880 -0.2688  0.0658  0.0777
 3223SOL    HW121128   4.596   4.081   5.963 -0.3299 -0.4471  0.0529
 3223SOL    HW221129   0.003   4.120   5.909 -0.8617  0.9371  0.5273
 3224SOL     OW21130   0.024   0.114   5.113 -0.5147 -0.3007 -0.4244
 3224SOL    HW121131   0.008   0.138   5.205 -1.3923  0.4552 -0.7808
 3224SOL    HW221132   4.680   0.046   5.109 -1.3993  0.4041  2.2090
 3225SOL     OW21133   0.794   4.676   2.856 -0.0806 -0.0824  0.0247
 3225SOL    HW121134   0.864   0.018   2.845 -1.6527  1.8731  1.5760
 3225SOL    HW221135   0.828   4.600   2.808  1.9080  1.6625 -1.3373
 3226SOL     OW21136   1.337   0.576   6.923 -0.2300  0.3089 -0.0606
 3226SOL    HW121137   1.373   0.497   6.883  0.7994  0.8161 -0.1423
 3226SOL    HW221138   1.415   0.631   6.929  2.1508 -3.0411 -0.2920
 3227SOL     OW21139   3.024   3.377  16.927  0.3107  0.5539 -0.1428
 3227SOL    HW121140   2.935   3.389  16.895  0.4515 -0.0290 -0.7586
 3227SOL    HW221141   3.074   3.405  16.850  0.3598  2.2071  0.5013
 3228SOL     OW21142   1.945   3.641   8.045 -0.0066  0.2469 -0.7179
 3228SOL    HW121143   1.868   3.589   8.024  0.0753 -0.3188  0.3992
 3228SOL    HW221144   1.896   3.698   8.105 -1.0626  0.6241 -1.9486
 3229SOL     OW21145   0.553   1.361  11.267  0.3411 -0.3919  0.3291
 3229SOL    HW121146   0.592   1.415  11.335  1.5356  1.8268 -2.0875
 3229SOL    HW221147   0.470   1.330  11.303  0.3689 -1.0117 -0.1332
 3230SOL     OW21148   3.205   2.253   5.461  0.1129  0.2872  0.6789
 3230SOL    HW121149   3.211   2.311   5.537 -0.3431 -2.0801  2.5053
 3230SOL    HW221150   3.152   2.304   5.400 -1.5693 -0.2369  1.7018
 3231SOL     OW21151   3.871   3.454   7.141  0.3056 -0.8935  0.5046
 3231SOL    HW121152   3.942   3.397   7.110  0.0288 -1.4557  0.8993
 3231SOL    HW221153   3.915   3.539   7.132 -0.4049 -0.5246  0.4883
 3232SOL     OW21154   1.816   2.512   8.376 -0.4668  0.1275 -0.3921
 3232SOL    HW121155   1.838   2.549   8.290 -0.2158  0.0506 -0.3588
 3232SOL    HW221156   1.903   2.524   8.413 -1.5694  1.1796  1.8864
 3233SOL     OW21157   2.274   2.263   6.257 -0.0642  0.2682 -0.0427
 3233SOL    HW121158   2.323   2.209   6.319  0.2756  1.0844  0.3943
 3233SOL    HW221159   2.272   2.190   6.194 -1.0315  0.0512  0.2324
 3234SOL     OW21160   2.789   3.661   4.641 -0.2846 -0.1877 -0.0616
 3234SOL    HW121161   2.716   3.648   4.580 -0.9320  0.8234  0.4946
 3234SOL    HW221162   2.845   3.732   4.607  1.3803 -1.3731  0.1914
 3235SOL     OW21163   2.363   3.391  14.101 -0.6341 -0.3918 -0.0586
 3235SOL    HW121164   2.451   3.374  14.066 -0.1437  2.3995 -0.1736
 3235SOL    HW221165   2.332   3.469  14.055 -0.1462  0.6725  1.4440
 3236SOL     OW21166   1.694   3.251   2.449  0.1187  0.5621 -0.1323
 3236SOL    HW121167   1.752   3.216   2.382  0.3696 -1.8904  1.3472
 3236SOL    HW221168   1.750   3.317   2.490  3.1733 -1.5529 -0.8936
 3237SOL     OW21169   2.244   3.153  14.039  0.1983  0.2399  0.4459
 3237SOL    HW121170   2.165   3.192  14.000 -0.1279 -1.2704 -0.3977
 3237SOL    HW221171   2.287   3.234  14.066 -2.2208  1.2962  1.1319
 3238SOL     OW21172   4.560   0.022  15.803  0.3339  0.1595  0.4073
 3238SOL    HW121173   4.642   4.705  15.772 -1.0876 -2.5244  0.1516
 3238SOL    HW221174   4.500   4.670  15.809 -2.2049  2.0810 -1.0968
 3239SOL     OW21175   2.523   2.127   6.201 -0.0759  0.2907 -0.8005
 3239SOL    HW121176   2.606   2.102   6.240 -0.1866 -0.6624 -1.1729
 3239SOL    HW221177   2.548   2.219   6.192  1.3658 -0.0265 -0.0990
 3240SOL     OW21178   1.383   4.520  10.082  0.5532 -0.4687 -0.1311
 3240SOL    HW121179   1.433   4.490  10.158 -1.3960  0.0887  1.3689
 3240SOL    HW221180   1.439   4.486  10.013  0.5231 -0.7971  0.0052
 3241SOL     OW21181   2.967   2.002   2.633 -0.5061 -0.1874  0.4299
 3241SOL    HW121182   2.900   1.933   2.637 -0.1801 -0.3717  2.8768
 3241SOL    HW221183   2.909   2.072   2.603  2.0945  0.9958 -1.7435
 3242SOL     OW21184   3.442   3.856   1.352  0.1315  0.0261 -0.2313
 3242SOL    HW121185   3.501   3.887   1.284  0.0379  0.8032  0.0443
 3242SOL    HW221186   3.499   3.808   1.412  0.3817  0.2837 -0.2623
 3243SOL     OW21187   0.545   1.027   6.909  0.1046  0.1412 -0.4102
 3243SOL    HW121188   0.504   0.988   6.986 -0.5124  1.6945  0.0446
 3243SOL    HW221189   0.582   1.102   6.955  1.4049 -1.3107  0.8844
 3244SOL     OW21190   3.949   4.145   4.454  0.0763 -0.2637 -0.1329
 3244SOL    HW121191   3.985   4.071   4.503  1.5705 -0.0062 -0.8686
 3244SOL    HW221192   3.877   4.174   4.511 -0.2748  0.0721 -0.7541
 3245SOL     OW21193   0.573   0.613   8.412 -0.1632  0.8345 -0.4577
 3245SOL    HW121194   0.579   0.538   8.354  1.9547  1.3419 -0.9106
 3245SOL    HW221195   0.645   0.658   8.368  0.9183 -1.1509 -0.7012
 3246SOL     OW21196   1.866   3.511   2.846 -0.9694 -0.2811 -0.2478
 3246SOL    HW121197   1.847   3.572   2.774 -1.0473 -0.6099 -0.5084
 3246SOL    HW221198   1.787   3.503   2.899  0.9972  1.6568  2.9696
 3247SOL     OW21199   1.863   0.065   4.382  0.0059 -0.3469 -0.0671
 3247SOL    HW121200   1.863   0.090   4.474  1.0745  0.8067 -0.3966
 3247SOL    HW221201   1.901   4.700   4.391 -1.2017 -0.5737  2.7576
 3248SOL     OW21202   0.402   1.439   9.009 -0.0872 -0.1165  0.2648
 3248SOL    HW121203   0.441   1.366   9.057  2.0896 -0.5060 -2.0974
 3248SOL    HW221204   0.320   1.393   8.989 -1.0591  1.5453  0.4398
 3249SOL     OW21205   0.552   3.408   0.099 -0.2111 -0.3390 -0.1854
 3249SOL    HW121206   0.637   3.396   0.057  0.2911 -0.4953  0.8668
 3249SOL    HW221207   0.586   3.439   0.183 -0.6300 -5.2520  1.7596
 3250SOL     OW21208   2.020   0.516   7.866  0.6229  0.1657 -0.3126
 3250SOL    HW121209   1.945   0.458   7.883  0.2177  0.7385 -0.1548
 3250SOL    HW221210   2.078   0.477   7.932  2.3196 -0.9581 -2.4905
 3251SOL     OW21211   1.494   3.553   4.977 -0.0530 -0.2887 -0.1576
 3251SOL    HW121212   1.562   3.524   5.038  0.1570  0.0278 -0.2428
 3251SOL    HW221213   1.494   3.485   4.910 -1.4318 -1.4049  0.9447
 3252SOL     OW21214   1.761   4.052   8.071  0.5901  0.4057 -0.1319
 3252SOL    HW121215   1.851   4.020   8.067  0.8619  1.2743 -0.9795
 3252SOL    HW221216   1.739   4.037   8.163  0.0049 -0.2856 -0.3830
 3253SOL     OW21217   0.024   3.756   7.184 -0.1700  0.2802 -0.8170
 3253SOL    HW121218   0.097   3.704   7.151  0.4697  0.9258 -0.4188
 3253SOL    HW221219   4.678   3.692   7.164  1.0487 -1.6402  1.2334
 3254SOL     OW21220   1.017   0.087   0.865  0.2983  0.0968  0.2170
 3254SOL    HW121221   1.101   0.088   0.818  0.9916  2.0171  1.5283
 3254SOL    HW221222   1.048   0.125   0.947  0.0343  2.1975 -0.6746
 3255SOL     OW21223   0.968   0.084   5.387 -0.0256 -0.5506 -0.0412
 3255SOL    HW121224   0.891   0.030   5.406 -0.9398  1.7241  2.8668
 3255SOL    HW221225   1.029   0.082   5.460  0.7823 -2.7490 -0.7854
 3256SOL     OW21226   0.645   2.174   6.062  0.3302  0.5505 -0.5945
 3256SOL    HW121227   0.604   2.245   6.111  0.0768  0.2530 -0.3758
 3256SOL    HW221228   0.625   2.095   6.113 -1.9783  0.4007 -1.7108
 3257SOL     OW21229   1.512   1.816   6.188 -0.2861 -0.5681 -0.5503
 3257SOL    HW121230   1.416   1.817   6.191 -0.2319  1.0511  1.1541
 3257SOL    HW221231   1.519   1.898   6.238 -2.2052 -0.0857 -1.0811
 3258SOL     OW21232   1.448   4.609  16.931  0.2594  0.0827 -0.8485
 3258SOL    HW121233   1.461   4.541  16.997  0.5714 -0.3227 -1.3249
 3258SOL    HW221234   1.499   4.684  16.964 -0.1169 -0.3622  0.7697
 3259SOL     OW21235   3.256   2.611  16.192 -0.3008  0.0732 -0.2886
 3259SOL    HW121236   3.189   2.623  16.260 -0.5052 -0.8592 -0.3301
 3259SOL    HW221237   3.312   2.545  16.231  1.8936  1.8670 -0.4185
 3260SOL     OW21238   1.759   4.045   6.135 -0.0331 -0.2975 -0.0473
 3260SOL    HW121239   1.720   3.965   6.170  1.9665  0.2696  3.5059
 3260SOL    HW221240   1.839   4.047   6.188 -0.6901 -0.6519  0.9769
 3261SOL     OW21241   1.447   4.403   2.711  0.0538 -0.2527 -0.1005
 3261SOL    HW121242   1.436   4.495   2.734  0.3742 -0.2152 -0.0933
 3261SOL    HW221243   1.410   4.355   2.785  0.5331 -0.0943  0.2435
 3262SOL     OW21244   0.478   1.404   4.911 -0.0861 -0.0942 -0.1226
 3262SOL    HW121245   0.500   1.344   4.840  0.2831 -0.8264  0.6110
 3262SOL    HW221246   0.518   1.362   4.987 -1.9169  0.5961  1.2187
 3263SOL     OW21247   1.674   4.399  11.709 -0.1553 -0.4819 -0.1687
 3263SOL    HW121248   1.674   4.411  11.804  0.0864  1.0610 -0.3702
 3263SOL    HW221249   1.724   4.317  11.705 -0.5679 -0.7050 -0.7597
 3264SOL     OW21250   3.681   3.530   0.654  0.5325 -0.6664 -0.0396
 3264SOL    HW121251   3.614   3.528   0.586  0.2503  1.3228  0.1719
 3264SOL    HW221252   3.689   3.438   0.679  0.4371 -0.6696 -0.0225
 3265SOL     OW21253   0.846   0.757   5.407  0.3577 -0.3206  0.3532
 3265SOL    HW121254   0.791   0.680   5.395 -0.0928  0.0463  0.0886
 3265SOL    HW221255   0.887   0.733   5.490  1.9810 -0.7394 -0.5704
 3266SOL     OW21256   2.601   0.635   7.400  0.2573 -0.4552 -0.2695
 3266SOL    HW121257   2.510   0.621   7.427 -0.0282  0.2756 -0.8349
 3266SOL    HW221258   2.649   0.568   7.449  1.1606 -0.5556 -1.2831
 3267SOL     OW21259   0.160   3.987   1.289 -0.1344  0.5786 -0.0323
 3267SOL    HW121260   0.221   4.031   1.231  1.3760  0.7950  1.7271
 3267SOL    HW221261   0.176   3.896   1.264 -2.9077  0.0371  0.1053
 3268SOL     OW21262   1.573   3.699   2.013 -0.5084 -0.7348  0.0936
 3268SOL    HW121263   1.583   3.677   1.920  0.6397 -0.1389  0.0733
 3268SOL    HW221264   1.638   3.769   2.016 -1.1707 -0.0801 -0.5528
 3269SOL     OW21265   1.900   2.748  13.366  0.1096  0.4013  0.1967
 3269SOL    HW121266   1.836   2.736  13.436 -0.2151  1.9846  0.1612
 3269SOL    HW221267   1.871   2.678  13.309  0.9787  1.0646 -1.0601
 3270SOL     OW21268   0.041   0.401  17.094 -0.0702  0.0563 -0.4584
 3270SOL    HW121269   4.679   0.445  17.086 -0.4547 -0.6031 -0.0318
 3270SOL    HW221270   0.012   0.319  17.135 -0.6962 -0.3772 -1.7638
 3271SOL     OW21271   2.663   3.736   4.240  0.0827  0.0761 -0.3274
 3271SOL    HW121272   2.755   3.726   4.215  0.2595  0.3040  0.2217
 3271SOL    HW221273   2.669   3.814   4.296  1.2619 -0.6838  0.6038
 3272SOL     OW21274   4.248   2.752   7.107 -0.0635 -0.2496 -0.0181
 3272SOL    HW121275   4.250   2.661   7.080  0.7987 -0.1139 -0.4342
 3272SOL    HW221276   4.233   2.785   7.019 -2.5101 -1.6993 -0.1332
 3273SOL     OW21277   0.196   2.797   8.970  0.2537 -0.2990  0.4769
 3273SOL    HW121278   0.105   2.792   8.941 -0.4938  0.4586  2.7311
 3273SOL    HW221279   0.222   2.868   8.911 -1.2160 -0.8049 -0.7899
 3274SOL     OW21280   4.215   1.140  16.795  0.5642  0.7401 -0.3064
 3274SOL    HW121281   4.182   1.151  16.706  1.2881  2.6295 -0.3398
 3274SOL    HW221282   4.213   1.233  16.819 -1.2701  0.8206 -0.7101
 3275SOL     OW21283   3.646   0.368  16.662  0.3263  0.2193  0.2936
 3275SOL    HW121284   3.713   0.384  16.595 -1.3182 -0.2195 -1.4652
 3275SOL    HW221285   3.608   0.453  16.684  1.0987  0.4033  0.8956
 3276SOL     OW21286   4.072   0.499   7.504 -0.1750  0.3756  0.0334
 3276SOL    HW121287   3.999   0.449   7.467  1.4258 -1.2519 -0.9499
 3276SOL    HW221288   4.088   0.452   7.585  0.4589  0.5972  0.0351
 3277SOL     OW21289   2.792   2.716   5.317 -0.1410 -0.1158 -0.6250
 3277SOL    HW121290   2.706   2.728   5.357 -0.3337  0.3124 -1.1737
 3277SOL    HW221291   2.773   2.642   5.258  0.5187 -1.3200  0.6620
 3278SOL     OW21292   2.822   3.839   5.297  0.6053  0.5179 -0.6607
 3278SOL    HW121293   2.764   3.790   5.355  0.9696  1.7879  0.8025
 3278SOL    HW221294   2.822   3.769   5.232 -2.8378 -0.5638  0.4800
 3279SOL     OW21295   4.676   2.688  10.612  0.5546 -0.1845  0.3001
 3279SOL    HW121296   4.712   2.605  10.580  1.2396 -0.4299  1.6980
 3279SOL    HW221297   4.636   2.726  10.534 -0.3155 -0.8236  0.4301
 3280SOL     OW21298   2.669   4.651   9.347 -0.1048  0.4698 -0.9371
 3280SOL    HW121299   2.740   4.668   9.410  0.3017  2.6236 -1.9756
 3280SOL    HW221300   2.640   4.562   9.367 -0.1443  0.3349 -1.6056
 3281SOL     OW21301   1.177   0.326   3.841 -0.6418  0.2607  0.2551
 3281SOL    HW121302   1.254   0.347   3.788  0.9244  1.1667  2.8639
 3281SOL    HW221303   1.166   0.407   3.892 -1.6668  0.6593 -0.5951
 3282SOL     OW21304   2.181   3.935  15.141  0.5437  0.8254  0.4322
 3282SOL    HW121305   2.110   3.996  15.122 -0.5181 -1.0919 -1.6514
 3282SOL    HW221306   2.173   3.892  15.226  1.5042 -2.0930 -0.9772
 3283SOL     OW21307   0.985   3.357   7.338  0.1190  0.3867 -0.1172
 3283SOL    HW121308   0.929   3.309   7.399  1.1848 -0.3383  0.2971
 3283SOL    HW221309   1.060   3.372   7.395 -0.8442  0.0022  1.2570
 3284SOL     OW21310   4.200   4.583   2.361  0.5097  0.1093 -0.0117
 3284SOL    HW121311   4.167   4.518   2.423 -1.2847  0.3073 -0.7790
 3284SOL    HW221312   4.295   4.570   2.354  0.1040 -2.3802 -1.1162
 3285SOL     OW21313   1.025   3.911   1.002  0.8404 -0.6223  0.2754
 3285SOL    HW121314   1.103   3.965   0.988 -0.5040  1.2343  0.0872
 3285SOL    HW221315   1.010   3.906   1.096 -1.5759  3.7824  0.1323
 3286SOL     OW21316   1.521   2.554   0.979 -0.6882  0.3555 -0.0863
 3286SOL    HW121317   1.442   2.606   0.994  1.8097  4.1020 -0.1404
 3286SOL    HW221318   1.508   2.485   1.045  0.1649  1.0320  0.7896
 3287SOL     OW21319   0.783   4.656   4.598  0.2050 -0.0752  0.2603
 3287SOL    HW121320   0.749   4.616   4.518 -1.2675 -1.6073  1.6390
 3287SOL    HW221321   0.720   0.005   4.601  1.0944  0.7695 -1.3844
 3288SOL     OW21322   1.208   1.300   7.437  0.6494 -0.0057 -0.1985
 3288SOL    HW121323   1.160   1.334   7.362 -1.0683  1.5199  1.6087
 3288SOL    HW221324   1.143   1.275   7.503 -2.2517  1.6409 -2.4188
 3289SOL     OW21325   1.454   0.506   0.855  0.3980  0.0051 -0.4284
 3289SOL    HW121326   1.481   0.417   0.877  0.1910  0.2513  0.7883
 3289SOL    HW221327   1.533   0.559   0.856  0.8823 -0.6558 -2.7275
 3290SOL     OW21328   0.995   4.673   5.080 -0.1899  0.2066 -0.1659
 3290SOL    HW121329   0.910   4.665   5.037  0.3163  2.3273 -1.5473
 3290SOL    HW221330   0.972   0.020   5.142 -1.2054  1.0661 -1.5078
 3291SOL     OW21331   3.997   3.348   4.036 -0.5141  0.3423 -0.2515
 3291SOL    HW121332   4.040   3.417   4.087 -2.6596  2.0452 -0.7305
 3291SOL    HW221333   4.026   3.266   4.076 -2.2270  0.0636  0.3922
 3292SOL     OW21334   1.587   3.132   8.366 -1.0666  0.1968  0.0060
 3292SOL    HW121335   1.655   3.094   8.311  0.0403  0.5636  1.1142
 3292SOL    HW221336   1.613   3.222   8.349  0.2112  0.0629  1.2209
 3293SOL     OW21337   4.435   3.448   2.600 -0.2179  0.5074  0.0155
 3293SOL    HW121338   4.447   3.411   2.512 -1.3532  1.2823 -0.4536
 3293SOL    HW221339   4.347   3.485   2.599 -0.0745  0.8167 -0.6971
 3294SOL     OW21340   1.389   1.409   2.294 -0.2710 -0.3708  0.2609
 3294SOL    HW121341   1.309   1.456   2.319 -0.5503  0.0577 -1.3944
 3294SOL    HW221342   1.371   1.326   2.337  0.6990 -1.3155 -1.1653
 3295SOL     OW21343   3.369   4.551   5.066  0.1349 -0.0678  0.2342
 3295SOL    HW121344   3.421   4.471   5.071  2.8614  1.6625 -0.5142
 3295SOL    HW221345   3.365   4.581   5.157 -0.1367 -0.0629  0.2218
 3296SOL     OW21346   1.938   1.712   3.282  0.3402 -0.2199  0.3029
 3296SOL    HW121347   1.847   1.688   3.262  0.7812 -2.6377  1.1209
 3296SOL    HW221348   1.930   1.727   3.376  1.7156 -0.8787  0.5259
 3297SOL     OW21349   0.669   2.144   2.351 -0.4271  0.3817  0.1447
 3297SOL    HW121350   0.596   2.121   2.293 -2.9332  1.1876  3.0314
 3297SOL    HW221351   0.723   2.205   2.300  0.4877 -2.0181 -1.7550
 3298SOL     OW21352   1.795   0.274   8.667  0.1421 -0.1974 -0.4572
 3298SOL    HW121353   1.743   0.353   8.655  0.1279  0.1630  2.0000
 3298SOL    HW221354   1.727   0.209   8.684 -1.8556  1.9942 -0.1652
 3299SOL     OW21355   0.251   1.894   4.412 -0.1635 -0.3087  0.4771
 3299SOL    HW121356   0.279   1.835   4.482  0.6893 -1.0694 -0.4969
 3299SOL    HW221357   0.169   1.926   4.450  0.5229  0.2422  1.4978
 3300SOL     OW21358   4.143   3.764   2.093 -0.4465 -0.2189  0.0427
 3300SOL    HW121359   4.223   3.723   2.058  0.1645  0.3765  0.7478
 3300SOL    HW221360   4.077   3.724   2.036  0.4489  0.0969 -1.2292
 3301SOL     OW21361   1.029   0.322   8.073  0.1651  0.3339 -0.2637
 3301SOL    HW121362   1.064   0.393   8.020 -0.7457  1.4082  0.6040
 3301SOL    HW221363   0.937   0.320   8.049  0.0302  2.6364  0.1043
 3302SOL     OW21364   3.045   0.701  10.423 -0.4826  0.5359  0.2808
 3302SOL    HW121365   2.981   0.635  10.398  1.3736 -1.1439 -0.0061
 3302SOL    HW221366   3.026   0.701  10.517 -0.3245 -1.3426  0.2994
 3303SOL     OW21367   3.139   2.398  15.576  0.0391  0.0343  0.3174
 3303SOL    HW121368   3.108   2.487  15.593 -2.0444 -0.9450  1.7522
 3303SOL    HW221369   3.233   2.404  15.592  0.0062  1.5021 -0.0862
 3304SOL     OW21370   0.024   4.131   4.097  0.0148 -0.4484  0.4391
 3304SOL    HW121371   0.059   4.185   4.026 -0.3561 -2.4548 -1.2794
 3304SOL    HW221372   4.659   4.168   4.110  0.1818  0.8130 -2.1385
 3305SOL     OW21373   1.227   4.218   6.248  0.3708 -0.2148  0.2543
 3305SOL    HW121374   1.316   4.195   6.225  0.1157  0.0200 -0.9382
 3305SOL    HW221375   1.236   4.313   6.263  0.0346 -0.0296 -0.7396
 3306SOL     OW21376   0.284   2.462   7.299  0.0948 -0.1669  0.4595
 3306SOL    HW121377   0.302   2.375   7.334 -1.8480 -1.5066 -1.9138
 3306SOL    HW221378   0.359   2.513   7.332  0.8836 -0.8163 -0.3303
 3307SOL     OW21379   1.579   3.163   1.822 -0.0489  0.8532  0.0473
 3307SOL    HW121380   1.568   3.219   1.745  3.9457  0.7114 -0.6193
 3307SOL    HW221381   1.576   3.234   1.886  2.6353  0.3851  0.6920
 3308SOL     OW21382   1.920   0.100   2.544 -0.3935  0.8126  0.4962
 3308SOL    HW121383   1.987   0.118   2.477  0.2844  1.1590  1.2673
 3308SOL    HW221384   1.960   0.031   2.597 -2.1815 -0.5600  0.0370
 3309SOL     OW21385   3.451   2.702   3.166 -0.6536  0.3378 -0.3985
 3309SOL    HW121386   3.373   2.653   3.138 -1.7185  3.0538 -2.1164
 3309SOL    HW221387   3.442   2.679   3.258  1.9037 -1.4877 -0.5756
 3310SOL     OW21388   3.405   1.308   5.548 -0.1659 -0.0639 -0.3685
 3310SOL    HW121389   3.348   1.384   5.563  1.3082  0.9626 -0.0080
 3310SOL    HW221390   3.417   1.281   5.639 -0.3538 -1.6668 -0.8160
 3311SOL     OW21391   4.509   2.603   6.422  0.3886  0.8826 -0.2441
 3311SOL    HW121392   4.484   2.516   6.390 -0.6177  0.7958  0.7736
 3311SOL    HW221393   4.471   2.605   6.510 -1.3946  2.0218 -1.0668
 3312SOL     OW21394   2.768   2.140   0.010  0.1599 -0.2442 -0.2424
 3312SOL    HW121395   2.756   2.233   0.031 -1.1009 -1.2152  3.4874
 3312SOL    HW221396   2.682   2.111  17.671 -0.4157 -0.1450  1.2945
 3313SOL     OW21397   2.430   1.160   2.152  0.0011  0.4162 -0.4323
 3313SOL    HW121398   2.380   1.182   2.230  2.8299  0.5160  1.3682
 3313SOL    HW221399   2.372   1.150   2.076  1.3467  1.3184 -1.5894
 3314SOL     OW21400   3.330   1.359   7.614  0.4110 -0.0947 -0.0039
 3314SOL    HW121401   3.241   1.363   7.648  0.0567 -0.2953 -0.9145
 3314SOL    HW221402   3.330   1.269   7.580  0.4715 -0.3197  0.5847
 3315SOL     OW21403   3.061   4.004  15.203 -0.2159  0.0460 -0.5061
 3315SOL    HW121404   3.122   4.062  15.248  0.6810 -1.8235  0.7000
 3315SOL    HW221405   3.117   3.926  15.195 -0.1117  0.1141 -0.4511
 3316SOL     OW21406   3.892   4.097   6.509  0.5136  0.8513  0.0584
 3316SOL    HW121407   3.812   4.053   6.481  1.6079 -1.1272  0.0236
 3316SOL    HW221408   3.866   4.187   6.530 -0.7758  0.1300  1.5137
 3317SOL     OW21409   4.409   4.380   4.313 -0.6180 -0.3242  0.4336
 3317SOL    HW121410   4.408   4.322   4.390  0.3345  0.7028  1.2251
 3317SOL    HW221411   4.376   4.461   4.352 -1.3525 -0.5884  0.3544
 3318SOL     OW21412   2.845   4.028   4.666 -0.4040  0.0444 -0.2029
 3318SOL    HW121413   2.787   4.099   4.639 -0.9943 -0.2173  0.3728
 3318SOL    HW221414   2.789   3.979   4.726 -1.1044  0.3816 -0.5786
 3319SOL     OW21415   0.230   0.533  11.165 -0.1830  0.0980  0.2260
 3319SOL    HW121416   0.136   0.545  11.151  0.2798  0.7387 -2.2860
 3319SOL    HW221417   0.235   0.438  11.151  1.5241  0.1594  0.4861
 3320SOL     OW21418   2.675   4.465  16.929 -0.1264 -0.5592  0.4050
 3320SOL    HW121419   2.689   4.512  17.011  0.9198 -1.9798  1.0456
 3320SOL    HW221420   2.758   4.419  16.911  0.3053  0.5816 -0.5113
 3321SOL     OW21421   0.757   1.315  12.422  0.6581 -0.2110  0.0112
 3321SOL    HW121422   0.808   1.366  12.360 -0.4691  1.4904  0.4773
 3321SOL    HW221423   0.819   1.264  12.474  1.1616  0.8806  0.4659
 3322SOL     OW21424   0.900   3.370   2.952 -0.3802  0.1591  0.0600
 3322SOL    HW121425   0.977   3.399   2.904 -0.8207 -0.6576 -1.1502
 3322SOL    HW221426   0.903   3.430   3.026  0.2813  1.8585 -1.3472
 3323SOL     OW21427   1.775   2.644   5.826  0.2682 -0.0749  0.0813
 3323SOL    HW121428   1.745   2.694   5.902 -0.2074 -1.5808  0.8878
 3323SOL    HW221429   1.830   2.708   5.781  1.1360  0.8416  2.4521
 3324SOL     OW21430   2.631   2.268  15.577  0.5238  0.2021 -0.2387
 3324SOL    HW121431   2.584   2.280  15.659  2.4227  0.2759  0.8437
 3324SOL    HW221432   2.721   2.281  15.609  0.4227 -0.1834  0.2021
 3325SOL     OW21433   0.243   3.031   7.148  0.1032 -0.1289  0.3243
 3325SOL    HW121434   0.205   3.110   7.187  0.5358  0.0393  0.4113
 3325SOL    HW221435   0.173   2.967   7.160 -0.1083  0.4875  2.3832
 3326SOL     OW21436   4.677   2.822   7.645 -0.0838  0.5975  0.0544
 3326SOL    HW121437   4.610   2.764   7.608  1.1266  0.4345 -1.8843
 3326SOL    HW221438   4.671   2.898   7.588 -0.8445  2.1599  2.2501
 3327SOL     OW21439   2.147   4.585  11.697 -0.0160 -0.0726 -0.3163
 3327SOL    HW121440   2.179   4.656  11.641  0.8613 -0.1770  0.0471
 3327SOL    HW221441   2.129   4.519  11.630 -0.3016  0.5938 -0.9018
 3328SOL     OW21442   3.063   2.654   1.188 -0.1095 -0.1222 -0.0650
 3328SOL    HW121443   3.044   2.649   1.282 -2.2086  1.6062 -0.4048
 3328SOL    HW221444   3.140   2.597   1.195  0.4325  0.6243  0.0958
 3329SOL     OW21445   2.392   0.333   6.670  0.3347  0.2356  0.1494
 3329SOL    HW121446   2.339   0.261   6.636  2.2293 -1.3150  0.4998
 3329SOL    HW221447   2.448   0.282   6.728 -0.3305 -1.0058 -0.3176
 3330SOL     OW21448   0.840   1.612   5.283 -0.0442 -0.2485 -0.0284
 3330SOL    HW121449   0.766   1.662   5.318  0.9630 -0.0485  1.7632
 3330SOL    HW221450   0.915   1.655   5.322  0.5220  3.2912 -5.0091
 3331SOL     OW21451   3.261   2.850   8.575 -0.4155  0.1838  0.3566
 3331SOL    HW121452   3.195   2.917   8.554 -1.5134 -1.2259 -0.6430
 3331SOL    HW221453   3.284   2.879   8.663  0.1245 -1.4071  0.7327
 3332SOL     OW21454   4.217   2.968   1.253 -0.2148 -0.1414 -0.3188
 3332SOL    HW121455   4.245   3.000   1.339 -1.1173  0.4694 -0.2481
 3332SOL    HW221456   4.246   3.041   1.199 -0.0393 -1.1152 -1.5232
 3333SOL     OW21457   2.742   3.911   4.433 -0.5522  0.3892 -0.3190
 3333SOL    HW121458   2.679   3.898   4.504  0.4365 -0.5725  0.3774
 3333SOL    HW221459   2.785   3.992   4.460  2.5131 -0.4592 -2.6642
 3334SOL     OW21460   2.465   3.601   2.918 -0.1802  0.4173  0.6066
 3334SOL    HW121461   2.512   3.566   2.842 -1.7293 -2.2123  0.8699
 3334SOL    HW221462   2.464   3.694   2.895 -0.1064 -0.3176 -2.3826
 3335SOL     OW21463   3.876   4.009   4.847  0.4313 -0.0622  0.1138
 3335SOL    HW121464   3.921   3.924   4.844 -1.9094 -1.2579 -0.9960
 3335SOL    HW221465   3.943   4.073   4.823 -0.5510  0.9531  0.0819
 3336SOL     OW21466   2.046   3.931   5.978  0.4631  0.0820 -0.2948
 3336SOL    HW121467   2.023   3.947   6.069 -1.5682  0.3524 -0.8712
 3336SOL    HW221468   2.128   3.888   6.002  0.0737  0.7886  2.2059
 3337SOL     OW21469   3.402   1.492   2.983  0.3484 -0.0319  0.1484
 3337SOL    HW121470   3.381   1.483   3.076 -0.2957  0.3668  0.0444
 3337SOL    HW221471   3.462   1.420   2.964 -0.8076 -0.5358 -1.6046
 3338SOL     OW21472   2.237   2.592   1.328  0.0641 -0.1518 -0.2477
 3338SOL    HW121473   2.217   2.626   1.415  0.1997 -1.2655  0.2104
 3338SOL    HW221474   2.254   2.673   1.279 -1.6944  1.0820  1.1964
 3339SOL     OW21475   3.298   2.373   3.194  0.0764  0.1149  0.0062
 3339SOL    HW121476   3.381   2.406   3.159  1.0433 -2.8827 -0.5537
 3339SOL    HW221477   3.287   2.302   3.129 -2.0279 -0.2631  0.7855
 3340SOL     OW21478   4.095   1.388   4.056 -0.1836  0.5415 -0.0964
 3340SOL    HW121479   4.038   1.432   4.119  0.7651  1.0884  0.3775
 3340SOL    HW221480   4.134   1.467   4.018 -1.0469  0.6849 -0.6843
 3341SOL     OW21481   0.897   2.424   7.365 -0.3304  0.4213  0.2358
 3341SOL    HW121482   0.948   2.353   7.324  0.5063  0.7822  0.6677
 3341SOL    HW221483   0.805   2.399   7.362 -0.4494  0.9770 -0.8167
 3342SOL     OW21484   2.149   4.317   1.812 -0.2033  0.7797 -0.3278
 3342SOL    HW121485   2.055   4.335   1.811 -0.1965  0.9182  2.0890
 3342SOL    HW221486   2.170   4.347   1.724  2.9283 -1.6071 -0.3997
 3343SOL     OW21487   4.074   4.609   5.806 -0.1126  0.3487 -0.3681
 3343SOL    HW121488   4.151   4.649   5.765 -0.1733  0.1514 -0.6727
 3343SOL    HW221489   4.109   4.548   5.871 -0.6614  0.2589 -0.1579
 3344SOL     OW21490   4.190   1.613   6.872 -0.2313 -0.2229  0.8091
 3344SOL    HW121491   4.282   1.616   6.845 -0.8315 -0.1537 -1.2513
 3344SOL    HW221492   4.149   1.555   6.808  1.4193 -1.0995  0.5367
 3345SOL     OW21493   3.794   3.720   4.764  0.0676 -0.1829 -0.2105
 3345SOL    HW121494   3.795   3.655   4.835 -0.4850 -0.2330 -0.2477
 3345SOL    HW221495   3.883   3.709   4.731  0.3496  1.2829  0.0906
 3346SOL     OW21496   0.059   2.203  11.669  0.0785 -0.1073 -0.2842
 3346SOL    HW121497   4.699   2.221  11.623 -0.1696  0.1053  0.2408
 3346SOL    HW221498   0.101   2.144  11.606  0.6058 -0.9073  0.8128
 3347SOL     OW21499   2.176   0.432   8.422 -0.3086 -0.3562  0.0182
 3347SOL    HW121500   2.260   0.413   8.463  0.2001  0.9731 -0.4122
 3347SOL    HW221501   2.173   0.527   8.433 -0.4381 -0.2875 -0.5659
 3348SOL     OW21502   2.315   2.353   0.951  0.2650 -0.6391 -0.2067
 3348SOL    HW121503   2.263   2.427   0.918  0.1175 -0.4590  0.4323
 3348SOL    HW221504   2.292   2.355   1.044 -0.1007 -2.6501 -0.2613
 3349SOL     OW21505   1.370   3.922  15.249  0.1426  0.1495  0.4852
 3349SOL    HW121506   1.336   3.990  15.307 -1.1044 -1.8369  2.0797
 3349SOL    HW221507   1.440   3.971  15.206  0.8496  0.4704  1.9982
 3350SOL     OW21508   3.803   1.452   4.197  0.1185 -0.4390  0.5315
 3350SOL    HW121509   3.820   1.496   4.114 -0.4575 -0.6105  0.3194
 3350SOL    HW221510   3.844   1.507   4.264 -3.1305  0.4950  1.7842
 3351SOL     OW21511   1.280   4.429   9.135 -0.3537  0.3149  0.1736
 3351SOL    HW121512   1.206   4.415   9.077 -0.5419  2.1003 -0.0160
 3351SOL    HW221513   1.317   4.513   9.109 -1.6374  1.4949  2.1800
 3352SOL     OW21514   0.640   2.896   7.010 -0.2878  0.0680 -0.1978
 3352SOL    HW121515   0.684   2.981   7.010 -0.4095  0.1433 -1.3901
 3352SOL    HW221516   0.583   2.905   7.086  0.5375  0.3662  0.3901
 3353SOL     OW21517   4.386   3.767   3.603  0.2685  0.7238 -0.3193
 3353SOL    HW121518   4.437   3.846   3.585 -0.3043  0.8955 -1.1929
 3353SOL    HW221519   4.318   3.776   3.536 -1.7824 -0.4753  1.5963
 3354SOL     OW21520   3.343   3.606  14.721  0.2646  0.3165 -0.0148
 3354SOL    HW121521   3.292   3.686  14.704  0.4091 -0.0912 -2.3415
 3354SOL    HW221522   3.276   3.543  14.746  0.0404  0.6997  0.3710
 3355SOL     OW21523   4.145   3.192   7.506 -0.1856  0.1940  0.0808
 3355SOL    HW121524   4.212   3.137   7.466 -0.8900  0.6979 -1.7990
 3355SOL    HW221525   4.124   3.260   7.443 -1.3987 -1.7863 -1.6722
 3356SOL     OW21526   1.439   1.856  17.501 -0.0559 -0.2181  0.2368
 3356SOL    HW121527   1.390   1.798  17.442 -0.7152  0.4855  0.0915
 3356SOL    HW221528   1.392   1.829  17.580  0.3435  0.7299  0.7916
 3357SOL     OW21529   0.448   1.165   8.251 -0.1806 -0.5980 -0.3832
 3357SOL    HW121530   0.406   1.135   8.170 -0.2477 -1.0776 -0.1646
 3357SOL    HW221531   0.379   1.156   8.316  1.4887 -3.9548  0.9212
 3358SOL     OW21532   3.386   0.565   7.537 -0.4310 -0.4815 -0.4194
 3358SOL    HW121533   3.331   0.489   7.556  1.0741 -1.8287 -1.3686
 3358SOL    HW221534   3.337   0.629   7.587 -1.8173 -1.1888 -0.8773
 3359SOL     OW21535   4.512   1.794   7.885 -0.1945 -0.0568 -0.0080
 3359SOL    HW121536   4.480   1.852   7.816 -0.6675 -0.1010  0.1691
 3359SOL    HW221537   4.437   1.735   7.887 -2.6918  3.1897  2.5565
 3360SOL     OW21538   3.556   0.360   5.350 -0.3606  0.6883 -0.0555
 3360SOL    HW121539   3.612   0.377   5.274 -0.4357 -4.2504 -1.2158
 3360SOL    HW221540   3.486   0.325   5.295 -0.5174 -0.9432  1.1856
 3361SOL     OW21541   3.337   2.340  12.228 -0.8314 -0.6162  0.3688
 3361SOL    HW121542   3.350   2.330  12.134 -0.0807 -0.5359  0.4693
 3361SOL    HW221543   3.405   2.280  12.258  0.8962  0.0437 -2.2591
 3362SOL     OW21544   4.462   0.882   9.774 -0.3659  0.1492 -0.5851
 3362SOL    HW121545   4.532   0.891   9.710 -0.9261  1.4234 -1.0284
 3362SOL    HW221546   4.391   0.916   9.720  0.5337  0.5955 -1.4787
 3363SOL     OW21547   4.025   2.554   3.125 -0.2611 -0.9993  0.0607
 3363SOL    HW121548   3.978   2.607   3.061  0.1343 -1.7680 -0.8637
 3363SOL    HW221549   4.117   2.556   3.098 -0.4920 -0.9934 -0.7381
 3364SOL     OW21550   0.991   1.026  11.481  0.5262 -0.3260 -0.4092
 3364SOL    HW121551   0.925   1.094  11.471  2.8838  2.4322  2.6768
 3364SOL    HW221552   0.942   0.957  11.525  1.3259  1.3438  3.1514
 3365SOL     OW21553   4.106   2.903   6.311  0.1270  0.4100  0.2968
 3365SOL    HW121554   4.158   2.962   6.366  0.5960 -1.1125  1.4672
 3365SOL    HW221555   4.161   2.825   6.308 -0.8804 -0.3368  1.2872
 3366SOL     OW21556   1.967   0.442   1.100 -0.0459 -0.0921  0.2849
 3366SOL    HW121557   1.935   0.455   1.010  0.8563 -0.3017 -0.0640
 3366SOL    HW221558   1.978   0.531   1.135  1.0247 -0.1708  0.1311
 3367SOL     OW21559   3.054   3.915   9.104 -0.0786  0.1677 -0.4711
 3367SOL    HW121560   3.017   3.945   9.021 -0.9304  0.0555 -0.1248
 3367SOL    HW221561   3.144   3.947   9.100 -0.5631  1.3708 -1.7767
 3368SOL     OW21562   3.070   0.793   3.683  0.4043 -0.2341 -0.1184
 3368SOL    HW121563   3.065   0.740   3.603 -0.2964 -0.8303  0.3178
 3368SOL    HW221564   3.061   0.718   3.741  0.8615 -0.1881  0.0055
 3369SOL     OW21565   4.002   0.797   9.058 -0.5744  0.4629  0.3276
 3369SOL    HW121566   3.992   0.800   8.963 -0.4296  1.0814  0.3334
 3369SOL    HW221567   4.048   0.879   9.078 -1.3386  0.9627  0.0490
 3370SOL     OW21568   2.577   2.829   9.219 -0.0234  0.2585 -0.2763
 3370SOL    HW121569   2.533   2.908   9.249  1.3635  1.0018 -0.1840
 3370SOL    HW221570   2.652   2.871   9.175  2.1248 -2.7015  0.5823
 3371SOL     OW21571   2.782   4.177  12.185 -0.0494 -0.0353 -0.4070
 3371SOL    HW121572   2.786   4.109  12.117 -1.5199 -0.9865  0.4582
 3371SOL    HW221573   2.871   4.168  12.217 -0.4839  0.1114  0.8327
 3372SOL     OW21574   0.817   0.940   7.044 -0.7257 -0.5648 -0.5312
 3372SOL    HW121575   0.808   0.913   7.135  0.3113 -0.4892 -0.4023
 3372SOL    HW221576   0.864   0.865   7.007 -1.1262 -0.7867 -0.5875
 3373SOL     OW21577   2.731   1.110   6.958  0.4572  0.8364  0.0582
 3373SOL    HW121578   2.740   1.067   7.043 -0.1223  3.6475  1.5537
 3373SOL    HW221579   2.780   1.057   6.894 -0.4977  0.7904 -0.6316
 3374SOL     OW21580   1.504   3.032  17.110 -0.3952  0.6469 -0.1126
 3374SOL    HW121581   1.470   2.971  17.045 -0.6191  0.3930  0.2396
 3374SOL    HW221582   1.491   3.115  17.065 -1.5384  0.0440 -0.8836
 3375SOL     OW21583   4.571   0.857  13.809  0.5993  0.6369 -0.2241
 3375SOL    HW121584   4.631   0.783  13.817 -0.3364 -0.3900 -2.7909
 3375SOL    HW221585   4.492   0.815  13.775  2.1816 -1.8800 -0.8364
 3376SOL     OW21586   2.354   4.368   4.547 -0.1323 -0.5080 -0.0700
 3376SOL    HW121587   2.289   4.298   4.559 -0.4398 -0.4094 -1.1767
 3376SOL    HW221588   2.433   4.319   4.525  0.4184  1.0965 -1.6581
 3377SOL     OW21589   0.354   2.898   8.186  0.5118 -0.2534  0.1471
 3377SOL    HW121590   0.406   2.910   8.106  0.6421  0.5811  0.3566
 3377SOL    HW221591   0.409   2.833   8.229  0.8833  0.1904  0.3482
 3378SOL     OW21592   1.249   2.428  17.262  0.2577 -0.3532 -0.5065
 3378SOL    HW121593   1.225   2.435  17.354  2.2983 -0.8736  0.0812
 3378SOL    HW221594   1.170   2.463  17.222 -0.9174 -0.1336  2.0036
 3379SOL     OW21595   4.053   4.563   7.515  0.6988 -0.1261  0.0392
 3379SOL    HW121596   4.033   4.514   7.595 -1.2171 -0.6721 -0.7761
 3379SOL    HW221597   4.148   4.567   7.521  0.8390 -2.0376 -0.9917
 3380SOL     OW21598   1.516   3.738  13.257  0.1231  0.3757 -0.0270
 3380SOL    HW121599   1.449   3.674  13.283 -1.1350  1.6563 -0.0971
 3380SOL    HW221600   1.549   3.703  13.175 -0.6538  0.8162 -0.5291
 3381SOL     OW21601   2.059   1.017   7.509  0.6124  0.6297 -0.1675
 3381SOL    HW121602   2.120   1.083   7.542  1.4628 -0.3725  0.2673
 3381SOL    HW221603   2.115   0.940   7.511 -0.9091 -0.4687 -1.0005
 3382SOL     OW21604   3.592   1.858  11.379  0.2556 -0.0108 -0.0063
 3382SOL    HW121605   3.651   1.866  11.304 -0.1236  0.3553 -0.2641
 3382SOL    HW221606   3.532   1.925  11.347 -0.3705 -0.2618  0.6346
 3383SOL     OW21607   3.691   0.847   6.727  0.1126  0.7606  0.3770
 3383SOL    HW121608   3.642   0.782   6.677 -2.1766  2.2071  0.7091
 3383SOL    HW221609   3.715   0.912   6.661 -0.2516  0.0858 -0.4131
 3384SOL     OW21610   3.210   2.157  11.156 -0.2957 -0.3857  0.2572
 3384SOL    HW121611   3.264   2.096  11.106  0.7158  0.5819  0.1705
 3384SOL    HW221612   3.140   2.094  11.174 -1.8621  0.9503 -1.0501
 3385SOL     OW21613   0.736   2.628   6.725 -0.3552  0.0988  0.7960
 3385SOL    HW121614   0.707   2.717   6.705 -2.6165 -0.5496  1.1242
 3385SOL    HW221615   0.651   2.588   6.704  0.6037 -0.7401 -1.4502
 3386SOL     OW21616   0.241   3.311  14.382 -0.7288  0.1357  0.4749
 3386SOL    HW121617   0.327   3.270  14.376 -0.6509  0.4811 -0.7089
 3386SOL    HW221618   0.268   3.387  14.330 -1.9836  0.6415  0.5406
 3387SOL     OW21619   4.316   2.709   3.747  0.1938  0.3314 -0.3467
 3387SOL    HW121620   4.223   2.686   3.742  0.2322  0.0709  0.1674
 3387SOL    HW221621   4.327   2.754   3.664 -0.4567  0.9128 -0.1118
 3388SOL     OW21622   1.819   2.520  10.447 -0.2757 -0.4877 -0.1388
 3388SOL    HW121623   1.745   2.482  10.399  0.0022 -0.3154 -0.7049
 3388SOL    HW221624   1.789   2.512  10.537 -2.4187  2.4536 -0.6012
 3389SOL     OW21625   3.029   4.074   3.945  0.3925 -0.1139  0.0619
 3389SOL    HW121626   2.947   4.091   3.992 -1.1614 -1.9103 -2.0385
 3389SOL    HW221627   3.046   3.980   3.954 -1.7000 -0.7552 -2.6849
 3390SOL     OW21628   2.091   4.495  11.018  0.2867 -0.1756 -0.0154
 3390SOL    HW121629   2.020   4.524  11.076  0.3175 -0.3821  0.1258
 3390SOL    HW221630   2.073   4.401  11.020 -1.2586  0.1362  1.3772
 3391SOL     OW21631   4.498   3.689   7.776  0.4159  0.1679  0.0695
 3391SOL    HW121632   4.492   3.780   7.744 -2.5245 -0.6542 -1.7729
 3391SOL    HW221633   4.491   3.713   7.868  2.2551 -1.4342  0.6230
 3392SOL     OW21634   3.373   0.859   5.743 -0.3555  0.8094  0.6700
 3392SOL    HW121635   3.309   0.852   5.672 -0.5007  0.4003  0.8440
 3392SOL    HW221636   3.321   0.906   5.808  0.4104 -1.0199  2.5996
 3393SOL     OW21637   3.325   4.240   1.565 -0.7207 -0.0534 -0.1189
 3393SOL    HW121638   3.308   4.264   1.474 -0.6971 -1.4997 -0.4974
 3393SOL    HW221639   3.246   4.269   1.610 -0.4802  2.0819 -1.0408
 3394SOL     OW21640   0.212   2.867   2.176 -0.1629 -0.0147 -0.3140
 3394SOL    HW121641   0.249   2.788   2.138 -1.9094 -0.6749 -0.6230
 3394SOL    HW221642   0.153   2.897   2.106 -0.0129 -0.8173 -0.7827
 3395SOL     OW21643   2.585   4.498   6.840  0.2239  0.2341 -0.1994
 3395SOL    HW121644   2.592   4.463   6.751 -0.4851 -1.4607  0.3996
 3395SOL    HW221645   2.678   4.520   6.847  0.1050  0.7263 -0.2061
 3396SOL     OW21646   2.070   4.168   9.414 -0.2773  0.5495  0.4335
 3396SOL    HW121647   2.147   4.125   9.450 -1.1166 -2.5652 -1.4971
 3396SOL    HW221648   2.109   4.195   9.331  0.5898  1.7852  1.2496
 3397SOL     OW21649   3.705   3.317   4.742 -0.4554  0.9616  0.2578
 3397SOL    HW121650   3.757   3.386   4.702  0.6067  0.8685  1.4631
 3397SOL    HW221651   3.740   3.315   4.831  1.9156  0.1349 -0.6972
 3398SOL     OW21652   3.788   0.515   4.134  0.1215  0.1258 -0.4050
 3398SOL    HW121653   3.774   0.605   4.103 -0.0930 -0.3737 -1.7477
 3398SOL    HW221654   3.776   0.463   4.055  3.2647  0.6664 -1.2419
 3399SOL     OW21655   4.113   2.909   4.688 -0.2298 -0.1463  0.1743
 3399SOL    HW121656   4.039   2.958   4.723 -0.3650  1.0649 -1.7941
 3399SOL    HW221657   4.108   2.823   4.729  0.4763  0.6137  1.8701
 3400SOL     OW21658   0.762   2.146  16.845 -0.1336  0.0275 -0.0907
 3400SOL    HW121659   0.697   2.215  16.833 -0.2575 -0.0565  0.0998
 3400SOL    HW221660   0.749   2.096  16.764 -0.7197  1.0594 -0.6436
 3401SOL     OW21661   3.744   0.387  10.687 -0.0318  0.1264  0.0033
 3401SOL    HW121662   3.826   0.435  10.690  1.3206 -2.0530 -1.9986
 3401SOL    HW221663   3.690   0.432  10.752  2.2200  1.4396  0.9646
 3402SOL     OW21664   2.598   1.528   8.497  0.3828  0.3629  0.8263
 3402SOL    HW121665   2.637   1.453   8.543 -0.0584 -1.0238 -1.0191
 3402SOL    HW221666   2.542   1.568   8.562 -1.6496 -0.9387 -0.1383
 3403SOL     OW21667   4.284   1.905  16.436  0.3146  0.6350  0.0182
 3403SOL    HW121668   4.213   1.842  16.445 -0.3842  1.1992 -1.5119
 3403SOL    HW221669   4.340   1.880  16.510 -0.1423  1.4579  0.6434
 3404SOL     OW21670   2.233   4.458   7.147 -0.3507 -0.3434  0.2268
 3404SOL    HW121671   2.300   4.501   7.095 -0.5064 -0.5381 -0.1329
 3404SOL    HW221672   2.263   4.476   7.236  1.4162 -1.4140 -0.1659
 3405SOL     OW21673   4.690   2.225   8.700  0.6548  0.5151  0.0617
 3405SOL    HW121674   0.053   2.197   8.734 -0.4742 -2.2934  0.6509
 3405SOL    HW221675   4.661   2.157   8.639  0.1943  0.9316 -0.1893
 3406SOL     OW21676   0.250   1.075   8.406  0.6250  0.2156 -0.0958
 3406SOL    HW121677   0.199   1.025   8.341  1.3553  1.1768 -1.4206
 3406SOL    HW221678   0.319   1.013   8.428  0.2891 -0.3743 -0.7052
 3407SOL     OW21679   1.912   0.369   8.094 -0.4169  0.4257  0.1220
 3407SOL    HW121680   1.943   0.298   8.151 -0.6202  0.0343 -0.2569
 3407SOL    HW221681   1.819   0.350   8.082 -0.3091 -0.6399  0.9147
 3408SOL     OW21682   0.047   3.698   4.020 -0.4943  0.1229 -0.0156
 3408SOL    HW121683   4.709   3.769   3.997 -0.4049 -0.3534 -1.7216
 3408SOL    HW221684   0.120   3.747   4.057 -2.3312  2.0185  1.1115
 3409SOL     OW21685   3.600   1.320   7.611 -0.4782  0.4035 -0.1937
 3409SOL    HW121686   3.508   1.345   7.601  0.3553  2.7342 -2.0009
 3409SOL    HW221687   3.593   1.233   7.571  2.0817  0.7217 -1.3189
 3410SOL     OW21688   3.319   0.806   6.728  0.6160  0.3683 -0.2790
 3410SOL    HW121689   3.279   0.758   6.656 -0.8090 -0.0518  0.7887
 3410SOL    HW221690   3.253   0.803   6.798 -0.2169  2.9848 -0.9400
 3411SOL     OW21691   2.996   4.127   0.544  0.2428  0.4475 -0.1799
 3411SOL    HW121692   2.988   4.130   0.639 -1.3136 -3.9440 -0.1752
 3411SOL    HW221693   3.076   4.078   0.524 -1.0677 -0.8345 -2.3721
 3412SOL     OW21694   0.892   1.850   7.754  0.4544  0.2932 -0.1840
 3412SOL    HW121695   0.946   1.876   7.829  0.1996 -1.9771  0.7967
 3412SOL    HW221696   0.817   1.803   7.791  0.7537  0.5823  0.7963
 3413SOL     OW21697   3.607   1.964   6.584  0.4313  0.0752 -0.0425
 3413SOL    HW121698   3.551   1.897   6.545 -0.5504  1.4097 -0.9094
 3413SOL    HW221699   3.611   1.932   6.674  0.2662 -4.8163 -1.7911
 3414SOL     OW21700   2.869   1.071   3.105  0.3619 -0.1821  0.2653
 3414SOL    HW121701   2.899   1.161   3.120  0.8806 -0.4424  0.7779
 3414SOL    HW221702   2.955   1.033   3.123  0.1042 -0.8458  0.0906
 3415SOL     OW21703   0.044   0.655   7.454 -0.0381  0.6001 -0.1583
 3415SOL    HW121704   4.685   0.626   7.497 -1.4142  1.4981 -2.1525
 3415SOL    HW221705   0.027   0.747   7.436  0.0932  0.6433 -0.0637
 3416SOL     OW21706   3.823   4.042   2.918 -0.3412  0.3077  0.3638
 3416SOL    HW121707   3.761   4.081   2.980 -1.2622 -1.9338  0.8885
 3416SOL    HW221708   3.841   3.955   2.955  0.9286 -0.2553 -1.5936
 3417SOL     OW21709   1.096   0.140  17.306 -0.1717  0.6663 -0.1435
 3417SOL    HW121710   1.029   0.199  17.270 -0.9315 -0.1998 -0.1274
 3417SOL    HW221711   1.152   0.123  17.231  0.6742 -0.0699  0.6642
 3418SOL     OW21712   4.051   4.272  13.287  0.1656  0.0204  0.6497
 3418SOL    HW121713   4.017   4.273  13.377 -0.7496  0.8465  0.3038
 3418SOL    HW221714   3.967   4.251  13.244 -0.1727  0.4594  1.0871
 3419SOL     OW21715   1.054   0.109   7.551  0.5440 -0.0577  0.5858
 3419SOL    HW121716   1.111   0.132   7.478  1.0285  2.0881  1.6498
 3419SOL    HW221717   0.967   0.125   7.516  0.2045  2.1542  2.4470
 3420SOL     OW21718   3.548   0.905   2.311 -0.2671 -0.0917  0.4812
 3420SOL    HW121719   3.573   0.918   2.220 -2.0167 -1.3331 -0.1618
 3420SOL    HW221720   3.637   0.895   2.346 -0.8011 -3.2841  0.9801
 3421SOL     OW21721   3.704   1.957  12.443  0.4837 -0.3503  0.2459
 3421SOL    HW121722   3.682   1.962  12.536 -0.7330 -0.1214 -0.0521
 3421SOL    HW221723   3.657   1.876  12.427  0.9069 -0.8576  1.5787
 3422SOL     OW21724   3.211   3.080   9.233 -0.1666  0.1348  0.0125
 3422SOL    HW121725   3.140   3.046   9.287 -0.0407  1.7839  1.2141
 3422SOL    HW221726   3.272   3.104   9.302  0.7345  1.5186 -1.2612
 3423SOL     OW21727   2.610   4.253   7.346  0.0301  0.2332  0.3326
 3423SOL    HW121728   2.564   4.227   7.426  0.9033 -2.0903  0.1003
 3423SOL    HW221729   2.553   4.221   7.276  0.9746 -0.4858 -0.0935
 3424SOL     OW21730   2.183   3.351   6.681  0.8762  0.2662 -0.1422
 3424SOL    HW121731   2.111   3.306   6.637 -0.5876  1.2125  1.2870
 3424SOL    HW221732   2.255   3.288   6.676  0.6999  0.1590 -1.3111
 3425SOL     OW21733   1.523   0.341  12.463 -0.2324 -0.1394  0.2680
 3425SOL    HW121734   1.429   0.324  12.472 -0.4847  0.0905 -1.7571
 3425SOL    HW221735   1.550   0.262  12.416 -0.2595  0.7991 -1.3600
 3426SOL     OW21736   2.124   3.092  11.133 -0.2461 -0.3126 -0.2187
 3426SOL    HW121737   2.151   3.006  11.102 -0.7776 -0.7928  0.6618
 3426SOL    HW221738   2.052   3.063  11.189  0.9475  0.5829  1.7580
 3427SOL     OW21739   1.446   4.055   2.269  0.3607 -0.1733  0.2833
 3427SOL    HW121740   1.378   4.107   2.310 -0.9964 -0.2227 -1.9153
 3427SOL    HW221741   1.530   4.083   2.304  0.6024 -0.1767 -0.2923
 3428SOL     OW21742   0.238   0.194  10.646  0.2654 -0.2977  0.1619
 3428SOL    HW121743   0.220   0.200  10.552 -0.4273  0.9432  0.3697
 3428SOL    HW221744   0.274   0.281  10.664 -0.2390  0.2769 -1.5587
 3429SOL     OW21745   1.967   0.697   9.034 -0.0916  0.2632 -0.2651
 3429SOL    HW121746   1.968   0.602   9.051 -1.1154  0.3267  0.0943
 3429SOL    HW221747   1.889   0.694   8.979  1.2089  3.1493 -2.2670
 3430SOL     OW21748   2.336   0.546   6.375 -0.0240  1.0692 -0.0970
 3430SOL    HW121749   2.321   0.549   6.469  0.5678  1.8830 -0.0219
 3430SOL    HW221750   2.350   0.453   6.362  1.7519  1.5003 -1.4313
 3431SOL     OW21751   0.248   0.042   2.991  0.1115 -0.1975 -0.1082
 3431SOL    HW121752   0.210   0.114   3.041  3.0479 -0.7002  2.8463
 3431SOL    HW221753   0.335   0.070   2.964  0.1326 -0.0907  0.0740
 3432SOL     OW21754   0.235   2.498   7.016  0.4436  0.4281 -0.0799
 3432SOL    HW121755   0.323   2.536   7.014 -0.2678  1.9006 -2.5438
 3432SOL    HW221756   0.231   2.463   7.105 -1.4076  1.9852  0.4398
 3433SOL     OW21757   1.039   3.565   3.722  0.0883  0.1464 -0.2030
 3433SOL    HW121758   1.102   3.635   3.707  1.8561 -1.4596 -0.3146
 3433SOL    HW221759   1.083   3.488   3.685 -1.1921 -0.3424 -0.6928
 3434SOL     OW21760   0.120   2.047   6.646  0.3715  0.2770  0.5614
 3434SOL    HW121761   0.062   2.040   6.571  1.5391  3.0124 -0.5816
 3434SOL    HW221762   0.067   2.003   6.713  2.4442 -1.2343  1.1917
 3435SOL     OW21763   4.015   3.295   2.785  0.4785  0.0496  0.0454
 3435SOL    HW121764   3.973   3.361   2.841 -4.5862 -3.6928  0.6154
 3435SOL    HW221765   4.093   3.273   2.837 -0.1884 -1.5658  0.3433
 3436SOL     OW21766   0.417   3.651   7.848  0.1743 -0.2994 -0.2223
 3436SOL    HW121767   0.393   3.558   7.847 -2.4674  0.3312  2.5647
 3436SOL    HW221768   0.487   3.644   7.784 -0.9755  0.1989 -1.5294
 3437SOL     OW21769   4.316   4.298   8.293 -0.6701 -0.3142 -0.6677
 3437SOL    HW121770   4.291   4.278   8.203 -0.7750  0.4179 -0.7961
 3437SOL    HW221771   4.409   4.320   8.282 -0.4601 -1.7881 -1.9469
 3438SOL     OW21772   1.873   2.985  12.535  0.5165  0.5232  0.2698
 3438SOL    HW121773   1.778   2.991  12.542  0.6536  1.6396  1.0504
 3438SOL    HW221774   1.893   2.956  12.446  2.0421 -2.6911  1.6545
 3439SOL     OW21775   0.908   4.336   8.291 -0.2924 -0.4152  0.0447
 3439SOL    HW121776   0.963   4.299   8.221 -0.1105  0.3048 -0.1963
 3439SOL    HW221777   0.936   4.288   8.369 -0.0470 -0.5628 -0.1312
 3440SOL     OW21778   1.758   3.268  12.501  0.4200  0.7840 -0.1478
 3440SOL    HW121779   1.731   3.183  12.535 -2.0002  0.8874 -1.7664
 3440SOL    HW221780   1.847   3.276  12.535  0.7421  0.2528 -0.8686
 3441SOL     OW21781   3.510   0.772   0.021  0.5080  0.2098 -0.0653
 3441SOL    HW121782   3.415   0.775   0.024  0.4912 -1.6708  0.9793
 3441SOL    HW221783   3.531   0.712   0.092  1.9030 -2.6956 -2.9403
 3442SOL     OW21784   2.212   1.716   6.334 -0.7965  0.3885 -0.5250
 3442SOL    HW121785   2.279   1.776   6.300 -0.4987  0.1734 -0.3148
 3442SOL    HW221786   2.168   1.769   6.399 -1.2143  0.8125 -1.1602
 3443SOL     OW21787   4.461   1.445   8.042 -0.0189  0.4606 -0.0977
 3443SOL    HW121788   4.392   1.416   8.102 -1.4101 -0.4243 -2.1495
 3443SOL    HW221789   4.445   1.535   8.016 -1.6112 -0.0999 -1.0360
 3444SOL     OW21790   0.505   0.172  13.514 -0.0452 -0.1886  0.6974
 3444SOL    HW121791   0.536   0.236  13.578 -0.7211  0.6487  0.1955
 3444SOL    HW221792   0.500   0.091  13.565 -0.5896 -0.6030 -0.0112
 3445SOL     OW21793   1.486   3.420   7.837 -0.6945 -0.0187  0.0413
 3445SOL    HW121794   1.481   3.446   7.745 -0.1197  0.8383  0.2525
 3445SOL    HW221795   1.391   3.426   7.851 -0.9458 -0.7600 -1.3720
 3446SOL     OW21796   3.233   1.555   9.148 -0.0677  0.2356 -0.1857
 3446SOL    HW121797   3.311   1.505   9.127  0.9264  0.7862  2.1253
 3446SOL    HW221798   3.239   1.556   9.244 -0.5999  2.2676 -0.1621
 3447SOL     OW21799   0.046   1.300   8.693  0.0247 -0.1962  0.8708
 3447SOL    HW121800   0.097   1.319   8.615 -2.0128 -2.3617 -1.0071
 3447SOL    HW221801   0.109   1.305   8.765 -0.9820  1.3279  1.6452
 3448SOL     OW21802   1.537   0.155  13.992  0.3582 -0.2712  0.3541
 3448SOL    HW121803   1.600   0.220  13.960  0.6970 -1.2188 -0.8835
 3448SOL    HW221804   1.459   0.205  14.017  0.5469  0.4757 -0.5654
 3449SOL     OW21805   3.084   3.257   4.517 -0.3522  0.5946  0.6534
 3449SOL    HW121806   3.147   3.227   4.582 -0.1615  1.6316  0.9449
 3449SOL    HW221807   3.020   3.185   4.520  0.4415 -0.1302 -0.0381
 3450SOL     OW21808   2.208   0.910   1.543 -0.6594  0.3211 -0.0784
 3450SOL    HW121809   2.175   0.865   1.465 -0.2029  0.0487 -0.1114
 3450SOL    HW221810   2.201   0.845   1.612  3.3496 -0.2691 -0.2223
 3451SOL     OW21811   2.100   1.369   9.376 -0.3924  0.3425  0.7389
 3451SOL    HW121812   2.078   1.412   9.458  1.5482  0.1647  1.3401
 3451SOL    HW221813   2.041   1.400   9.307  0.0350  0.4896  0.4377
 3452SOL     OW21814   2.883   4.411   6.182 -0.3356 -0.7129 -0.1937
 3452SOL    HW121815   2.833   4.366   6.250 -0.2542  0.1677  0.4568
 3452SOL    HW221816   2.820   4.419   6.110 -1.3148 -2.2747  0.5021
 3453SOL     OW21817   2.469   2.429   6.516 -0.4797  0.2702  0.3873
 3453SOL    HW121818   2.518   2.349   6.537 -0.8424  0.2741  1.2514
 3453SOL    HW221819   2.506   2.490   6.580 -0.4326 -1.1116  1.6651
 3454SOL     OW21820   1.841   2.878  12.972  0.1786 -0.1686  0.2283
 3454SOL    HW121821   1.794   2.962  12.976  1.2220  0.5429 -2.4591
 3454SOL    HW221822   1.833   2.861  12.878  3.1622  0.3424 -0.0993
 3455SOL     OW21823   3.022   2.169   6.248  0.2764  0.0348 -0.2630
 3455SOL    HW121824   2.932   2.188   6.221 -0.3818 -1.0974  1.0747
 3455SOL    HW221825   3.027   2.074   6.240  0.8982  0.0872 -0.5189
 3456SOL     OW21826   2.600   3.809  10.335 -0.0380  0.0783 -0.5487
 3456SOL    HW121827   2.694   3.807  10.317  0.2997 -0.5348  1.2610
 3456SOL    HW221828   2.600   3.721  10.374 -0.3297  0.9546  1.4231
 3457SOL     OW21829   0.593   1.948   4.024 -0.4035  0.3188 -0.3622
 3457SOL    HW121830   0.510   1.981   4.058  0.4151  2.9612 -0.9637
 3457SOL    HW221831   0.657   1.940   4.095  0.3962 -0.1564 -1.1258
 3458SOL     OW21832   4.316   0.257   9.426 -0.2133  0.1516 -0.0340
 3458SOL    HW121833   4.273   0.279   9.509  1.7109  1.2043  0.6721
 3458SOL    HW221834   4.250   0.286   9.363 -1.7398  0.5545  1.7543
 3459SOL     OW21835   4.097   3.451   3.127  0.0953 -0.1140 -0.6796
 3459SOL    HW121836   4.004   3.460   3.103 -0.6018 -0.0126  2.0494
 3459SOL    HW221837   4.131   3.375   3.082 -4.0536 -2.3312 -0.1113
 3460SOL     OW21838   3.283   1.576   2.274  0.1726 -0.4646 -0.1895
 3460SOL    HW121839   3.224   1.643   2.310 -1.3016 -1.5520 -0.5489
 3460SOL    HW221840   3.255   1.573   2.182  0.9388 -0.1622 -0.4363
 3461SOL     OW21841   4.531   0.731   1.656 -0.6685  0.1875  0.1305
 3461SOL    HW121842   4.527   0.786   1.578 -0.2106 -0.7326 -0.5328
 3461SOL    HW221843   4.505   0.798   1.720 -2.0366 -1.7315  1.5992
 3462SOL     OW21844   2.375   2.646   2.835  0.4186 -0.1436  0.1627
 3462SOL    HW121845   2.447   2.685   2.785  0.5812  1.7830  1.9326
 3462SOL    HW221846   2.319   2.616   2.764  1.9896  0.3572 -1.2762
 3463SOL     OW21847   4.174   3.834   4.292 -0.7559  0.3447 -0.1985
 3463SOL    HW121848   4.143   3.878   4.212  0.3731  0.6336 -0.4785
 3463SOL    HW221849   4.263   3.813   4.263 -0.7569 -0.8490  0.6581
 3464SOL     OW21850   0.864   0.703   6.246  0.0898 -0.0956 -0.4961
 3464SOL    HW121851   0.935   0.640   6.254 -0.9907 -1.4033 -1.1609
 3464SOL    HW221852   0.829   0.707   6.336  3.6060  1.2445  0.7788
 3465SOL     OW21853   2.138   1.854   3.853 -0.0314  0.0145 -0.1130
 3465SOL    HW121854   2.054   1.870   3.895 -0.3109 -2.0832  0.1246
 3465SOL    HW221855   2.169   1.768   3.884  1.6932 -0.0959 -2.1496
 3466SOL     OW21856   4.687   3.994   4.738 -0.4118 -0.1655 -0.2745
 3466SOL    HW121857   4.662   3.930   4.671 -0.9751  0.9731 -1.1620
 3466SOL    HW221858   4.599   4.032   4.745  0.1380  1.6359 -3.3335
 3467SOL     OW21859   3.077   3.266   5.983 -0.0641  0.1192  0.7776
 3467SOL    HW121860   3.086   3.346   5.931 -1.9401 -0.3454 -0.2650
 3467SOL    HW221861   3.009   3.221   5.933 -0.0208  1.9344 -0.9109
 3468SOL     OW21862   1.881   3.821   9.075 -0.1238 -0.2665  0.1476
 3468SOL    HW121863   1.943   3.775   9.132  0.8411 -0.2752 -0.8984
 3468SOL    HW221864   1.827   3.872   9.135 -0.6375 -0.6432 -0.0054
 3469SOL     OW21865   4.414   4.424   8.978  0.0717 -0.2251 -0.4822
 3469SOL    HW121866   4.356   4.491   9.015  0.5925  0.1487 -0.3309
 3469SOL    HW221867   4.496   4.448   9.022 -1.0077  0.0921  1.3421
 3470SOL     OW21868   3.754   2.034  16.213  0.6395  0.4599 -0.0577
 3470SOL    HW121869   3.845   2.037  16.242 -0.0924 -4.0839  2.6858
 3470SOL    HW221870   3.755   1.995  16.126  1.0199 -0.0457  0.1719
 3471SOL     OW21871   3.342   4.712   1.860 -0.0656  0.2044  0.2069
 3471SOL    HW121872   3.398   4.643   1.824 -0.2202 -0.2208  0.7904
 3471SOL    HW221873   3.268   4.699   1.800  0.9936  0.0475 -1.0744
 3472SOL     OW21874   1.411   1.931   6.481  0.5314  0.0197  0.0304
 3472SOL    HW121875   1.409   1.940   6.576 -3.1711 -0.7479  0.0410
 3472SOL    HW221876   1.431   1.838   6.480  0.6115  0.0657 -1.7658
 3473SOL     OW21877   3.753   2.686   4.141 -0.1826 -0.1881  0.2199
 3473SOL    HW121878   3.708   2.667   4.059  1.4974 -2.2356 -0.2425
 3473SOL    HW221879   3.689   2.747   4.177 -0.6503 -2.2237  2.8286
 3474SOL     OW21880   3.980   1.345   6.813  0.0976 -0.7035  0.2759
 3474SOL    HW121881   3.992   1.386   6.899 -1.5485  0.4233 -0.0513
 3474SOL    HW221882   4.073   1.343   6.789 -0.4157 -2.8589 -1.5141
 3475SOL     OW21883   2.791   2.863   4.536 -0.4218  0.0853  0.5356
 3475SOL    HW121884   2.850   2.867   4.611  0.0830  0.9045  0.0936
 3475SOL    HW221885   2.859   2.888   4.473 -0.1005  1.7230  1.5311
 3476SOL     OW21886   3.744   4.208   5.611  0.1097  0.6386  0.1858
 3476SOL    HW121887   3.666   4.256   5.582 -0.0558 -0.2368 -0.8339
 3476SOL    HW221888   3.748   4.138   5.546  3.4694  0.8575  0.1651
 3477SOL     OW21889   4.400   4.472   4.762 -0.3081  0.0853  0.2205
 3477SOL    HW121890   4.355   4.488   4.679  0.6298  2.2593  0.1419
 3477SOL    HW221891   4.454   4.550   4.773 -1.4172  1.0837 -1.3627
 3478SOL     OW21892   1.473   2.157   3.602  0.6427  0.4877 -0.7581
 3478SOL    HW121893   1.398   2.128   3.549  0.3276  0.9078 -0.5375
 3478SOL    HW221894   1.460   2.115   3.686 -1.3555  0.0405 -1.2881
 3479SOL     OW21895   4.555   0.969  12.952  0.0624  0.3789 -0.1199
 3479SOL    HW121896   4.467   0.982  12.916  0.5107 -0.0881 -1.3790
 3479SOL    HW221897   4.606   0.970  12.871 -2.0522  2.9175 -1.4129
 3480SOL     OW21898   2.180   4.222  13.642 -0.1011  0.2654  0.3162
 3480SOL    HW121899   2.245   4.231  13.711  0.3669 -0.8253  0.0157
 3480SOL    HW221900   2.215   4.151  13.588 -0.1869 -0.8009  1.6649
 3481SOL     OW21901   1.648   3.811  12.557  0.4664  0.5656  0.3164
 3481SOL    HW121902   1.606   3.782  12.638 -0.9661  0.0398 -0.6292
 3481SOL    HW221903   1.586   3.777  12.493 -0.4793  1.0509  0.9821
 3482SOL     OW21904   4.225   1.624   5.901 -0.0559  0.4747  0.2902
 3482SOL    HW121905   4.139   1.586   5.918  0.4599 -0.8219 -0.0108
 3482SOL    HW221906   4.286   1.579   5.959 -0.1536 -0.4988 -0.3595
 3483SOL     OW21907   3.439   2.186   4.684  0.1819 -0.1540 -0.0718
 3483SOL    HW121908   3.519   2.162   4.731  1.3965  1.3305 -1.3737
 3483SOL    HW221909   3.405   2.232   4.761  0.5064  1.1119 -0.6714
 3484SOL     OW21910   2.028   3.448   8.765  0.0522  0.6221 -0.3257
 3484SOL    HW121911   2.046   3.542   8.769  0.3499  0.4431  3.1921
 3484SOL    HW221912   2.019   3.430   8.859  1.9394  1.2250 -0.0259
 3485SOL     OW21913   3.827   1.151  13.973 -0.2511  0.6063  0.4075
 3485SOL    HW121914   3.906   1.205  13.968  0.3277 -0.3316 -0.7504
 3485SOL    HW221915   3.775   1.215  14.022 -2.9000 -0.2238 -1.3060
 3486SOL     OW21916   3.696   0.786   4.686 -0.2603  0.3839  0.9915
 3486SOL    HW121917   3.672   0.877   4.671  0.6046  0.3825 -0.3481
 3486SOL    HW221918   3.791   0.788   4.698  0.1486  2.1526 -2.4676
 3487SOL     OW21919   3.588   1.050   7.499  0.3860  0.2061  0.2020
 3487SOL    HW121920   3.649   0.991   7.456 -0.3015  0.1362 -0.6766
 3487SOL    HW221921   3.508   1.022   7.454 -0.5012  1.3038  1.0783
 3488SOL     OW21922   1.897   3.500   4.527 -0.2772 -0.7447  0.1207
 3488SOL    HW121923   1.976   3.548   4.552 -1.7046  2.5220 -1.7201
 3488SOL    HW221924   1.941   3.415   4.533  0.0041 -0.8054 -2.8996
 3489SOL     OW21925   1.983   3.088   0.416  0.4635 -0.1762 -0.4758
 3489SOL    HW121926   1.916   3.020   0.402 -0.1725  0.2689  0.4728
 3489SOL    HW221927   2.054   3.061   0.358  1.5821  2.1130 -0.1510
 3490SOL     OW21928   1.412   0.845   9.064  0.1301  0.2599 -0.1043
 3490SOL    HW121929   1.499   0.805   9.063  0.5523  1.1482  1.0423
 3490SOL    HW221930   1.418   0.887   9.150  0.4010 -1.6539  0.8360
 3491SOL     OW21931   3.236   0.284  17.503 -0.2482  0.0618  0.3379
 3491SOL    HW121932   3.315   0.260  17.550  0.1091  2.0979  0.7443
 3491SOL    HW221933   3.224   0.378  17.514  3.3877  0.5891 -0.3015
 3492SOL     OW21934   0.314   1.107   8.020  0.0772 -0.0762  0.6125
 3492SOL    HW121935   0.319   1.194   7.979 -2.1371 -0.9871 -1.5140
 3492SOL    HW221936   0.228   1.092   7.981  1.1357  0.9704 -2.1486
 3493SOL     OW21937   1.749   2.902  14.437  0.4697  0.1235 -0.2845
 3493SOL    HW121938   1.773   2.937  14.351  1.1445 -0.7186 -0.4287
 3493SOL    HW221939   1.753   2.809  14.416  1.3337  0.1357 -0.1710
 3494SOL     OW21940   1.923   3.067   9.014 -0.3569  0.4308 -0.3674
 3494SOL    HW121941   1.885   3.155   9.011 -0.7223  0.2293 -1.5410
 3494SOL    HW221942   1.866   3.009   8.965  1.2532 -1.1161 -0.4330
 3495SOL     OW21943   4.081   1.870   4.062 -0.3446 -0.0902 -0.3052
 3495SOL    HW121944   4.124   1.866   3.977  1.1709 -1.5726  0.5258
 3495SOL    HW221945   4.027   1.948   4.050 -1.0372 -0.8254 -1.9866
 3496SOL     OW21946   1.451   1.333   7.582  0.5239  0.7562  0.0012
 3496SOL    HW121947   1.367   1.334   7.536 -0.0659  0.2005  1.0599
 3496SOL    HW221948   1.435   1.408   7.639  1.9045  0.9907  0.0785
 3497SOL     OW21949   4.300   2.211   3.285 -0.4674  0.0143  0.6808
 3497SOL    HW121950   4.375   2.267   3.308 -1.7946  1.4945  1.3627
 3497SOL    HW221951   4.355   2.136   3.262 -0.4696  0.3033 -0.2584
 3498SOL     OW21952   2.021   4.032  12.443 -0.5411 -0.4041  0.0817
 3498SOL    HW121953   2.036   4.126  12.452  2.5194 -0.9594  0.7459
 3498SOL    HW221954   2.101   4.008  12.396 -0.0045  3.1112 -0.8173
 3499SOL     OW21955   0.192   2.315   7.855 -0.2837  0.0755  0.2678
 3499SOL    HW121956   0.180   2.365   7.935 -2.0417  1.8273 -1.0925
 3499SOL    HW221957   0.163   2.375   7.786  3.5282  1.6922  0.1127
 3500SOL     OW21958   0.801   2.672   6.977 -0.2902 -0.2490  0.1484
 3500SOL    HW121959   0.780   2.634   6.891  1.7963  3.0436 -1.8263
 3500SOL    HW221960   0.742   2.747   6.971  2.0468  1.7753  2.6184
 3501SOL     OW21961   4.201   2.653   5.972  0.2329  0.2067  0.0971
 3501SOL    HW121962   4.166   2.729   5.926  1.6344 -0.6580 -2.3807
 3501SOL    HW221963   4.257   2.698   6.035  1.1015  1.6549 -1.6810
 3502SOL     OW21964   1.902   3.886  12.660 -0.0634 -0.0021  0.0850
 3502SOL    HW121965   1.813   3.866  12.629 -0.8809 -0.1825  2.5788
 3502SOL    HW221966   1.933   3.961  12.609  1.5962  0.7259  2.1674
 3503SOL     OW21967   2.012   3.694   4.731 -0.4677  0.4647  0.4911
 3503SOL    HW121968   1.976   3.651   4.809  0.6025 -2.5252 -0.6702
 3503SOL    HW221969   1.934   3.713   4.680  0.0508  3.2432  0.7501
 3504SOL     OW21970   1.797   3.677   4.086 -0.1728 -0.7770 -0.2850
 3504SOL    HW121971   1.722   3.659   4.030  0.8807 -0.5303 -1.7515
 3504SOL    HW221972   1.823   3.764   4.056 -0.6278 -0.6807 -0.4002
 3505SOL     OW21973   0.799   4.383   1.528  0.0680  0.0022  0.4550
 3505SOL    HW121974   0.782   4.356   1.438  2.6322  0.2705 -0.1229
 3505SOL    HW221975   0.805   4.478   1.515  0.8476 -0.1395 -0.2628
 3506SOL     OW21976   1.487   2.466   0.340 -0.1735  0.9753  0.0443
 3506SOL    HW121977   1.397   2.439   0.324  0.4939 -0.9284 -0.4229
 3506SOL    HW221978   1.523   2.382   0.312  1.5072  1.4044  0.8590
 3507SOL     OW21979   0.395   3.487   4.677  0.4596 -0.2799  0.7076
 3507SOL    HW121980   0.304   3.507   4.695  0.2463  0.2916 -1.0656
 3507SOL    HW221981   0.407   3.529   4.592  0.4863 -0.9218  0.3953
 3508SOL     OW21982   2.594   2.050  11.498 -0.1461  0.3412  0.3406
 3508SOL    HW121983   2.526   2.045  11.431  0.3248 -0.8048 -0.0601
 3508SOL    HW221984   2.551   2.114  11.555  2.4038  0.3995  2.2217
 3509SOL     OW21985   1.634   2.799   1.404 -0.1524 -0.3700  0.0895
 3509SOL    HW121986   1.597   2.789   1.492 -1.0769 -1.0713 -0.3728
 3509SOL    HW221987   1.569   2.843   1.349 -0.3043  0.8038  1.2066
 3510SOL     OW21988   1.639   1.593  13.574 -0.7304  0.1710  0.2656
 3510SOL    HW121989   1.726   1.598  13.535 -0.9008 -2.0960 -0.4031
 3510SOL    HW221990   1.625   1.680  13.610  0.6323 -0.3060  1.9570
 3511SOL     OW21991   0.528   3.380   5.074 -0.2376 -0.1420 -0.2812
 3511SOL    HW121992   0.480   3.303   5.046 -0.3195 -0.3468  0.4272
 3511SOL    HW221993   0.602   3.395   5.015  1.1490  1.3575  1.8132
 3512SOL     OW21994   4.039   3.672   8.168 -0.3250  0.0430  0.1628
 3512SOL    HW121995   4.046   3.583   8.135  0.7908 -0.6322  2.2309
 3512SOL    HW221996   3.944   3.673   8.181 -0.3763  0.8427 -0.2446
 3513SOL     OW21997   3.765   1.092   3.606  0.1889  0.0458 -0.3090
 3513SOL    HW121998   3.717   1.160   3.653 -1.8040 -1.9130  0.4614
 3513SOL    HW221999   3.691   1.032   3.597 -0.6301  1.1313 -0.6302
 3514SOL     OW22000   0.719   3.566   4.683  0.2673 -0.1171 -0.0561
 3514SOL    HW122001   0.695   3.655   4.659 -2.6104 -1.2303 -1.2671
 3514SOL    HW222002   0.809   3.563   4.648  0.0107 -0.7149 -0.6770
 3515SOL     OW22003   2.406   4.614   3.321 -0.5963 -0.4001  0.0806
 3515SOL    HW122004   2.394   4.637   3.413  1.3066 -0.9810  0.4781
 3515SOL    HW222005   2.393   4.519   3.321 -0.2802 -0.4510  1.5360
 3516SOL     OW22006   3.091   3.353   8.051  0.1307  0.4888 -0.1156
 3516SOL    HW122007   3.074   3.276   7.998  2.5709  1.6255 -2.5516
 3516SOL    HW222008   3.166   3.385   8.001  0.0400  0.8243 -0.0414
 3517SOL     OW22009   1.817   4.485   3.415 -0.5039  1.5300  0.5652
 3517SOL    HW122010   1.859   4.438   3.488  0.7043  2.1609  0.2814
 3517SOL    HW222011   1.810   4.428   3.339  1.5580 -1.6198  2.7553
 3518SOL     OW22012   2.860   1.019   6.307  0.0942  0.0427  0.5062
 3518SOL    HW122013   2.878   1.072   6.229 -3.1699 -1.4984 -1.3345
 3518SOL    HW222014   2.769   1.050   6.305  1.0288  2.6793  0.4005
 3519SOL     OW22015   3.296   3.440   2.243  0.4409 -0.2441 -0.4446
 3519SOL    HW122016   3.350   3.481   2.175 -0.4103  1.2847 -0.2037
 3519SOL    HW222017   3.207   3.460   2.213  0.1680  0.8820  1.0890
 3520SOL     OW22018   0.403   1.840   9.248  0.8051 -0.0623 -0.2108
 3520SOL    HW122019   0.362   1.851   9.334  1.2616  2.1088 -0.2703
 3520SOL    HW222020   0.400   1.923   9.201 -2.3206 -0.2992 -0.4147
 3521SOL     OW22021   2.977   0.820   8.939 -0.6126 -0.2429 -0.5887
 3521SOL    HW122022   2.976   0.887   8.871 -3.6418 -0.1110 -0.4307
 3521SOL    HW222023   3.067   0.788   8.932 -0.4189  0.4530 -1.2243
 3522SOL     OW22024   2.700   1.278   8.874  0.3755  0.5772  0.1735
 3522SOL    HW122025   2.612   1.242   8.866  0.0278  0.7802  2.9571
 3522SOL    HW222026   2.698   1.290   8.969 -0.7443  0.3787  0.1758
 3523SOL     OW22027   0.776   1.568  16.106  0.5980 -0.4871  0.0385
 3523SOL    HW122028   0.726   1.586  16.027  1.0338  1.2670  0.1630
 3523SOL    HW222029   0.759   1.474  16.107 -0.1194 -0.3459  1.7810
 3524SOL     OW22030   3.685   4.343  13.643 -0.6998 -0.2098  0.3474
 3524SOL    HW122031   3.655   4.392  13.566 -1.0095  0.0112  0.6070
 3524SOL    HW222032   3.776   4.332  13.619 -0.5879 -0.2314  0.7871
 3525SOL     OW22033   1.340   2.910  17.292 -0.4424 -0.5402 -0.3360
 3525SOL    HW122034   1.411   2.951  17.241  0.0284 -0.4676  0.3848
 3525SOL    HW222035   1.267   2.912  17.230  0.6558 -0.2199 -1.6256
 3526SOL     OW22036   2.586   0.220   9.593 -0.6328  0.2787 -0.5207
 3526SOL    HW122037   2.547   0.159   9.656  0.6169  0.4828  0.4545
 3526SOL    HW222038   2.516   0.283   9.576 -0.9615 -0.4255 -1.7772
 3527SOL     OW22039   2.406   2.817   9.541  0.1289  0.4727  0.0750
 3527SOL    HW122040   2.326   2.823   9.489 -1.0511  0.3124  1.8830
 3527SOL    HW222041   2.434   2.728   9.522  0.0223  0.4427  0.0588
 3528SOL     OW22042   0.985   0.570  17.314  0.4716  0.1683  0.0772
 3528SOL    HW122043   0.947   0.637  17.370  1.8242 -0.0511  1.2575
 3528SOL    HW222044   0.925   0.495  17.316  0.2646  0.2421 -3.4542
 3529SOL     OW22045   3.115   3.847  10.730  0.3741 -0.4131  0.0615
 3529SOL    HW122046   3.112   3.852  10.825  1.2230  1.5602 -0.0079
 3529SOL    HW222047   3.199   3.802  10.733  0.1240 -0.8730  0.0429
 3530SOL     OW22048   3.550   0.570   2.094  0.2839 -0.3678  0.2620
 3530SOL    HW122049   3.476   0.589   2.151 -0.0739  0.0204 -0.3262
 3530SOL    HW222050   3.539   0.476   2.081  0.2861 -0.3717  0.2900
 3531SOL     OW22051   0.898   2.170  10.952 -0.0711  0.5624 -0.1023
 3531SOL    HW122052   0.902   2.266  10.956 -0.8872  0.6254 -0.5913
 3531SOL    HW222053   0.816   2.155  10.904  0.5918  1.6078 -1.5858
 3532SOL     OW22054   3.881   0.905  12.229 -0.6313 -0.7947 -0.3215
 3532SOL    HW122055   3.785   0.905  12.225 -0.6467 -1.2592  0.0053
 3532SOL    HW222056   3.913   0.890  12.140  1.1255 -1.4633  0.4204
 3533SOL     OW22057   2.351   4.244   5.727 -0.2302  0.0529  0.3559
 3533SOL    HW122058   2.300   4.164   5.739  1.4025 -0.9361  0.6656
 3533SOL    HW222059   2.286   4.304   5.690  1.5081  1.4981 -0.3788
 3534SOL     OW22060   0.321   3.199   2.028  0.0432  0.1490  0.0801
 3534SOL    HW122061   0.320   3.253   2.107  1.2069 -1.2428  1.0385
 3534SOL    HW222062   0.234   3.217   1.992 -0.9201 -0.4785  2.0955
 3535SOL     OW22063   0.899   4.257  17.488  0.0986  0.1722  0.0052
 3535SOL    HW122064   0.922   4.173  17.448 -0.8586 -0.5345  0.9353
 3535SOL    HW222065   0.973   4.270  17.546 -1.0660 -0.3305  1.5988
 3536SOL     OW22066   3.591   0.881   3.580  0.5068  0.1693 -0.2014
 3536SOL    HW122067   3.582   0.832   3.662 -4.1847 -3.5208 -2.9661
 3536SOL    HW222068   3.654   0.826   3.533  0.9359  0.9607 -0.5606
 3537SOL     OW22069   1.700   3.811   4.582  0.5618 -0.5783  0.5165
 3537SOL    HW122070   1.616   3.849   4.609  0.6474 -0.5453  0.7354
 3537SOL    HW222071   1.683   3.729   4.628  0.6143  0.2242  1.9587
 3538SOL     OW22072   0.789   3.597   4.273 -0.6619  0.2619 -0.0095
 3538SOL    HW122073   0.721   3.657   4.304 -2.3701 -1.0368 -1.2473
 3538SOL    HW222074   0.734   3.522   4.248  0.0475 -0.4800  0.6800
 3539SOL     OW22075   1.516   1.778  17.075 -0.0272 -0.1551 -0.1441
 3539SOL    HW122076   1.461   1.820  17.009 -1.3527 -0.7805  0.5795
 3539SOL    HW222077   1.572   1.721  17.022  0.3501 -0.0603  0.1511
 3540SOL     OW22078   4.405   0.004   0.400 -0.1384 -0.5797  0.4926
 3540SOL    HW122079   4.320   0.040   0.425 -1.5389 -1.3062 -3.2878
 3540SOL    HW222080   4.424   0.070   0.333  0.4728  1.3000  2.5003
 3541SOL     OW22081   3.805   1.258   2.560 -0.1820 -0.3175  0.3343
 3541SOL    HW122082   3.865   1.217   2.622 -1.3217 -1.6309  0.5643
 3541SOL    HW222083   3.806   1.202   2.483 -0.4124  1.3433 -0.8888
 3542SOL     OW22084   2.148   4.603   2.505  0.2370 -0.0800 -0.5223
 3542SOL    HW122085   2.184   4.683   2.543  3.5601 -0.5409 -2.7402
 3542SOL    HW222086   2.137   4.546   2.581  0.1530 -0.4198 -0.7890
 3543SOL     OW22087   2.712   0.856   5.122 -0.2758 -0.4010  0.1834
 3543SOL    HW122088   2.772   0.782   5.130  1.4051  0.8358 -0.9334
 3543SOL    HW222089   2.692   0.850   5.029 -0.0146  4.2281 -0.1936
 3544SOL     OW22090   2.310   3.994   7.974 -0.1632  0.1149 -0.0076
 3544SOL    HW122091   2.272   3.907   7.984  1.1430 -0.2599  1.6824
 3544SOL    HW222092   2.367   3.999   8.050 -1.1479  1.6772  0.6460
 3545SOL     OW22093   4.230   1.764   1.286  0.1103 -0.2686 -0.1606
 3545SOL    HW122094   4.185   1.750   1.369  2.7308 -0.2338  1.2641
 3545SOL    HW222095   4.276   1.846   1.304  0.9232 -0.7841  0.1052
 3546SOL     OW22096   0.454   2.864   7.241 -0.4691 -0.5872 -0.6852
 3546SOL    HW122097   0.380   2.924   7.234 -0.0857  0.0139  0.5170
 3546SOL    HW222098   0.437   2.816   7.322  0.7798  1.3037  0.6705
 3547SOL     OW22099   2.669   4.565   8.694 -0.3984 -0.4039  0.3514
 3547SOL    HW122100   2.734   4.631   8.670 -0.8161 -0.2963 -0.4486
 3547SOL    HW222101   2.670   4.558   8.790 -0.8446 -2.7020  0.1824
 3548SOL     OW22102   3.116   2.302   0.822  0.1115  0.1284  0.5804
 3548SOL    HW122103   3.058   2.331   0.891  0.8681  1.1677  0.7893
 3548SOL    HW222104   3.200   2.330   0.859  1.7935 -1.7743 -1.7769
 3549SOL     OW22105   0.328   0.637   1.193  0.0495  0.3366 -0.2948
 3549SOL    HW122106   0.413   0.678   1.211 -0.3730  2.2699 -2.7544
 3549SOL    HW222107   0.271   0.714   1.205  0.0195  0.1913  0.5270
 3550SOL     OW22108   0.035   0.933   5.379  0.1503 -0.3658 -0.4100
 3550SOL    HW122109   0.088   1.012   5.392  0.7313 -0.9270  0.6576
 3550SOL    HW222110   4.673   0.972   5.356  1.4710  0.9312 -2.9928
 3551SOL     OW22111   3.840   2.470   0.942 -0.1412  0.0327 -0.1484
 3551SOL    HW122112   3.772   2.411   0.972  1.0476 -1.4131 -0.3278
 3551SOL    HW222113   3.918   2.429   0.979 -0.2818  0.2759  0.4150
 3552SOL     OW22114   0.647   0.409   8.261  0.0875 -0.0510 -0.2161
 3552SOL    HW122115   0.574   0.373   8.211 -0.4704 -0.2168  0.7078
 3552SOL    HW222116   0.717   0.417   8.196 -0.1280  0.9881 -0.3325
 3553SOL     OW22117   3.519   3.799   6.788  0.0484 -0.0058 -0.2260
 3553SOL    HW122118   3.426   3.775   6.796 -0.0660  0.0156 -1.5345
 3553SOL    HW222119   3.546   3.749   6.712  0.0206  0.8677 -0.8097
 3554SOL     OW22120   0.128   3.592   6.099 -0.4799  0.3034 -0.3006
 3554SOL    HW122121   0.140   3.611   6.192  1.3822  0.4884 -0.5642
 3554SOL    HW222122   0.187   3.517   6.094  0.8170  1.2541  0.3229
 3555SOL     OW22123   3.352   0.407   6.090 -0.1406 -0.6189  0.0535
 3555SOL    HW122124   3.427   0.354   6.116  0.7562  0.8748  0.5330
 3555SOL    HW222125   3.355   0.391   5.996  0.4939  1.4238 -0.2779
 3556SOL     OW22126   3.387   3.513  17.334  0.3824  0.0350 -0.2559
 3556SOL    HW122127   3.319   3.476  17.278 -0.2663  0.9265 -0.0655
 3556SOL    HW222128   3.343   3.536  17.416 -0.7911 -0.6783 -0.6879
 3557SOL     OW22129   1.172   2.469   7.173 -0.1524  0.6330  0.2472
 3557SOL    HW122130   1.098   2.438   7.121  1.8209 -0.7104 -1.7195
 3557SOL    HW222131   1.231   2.495   7.103 -0.6222 -0.0777 -0.4133
 3558SOL     OW22132   1.957   1.231   4.670 -0.2454  0.1151  0.3746
 3558SOL    HW122133   1.996   1.219   4.757 -1.2210 -0.1602  0.7762
 3558SOL    HW222134   1.993   1.318   4.652 -1.4287  0.9948  2.1809
 3559SOL     OW22135   3.833   1.627   0.086 -0.1517  0.4332 -0.9286
 3559SOL    HW122136   3.895   1.562   0.054  0.2459 -0.9640  2.7249
 3559SOL    HW222137   3.814   1.597   0.175 -0.8239  2.2867 -0.4498
 3560SOL     OW22138   4.028   3.841   2.601 -0.2488  0.3972 -0.1791
 3560SOL    HW122139   3.952   3.898   2.615  0.4049  1.6102 -1.5798
 3560SOL    HW222140   3.982   3.762   2.571  0.7988 -0.1034 -0.4852
 3561SOL     OW22141   2.443   1.737  16.461  0.1655 -0.1657 -0.5335
 3561SOL    HW122142   2.535   1.732  16.438 -0.1872 -1.3107 -1.7177
 3561SOL    HW222143   2.447   1.817  16.513 -1.8102 -0.3160 -0.1323
 3562SOL     OW22144   3.453   3.557   7.960  0.0561 -0.7487  0.0631
 3562SOL    HW122145   3.538   3.547   8.002  0.1488 -0.6764 -0.1107
 3562SOL    HW222146   3.430   3.468   7.935  0.6320 -0.4686 -1.4358
 3563SOL     OW22147   1.778   0.504  12.614  0.5501 -0.0829 -0.0440
 3563SOL    HW122148   1.735   0.439  12.559  0.7696  1.8131 -2.4411
 3563SOL    HW222149   1.707   0.568  12.616 -1.0445 -1.8293 -0.7620
 3564SOL     OW22150   1.805   3.895  15.004 -0.2148 -0.3826  0.1804
 3564SOL    HW122151   1.830   3.956  14.935  1.4298  0.0671  1.1634
 3564SOL    HW222152   1.854   3.937  15.075 -0.5293  0.3493 -0.0305
 3565SOL     OW22153   1.225   3.569   4.997 -0.0901 -0.9629 -0.2432
 3565SOL    HW122154   1.226   3.528   5.083 -1.0035 -2.2791 -0.8447
 3565SOL    HW222155   1.317   3.585   4.979 -0.6663  0.6075 -1.8730
 3566SOL     OW22156   3.011   2.681   9.334 -0.4367  0.2664 -0.5709
 3566SOL    HW122157   3.032   2.774   9.349 -0.8622  0.2477  0.1255
 3566SOL    HW222158   3.054   2.642   9.410 -1.2141  1.7563  0.6518
 3567SOL     OW22159   2.991   3.401  13.901  0.0968  0.0315  0.2839
 3567SOL    HW122160   2.976   3.489  13.867  0.5301  0.5545  1.4064
 3567SOL    HW222161   3.036   3.363  13.825 -0.1428  0.8318 -0.2525
 3568SOL     OW22162   1.498   0.177   7.061 -0.4520  0.1322  0.5649
 3568SOL    HW122163   1.466   0.090   7.084 -1.7417  0.2174 -0.8805
 3568SOL    HW222164   1.450   0.243   7.111 -1.4002  1.0609 -1.5672
 3569SOL     OW22165   0.614   0.053   4.295  0.3309  0.3918 -0.2981
 3569SOL    HW122166   0.691   0.012   4.255  1.2808  0.8888  1.0223
 3569SOL    HW222167   0.595   0.126   4.235 -1.1157  0.8192  0.6888
 3570SOL     OW22168   3.686   3.402   4.273 -0.5172  0.0568  0.1726
 3570SOL    HW122169   3.641   3.400   4.188  2.1416 -0.7982 -1.2286
 3570SOL    HW222170   3.707   3.495   4.275 -0.3357 -0.0682  3.1215
 3571SOL     OW22171   0.936   2.680   7.246 -0.4286 -0.7729 -0.5596
 3571SOL    HW122172   0.903   2.695   7.158 -4.1984 -0.2594  0.9385
 3571SOL    HW222173   0.949   2.585   7.257 -1.7014 -0.9832 -0.8845
 3572SOL     OW22174   1.236   2.930   4.134  0.6316 -0.2928  0.4006
 3572SOL    HW122175   1.331   2.929   4.146  0.6577  1.4865  0.3568
 3572SOL    HW222176   1.207   2.970   4.216 -1.2833 -0.1324 -0.3448
 3573SOL     OW22177   4.361   4.299   8.733 -0.0268 -0.3331  0.0998
 3573SOL    HW122178   4.318   4.216   8.754  1.4847 -0.2504  3.3550
 3573SOL    HW222179   4.398   4.318   8.819  0.4532 -1.9402  0.2487
 3574SOL     OW22180   4.641   0.830   2.950 -0.0932 -0.1323  0.0314
 3574SOL    HW122181   4.616   0.788   2.868  1.2825  1.8627 -1.3943
 3574SOL    HW222182   4.560   0.854   2.995  0.4133 -0.2902  1.0313
 3575SOL     OW22183   2.513   2.643   5.704  0.0887  0.2435  0.4580
 3575SOL    HW122184   2.482   2.725   5.742  2.2866 -0.1751  3.1540
 3575SOL    HW222185   2.479   2.590   5.776  0.4857  0.2728  0.6616
 3576SOL     OW22186   4.442   0.625   1.341  0.2507 -0.1022 -0.1339
 3576SOL    HW122187   4.477   0.680   1.411  1.6970  0.3792 -1.2496
 3576SOL    HW222188   4.523   0.584   1.310  0.4035 -0.5753  0.8827
 3577SOL     OW22189   1.742   3.859   1.722  0.1090  0.1297  0.1739
 3577SOL    HW122190   1.730   3.885   1.813  2.1698  0.5369  0.3231
 3577SOL    HW222191   1.687   3.915   1.668 -1.1771 -0.5833  0.7509
 3578SOL     OW22192   2.639   3.579  11.110  0.3758  0.2017 -0.7983
 3578SOL    HW122193   2.690   3.555  11.032  0.1579 -1.4780 -0.4101
 3578SOL    HW222194   2.551   3.551  11.082  1.3762 -4.4791  0.9219
 3579SOL     OW22195   4.166   2.485   8.786 -0.1992  0.2391 -0.3882
 3579SOL    HW122196   4.130   2.541   8.855 -0.2642  0.1602 -0.3570
 3579SOL    HW222197   4.107   2.506   8.714  0.4786  1.7416 -0.5018
 3580SOL     OW22198   3.397   0.941   7.774  0.2778  0.3660  0.5968
 3580SOL    HW122199   3.390   0.990   7.856  1.4801  3.1763 -0.9636
 3580SOL    HW222200   3.492   0.946   7.771  0.3060  0.1165  1.2162
 3581SOL     OW22201   0.190   3.929   6.378 -0.7962  0.0382  0.2408
 3581SOL    HW122202   0.156   3.932   6.288  0.8673 -1.7236 -0.4651
 3581SOL    HW222203   0.282   3.905   6.371 -1.2438 -1.4166 -0.7194
 3582SOL     OW22204   4.623   2.436   0.922  0.0292  0.0326  0.0631
 3582SOL    HW122205   4.666   2.517   0.895  3.4886 -0.9720  2.5498
 3582SOL    HW222206   4.594   2.386   0.846 -1.0062  0.9636 -0.1422
 3583SOL     OW22207   2.239   3.799   6.357 -0.3600  0.1854  0.1974
 3583SOL    HW122208   2.161   3.744   6.365  1.4329 -2.2757  0.7782
 3583SOL    HW222209   2.247   3.847   6.440 -1.4892 -0.3855  0.6314
 3584SOL     OW22210   2.763   3.407  16.844 -0.0533  0.0920 -0.1225
 3584SOL    HW122211   2.718   3.360  16.913  1.5881 -1.4443 -0.0881
 3584SOL    HW222212   2.693   3.469  16.825  0.7194  0.7408 -0.8991
 3585SOL     OW22213   2.871   3.784  12.942  0.1683  0.3078  1.2325
 3585SOL    HW122214   2.917   3.750  12.865 -0.6335 -2.0064  1.7790
 3585SOL    HW222215   2.910   3.870  12.959  3.8322 -1.3785  1.3417
 3586SOL     OW22216   3.152   3.494  11.140  0.1043  0.1031  0.7386
 3586SOL    HW122217   3.126   3.485  11.048 -1.1130  0.5497  1.0357
 3586SOL    HW222218   3.229   3.439  11.143  0.7829  0.9308 -1.8233
 3587SOL     OW22219   2.140   2.549   5.558 -0.5444  0.0254 -0.3736
 3587SOL    HW122220   2.049   2.559   5.529 -0.7911 -2.8168 -0.5550
 3587SOL    HW222221   2.177   2.636   5.545  1.8763 -0.9052  0.3378
 3588SOL     OW22222   0.083   3.154   4.338  0.1380 -0.2846  0.4400
 3588SOL    HW122223   0.044   3.114   4.260  3.8934  0.7770 -1.9881
 3588SOL    HW222224   0.004   3.202   4.364 -0.2100 -0.9561  0.6176
 3589SOL     OW22225   2.990   1.924   3.454 -0.1139  0.6076 -0.0119
 3589SOL    HW122226   2.971   2.013   3.484 -0.6851  0.9760 -1.4504
 3589SOL    HW222227   3.080   1.939   3.425  0.7625 -1.1468  1.7690
 3590SOL     OW22228   0.066   0.642   3.983 -0.2173  0.3112  0.2384
 3590SOL    HW122229   0.118   0.574   4.025 -0.5927 -0.2403 -0.1791
 3590SOL    HW222230   0.129   0.681   3.923  0.4744 -0.2336  0.6153
 3591SOL     OW22231   1.614   4.033   1.577 -0.2893 -0.3707 -0.8863
 3591SOL    HW122232   1.554   4.106   1.559 -1.3022 -0.8052  0.6957
 3591SOL    HW222233   1.688   4.063   1.524 -0.7134  4.5952  1.3113
 3592SOL     OW22234   2.574   4.188  17.677  0.0315 -0.0105 -0.1723
 3592SOL    HW122235   2.539   4.165  17.591 -0.6884  0.5986 -0.0381
 3592SOL    HW222236   2.662   4.201  17.643 -0.6499 -0.1329 -1.9799
 3593SOL     OW22237   3.741   2.315   6.368 -0.4827  0.2687 -0.4076
 3593SOL    HW122238   3.833   2.333   6.348 -0.6304 -0.4991 -1.8024
 3593SOL    HW222239   3.704   2.392   6.324  0.4299  1.8791  1.6612
 3594SOL     OW22240   1.695   3.397   1.996  0.0608  0.3321 -0.3020
 3594SOL    HW122241   1.789   3.401   2.012 -0.0775 -0.2625  0.7060
 3594SOL    HW222242   1.684   3.463   1.928 -0.0994 -0.6106 -1.1938
 3595SOL     OW22243   0.368   1.310   6.470  0.4052  0.2856 -0.0456
 3595SOL    HW122244   0.358   1.400   6.439 -0.4081  0.9861  2.2388
 3595SOL    HW222245   0.447   1.314   6.524  1.0243  3.6397 -1.1795
 3596SOL     OW22246   0.178   2.169   9.083  0.3675  0.6770 -0.2010
 3596SOL    HW122247   0.172   2.259   9.116 -2.1025 -0.1709  1.6178
 3596SOL    HW222248   0.261   2.139   9.121 -0.1228  1.5137  1.5625
 3597SOL     OW22249   1.578   4.496   3.683 -0.1786 -0.2062  0.0066
 3597SOL    HW122250   1.570   4.423   3.622  0.6025 -0.3616  0.0920
 3597SOL    HW222251   1.510   4.488   3.750  0.5915  1.0851  0.9398
 3598SOL     OW22252   0.359   4.443   6.611  0.2700  0.2461  0.3643
 3598SOL    HW122253   0.270   4.480   6.610  0.4725  0.6700 -1.1791
 3598SOL    HW222254   0.415   4.510   6.651  1.9507 -0.4503 -0.8237
 3599SOL     OW22255   1.513   0.813   0.111  0.4535 -0.0459 -1.0717
 3599SOL    HW122256   1.576   0.742   0.120  1.8898  1.1812 -1.5428
 3599SOL    HW222257   1.465   0.803   0.193 -0.7158  0.0381 -1.7431
 3600SOL     OW22258   3.681   2.702   6.586  0.0925 -0.0643 -0.2677
 3600SOL    HW122259   3.635   2.662   6.660  0.9987  1.8049  1.2973
 3600SOL    HW222260   3.771   2.688   6.617  0.4984 -0.3125 -1.5338
 3601SOL     OW22261   2.527   4.121   6.705 -0.3661  0.2830  0.2291
 3601SOL    HW122262   2.616   4.153   6.714 -0.2901 -0.1567  1.0278
 3601SOL    HW222263   2.542   4.031   6.730 -1.9276 -0.5292 -1.7010
 3602SOL     OW22264   3.073   1.090   5.137 -0.0589  0.0674 -0.1283
 3602SOL    HW122265   3.121   1.007   5.134 -0.0255  0.0700  0.2567
 3602SOL    HW222266   2.991   1.071   5.091 -0.2074  1.3610 -0.4015
 3603SOL     OW22267   2.740   0.142   6.462  0.2507  0.2745  0.8006
 3603SOL    HW122268   2.723   0.081   6.391  0.9445 -1.5295  2.1907
 3603SOL    HW222269   2.649   0.151   6.491 -0.2948 -0.1676 -0.8038
 3604SOL     OW22270   0.797   0.376   3.589 -0.6542  0.3498  0.1160
 3604SOL    HW122271   0.855   0.449   3.567  0.7347 -0.9230 -0.3913
 3604SOL    HW222272   0.852   0.305   3.622 -1.5930 -0.5172 -0.2021
 3605SOL     OW22273   3.660   2.765  10.234  0.2013  0.3268 -0.0383
 3605SOL    HW122274   3.568   2.792  10.225  0.1218  0.2520  0.5405
 3605SOL    HW222275   3.670   2.786  10.327 -1.4994 -2.7202  0.8531
 3606SOL     OW22276   4.556   0.271   9.022  0.4487 -0.2449  0.5532
 3606SOL    HW122277   4.475   0.300   9.064  1.1596  0.8849  1.1412
 3606SOL    HW222278   4.625   0.282   9.088  0.5744 -0.4081  0.4489
 3607SOL     OW22279   3.056   0.423   7.201 -0.0339  0.3115 -0.4996
 3607SOL    HW122280   3.109   0.461   7.272  0.1650 -0.0882 -0.4334
 3607SOL    HW222281   3.027   0.345   7.248  2.4197 -0.8344 -0.8773
 3608SOL     OW22282   4.707   3.665   1.758 -0.1078 -0.3233  0.1832
 3608SOL    HW122283   0.065   3.701   1.796  0.0677  0.4918 -0.9571
 3608SOL    HW222284   4.663   3.744   1.726  2.5342  1.1051  0.0634
 3609SOL     OW22285   1.654   4.385   5.166  0.1141  0.1345  0.1996
 3609SOL    HW122286   1.734   4.394   5.114 -0.4544  2.1679 -0.3089
 3609SOL    HW222287   1.601   4.357   5.091 -1.6084  1.2177  1.0144
 3610SOL     OW22288   2.151   2.086   4.362  0.2229  0.2477  0.1753
 3610SOL    HW122289   2.137   1.992   4.375 -0.9271  0.2939 -0.7713
 3610SOL    HW222290   2.081   2.108   4.300  0.8126 -1.1875 -0.9990
 3611SOL     OW22291   1.910   2.507  13.215 -0.7068 -0.2442 -0.9871
 3611SOL    HW122292   1.931   2.430  13.268  0.3283  1.2091  0.6882
 3611SOL    HW222293   1.976   2.513  13.146  0.3503 -0.8000 -0.0189
 3612SOL     OW22294   1.892   3.851   2.890 -0.0687 -0.1541 -0.2275
 3612SOL    HW122295   1.965   3.790   2.900  0.4757  0.2561 -1.6259
 3612SOL    HW222296   1.841   3.801   2.825 -1.4996 -0.0816  0.8269
 3613SOL     OW22297   2.649   1.160   4.059 -0.3078 -0.5722  0.5028
 3613SOL    HW122298   2.741   1.171   4.083 -0.8381 -1.1972  2.7887
 3613SOL    HW222299   2.651   1.173   3.964 -0.6916  0.5343  0.6341
 3614SOL     OW22300   2.272   3.155   1.349  0.6349  0.3785  0.1981
 3614SOL    HW122301   2.226   3.110   1.420  0.3662  3.0790  1.7059
 3614SOL    HW222302   2.202   3.165   1.285  0.7548  0.9967  0.1709
 3615SOL     OW22303   3.513   2.728  16.823  0.1180 -0.9077  0.2819
 3615SOL    HW122304   3.523   2.702  16.731  2.3516  1.3535 -0.0995
 3615SOL    HW222305   3.603   2.758  16.833 -0.2388 -0.2806  1.6534
 3616SOL     OW22306   2.278   2.282   7.756 -0.4443 -0.4035  0.3737
 3616SOL    HW122307   2.193   2.244   7.779  0.4869 -2.1001  0.9848
 3616SOL    HW222308   2.324   2.257   7.836 -0.7232 -2.7538 -0.2124
 3617SOL     OW22309   1.133   2.887   6.715  0.2262 -0.2806  0.3184
 3617SOL    HW122310   1.146   2.980   6.696  0.5669 -0.0289  1.8447
 3617SOL    HW222311   1.046   2.866   6.682  0.0188  0.4269  0.4258
 3618SOL     OW22312   4.221   2.716   4.493 -0.7431 -0.1401 -0.2807
 3618SOL    HW122313   4.179   2.788   4.542  0.7884  0.0875  0.6987
 3618SOL    HW222314   4.274   2.768   4.433  0.0824 -0.3358  0.2759
 3619SOL     OW22315   4.189   1.702   2.523  0.1235  0.7062 -0.0802
 3619SOL    HW122316   4.107   1.750   2.523  0.2492  0.9074 -0.9296
 3619SOL    HW222317   4.233   1.754   2.457  1.0917 -0.3193 -0.2498
 3620SOL     OW22318   0.203   4.385  16.487 -0.1521 -0.4932 -0.3527
 3620SOL    HW122319   0.196   4.306  16.540 -0.2134  0.0085  0.4037
 3620SOL    HW222320   0.152   4.357  16.411  1.0354 -2.2641 -0.4765
 3621SOL     OW22321   3.834   1.133  14.981 -0.6535 -0.0819  0.3090
 3621SOL    HW122322   3.799   1.167  15.064  0.0514  1.2001  0.0791
 3621SOL    HW222323   3.851   1.212  14.930 -0.7012  1.3074  2.4324
 3622SOL     OW22324   2.912   2.738   8.488 -0.2569  0.2516 -0.2648
 3622SOL    HW122325   2.885   2.748   8.579  2.4030 -3.4943  0.9255
 3622SOL    HW222326   2.974   2.812   8.489  0.2466 -0.1735  0.0627
 3623SOL     OW22327   3.234   0.752   8.968 -0.5878 -0.2266 -0.0040
 3623SOL    HW122328   3.295   0.715   8.903  1.5048  1.0086  1.2470
 3623SOL    HW222329   3.205   0.670   9.008  0.8426 -0.3245  0.8673
 3624SOL     OW22330   4.393   3.581   8.233 -0.5683  0.5341 -0.7063
 3624SOL    HW122331   4.455   3.516   8.199  1.3301  1.8532  0.2577
 3624SOL    HW222332   4.330   3.527   8.282  1.5139  2.4955  4.0764
 3625SOL     OW22333   0.901   0.274  10.753  0.3585  0.1582 -0.7489
 3625SOL    HW122334   0.831   0.327  10.792  0.5977  1.5278 -2.1969
 3625SOL    HW222335   0.879   0.185  10.781  1.3052  0.3913  0.7470
 3626SOL     OW22336   2.945   3.608   0.560 -0.1375  0.1625 -0.7199
 3626SOL    HW122337   2.890   3.540   0.600 -0.8087  0.3234 -1.3648
 3626SOL    HW222338   2.929   3.685   0.615 -1.3470 -1.4851  1.2559
 3627SOL     OW22339   0.474   1.171   5.508  0.1846 -0.5239  0.8156
 3627SOL    HW122340   0.468   1.177   5.603  0.0482  2.0827  0.6271
 3627SOL    HW222341   0.535   1.242   5.492  0.6730 -0.5184  2.7502
 3628SOL     OW22342   3.617   0.246   3.875 -0.4529 -0.3689 -0.1202
 3628SOL    HW122343   3.671   0.323   3.894  1.6737 -2.0210  0.5569
 3628SOL    HW222344   3.647   0.235   3.785  0.4120  1.1406 -0.0130
 3629SOL     OW22345   0.888   2.331   1.182 -1.0044 -0.5066 -1.2070
 3629SOL    HW122346   0.840   2.379   1.115  0.3139  2.7261  0.1801
 3629SOL    HW222347   0.968   2.382   1.193  1.0895 -3.7254 -1.3462
 3630SOL     OW22348   1.459   1.176   4.545  0.1499  0.3184  0.0770
 3630SOL    HW122349   1.529   1.124   4.506 -1.7046 -0.9029 -1.6432
 3630SOL    HW222350   1.440   1.227   4.466  2.5016 -0.4015 -0.9661
 3631SOL     OW22351   1.743   1.574  14.516 -0.0837 -0.3619 -0.0290
 3631SOL    HW122352   1.820   1.579  14.459  0.3527  2.0168  0.7589
 3631SOL    HW222353   1.682   1.624  14.462 -0.7038 -0.6547  0.4050
 3632SOL     OW22354   4.495   0.000  10.338 -0.0119  0.3022  0.0298
 3632SOL    HW122355   4.524   4.634  10.316  0.2249  0.1940  0.7932
 3632SOL    HW222356   4.459   4.700  10.423  1.1691  3.7143  1.4271
 3633SOL     OW22357   1.538   3.226  16.933  0.0422  0.1946 -0.5629
 3633SOL    HW122358   1.500   3.311  16.953  2.8238  0.9662  1.3552
 3633SOL    HW222359   1.628   3.238  16.963 -0.2393 -1.6888  1.0612
 3634SOL     OW22360   2.618   0.185   4.505  0.0152 -0.2096  0.0633
 3634SOL    HW122361   2.672   0.263   4.491 -0.3797 -0.0504 -0.5615
 3634SOL    HW222362   2.659   0.134   4.576  2.8042  0.5139 -1.0443
 3635SOL     OW22363   2.298   2.588   4.641 -0.2616  0.4318  0.4496
 3635SOL    HW122364   2.272   2.535   4.565  0.5610  1.4091 -0.5101
 3635SOL    HW222365   2.390   2.566   4.656 -0.4936 -1.1868 -0.5100
 3636SOL     OW22366   2.881   2.115   0.811  0.4648 -0.1356  0.6786
 3636SOL    HW122367   2.931   2.144   0.734 -1.0477 -2.0723 -1.0237
 3636SOL    HW222368   2.922   2.162   0.884 -1.3338  0.8189  1.0680
 3637SOL     OW22369   2.572   2.073  16.076 -0.0024 -0.2044 -0.2079
 3637SOL    HW122370   2.635   2.044  16.010 -0.3069  0.6988 -0.8967
 3637SOL    HW222371   2.609   2.148  16.122  2.4451  0.1037 -2.6530
 3638SOL     OW22372   1.515   0.416   2.708  0.7055  0.5406  0.3701
 3638SOL    HW122373   1.571   0.368   2.648  1.1894  0.5904  0.7828
 3638SOL    HW222374   1.478   0.488   2.657 -1.3663  0.1297  1.2937
 3639SOL     OW22375   2.140   1.752  12.737  0.1118  0.5992  0.3970
 3639SOL    HW122376   2.212   1.695  12.709  0.9611  2.6779 -1.7008
 3639SOL    HW222377   2.119   1.809  12.663  1.7145  1.0846  0.3095
 3640SOL     OW22378   2.035   2.489   5.828 -0.4577 -0.3069 -0.4959
 3640SOL    HW122379   2.097   2.498   5.755  1.4304 -2.3113  0.8634
 3640SOL    HW222380   1.959   2.544   5.812  0.8944  1.6383 -0.2984
 3641SOL     OW22381   1.819   3.664   3.552 -0.5285  0.7106 -0.1842
 3641SOL    HW122382   1.755   3.657   3.481 -2.5161  1.3944  1.5296
 3641SOL    HW222383   1.893   3.690   3.498 -1.8498  2.5460 -1.1365
 3642SOL     OW22384   4.143   0.108   7.734 -0.1335 -0.3749 -0.1741
 3642SOL    HW122385   4.079   0.040   7.715  2.3614 -3.1583  1.3733
 3642SOL    HW222386   4.218   0.065   7.774  1.1248  0.9464 -1.1033
 3643SOL     OW22387   1.448   0.111   8.549  0.6943  0.0888 -0.0856
 3643SOL    HW122388   1.378   0.048   8.568 -1.4679  1.9779 -1.7037
 3643SOL    HW222389   1.454   0.112   8.454 -0.7500  1.8265 -0.1744
 3644SOL     OW22390   3.274   4.375   3.670  0.0624 -0.3184 -0.4694
 3644SOL    HW122391   3.249   4.447   3.728 -2.3758 -0.9838 -0.7122
 3644SOL    HW222392   3.259   4.412   3.583  0.5726 -1.4775 -1.0475
 3645SOL     OW22393   0.219   2.258  10.714  0.1874 -0.6331  0.1903
 3645SOL    HW122394   0.294   2.307  10.682 -2.6534  3.2307 -0.6111
 3645SOL    HW222395   0.227   2.169  10.681 -2.4087  0.1186 -2.4876
 3646SOL     OW22396   1.011   4.298   3.910  0.4494 -0.5494 -0.2225
 3646SOL    HW122397   1.063   4.218   3.923  0.7054 -0.4753 -0.8230
 3646SOL    HW222398   0.952   4.260   3.976 -2.0860  1.9997 -1.0595
 3647SOL     OW22399   3.836   0.176  16.653 -0.0224  0.5701  0.0020
 3647SOL    HW122400   3.858   0.162  16.745  1.5883  1.3157 -0.2723
 3647SOL    HW222401   3.780   0.254  16.662 -0.5124  0.2821 -0.5598
 3648SOL     OW22402   4.141   1.353  12.248 -0.2996  0.2350 -0.6408
 3648SOL    HW122403   4.157   1.382  12.158  0.8188 -0.7331 -0.7624
 3648SOL    HW222404   4.227   1.330  12.285  0.6765  1.5370 -2.0913
 3649SOL     OW22405   0.834   1.843   7.234  0.1557  0.1366 -0.3078
 3649SOL    HW122406   0.775   1.789   7.287  1.8805 -2.7776 -1.3384
 3649SOL    HW222407   0.765   1.900   7.202 -1.4013 -2.5275 -1.7643
 3650SOL     OW22408   4.156   1.343   0.655  0.1617  0.3663 -0.0824
 3650SOL    HW122409   4.065   1.339   0.684  0.5591 -1.7470  0.8427
 3650SOL    HW222410   4.145   1.370   0.563 -0.6122  2.6689  0.6936
 3651SOL     OW22411   0.722   2.155   1.315  0.0192  0.0673  0.1876
 3651SOL    HW122412   0.795   2.215   1.303  1.4507 -1.5241  1.0907
 3651SOL    HW222413   0.648   2.212   1.293  0.4766 -0.0493 -1.5786
 3652SOL     OW22414   2.389   4.459   7.679  0.0056  0.1156 -0.0707
 3652SOL    HW122415   2.414   4.550   7.695 -1.2676  0.5361 -0.4975
 3652SOL    HW222416   2.338   4.431   7.755 -1.1822  0.7082 -0.6406
 3653SOL     OW22417   1.247   1.630   0.619 -0.1929 -0.1452  0.4303
 3653SOL    HW122418   1.269   1.537   0.612  0.1283 -0.0030 -0.4217
 3653SOL    HW222419   1.170   1.626   0.563 -0.0604  0.7966  0.1820
 3654SOL     OW22420   2.535   0.972   5.835 -0.0134  0.0639 -0.4248
 3654SOL    HW122421   2.479   1.025   5.892 -2.2599 -2.7302 -0.0486
 3654SOL    HW222422   2.466   0.926   5.788  0.3896 -0.0952 -0.8602
 3655SOL     OW22423   0.214   0.751   3.789 -0.4558  0.0126  0.2390
 3655SOL    HW122424   0.233   0.845   3.797 -2.5289  0.4967 -0.5081
 3655SOL    HW222425   0.302   0.717   3.802 -1.1272 -2.2182 -1.0168
 3656SOL     OW22426   3.461   2.377   7.012 -0.2569  0.2276  0.0690
 3656SOL    HW122427   3.462   2.331   7.096  0.1143 -0.0263 -0.0746
 3656SOL    HW222428   3.371   2.356   6.986 -0.3741  0.2353  0.4744
 3657SOL     OW22429   0.135   1.467   4.035 -0.2427  0.1615 -0.7493
 3657SOL    HW122430   0.207   1.526   4.057 -1.3390  1.5672 -0.9825
 3657SOL    HW222431   0.092   1.468   4.120  1.1461  1.9149 -0.0940
 3658SOL     OW22432   1.682   2.135  16.891  0.4344 -0.1661  0.1734
 3658SOL    HW122433   1.753   2.173  16.839  0.5169  0.4896  0.7668
 3658SOL    HW222434   1.628   2.211  16.912  1.0737 -0.2147  1.9898
 3659SOL     OW22435   3.820   0.092   4.083 -0.3680  0.0478 -0.4041
 3659SOL    HW122436   3.748   0.155   4.092 -0.2236  0.0085  0.9690
 3659SOL    HW222437   3.842   0.070   4.173 -2.8117  1.2781  0.5105
 3660SOL     OW22438   4.596   1.495  15.852  0.2711 -0.4500 -0.0067
 3660SOL    HW122439   4.589   1.479  15.758  2.2664  1.1573 -0.4337
 3660SOL    HW222440   4.691   1.491  15.864  0.3483 -1.8628 -1.1192
 3661SOL     OW22441   0.499   0.770   6.172  0.1691 -0.2603 -0.1225
 3661SOL    HW122442   0.462   0.853   6.204 -2.0332 -0.6256 -1.8144
 3661SOL    HW222443   0.538   0.800   6.090  0.1878 -2.5853 -0.9505
 3662SOL     OW22444   3.600   3.064   3.167  0.1322  0.4944  0.2139
 3662SOL    HW122445   3.558   3.020   3.242 -0.7662  2.2643  0.7596
 3662SOL    HW222446   3.532   3.116   3.125  1.3695  0.8975 -1.2661
 3663SOL     OW22447   3.933   0.774   2.070 -0.2033 -0.0248 -0.3806
 3663SOL    HW122448   3.897   0.827   2.141 -0.1459  1.0960 -1.1991
 3663SOL    HW222449   3.849   0.736   2.043  0.2987 -0.7411 -0.9299
 3664SOL     OW22450   0.103   0.420  15.938  0.2735  0.1308  0.5930
 3664SOL    HW122451   0.013   0.388  15.928  0.4069  0.1360 -0.7278
 3664SOL    HW222452   0.150   0.394  15.858  1.0626 -1.9060  1.7254
 3665SOL     OW22453   4.525   2.604   4.585  0.3982  0.0594  0.5520
 3665SOL    HW122454   4.593   2.568   4.528  0.7997 -0.4697  1.3744
 3665SOL    HW222455   4.468   2.653   4.525 -1.7328  1.2462  3.5359
 3666SOL     OW22456   3.505   3.101   1.197  0.4850  0.2558  0.1225
 3666SOL    HW122457   3.421   3.058   1.213 -1.1591  2.7150 -1.7285
 3666SOL    HW222458   3.521   3.118   1.290 -0.2699 -3.6006  0.9555
 3667SOL     OW22459   1.409   0.674  15.840  0.2184 -0.1574  0.4777
 3667SOL    HW122460   1.331   0.638  15.798  0.0817  1.1237 -0.3609
 3667SOL    HW222461   1.471   0.601  15.835 -1.8061 -2.0103  2.4033
 3668SOL     OW22462   0.500   3.964  10.008  0.4008  0.2494  0.0219
 3668SOL    HW122463   0.524   3.889  10.062 -0.1079  0.9004  1.1563
 3668SOL    HW222464   0.491   4.040  10.065  2.5733 -0.2761  1.0726
 3669SOL     OW22465   0.380   0.545   5.771 -0.2901  0.3680 -0.0629
 3669SOL    HW122466   0.436   0.622   5.764 -0.6746  0.5201 -1.4206
 3669SOL    HW222467   0.416   0.497   5.846 -0.5371 -1.6813 -1.2437
 3670SOL     OW22468   0.336   2.391  12.560 -0.0593  0.9985 -1.0134
 3670SOL    HW122469   0.282   2.348  12.627  1.5670 -3.5899 -2.6851
 3670SOL    HW222470   0.345   2.477  12.603 -0.9319 -0.1136  1.3781
 3671SOL     OW22471   2.498   1.985   1.025  0.2388 -0.4863 -0.1115
 3671SOL    HW122472   2.583   1.953   1.055 -0.0254 -2.7466 -1.8446
 3671SOL    HW222473   2.445   1.972   1.104  0.3476 -0.5932 -0.0560
 3672SOL     OW22474   3.661   1.065   4.643 -0.8926 -0.2693 -0.3110
 3672SOL    HW122475   3.693   1.140   4.694  1.9924 -1.9937  0.4172
 3672SOL    HW222476   3.712   1.074   4.563 -0.3446  2.0078  0.2797
 3673SOL     OW22477   4.280   0.908   5.226 -0.3567  0.3066  0.6211
 3673SOL    HW122478   4.330   0.938   5.150  2.1410 -3.3382  0.8402
 3673SOL    HW222479   4.329   0.828   5.244 -1.7576 -0.7276 -0.2226
 3674SOL     OW22480   2.301   0.387   7.902 -0.0123 -0.6640  0.1062
 3674SOL    HW122481   2.355   0.430   7.969  0.3022  0.2528 -0.7196
 3674SOL    HW222482   2.262   0.318   7.955 -0.8803  0.4106  0.8881
 3675SOL     OW22483   3.229   4.032   6.234  0.3731 -0.2880 -0.5327
 3675SOL    HW122484   3.188   4.095   6.294  0.1910 -2.0356  1.1823
 3675SOL    HW222485   3.169   3.958   6.240 -3.0706  2.4748 -0.5311
 3676SOL     OW22486   3.928   4.317  16.197  0.4522  0.3436  0.0757
 3676SOL    HW122487   3.942   4.411  16.202 -1.0239  0.3914  3.4530
 3676SOL    HW222488   3.837   4.312  16.226  0.4953  0.6933  0.2773
 3677SOL     OW22489   2.896   3.554   9.587 -0.0581 -0.7090 -0.5482
 3677SOL    HW122490   2.978   3.549   9.539 -0.8087  1.4144 -2.0335
 3677SOL    HW222491   2.920   3.557   9.680 -1.6112  0.1361 -0.1764
 3678SOL     OW22492   4.636   2.268   1.723  0.0732  0.0382  0.0281
 3678SOL    HW122493   4.642   2.228   1.810 -1.4694 -3.6624 -1.5479
 3678SOL    HW222494   4.544   2.244   1.711 -0.2964  0.7406  1.5824
 3679SOL     OW22495   4.295   2.030   9.553 -0.1068 -0.1527 -0.5830
 3679SOL    HW122496   4.332   2.098   9.496 -1.5352  0.0857 -1.2403
 3679SOL    HW222497   4.347   2.041   9.632  2.7289  1.7495 -2.7007
 3680SOL     OW22498   0.842   2.782   4.486  0.2171  0.2015 -0.2059
 3680SOL    HW122499   0.843   2.753   4.395  0.1859  0.8009 -0.3988
 3680SOL    HW222500   0.920   2.734   4.512 -1.3112 -1.1660  1.8598
 3681SOL     OW22501   1.698   2.297  11.568  0.6071 -0.0404 -0.0174
 3681SOL    HW122502   1.779   2.313  11.519  1.3023 -0.7668  0.9105
 3681SOL    HW222503   1.687   2.204  11.551 -1.2189  0.3938 -1.2620
 3682SOL     OW22504   1.905   2.604   9.221 -0.0812  0.2226  0.2628
 3682SOL    HW122505   1.835   2.539   9.216  0.3692 -0.2108 -0.3221
 3682SOL    HW222506   1.900   2.647   9.136  0.4239  0.9593  0.6037
 3683SOL     OW22507   2.906   0.677   4.338  0.0436  0.3489 -0.5135
 3683SOL    HW122508   2.957   0.716   4.267  2.5791  0.2419  1.2331
 3683SOL    HW222509   2.970   0.683   4.410  1.3519 -0.1462 -1.6280
 3684SOL     OW22510   2.257   3.783   6.012  0.5363  0.0423  0.6527
 3684SOL    HW122511   2.227   3.703   6.055 -1.8433  0.8627  0.5416
 3684SOL    HW222512   2.352   3.777   6.018  0.8353  2.8514 -1.4563
 3685SOL     OW22513   3.902   3.503   4.572  0.0483 -0.0084  0.3570
 3685SOL    HW122514   3.901   3.582   4.517  1.1983 -0.3874 -0.1987
 3685SOL    HW222515   3.979   3.517   4.627 -0.6137 -2.3188  1.8773
 3686SOL     OW22516   2.455   3.834   5.207 -0.0445  0.1807 -0.5272
 3686SOL    HW122517   2.495   3.921   5.204  2.0849 -0.8223 -1.1142
 3686SOL    HW222518   2.380   3.846   5.265  1.8357 -3.4659  2.5862
 3687SOL     OW22519   4.069   0.827   7.689  0.1402 -0.0674 -0.3844
 3687SOL    HW122520   4.113   0.877   7.757 -0.8952  1.4256 -0.8100
 3687SOL    HW222521   4.147   0.798   7.641  0.6990  0.8243 -0.0167
 3688SOL     OW22522   4.124   4.344  11.158 -0.2621  0.5813 -0.0403
 3688SOL    HW122523   4.166   4.258  11.154 -0.0473  0.6448  0.9730
 3688SOL    HW222524   4.057   4.324  11.093 -0.6504 -0.6880  0.7650
 3689SOL     OW22525   1.353   4.523   2.997  0.5527 -0.4146 -0.5486
 3689SOL    HW122526   1.384   4.593   2.940 -0.7449  1.0969  0.5898
 3689SOL    HW222527   1.418   4.454   2.986  2.0383  0.9939 -0.6844
 3690SOL     OW22528   0.286   1.190   1.698 -0.1430 -0.5092  0.1296
 3690SOL    HW122529   0.205   1.235   1.676  1.3963  2.3296  0.3061
 3690SOL    HW222530   0.303   1.137   1.620 -0.1884 -1.5222  0.8080
 3691SOL     OW22531   4.322   3.642  14.869 -0.1943 -0.3578 -0.2235
 3691SOL    HW122532   4.339   3.593  14.788  3.0300  0.0797  0.1817
 3691SOL    HW222533   4.248   3.697  14.845  0.3194  0.0244 -0.9452
 3692SOL     OW22534   3.296   4.373  11.435  0.3862 -0.0711  0.0406
 3692SOL    HW122535   3.274   4.388  11.343 -0.0194 -1.4540 -0.0927
 3692SOL    HW222536   3.383   4.412  11.442  1.1181 -1.9626  1.4089
 3693SOL     OW22537   0.427   1.654   7.322 -0.2240 -0.0132  0.2062
 3693SOL    HW122538   0.396   1.727   7.376  3.0411  1.2170  0.4399
 3693SOL    HW222539   0.416   1.691   7.234  3.5818  3.5126  1.2124
 3694SOL     OW22540   2.700   0.346  13.533 -0.4471  0.0765 -0.3289
 3694SOL    HW122541   2.673   0.285  13.465 -0.9014  0.2268 -0.2836
 3694SOL    HW222542   2.673   0.295  13.610  0.2570 -0.9895 -0.7903
 3695SOL     OW22543   1.727   1.411   7.517 -0.5844  0.6243  0.0643
 3695SOL    HW122544   1.740   1.378   7.428 -0.1716  0.4403  0.1931
 3695SOL    HW222545   1.641   1.372   7.532  0.1118 -1.2407 -0.8103
 3696SOL     OW22546   1.544   1.578  10.944  0.7539 -0.8938  0.3273
 3696SOL    HW122547   1.582   1.490  10.939  0.2671 -1.3009  3.5947
 3696SOL    HW222548   1.626   1.623  10.963  0.3663  0.6609 -1.6817
 3697SOL     OW22549   3.041   1.596   9.920 -0.0991  0.1843 -0.6204
 3697SOL    HW122550   2.996   1.668   9.874  0.8934  1.8464  1.0315
 3697SOL    HW222551   3.049   1.634  10.007  4.8686 -1.6192 -0.3333
 3698SOL     OW22552   0.268   2.985   8.761 -0.2307  0.0393  0.1219
 3698SOL    HW122553   0.357   3.008   8.734  0.5587 -2.2803  0.7649
 3698SOL    HW222554   0.254   3.044   8.836 -1.0118  0.5495 -0.4275
 3699SOL     OW22555   0.687   3.807   5.238  0.4783  0.5587  0.2968
 3699SOL    HW122556   0.753   3.780   5.302  0.0265 -1.2263  0.0134
 3699SOL    HW222557   0.682   3.722   5.194  1.3650  0.2107  0.8481
 3700SOL     OW22558   0.261   1.537   3.389  0.1239  0.0796 -0.0666
 3700SOL    HW122559   0.196   1.539   3.460  2.3528 -0.3685  2.0059
 3700SOL    HW222560   0.346   1.555   3.428 -1.1911  0.0259  2.8910
 3701SOL     OW22561   2.763   0.880   6.066 -0.5006  0.1147 -0.3344
 3701SOL    HW122562   2.794   0.970   6.079  1.5157 -0.6152 -0.2178
 3701SOL    HW222563   2.715   0.859   6.146 -0.5879  1.7280  0.0399
 3702SOL     OW22564   4.504   3.840   5.781 -0.2660  0.3967  0.2205
 3702SOL    HW122565   4.572   3.798   5.728  0.1158  0.9568  0.2630
 3702SOL    HW222566   4.554   3.917   5.808  1.0524 -0.8561  1.3865
 3703SOL     OW22567   0.876   3.451   6.856 -0.3057  0.4397  0.2439
 3703SOL    HW122568   0.803   3.513   6.862  0.0822  0.9605 -0.3822
 3703SOL    HW222569   0.943   3.510   6.891 -0.7928  2.3960 -2.1238
 3704SOL     OW22570   3.247   4.096   2.506  0.2536 -0.2506  0.2422
 3704SOL    HW122571   3.166   4.118   2.553  1.0563  0.4515  1.2878
 3704SOL    HW222572   3.256   4.002   2.525  0.4359 -0.3358 -0.2834
 3705SOL     OW22573   3.688   3.750   9.460 -0.2923  0.1643 -0.0865
 3705SOL    HW122574   3.675   3.842   9.482 -1.5606 -0.0972  0.2759
 3705SOL    HW222575   3.641   3.734   9.378 -1.8045  1.1456  0.5968
 3706SOL     OW22576   3.911   0.372   9.548 -0.1648 -0.1169 -0.0694
 3706SOL    HW122577   3.903   0.451   9.602  1.0409  0.7781 -1.2041
 3706SOL    HW222578   3.887   0.419   9.469  1.3815  0.2659 -0.3227
 3707SOL     OW22579   2.518   0.490  14.833 -0.2439  0.0239 -0.2431
 3707SOL    HW122580   2.532   0.508  14.740  1.1615  2.1769  0.3681
 3707SOL    HW222581   2.445   0.549  14.852 -1.5117 -1.2185 -1.2736
 3708SOL     OW22582   2.668   1.017   2.185  0.5700 -0.3718 -0.3112
 3708SOL    HW122583   2.693   1.045   2.273  1.5901  0.4484 -0.8601
 3708SOL    HW222584   2.588   1.068   2.178 -0.9001 -2.3986  1.6980
 3709SOL     OW22585   1.389   1.008   6.779 -0.2797  0.0231  0.0166
 3709SOL    HW122586   1.313   0.951   6.781 -0.6968  0.5555 -0.6749
 3709SOL    HW222587   1.417   1.011   6.871  0.3577 -2.1125 -0.1145
 3710SOL     OW22588   1.942   0.572   4.009 -0.1002  0.1688 -0.3492
 3710SOL    HW122589   1.940   0.515   4.086 -1.9983 -1.3485 -1.5200
 3710SOL    HW222590   1.981   0.508   3.950  4.1857  0.8780  1.6834
 3711SOL     OW22591   3.710   2.874  16.538 -0.3707 -0.0727  0.2864
 3711SOL    HW122592   3.673   2.959  16.560 -0.4229  0.1801 -0.7722
 3711SOL    HW222593   3.648   2.817  16.584 -1.0518 -0.1837 -0.7615
 3712SOL     OW22594   2.736   0.178   1.485 -0.1174  0.1548 -0.8710
 3712SOL    HW122595   2.820   0.223   1.473 -0.1633  0.5938  0.4125
 3712SOL    HW222596   2.754   0.142   1.572 -0.3119 -1.7430 -1.6360
 3713SOL     OW22597   1.626   2.095   2.967 -0.5150  0.1534 -0.0518
 3713SOL    HW122598   1.647   2.051   3.049 -1.0455 -0.7959 -0.4217
 3713SOL    HW222599   1.531   2.086   2.967 -0.5411  0.4625 -1.2694
 3714SOL     OW22600   2.105   2.128  13.381 -0.2439  0.3939 -0.2266
 3714SOL    HW122601   2.153   2.092  13.456  1.0548  0.6787 -0.9145
 3714SOL    HW222602   2.156   2.206  13.357  0.6469 -0.6070 -1.5420
 3715SOL     OW22603   1.440   3.058   0.177  0.4282  0.1274 -0.0989
 3715SOL    HW122604   1.391   2.982   0.209  0.3196  0.1619 -0.1808
 3715SOL    HW222605   1.452   3.011   0.094  1.5364 -0.5739  0.4683
 3716SOL     OW22606   2.694   2.571   5.109  0.0750 -0.3097  0.6331
 3716SOL    HW122607   2.604   2.539   5.111  0.3528 -0.9692  2.5305
 3716SOL    HW222608   2.701   2.620   5.026 -2.3599 -2.5715 -0.8787
 3717SOL     OW22609   3.740   3.793   5.288 -0.0229 -0.2068  0.1648
 3717SOL    HW122610   3.652   3.771   5.258  0.2882 -0.4649 -0.5466
 3717SOL    HW222611   3.794   3.716   5.272  0.2766  0.0259  0.0576
 3718SOL     OW22612   4.521   0.069   4.545 -0.4424  0.1123 -0.1239
 3718SOL    HW122613   4.491   0.081   4.455 -0.1841  1.2899 -0.0546
 3718SOL    HW222614   4.616   0.074   4.532 -0.2463 -0.3107  1.1413
 3719SOL     OW22615   1.956   0.669   4.562 -0.2525 -0.3041  0.1091
 3719SOL    HW122616   1.904   0.714   4.496 -0.1232 -0.3438 -0.0193
 3719SOL    HW222617   2.046   0.701   4.560 -0.0211 -0.8720  1.2966
 3720SOL     OW22618   1.706   1.694  10.682  0.9947  0.2314 -0.0639
 3720SOL    HW122619   1.726   1.678  10.774 -0.4628  1.0418  0.3925
 3720SOL    HW222620   1.740   1.618  10.635 -1.3583 -0.0941 -1.2523
 3721SOL     OW22621   3.230   4.088  10.982 -0.5152  0.2710  0.6334
 3721SOL    HW122622   3.150   4.067  10.933  0.5098 -1.7235 -0.1895
 3721SOL    HW222623   3.192   4.085  11.069 -0.8978  1.1000  0.4968
 3722SOL     OW22624   2.220   4.363  14.476 -0.1424  0.5801  0.2504
 3722SOL    HW122625   2.300   4.412  14.462 -0.5160  1.1335  0.0502
 3722SOL    HW222626   2.196   4.342  14.386  1.9190  0.4205 -0.2521
 3723SOL     OW22627   2.678   4.452   0.418  0.0458  0.3423  0.2035
 3723SOL    HW122628   2.771   4.458   0.438 -0.0501  2.2062  0.1431
 3723SOL    HW222629   2.670   4.399   0.338  0.3092 -0.0069  0.4148
 3724SOL     OW22630   4.425   2.348   1.101 -0.1440 -0.4812 -0.1796
 3724SOL    HW122631   4.364   2.377   1.033 -1.6064 -0.5213  1.1193
 3724SOL    HW222632   4.509   2.375   1.065 -0.5429  0.7839 -0.1626
 3725SOL     OW22633   2.414   1.247  13.915  0.3328 -0.1547  0.3356
 3725SOL    HW122634   2.336   1.204  13.881 -1.5656  1.8982  2.0614
 3725SOL    HW222635   2.374   1.334  13.910 -0.0683 -0.4301 -1.0007
 3726SOL     OW22636   4.026   0.966   9.848 -0.3279 -0.4367 -0.1125
 3726SOL    HW122637   3.955   0.933   9.903  1.3348 -0.8225  1.8144
 3726SOL    HW222638   3.999   0.968   9.756  0.3581  1.1924 -0.2719
 3727SOL     OW22639   0.866   3.396   5.947 -0.4034 -0.5124 -0.3832
 3727SOL    HW122640   0.814   3.438   6.015 -0.1032 -0.0338 -0.4444
 3727SOL    HW222641   0.796   3.393   5.882  0.3881 -0.7426 -1.2286
 3728SOL     OW22642   3.084   1.096   2.204  0.1281  0.7314 -0.2014
 3728SOL    HW122643   3.036   1.041   2.142  0.2069 -2.1086  2.2227
 3728SOL    HW222644   3.040   1.178   2.182 -0.1743  0.1086 -1.8943
 3729SOL     OW22645   2.379   4.054   3.386  0.3265  0.1305 -0.2161
 3729SOL    HW122646   2.409   3.966   3.365 -1.4879 -0.8005  1.1022
 3729SOL    HW222647   2.418   4.071   3.472  0.7444 -1.0084 -0.1852
 3730SOL     OW22648   2.055   4.676   5.991 -0.5368  0.0154 -0.3618
 3730SOL    HW122649   2.109   4.702   6.065 -0.0827 -3.2534  0.4113
 3730SOL    HW222650   1.995   0.028   5.989  2.3245  2.3914  1.0760
 3731SOL     OW22651   4.039   1.141   8.961  0.3208  0.1329  0.6622
 3731SOL    HW122652   4.043   1.102   8.873 -2.6612 -0.7001  0.8883
 3731SOL    HW222653   4.097   1.217   8.952 -0.8289  1.0328  0.8478
 3732SOL     OW22654   2.950   2.661   3.786  0.1625 -0.4814  0.1668
 3732SOL    HW122655   2.860   2.672   3.756 -0.2431 -1.5852  0.9523
 3732SOL    HW222656   2.935   2.601   3.859 -0.0679  0.3690  0.8151
 3733SOL     OW22657   3.443   0.838  11.815 -0.3205  0.4130  0.1676
 3733SOL    HW122658   3.379   0.827  11.745 -0.4434  1.2915  0.1384
 3733SOL    HW222659   3.422   0.929  11.838 -0.8543 -0.0319  1.4225
 3734SOL     OW22660   4.627   3.098  14.874  0.3344 -0.0260  0.3217
 3734SOL    HW122661   4.662   3.147  14.799  2.0870 -0.0202  1.1510
 3734SOL    HW222662   4.534   3.115  14.857  0.0094 -2.2604 -0.1706
 3735SOL     OW22663   0.040   1.300  13.024 -0.3408 -0.4120  0.1540
 3735SOL    HW122664   4.671   1.272  13.027 -1.4225  2.9763 -1.2635
 3735SOL    HW222665   0.088   1.217  13.018 -0.5828 -0.4015 -1.6504
 3736SOL     OW22666   0.443   0.745  10.534  0.1879 -0.1367  0.8324
 3736SOL    HW122667   0.503   0.784  10.470  0.3268 -1.7436 -0.0039
 3736SOL    HW222668   0.489   0.776  10.612 -2.9841 -0.3125  2.7490
 3737SOL     OW22669   0.069   1.606   9.100  0.4507 -0.4881 -0.0886
 3737SOL    HW122670   4.704   1.590   9.135  0.4060  0.3749  0.1987
 3737SOL    HW222671   0.091   1.691   9.138  2.5946  0.6755 -3.9172
 3738SOL     OW22672   2.602   0.198   5.782  0.4017  0.0483  0.4935
 3738SOL    HW122673   2.627   0.277   5.829  0.1346 -0.9625  2.3377
 3738SOL    HW222674   2.691   0.165   5.767  0.7617  0.6214  1.3633
 3739SOL     OW22675   0.200   2.083  16.123 -0.2015 -0.3468  0.3049
 3739SOL    HW122676   0.114   2.054  16.154 -0.7932  0.2763 -0.7601
 3739SOL    HW222677   0.194   2.033  16.041  1.6304  0.8658 -0.5468
 3740SOL     OW22678   4.209   4.265  15.061 -0.3845 -0.1418 -0.1148
 3740SOL    HW122679   4.115   4.261  15.044 -0.4724 -1.8027  0.7514
 3740SOL    HW222680   4.205   4.291  15.153  0.6384 -1.6504  0.3689
 3741SOL     OW22681   3.671   1.685  16.161  0.2785  0.4998 -0.3595
 3741SOL    HW122682   3.719   1.605  16.142 -4.4884 -2.1307 -1.0890
 3741SOL    HW222683   3.581   1.655  16.167  1.0388 -1.5880  0.3864
 3742SOL     OW22684   0.359   3.015   3.505  0.0193  0.6183  0.1931
 3742SOL    HW122685   0.281   3.063   3.533 -1.5772 -1.4840 -0.6694
 3742SOL    HW222686   0.388   3.079   3.440  2.0710 -0.1641  0.3353
 3743SOL     OW22687   2.623   0.651   5.609 -0.7518 -0.1030  0.6736
 3743SOL    HW122688   2.536   0.621   5.584 -1.9936  2.1053  2.3586
 3743SOL    HW222689   2.628   0.643   5.704 -1.2259 -1.2538  0.6099
 3744SOL     OW22690   2.654   0.150   8.225  0.1908  0.5440  0.6270
 3744SOL    HW122691   2.746   0.124   8.222 -0.3921 -1.4970  0.0679
 3744SOL    HW222692   2.631   0.179   8.313  1.9836  2.7025  0.3665
 3745SOL     OW22693   3.639   0.944  12.016 -0.0756 -0.1005 -0.7069
 3745SOL    HW122694   3.617   0.882  11.946  0.2682 -0.5259 -0.4379
 3745SOL    HW222695   3.570   1.008  12.000  1.2023  1.3952 -0.1528
 3746SOL     OW22696   0.640   4.005   3.815 -0.4792 -0.6081  0.1419
 3746SOL    HW122697   0.702   4.078   3.826  0.9719 -1.8507  0.2391
 3746SOL    HW222698   0.650   3.991   3.720 -1.4391  0.3775 -0.1004
 3747SOL     OW22699   0.624   0.493   8.667  0.1436 -0.0513  0.5821
 3747SOL    HW122700   0.623   0.539   8.583  0.2276 -2.1289 -0.5342
 3747SOL    HW222701   0.711   0.521   8.697  0.1372  1.1565 -0.4982
 3748SOL     OW22702   3.714   2.977   8.375  0.4403 -0.2043  0.0591
 3748SOL    HW122703   3.664   3.058   8.377  1.4722  0.4353 -0.3774
 3748SOL    HW222704   3.785   2.998   8.435 -0.8065 -1.7668  2.1043
 3749SOL     OW22705   4.707   2.192   6.199 -0.0298 -0.0978 -0.1591
 3749SOL    HW122706   4.711   2.287   6.187 -1.1741 -0.5198 -3.9940
 3749SOL    HW222707   4.696   2.157   6.110 -0.5907 -0.8086  0.1868
 3750SOL     OW22708   3.313   3.755   3.636 -0.5450 -0.7638 -0.4311
 3750SOL    HW122709   3.220   3.775   3.627  0.1871  2.7473 -0.3220
 3750SOL    HW222710   3.307   3.660   3.640 -1.0143 -0.7100  0.0852
 3751SOL     OW22711   0.273   2.417   6.484  0.4997 -0.0808  0.7702
 3751SOL    HW122712   0.222   2.433   6.564 -1.1046  3.0477 -0.8804
 3751SOL    HW222713   0.311   2.330   6.498  1.7220  0.2918 -0.2589
 3752SOL     OW22714   2.976   3.350   9.236 -0.1891  0.6515  0.0635
 3752SOL    HW122715   2.899   3.389   9.195 -0.7866 -0.7558 -0.1495
 3752SOL    HW222716   2.945   3.263   9.258  0.2486  1.0465  2.2972
 3753SOL     OW22717   4.576   4.325  11.136  0.5327  0.1038  0.2435
 3753SOL    HW122718   4.517   4.311  11.062 -0.5151 -1.9887  1.4756
 3753SOL    HW222719   4.515   4.321  11.210 -0.2008  0.1840 -0.3540
 3754SOL     OW22720   3.607   3.823   8.166 -0.1478 -0.2781 -0.6889
 3754SOL    HW122721   3.526   3.803   8.212  0.3098 -2.2213 -0.7276
 3754SOL    HW222722   3.634   3.734   8.143 -4.8924 -1.6004 -1.2252
 3755SOL     OW22723   3.732   3.252  15.826 -0.1988 -0.2366 -0.0268
 3755SOL    HW122724   3.753   3.169  15.868 -3.5775 -1.3110 -0.4616
 3755SOL    HW222725   3.719   3.310  15.901 -2.3349  0.7026 -1.1269
 3756SOL     OW22726   1.102   4.661   3.408  0.1033 -0.2066  0.0447
 3756SOL    HW122727   1.134   4.706   3.487 -0.2438 -1.4683  0.9106
 3756SOL    HW222728   1.172   4.680   3.346 -0.5623  1.2166 -0.2627
 3757SOL     OW22729   1.722   0.944   8.288 -0.3119  0.4620 -0.9841
 3757SOL    HW122730   1.638   0.984   8.309  0.5302  1.0306  1.3053
 3757SOL    HW222731   1.725   0.875   8.354 -1.1713  1.8830  0.5419
 3758SOL     OW22732   3.835   4.330   3.865 -0.0078  0.0525  0.1033
 3758SOL    HW122733   3.884   4.265   3.914  0.2402 -1.1330 -1.7137
 3758SOL    HW222734   3.790   4.377   3.935 -1.1974 -1.8433  0.6207
 3759SOL     OW22735   2.823   1.263   7.931 -0.1489 -0.1001  0.5091
 3759SOL    HW122736   2.828   1.167   7.930  1.2891 -0.0381  0.8388
 3759SOL    HW222737   2.782   1.289   7.849 -2.0433  1.2591  1.9073
 3760SOL     OW22738   3.919   4.089   7.466  0.1399  0.4941  0.1296
 3760SOL    HW122739   3.842   4.107   7.519 -1.5364 -1.1408 -1.6973
 3760SOL    HW222740   3.992   4.097   7.526  0.0628 -0.3648  0.3448
 3761SOL     OW22741   2.262   0.412   2.509  0.0341  0.6340 -0.0525
 3761SOL    HW122742   2.229   0.491   2.464 -1.4951 -0.4300 -0.7778
 3761SOL    HW222743   2.357   0.427   2.513  0.2238  0.1472 -2.2259
 3762SOL     OW22744   3.938   4.250  15.078 -0.3348  0.3623 -0.6575
 3762SOL    HW122745   3.896   4.197  15.145 -0.9252  0.5253 -0.8953
 3762SOL    HW222746   3.866   4.297  15.036 -0.2352  0.7835 -0.3615
 3763SOL     OW22747   0.576   1.817   2.700  0.5531 -0.8982  0.2837
 3763SOL    HW122748   0.659   1.772   2.712 -0.6625 -3.0248  0.6828
 3763SOL    HW222749   0.602   1.905   2.673 -0.1918  0.5692  4.3928
 3764SOL     OW22750   4.695   1.461   4.564 -0.0481 -0.2142 -0.3437
 3764SOL    HW122751   4.687   1.541   4.616  1.8688 -0.8364  0.9131
 3764SOL    HW222752   0.009   1.401   4.630  0.4253 -0.4134 -0.7914
 3765SOL     OW22753   2.586   3.364   0.771  0.4650 -0.2257 -0.4772
 3765SOL    HW122754   2.502   3.377   0.726 -0.4658  3.4469  2.3163
 3765SOL    HW222755   2.554   3.357   0.861  0.3377  1.4863 -0.3805
 3766SOL     OW22756   1.546   0.736   7.166 -0.7426 -0.4278 -0.4518
 3766SOL    HW122757   1.629   0.711   7.207 -0.6601  1.8449  0.7802
 3766SOL    HW222758   1.580   0.729   7.077 -0.6038  0.1997 -0.4502
 3767SOL     OW22759   0.160   3.618   1.102 -0.6694 -0.0314 -0.2961
 3767SOL    HW122760   0.170   3.544   1.043 -2.1232  0.4139 -1.1234
 3767SOL    HW222761   0.249   3.625   1.136 -1.2271  0.3137  1.0913
 3768SOL     OW22762   2.262   1.525  10.586  0.1383  0.1511 -0.6024
 3768SOL    HW122763   2.186   1.579  10.568  1.4018  1.7774 -1.0812
 3768SOL    HW222764   2.266   1.534  10.681  0.2724 -1.7068 -0.4290
 3769SOL     OW22765   3.747   0.222  15.848  0.4582 -0.5637 -0.2227
 3769SOL    HW122766   3.826   0.249  15.800 -0.0587  1.6539  0.1677
 3769SOL    HW222767   3.673   0.219  15.787 -0.5877  2.9371  0.8203
 3770SOL     OW22768   1.832   4.185  11.711 -0.1938 -0.4089  0.5686
 3770SOL    HW122769   1.852   4.134  11.633 -0.3788  1.0957 -0.4751
 3770SOL    HW222770   1.910   4.237  11.733 -1.9797  3.1388 -1.6166
 3771SOL     OW22771   2.478   2.990  15.242 -0.3835  0.1478  0.2856
 3771SOL    HW122772   2.387   3.016  15.227 -0.2432  0.9117  0.7696
 3771SOL    HW222773   2.532   3.060  15.205  1.2629  0.2343  2.8607
 3772SOL     OW22774   3.364   2.700  15.719 -0.6117 -0.5146  0.1314
 3772SOL    HW122775   3.376   2.625  15.661  1.3219 -0.9923  1.1575
 3772SOL    HW222776   3.445   2.749  15.709 -0.5590 -0.3009  1.5142
 3773SOL     OW22777   0.620   2.035   6.438 -0.4757  0.3915  0.9769
 3773SOL    HW122778   0.703   2.041   6.486 -0.3065 -0.7618  0.8316
 3773SOL    HW222779   0.631   1.952   6.392 -1.0502  0.3684  0.8901
 3774SOL     OW22780   3.950   1.804   7.436 -0.4276  0.2016  0.1061
 3774SOL    HW122781   3.859   1.823   7.458 -0.2779 -0.8958  1.6869
 3774SOL    HW222782   3.932   1.747   7.361  0.9730  0.6600 -0.5797
 3775SOL     OW22783   3.828   2.147   3.311 -0.3764  0.2355 -0.0460
 3775SOL    HW122784   3.898   2.083   3.324 -2.7529 -2.0343  1.5166
 3775SOL    HW222785   3.859   2.229   3.350  1.3259 -0.4559  0.0772
 3776SOL     OW22786   0.829   1.279  10.782 -0.1656 -0.2374 -0.4081
 3776SOL    HW122787   0.781   1.316  10.856 -0.2042  0.8250 -0.9687
 3776SOL    HW222788   0.790   1.191  10.785 -0.9238  0.1323  0.5084
 3777SOL     OW22789   2.978   2.457   1.440  0.1476  0.5116  0.2808
 3777SOL    HW122790   3.041   2.530   1.434  0.2295  0.3073 -1.3023
 3777SOL    HW222791   3.035   2.387   1.408 -0.1242  0.4891 -0.1474
 3778SOL     OW22792   3.222   1.322   8.945 -0.1767  0.0048 -0.1785
 3778SOL    HW122793   3.242   1.343   9.036  2.1020  0.6828 -0.8362
 3778SOL    HW222794   3.283   1.254   8.914  1.5226  0.6054  1.8378
 3779SOL     OW22795   2.199   4.259   4.076  0.1071  0.2817 -0.3477
 3779SOL    HW122796   2.146   4.308   4.013 -2.9557 -0.9024  1.3613
 3779SOL    HW222797   2.157   4.173   4.077  0.2068  0.2683  1.8622
 3780SOL     OW22798   4.047   4.147   3.570  0.3028 -0.0363 -0.2900
 3780SOL    HW122799   3.963   4.113   3.539  1.9302 -1.9112 -2.7064
 3780SOL    HW222800   4.071   4.071   3.622  0.1476  1.1057  1.4354
 3781SOL     OW22801   1.039   1.250   2.782 -0.3995 -0.1509 -0.1661
 3781SOL    HW122802   0.956   1.264   2.737 -1.1596 -0.3266  1.1787
 3781SOL    HW222803   1.023   1.174   2.838  0.3062  0.5420  0.9793
 3782SOL     OW22804   1.930   3.152   3.358  0.0571  0.2746 -0.2547
 3782SOL    HW122805   1.913   3.242   3.329  0.9214  0.6760  0.5251
 3782SOL    HW222806   1.876   3.159   3.436 -0.0002  0.6426 -0.3286
 3783SOL     OW22807   2.079   3.845   7.474 -0.0213  0.5533 -0.5213
 3783SOL    HW122808   2.132   3.821   7.550 -1.8891  0.2778  0.6796
 3783SOL    HW222809   1.992   3.818   7.501  0.5242  0.7334  1.3971
 3784SOL     OW22810   3.914   4.146   7.860 -0.6592 -0.4472  0.6011
 3784SOL    HW122811   3.921   4.062   7.815  2.8735  0.2954 -0.2697
 3784SOL    HW222812   3.820   4.147   7.878 -1.2037  1.3232 -2.4635
 3785SOL     OW22813   1.718   4.179   1.353  0.3358 -0.4591  0.2822
 3785SOL    HW122814   1.757   4.116   1.293  0.6469 -0.7826  0.8203
 3785SOL    HW222815   1.665   4.241   1.302  0.0876 -0.5159  0.4692
 3786SOL     OW22816   4.097   3.284   5.126 -0.6902 -0.0654  0.1933
 3786SOL    HW122817   4.113   3.344   5.199  2.8334 -0.3972 -0.3104
 3786SOL    HW222818   4.188   3.268   5.103  0.3402  3.2395  2.0182
 3787SOL     OW22819   1.344   4.590   3.251 -0.3017 -0.1818  0.4908
 3787SOL    HW122820   1.329   4.564   3.160 -3.7672  0.3567  0.9077
 3787SOL    HW222821   1.395   4.516   3.283 -1.0882 -0.2298  1.6341
 3788SOL     OW22822   1.961   4.309  11.345  0.1836 -0.5268 -0.1586
 3788SOL    HW122823   1.890   4.368  11.371  0.8662  1.1852 -2.1538
 3788SOL    HW222824   1.934   4.278  11.259  1.2472 -0.2965 -0.5629
 3789SOL     OW22825   1.324   3.767  14.102 -0.2055 -0.2340 -0.2170
 3789SOL    HW122826   1.276   3.829  14.156  0.4970 -0.6697  0.9268
 3789SOL    HW222827   1.322   3.816  14.020 -0.3231  0.3342  0.1221
 3790SOL     OW22828   0.952   2.583   0.864  0.2741 -0.1407 -0.2829
 3790SOL    HW122829   0.860   2.557   0.864  0.1459  0.3412 -1.6393
 3790SOL    HW222830   0.993   2.497   0.877  0.1066 -0.0499  0.8203
 3791SOL     OW22831   4.236   1.895   3.798  0.2818 -0.1838 -0.5108
 3791SOL    HW122832   4.310   1.861   3.748  2.5727  2.6625  0.9899
 3791SOL    HW222833   4.167   1.876   3.734 -0.8172  0.3794  0.5170
 3792SOL     OW22834   4.653   2.224   8.146 -0.5466  0.1033 -0.1737
 3792SOL    HW122835   4.705   2.284   8.199  0.9603 -1.8900  0.6230
 3792SOL    HW222836   4.638   2.276   8.068 -1.3226 -0.1849 -0.2136
 3793SOL     OW22837   1.684   0.116   4.917 -0.0559  0.0145 -0.7273
 3793SOL    HW122838   1.700   0.128   5.011  1.2522 -0.9711 -0.8254
 3793SOL    HW222839   1.620   0.047   4.927  0.4086 -0.1341  1.2516
 3794SOL     OW22840   2.238   1.606   4.004 -0.0481 -0.0957  0.6184
 3794SOL    HW122841   2.144   1.592   3.990  0.2898  0.1867 -1.9955
 3794SOL    HW222842   2.278   1.545   3.942  0.5528  0.8223  0.1117
 3795SOL     OW22843   0.359   2.891   1.144 -0.0654 -0.7092  0.3190
 3795SOL    HW122844   0.296   2.868   1.212 -0.7689  1.6468  0.4624
 3795SOL    HW222845   0.404   2.964   1.187 -2.3484 -0.0264  1.5322
 3796SOL     OW22846   0.165   1.300   5.886  0.0515 -0.0587 -0.1072
 3796SOL    HW122847   0.195   1.227   5.832  2.4965  3.7131 -3.8347
 3796SOL    HW222848   0.131   1.361   5.820 -2.0051 -0.2558  0.7584
 3797SOL     OW22849   2.940   3.904  14.266  0.1032 -0.4299 -0.3165
 3797SOL    HW122850   2.890   3.973  14.310 -1.1462 -0.0012 -2.4051
 3797SOL    HW222851   3.033   3.923  14.280 -0.0602  1.3446 -1.5320
 3798SOL     OW22852   1.948   3.357   2.484 -0.2766 -0.1495 -0.5603
 3798SOL    HW122853   1.995   3.289   2.437  0.5411  0.9544 -1.3192
 3798SOL    HW222854   2.023   3.390   2.533 -1.0541 -0.4719  0.8768
 3799SOL     OW22855   2.234   0.421   2.999  0.3749  0.0545  0.6678
 3799SOL    HW122856   2.241   0.455   3.088 -2.2203  1.6738  0.2744
 3799SOL    HW222857   2.310   0.459   2.954  0.0639 -2.9796 -2.4731
 3800SOL     OW22858   3.382   1.676  12.854  0.2047 -0.1815 -0.0740
 3800SOL    HW122859   3.452   1.623  12.891  3.2429  2.5943 -1.9394
 3800SOL    HW222860   3.368   1.736  12.928  0.1972 -1.2743  0.8190
 3801SOL     OW22861   2.311   2.133  16.352 -0.2848  0.0042  0.2994
 3801SOL    HW122862   2.261   2.052  16.361 -2.6453  1.7462  2.8043
 3801SOL    HW222863   2.377   2.139  16.421 -0.2420  2.0117  0.0967
 3802SOL     OW22864   0.350   1.401   6.062  0.3581  0.3182 -0.2362
 3802SOL    HW122865   0.358   1.487   6.022 -2.0606  1.5438  1.9632
 3802SOL    HW222866   0.305   1.354   5.992 -0.2111  1.3223 -0.5391
 3803SOL     OW22867   4.147   4.039   2.397 -0.5209  0.4252 -0.2230
 3803SOL    HW122868   4.136   4.001   2.484  2.3423  0.2948  0.0910
 3803SOL    HW222869   4.213   3.980   2.358 -1.4282 -0.3567 -0.5714
 3804SOL     OW22870   3.434   1.735   4.506  0.2158  0.8887  0.6267
 3804SOL    HW122871   3.527   1.749   4.485 -0.1717  2.7838  0.1562
 3804SOL    HW222872   3.432   1.641   4.522  0.5506  0.5753 -1.1698
 3805SOL     OW22873   3.788   3.186  11.517  0.3374 -0.1810 -0.5162
 3805SOL    HW122874   3.808   3.166  11.608  0.5573  3.6495  0.2776
 3805SOL    HW222875   3.874   3.193  11.474 -0.4109  2.0296 -1.6772
 3806SOL     OW22876   0.192   0.818   4.395 -0.1530 -0.0644  0.9400
 3806SOL    HW122877   0.129   0.853   4.333 -0.9549 -0.0574  1.7563
 3806SOL    HW222878   0.211   0.731   4.360 -0.6628  0.9990 -1.9512
 3807SOL     OW22879   1.330   3.251  13.578  0.1030 -0.1691 -0.4478
 3807SOL    HW122880   1.306   3.267  13.669  0.8016  1.4983 -0.5454
 3807SOL    HW222881   1.408   3.197  13.580 -0.6892 -1.3308 -0.9764
 3808SOL     OW22882   4.256   0.894   7.076  0.1772  0.0946  0.0025
 3808SOL    HW122883   4.295   0.946   7.146 -0.0893  0.0777  0.1619
 3808SOL    HW222884   4.250   0.805   7.112  1.3423  0.2457  0.5600
 3809SOL     OW22885   3.691   2.127  15.196 -0.2377  0.0377  0.3254
 3809SOL    HW122886   3.700   2.133  15.101  1.1297  0.6612  0.4932
 3809SOL    HW222887   3.728   2.042  15.221 -2.1758 -1.0336 -0.4714
 3810SOL     OW22888   3.197   4.316   4.134  0.5172 -0.0997  0.4354
 3810SOL    HW122889   3.271   4.283   4.083  0.9637  0.2275  0.8733
 3810SOL    HW222890   3.255   4.354   4.200 -2.1114  3.0889  0.9259
 3811SOL     OW22891   0.724   0.601   4.698  0.0611  0.1196  0.3719
 3811SOL    HW122892   0.799   0.659   4.686 -0.7409  1.3431  1.2067
 3811SOL    HW222893   0.721   0.615   4.793  0.8391  1.6639  0.1682
 3812SOL     OW22894   0.868   0.628   8.296 -0.1261  0.4955  0.0249
 3812SOL    HW122895   0.839   0.588   8.214  1.3765  0.9514 -0.7263
 3812SOL    HW222896   0.923   0.559   8.334  0.2732  0.4626 -0.6240
 3813SOL     OW22897   1.698   2.331   2.872 -0.2670  0.0515 -0.5198
 3813SOL    HW122898   1.771   2.298   2.820  0.8433  0.7578  0.5890
 3813SOL    HW222899   1.650   2.250   2.891 -0.1642  0.7628  2.9021
 3814SOL     OW22900   2.029   0.467   7.474  0.4703  0.2528 -0.0718
 3814SOL    HW122901   2.101   0.445   7.534 -0.4751 -1.2626  0.5162
 3814SOL    HW222902   1.994   0.381   7.452  0.0448  0.2487  0.5965
 3815SOL     OW22903   3.493   1.762   6.462  0.3349 -0.0250  0.5356
 3815SOL    HW122904   3.489   1.667   6.461 -0.6645  0.0197  0.5630
 3815SOL    HW222905   3.531   1.785   6.377  0.5443 -0.9854  0.3719
 3816SOL     OW22906   2.225   0.258   7.035  0.1570  0.4891  0.2464
 3816SOL    HW122907   2.154   0.206   7.071 -1.7499  0.2001 -3.8829
 3816SOL    HW222908   2.298   0.203   7.064 -0.1171 -0.1107 -0.1839
 3817SOL     OW22909   0.473   3.683   0.584 -0.1210 -0.2034  1.0968
 3817SOL    HW122910   0.566   3.670   0.603  0.2837  0.1430 -0.7098
 3817SOL    HW222911   0.487   3.767   0.541  0.6808 -0.7285  0.3467
 3818SOL     OW22912   3.690   1.487   8.078  0.1718  0.3892 -0.1021
 3818SOL    HW122913   3.607   1.473   8.123  1.3010 -0.6604  1.6952
 3818SOL    HW222914   3.723   1.565   8.123 -0.5699 -0.5608  2.1444
 3819SOL     OW22915   0.704   2.824  13.766  0.0081  0.3436 -0.1014
 3819SOL    HW122916   0.682   2.840  13.674 -0.9920  2.1622  0.4564
 3819SOL    HW222917   0.650   2.886  13.814  2.2761  1.1303  1.4242
 3820SOL     OW22918   2.807   4.144  14.307 -0.8571 -0.8302  0.1209
 3820SOL    HW122919   2.714   4.125  14.318 -0.7015  0.5017  3.7845
 3820SOL    HW222920   2.800   4.237  14.326  2.8184 -0.4817 -0.3218
 3821SOL     OW22921   2.018   1.061   2.108 -0.1570 -0.1646 -0.2929
 3821SOL    HW122922   2.065   1.012   2.041 -1.1133  1.9457 -2.4754
 3821SOL    HW222923   1.977   1.124   2.049 -1.0280  1.1980  1.7471
 3822SOL     OW22924   3.214   1.792   3.027  0.0144 -0.0492  0.2408
 3822SOL    HW122925   3.147   1.842   2.979 -2.5136 -1.3200  2.4501
 3822SOL    HW222926   3.158   1.756   3.096 -0.1236  0.9457  0.6543
 3823SOL     OW22927   0.241   0.584   3.531  0.5373  0.0303 -0.0566
 3823SOL    HW122928   0.331   0.591   3.499  0.4593  1.5855  0.0717
 3823SOL    HW222929   0.204   0.672   3.537  0.9247  0.0685  1.6071
 3824SOL     OW22930   3.670   1.696   3.880  0.2992 -0.6092  0.2930
 3824SOL    HW122931   3.578   1.668   3.884 -0.2448  1.0987 -0.0225
 3824SOL    HW222932   3.674   1.699   3.784 -1.9903 -3.1090  0.1101
 3825SOL     OW22933   1.768   4.663   7.741 -0.4692  0.1289  0.3602
 3825SOL    HW122934   1.683   4.645   7.782  0.1591 -1.6519  0.8529
 3825SOL    HW222935   1.806   4.578   7.764 -1.0926  0.0326  1.0393
 3826SOL     OW22936   0.917   3.240   4.027  0.6187  0.2565 -0.2630
 3826SOL    HW122937   0.853   3.287   3.974 -1.0508 -1.1230  0.5361
 3826SOL    HW222938   0.964   3.304   4.081 -0.7255  1.3350 -0.3807
 3827SOL     OW22939   4.146   0.924   2.631 -0.5318 -0.0929 -0.0800
 3827SOL    HW122940   4.073   0.982   2.653 -0.9354 -1.5031  2.2904
 3827SOL    HW222941   4.096   0.842   2.632 -0.1411 -0.3324 -0.2651
 3828SOL     OW22942   0.677   0.210   4.562  0.0649  0.6788  1.1886
 3828SOL    HW122943   0.739   0.283   4.559 -1.4049  1.9077  0.4749
 3828SOL    HW222944   0.628   0.217   4.480  0.6358  0.3387  0.8212
 3829SOL     OW22945   1.119   2.630  12.133 -0.5083  0.6051 -0.0612
 3829SOL    HW122946   1.127   2.725  12.121 -1.1580  0.9963  2.6064
 3829SOL    HW222947   1.212   2.607  12.124 -0.0576  2.5726 -0.4267
 3830SOL     OW22948   1.371   3.056   4.852  0.1904  0.1910  0.4331
 3830SOL    HW122949   1.287   3.095   4.826  0.7855  0.3373 -1.2435
 3830SOL    HW222950   1.331   3.013   4.928 -0.0958 -0.3201 -0.0098
 3831SOL     OW22951   0.012   0.965  13.444  0.3882  0.0889  0.3911
 3831SOL    HW122952   4.705   0.877  13.418  0.0957  0.6549 -1.1726
 3831SOL    HW222953   4.703   1.009  13.365 -0.9672  0.5770  1.1994
 3832SOL     OW22954   3.124   4.605   2.573 -0.4242  0.3334 -0.0498
 3832SOL    HW122955   3.141   4.515   2.543 -1.8874 -0.2953  0.9870
 3832SOL    HW222956   3.034   4.615   2.544  0.1868 -0.6269 -2.2506
 3833SOL     OW22957   2.412   0.872  14.179  0.6140 -0.4320  0.0729
 3833SOL    HW122958   2.506   0.855  14.179  0.9094  1.1488  2.0089
 3833SOL    HW222959   2.416   0.955  14.131 -2.3143 -0.7645 -0.7646
 3834SOL     OW22960   4.243   4.465   9.412  0.0235 -0.4074  0.1184
 3834SOL    HW122961   4.173   4.468   9.477 -1.4188  0.4447 -1.4771
 3834SOL    HW222962   4.261   4.556   9.390 -0.1558 -0.4486 -0.1940
 3835SOL     OW22963   0.211   3.724  11.440  0.3239 -0.1376  0.3498
 3835SOL    HW122964   0.155   3.697  11.512 -0.4882  2.8509  0.8507
 3835SOL    HW222965   0.196   3.657  11.373  0.8089  0.2493 -0.1400
 3836SOL     OW22966   4.484   2.950   6.337  0.2544  0.5535 -0.4417
 3836SOL    HW122967   4.524   2.963   6.251 -0.2689  0.9241 -0.6288
 3836SOL    HW222968   4.535   3.018   6.382 -0.5748  1.1358 -0.3948
 3837SOL     OW22969   0.212   1.128   1.272  0.0052 -0.1408  0.0098
 3837SOL    HW122970   0.230   1.215   1.307  1.1675 -0.5651  0.4543
 3837SOL    HW222971   0.158   1.135   1.193  0.3436  2.1497 -0.0162
 3838SOL     OW22972   1.178   3.145   3.950 -0.2085 -0.3417 -0.2873
 3838SOL    HW122973   1.098   3.190   3.974 -1.1274 -1.2465 -1.5931
 3838SOL    HW222974   1.181   3.082   4.022 -1.5858 -0.1628 -0.0783
 3839SOL     OW22975   1.603   3.805   5.037 -0.6121  0.3259  0.0418
 3839SOL    HW122976   1.551   3.726   5.025 -0.4329  0.4149 -1.3381
 3839SOL    HW222977   1.544   3.867   4.993  0.3379  1.3259  0.1663
 3840SOL     OW22978   2.508   2.102   9.053 -0.4669 -0.2766 -0.0408
 3840SOL    HW122979   2.469   2.017   9.074  1.0259 -0.7215  0.9547
 3840SOL    HW222980   2.578   2.110   9.118 -0.1548  2.7957 -0.7393
 3841SOL     OW22981   2.905   3.402  17.361  0.5029  0.3532  0.3144
 3841SOL    HW122982   2.940   3.355  17.285  1.5487  2.2317 -0.3466
 3841SOL    HW222983   2.950   3.486  17.364 -1.1945  1.1362  3.4139
 3842SOL     OW22984   4.485   0.359   2.521 -0.2910  0.2218 -0.4771
 3842SOL    HW122985   4.430   0.427   2.482 -0.2861  0.4225 -0.1330
 3842SOL    HW222986   4.431   0.283   2.498 -0.4763 -0.1895  1.2977
 3843SOL     OW22987   4.692   1.919   3.850 -0.4099 -0.1254  0.4644
 3843SOL    HW122988   4.612   1.954   3.889  0.5014  1.0249  1.3087
 3843SOL    HW222989   4.714   1.987   3.785 -0.6687  0.2695  0.7888
 3844SOL     OW22990   2.558   0.919  12.900 -0.4759 -0.5852  0.0036
 3844SOL    HW122991   2.518   0.836  12.876  2.3447 -1.6105 -1.1201
 3844SOL    HW222992   2.531   0.913  12.992 -0.5009 -0.1478  0.0268
 3845SOL     OW22993   0.546   3.154  15.252  0.3753  0.0812  0.2681
 3845SOL    HW122994   0.631   3.192  15.230  0.0108  1.4212  1.2145
 3845SOL    HW222995   0.532   3.116  15.165 -1.3114  1.0326  0.1237
 3846SOL     OW22996   1.222   4.064   7.532  0.1233 -0.0206 -0.1018
 3846SOL    HW122997   1.126   4.065   7.525  0.2151  1.2493 -1.1082
 3846SOL    HW222998   1.234   4.139   7.590  2.1670 -0.5049  0.0849
 3847SOL     OW22999   3.691   4.427  15.179  0.1438 -0.4164 -0.3130
 3847SOL    HW123000   3.699   4.431  15.084  1.5860  1.9903 -0.0931
 3847SOL    HW223001   3.689   4.521  15.196  1.1850 -0.3955 -0.2957
 3848SOL     OW23002   4.102   4.402   4.132 -0.2582  0.2284 -0.1677
 3848SOL    HW123003   4.067   4.324   4.089 -0.4657  0.7045 -0.8759
 3848SOL    HW223004   4.054   4.397   4.214  2.2144  1.5362  1.3581
 3849SOL     OW23005   0.613   1.972   0.380 -0.5791  0.5302 -0.3764
 3849SOL    HW123006   0.592   1.879   0.391 -0.3496  0.3641 -1.2971
 3849SOL    HW223007   0.702   1.972   0.416 -1.4097 -0.1391  1.6626
 3850SOL     OW23008   0.634   3.246   4.035 -0.3360  0.0895  0.3966
 3850SOL    HW123009   0.595   3.282   3.956  0.1534  0.8366  0.4911
 3850SOL    HW223010   0.631   3.317   4.099 -0.3052  0.5388 -0.0990
 3851SOL     OW23011   0.461   3.904   3.511  0.2630 -0.8163 -0.2467
 3851SOL    HW123012   0.437   3.984   3.464  0.7878 -0.4009  0.1978
 3851SOL    HW223013   0.513   3.858   3.445  0.5007  0.0784 -0.6926
 3852SOL     OW23014   2.886   3.261   2.255 -0.3061  0.1301  0.2469
 3852SOL    HW123015   2.816   3.201   2.280  0.0627 -0.5584 -0.3776
 3852SOL    HW223016   2.849   3.304   2.178 -0.1679  0.9343  0.6367
 3853SOL     OW23017   2.642   0.538  10.624  0.5363 -0.5419  1.0328
 3853SOL    HW123018   2.550   0.514  10.631  1.1215 -2.6846  1.2500
 3853SOL    HW223019   2.675   0.454  10.655 -2.7069 -3.1748 -2.6610
 3854SOL     OW23020   1.209   3.414   8.305 -0.0989 -0.0544  0.6592
 3854SOL    HW123021   1.300   3.439   8.290 -0.0762 -0.7265 -0.3203
 3854SOL    HW223022   1.198   3.342   8.242  1.4993  1.1143 -0.9662
 3855SOL     OW23023   2.237   0.048   4.139  0.0462  0.5119  0.2404
 3855SOL    HW123024   2.250   0.064   4.233 -1.6144 -2.3011  0.9659
 3855SOL    HW223025   2.271   4.682   4.127  0.8167  0.5325  2.2456
 3856SOL     OW23026   0.514   4.693   7.350  0.3742 -0.1931  0.1123
 3856SOL    HW123027   0.552   4.673   7.264 -0.2644  1.4707 -0.5527
 3856SOL    HW223028   0.421   4.682   7.334  0.4341 -2.0299  1.0616
 3857SOL     OW23029   1.125   1.094   3.510 -0.2298 -0.3192 -0.7431
 3857SOL    HW123030   1.078   1.105   3.593  1.9296 -0.8921  0.5761
 3857SOL    HW223031   1.216   1.122   3.525 -0.3872  0.2533 -0.8859
 3858SOL     OW23032   2.664   4.269   4.623  0.7001  0.3272 -0.0473
 3858SOL    HW123033   2.636   4.234   4.708 -0.8502 -0.1324 -0.7501
 3858SOL    HW223034   2.649   4.362   4.639  1.7856  0.8170 -1.9208
 3859SOL     OW23035   3.844   1.129   4.852 -0.4302  0.3972 -0.2102
 3859SOL    HW123036   3.847   1.050   4.906  0.8954 -0.4086 -1.4615
 3859SOL    HW223037   3.930   1.166   4.872 -0.2876  1.0666 -2.0968
 3860SOL     OW23038   1.045   0.663   1.051 -0.6718  0.5325 -0.2862
 3860SOL    HW123039   1.034   0.679   0.958  0.5626  1.2812 -0.3045
 3860SOL    HW223040   1.104   0.732   1.083 -0.0047 -0.2798  0.2610
 3861SOL     OW23041   2.774   2.067   5.058 -0.0499 -0.1530  0.2621
 3861SOL    HW123042   2.799   2.139   5.117 -0.8363 -1.2735  1.9631
 3861SOL    HW223043   2.691   2.099   5.024 -0.4782  0.5800  1.9915
 3862SOL     OW23044   0.549   2.704  16.540  0.0441  0.7296 -0.0371
 3862SOL    HW123045   0.505   2.721  16.457 -1.9929 -0.9596  0.7034
 3862SOL    HW223046   0.634   2.749  16.544  0.6702 -0.5384  0.9427
 3863SOL     OW23047   0.707   2.300  17.085 -0.5288 -0.0899 -0.0393
 3863SOL    HW123048   0.777   2.239  17.065  0.1972  0.2276  1.6117
 3863SOL    HW223049   0.654   2.274  17.009  0.4571 -3.2327  0.3650
 3864SOL     OW23050   1.176   2.513  13.206  0.0509  0.5002  0.2804
 3864SOL    HW123051   1.247   2.464  13.247  1.0355  0.8973 -0.9586
 3864SOL    HW223052   1.213   2.601  13.212  0.2103  0.4610 -0.1284
 3865SOL     OW23053   3.127   2.463   2.737  0.2575 -0.5091 -0.5236
 3865SOL    HW123054   3.068   2.439   2.665 -0.1618 -0.0300 -0.3466
 3865SOL    HW223055   3.080   2.540   2.768  1.4027  0.3946 -1.0148
 3866SOL     OW23056   2.045   2.274   4.538  0.5500 -0.0093 -0.5991
 3866SOL    HW123057   2.069   2.209   4.472  3.9069 -1.1016  1.7486
 3866SOL    HW223058   2.085   2.233   4.614  0.2036  1.7674  0.5490
 3867SOL     OW23059   2.907   2.430   4.865 -0.3389 -0.3129 -0.2276
 3867SOL    HW123060   2.970   2.501   4.872 -0.5786 -0.1155 -0.0626
 3867SOL    HW223061   2.902   2.384   4.948  1.7278  0.7627  0.4745
 3868SOL     OW23062   0.730   0.692   2.582 -0.9633  0.6179  0.3461
 3868SOL    HW123063   0.691   0.627   2.523 -0.1842 -0.8765  1.4767
 3868SOL    HW223064   0.824   0.678   2.567 -0.6553 -0.2359  3.0607
 3869SOL     OW23065   1.897   0.358   9.379 -0.4101  0.0146  0.1920
 3869SOL    HW123066   1.931   0.278   9.418  0.4599  0.5012  0.4336
 3869SOL    HW223067   1.829   0.378   9.444 -0.5073 -0.6765  0.3081
 3870SOL     OW23068   1.382   2.533   6.997 -0.0921  0.2647 -0.2375
 3870SOL    HW123069   1.440   2.497   7.064 -0.2725 -1.8890 -1.2252
 3870SOL    HW223070   1.444   2.533   6.925  1.6988 -0.6894  1.3156
 3871SOL     OW23071   2.406   3.120   6.230  0.4731  0.1836 -0.2984
 3871SOL    HW123072   2.417   3.209   6.265 -3.3419  0.1657  0.8910
 3871SOL    HW223073   2.471   3.116   6.160  0.3068  0.9785 -0.4948
 3872SOL     OW23074   2.128   1.156   0.586  0.0234 -0.2092  0.0471
 3872SOL    HW123075   2.070   1.218   0.542  0.0161 -0.5476 -0.4154
 3872SOL    HW223076   2.208   1.208   0.575  0.7936 -1.1246  1.3716
 3873SOL     OW23077   0.012   1.981   9.197 -0.3289 -0.2026 -0.0556
 3873SOL    HW123078   0.021   1.938   9.112  0.8380 -1.3235  0.6429
 3873SOL    HW223079   0.042   2.070   9.177 -0.0243 -0.2184  0.3233
 3874SOL     OW23080   3.268   4.646  11.476  0.2248  0.2185  0.0072
 3874SOL    HW123081   3.252   4.554  11.457  2.5008 -0.3947  1.0632
 3874SOL    HW223082   3.349   4.653  11.526  0.9312 -0.5618 -1.0596
 3875SOL     OW23083   3.562   0.221   6.122  0.4196  0.0584  0.3265
 3875SOL    HW123084   3.626   0.150   6.129  1.5936  0.9837 -0.8752
 3875SOL    HW223085   3.590   0.266   6.042  1.8878 -0.1662  0.7065
 3876SOL     OW23086   2.583   1.066  14.058 -0.5387  0.0644 -0.9531
 3876SOL    HW123087   2.630   1.043  13.979  0.1899  0.1974 -0.5545
 3876SOL    HW223088   2.522   1.131  14.023  1.4469  1.9127 -0.9103
 3877SOL     OW23089   0.669   4.488   6.454 -0.1279 -0.4525  0.2348
 3877SOL    HW123090   0.604   4.532   6.509  0.2801  1.1384 -0.5558
 3877SOL    HW223091   0.664   4.398   6.485 -1.7469 -1.3198 -2.6051
 3878SOL     OW23092   0.388   4.410   1.195  0.0992  0.2848  0.1708
 3878SOL    HW123093   0.294   4.422   1.178 -0.3607 -0.9659  1.7684
 3878SOL    HW223094   0.388   4.315   1.182  2.4179  0.2259  0.5976
 3879SOL     OW23095   0.357   2.014  11.668 -0.1037 -0.2351  0.5228
 3879SOL    HW123096   0.295   1.960  11.716  0.5848 -1.0029  0.5475
 3879SOL    HW223097   0.439   1.982  11.705 -0.9077 -1.3911  1.3334
 3880SOL     OW23098   0.884   4.424   6.069 -0.0012  0.0370  0.1360
 3880SOL    HW123099   0.799   4.451   6.035  0.8492  0.5350 -1.5751
 3880SOL    HW223100   0.880   4.450   6.161  2.8164  1.4132 -0.1375
 3881SOL     OW23101   0.832   0.419   5.660  0.7212 -0.0957  0.2798
 3881SOL    HW123102   0.784   0.359   5.718  0.5332 -1.7074 -1.5494
 3881SOL    HW223103   0.783   0.421   5.578  2.9552 -0.7150 -1.0424
 3882SOL     OW23104   3.910   0.815   5.565  0.4523  0.0660  0.5948
 3882SOL    HW123105   3.985   0.862   5.526 -0.1359  0.5728  0.0681
 3882SOL    HW223106   3.853   0.844   5.494  0.1210 -4.0908 -0.8208
 3883SOL     OW23107   3.013   4.192   2.556 -0.1253 -0.3916 -0.4033
 3883SOL    HW123108   2.939   4.251   2.565  0.0731 -0.5505  2.2434
 3883SOL    HW223109   3.004   4.147   2.472  1.3261  2.3127 -2.0059
 3884SOL     OW23110   1.615   4.703   6.181  0.2913 -0.1298  0.0105
 3884SOL    HW123111   1.689   4.649   6.206  1.7504  0.5354 -2.8312
 3884SOL    HW223112   1.650   0.011   6.097  1.1407 -0.0245  0.4049
 3885SOL     OW23113   1.154   3.371   4.194  0.4825  0.3589 -0.1199
 3885SOL    HW123114   1.224   3.409   4.247  0.4376 -1.8415  1.5174
 3885SOL    HW223115   1.104   3.448   4.165  1.3860  0.9374 -0.1328
 3886SOL     OW23116   3.362   4.414  10.915 -0.3834  0.2577 -0.0572
 3886SOL    HW123117   3.298   4.425  10.845 -3.0443 -1.5872  2.0402
 3886SOL    HW223118   3.411   4.496  10.916  0.2552 -0.1305  1.3884
 3887SOL     OW23119   3.078   2.745   5.420 -0.1664 -0.7061  0.3346
 3887SOL    HW123120   3.055   2.702   5.503 -0.3059 -0.6463  0.3268
 3887SOL    HW223121   2.990   2.753   5.383  1.4272  0.2424 -3.1962
 3888SOL     OW23122   4.131   1.208   7.191 -0.4706 -0.1474 -0.1416
 3888SOL    HW123123   4.220   1.173   7.189 -0.9298 -1.3128 -0.3734
 3888SOL    HW223124   4.089   1.160   7.120 -0.5980  0.8236 -0.7192
 3889SOL     OW23125   2.026   3.532   4.093 -0.1241 -0.4210  0.2502
 3889SOL    HW123126   1.980   3.495   4.018 -0.0314  0.1465 -0.0876
 3889SOL    HW223127   1.956   3.595   4.111 -0.3314 -0.1914 -1.3860
 3890SOL     OW23128   2.737   0.284  10.613 -0.3814 -0.1373  0.0961
 3890SOL    HW123129   2.713   0.193  10.630  0.6967 -0.3449  0.5031
 3890SOL    HW223130   2.785   0.298  10.695  1.7683  1.7582 -1.5030
 3891SOL     OW23131   3.664   4.681   9.135 -0.0403 -0.0426 -0.9079
 3891SOL    HW123132   3.697   4.648   9.052 -0.8964  0.1644 -1.3313
 3891SOL    HW223133   3.644   0.046   9.101 -0.9656  0.0007 -0.2599
 3892SOL     OW23134   2.321   3.497  16.962  0.1092 -0.2152 -0.0699
 3892SOL    HW123135   2.237   3.527  16.928  0.2059  1.1772  0.9159
 3892SOL    HW223136   2.293   3.410  16.989 -0.9733  0.0646 -0.2923
 3893SOL     OW23137   4.287   0.290  11.068 -0.1577 -0.0051  0.0639
 3893SOL    HW123138   4.343   0.235  11.012  1.2477  1.8683 -0.3704
 3893SOL    HW223139   4.229   0.217  11.092  0.4754 -0.4758  0.1814
 3894SOL     OW23140   1.976   1.093   2.353  0.2930 -0.2828  0.0538
 3894SOL    HW123141   2.057   1.052   2.382  0.8893  1.5023  0.9647
 3894SOL    HW223142   1.981   1.085   2.258 -3.1529  0.9200 -0.2415
 3895SOL     OW23143   3.640   0.812   6.012 -0.7550 -0.2602  0.0518
 3895SOL    HW123144   3.713   0.834   5.953 -1.2086  1.7890  0.2582
 3895SOL    HW223145   3.672   0.848   6.094  3.0373 -2.2065 -0.5585
 3896SOL     OW23146   1.891   0.698   0.950  0.7840 -0.1905 -0.1371
 3896SOL    HW123147   1.922   0.700   1.040 -0.7720 -0.3852  0.4047
 3896SOL    HW223148   1.933   0.778   0.920 -0.2819 -0.1315 -1.4632
 3897SOL     OW23149   0.335   0.093   4.597  0.3727  0.2384 -0.0827
 3897SOL    HW123150   0.260   0.036   4.617  1.7543 -0.8063  2.0732
 3897SOL    HW223151   0.377   0.086   4.682 -1.0037 -1.7358  0.4363
 3898SOL     OW23152   1.660   2.140  16.515 -0.5277  0.2599  0.3167
 3898SOL    HW123153   1.687   2.126  16.424  1.4869 -1.2404  1.1432
 3898SOL    HW223154   1.744   2.136  16.560 -0.7323  3.6497  0.9570
 3899SOL     OW23155   0.985   2.792   8.009  0.3538 -0.4741  0.4158
 3899SOL    HW123156   0.935   2.788   8.090  0.6448  2.2865  0.7237
 3899SOL    HW223157   0.979   2.699   7.985  0.3747 -0.5957  0.8824
 3900SOL     OW23158   3.465   1.318  15.040  0.4025  0.7697 -0.3814
 3900SOL    HW123159   3.524   1.340  14.968 -0.4679 -0.0346 -1.3470
 3900SOL    HW223160   3.392   1.291  14.985  0.4814 -0.9397  0.3615
 3901SOL     OW23161   0.629   3.593   5.540  0.2585  0.1701  0.4466
 3901SOL    HW123162   0.718   3.584   5.505 -0.6859  0.0045 -1.9015
 3901SOL    HW223163   0.570   3.545   5.482  0.4573 -0.1044  0.4687
 3902SOL     OW23164   2.412   3.414   3.099  0.2654  0.1399  0.1497
 3902SOL    HW123165   2.399   3.481   3.033  0.3128 -0.5364 -0.5429
 3902SOL    HW223166   2.345   3.441   3.162  2.1232  0.4000  2.0379
 3903SOL     OW23167   2.814   3.507   6.683 -0.2384  0.1580 -0.1145
 3903SOL    HW123168   2.851   3.477   6.766 -1.4649 -1.1215 -0.0283
 3903SOL    HW223169   2.881   3.565   6.648  1.1069 -0.7696  0.9148
 3904SOL     OW23170   2.023   1.951  13.128 -0.9676  0.1440 -0.0552
 3904SOL    HW123171   2.008   1.883  13.193 -0.5473  1.3678  1.3067
 3904SOL    HW223172   1.994   2.034  13.166 -0.2135  1.6030 -2.6228
 3905SOL     OW23173   3.560   1.890  13.176 -0.2205  0.1727 -0.1215
 3905SOL    HW123174   3.486   1.862  13.122 -0.5678  3.1958 -1.1725
 3905SOL    HW223175   3.535   1.977  13.206  1.1889 -0.1615  2.0193
 3906SOL     OW23176   3.562   4.671   1.319 -0.6944 -0.0569 -0.2068
 3906SOL    HW123177   3.637   0.007   1.310 -1.5759  0.7651 -2.1182
 3906SOL    HW223178   3.532   4.698   1.406 -2.7372  0.2232 -1.0063
 3907SOL     OW23179   3.453   1.222  14.098 -0.2319 -0.7340  0.1987
 3907SOL    HW123180   3.434   1.306  14.138  0.9796 -1.0313  1.3641
 3907SOL    HW223181   3.492   1.160  14.159  0.9395  0.9397  1.1377
 3908SOL     OW23182   3.534   1.697   1.748 -0.2651 -0.1447  0.0190
 3908SOL    HW123183   3.505   1.622   1.697 -0.8873 -1.5307  2.4042
 3908SOL    HW223184   3.618   1.707   1.703 -1.7382 -1.7869 -3.0665
 3909SOL     OW23185   3.439   1.660   7.858 -0.4415  0.0672 -0.2404
 3909SOL    HW123186   3.445   1.690   7.948  1.0559  0.0693 -0.3411
 3909SOL    HW223187   3.464   1.568   7.862 -0.0811  0.2184  0.8242
 3910SOL     OW23188   3.320   3.792   2.459  0.4221 -0.1817 -0.0249
 3910SOL    HW123189   3.272   3.806   2.378  2.4556 -0.2137 -1.2426
 3910SOL    HW223190   3.414   3.799   2.440  0.5900 -1.0390  0.4576
 3911SOL     OW23191   4.574   0.073   5.652  0.5826 -0.0241 -0.0679
 3911SOL    HW123192   4.610   0.161   5.663  2.2948 -0.8593  1.0375
 3911SOL    HW223193   4.651   0.020   5.674 -0.2428 -1.2913 -0.2368
 3912SOL     OW23194   4.346   2.296  12.187  0.4009 -0.1957 -0.6691
 3912SOL    HW123195   4.370   2.267  12.275 -0.0356 -0.0446 -0.4978
 3912SOL    HW223196   4.382   2.226  12.133 -2.6788 -0.4272 -2.4532
 3913SOL     OW23197   2.243   0.132   2.612  0.0097  0.1868 -0.1261
 3913SOL    HW123198   2.197   0.137   2.696 -0.9763  3.1281 -0.8436
 3913SOL    HW223199   2.251   0.222   2.579 -0.0068  0.2271 -0.0198
 3914SOL     OW23200   3.703   0.291   3.151 -0.0879  0.2975  0.6009
 3914SOL    HW123201   3.710   0.337   3.068 -0.8617  2.1939  1.5720
 3914SOL    HW223202   3.609   0.294   3.168 -0.4432 -1.0440 -1.2471
 3915SOL     OW23203   3.134   0.181   3.715 -0.3810  0.1419 -0.2235
 3915SOL    HW123204   3.072   0.112   3.694 -0.2043 -0.1003  0.0458
 3915SOL    HW223205   3.107   0.188   3.806 -0.1210  0.5022 -0.1736
 3916SOL     OW23206   3.403   2.761   7.691 -0.0208  0.2179 -0.2280
 3916SOL    HW123207   3.475   2.823   7.700 -0.4513  0.9936 -2.2255
 3916SOL    HW223208   3.362   2.802   7.615 -1.9427 -1.1654  0.0768
 3917SOL     OW23209   2.707   1.431   7.731  0.3531 -0.3153 -0.0066
 3917SOL    HW123210   2.684   1.456   7.820  2.1820  2.5912 -0.3311
 3917SOL    HW223211   2.621   1.417   7.691  1.1186 -0.1650 -1.7247
 3918SOL     OW23212   1.002   1.131   7.513 -0.0738 -0.0795  0.1204
 3918SOL    HW123213   0.950   1.209   7.531  1.7400  1.0378  0.5378
 3918SOL    HW223214   0.993   1.093   7.601  3.1860 -1.0358  0.0468
 3919SOL     OW23215   0.768   3.710  16.127 -0.0221 -0.0603 -0.1677
 3919SOL    HW123216   0.700   3.767  16.093 -1.7832 -3.3771 -2.2418
 3919SOL    HW223217   0.742   3.619  16.110  1.0851 -0.5265  0.6338
 3920SOL     OW23218   3.015   2.226   1.952 -0.4183 -0.0310 -0.2114
 3920SOL    HW123219   3.046   2.253   1.866 -0.0353 -0.7801 -0.3073
 3920SOL    HW223220   2.923   2.249   1.942 -0.3985  0.7873  1.4582
 3921SOL     OW23221   1.934   2.697   2.544 -0.8413 -0.7302 -0.0129
 3921SOL    HW123222   1.888   2.646   2.611  0.9504 -0.9743  1.0345
 3921SOL    HW223223   2.001   2.631   2.525  0.0059  0.0333  0.3837
 3922SOL     OW23224   3.746   4.482   8.934  0.5972  0.0675  0.5050
 3922SOL    HW123225   3.768   4.434   8.855  0.5394  2.3571 -0.8804
 3922SOL    HW223226   3.797   4.430   8.997 -1.9653 -2.5086  0.3977
 3923SOL     OW23227   3.884   3.506   8.754 -0.0585  0.2889  0.5978
 3923SOL    HW123228   3.954   3.444   8.735  0.5765  1.3291 -0.4302
 3923SOL    HW223229   3.815   3.444   8.780 -0.1071  0.0345 -0.1538
 3924SOL     OW23230   2.770   4.172  15.535 -0.3392  0.1119 -0.0791
 3924SOL    HW123231   2.689   4.147  15.490  0.1045  0.0362 -0.8503
 3924SOL    HW223232   2.838   4.198  15.473  1.1381 -3.3494  0.0769
 3925SOL     OW23233   1.991   2.396   3.900 -0.5678  0.0661 -0.6483
 3925SOL    HW123234   2.022   2.361   3.816 -0.2874  0.6683 -0.7984
 3925SOL    HW223235   1.920   2.458   3.882 -1.8084 -0.5960  2.0597
 3926SOL     OW23236   1.072   0.684  14.536 -0.2128 -0.2819 -0.2233
 3926SOL    HW123237   1.157   0.646  14.515 -0.1387 -0.5661  0.5689
 3926SOL    HW223238   1.053   0.744  14.465 -1.2761 -0.1090  0.2062
 3927SOL     OW23239   0.986   0.638   0.634 -0.5375 -0.2631  0.9698
 3927SOL    HW123240   0.950   0.554   0.607 -1.7603  0.4016  0.5230
 3927SOL    HW223241   1.057   0.609   0.690 -3.4579 -1.9131  3.8050
 3928SOL     OW23242   3.667   2.282   9.086 -0.5683  0.3392 -0.2833
 3928SOL    HW123243   3.604   2.322   9.027  0.0027  1.5741 -0.0500
 3928SOL    HW223244   3.709   2.359   9.125 -1.7159  0.3485  0.9648
 3929SOL     OW23245   1.491   1.661   6.398  0.5719  0.2943  0.0992
 3929SOL    HW123246   1.402   1.629   6.386  0.9965 -0.6383 -0.5931
 3929SOL    HW223247   1.510   1.700   6.313 -1.0687  1.8665  0.4690
 3930SOL     OW23248   2.612   0.958  14.690  0.4872 -0.6539  0.5237
 3930SOL    HW123249   2.670   0.883  14.679 -0.0545 -1.3145  2.1607
 3930SOL    HW223250   2.558   0.941  14.612  0.8308 -0.6347  0.2799
 3931SOL     OW23251   2.537   0.473   2.497  0.3156 -0.3027 -0.8894
 3931SOL    HW123252   2.537   0.563   2.466  1.3197  0.4174  1.2674
 3931SOL    HW223253   2.609   0.440   2.444  1.4059 -0.3163  0.6195
 3932SOL     OW23254   1.422   1.265  10.682  0.4486 -0.2356 -0.0599
 3932SOL    HW123255   1.426   1.328  10.610  0.8354  1.3113  1.2953
 3932SOL    HW223256   1.515   1.242  10.679 -0.1126 -2.5523  0.3654
 3933SOL     OW23257   3.933   0.714   6.519 -0.4080  0.0046  0.0417
 3933SOL    HW123258   3.867   0.651   6.550  0.2046 -0.9499 -0.6221
 3933SOL    HW223259   3.939   0.682   6.429  1.0971 -0.7105  0.4052
 3934SOL     OW23260   3.961   0.955   6.178 -0.3056 -0.3629 -0.4768
 3934SOL    HW123261   4.007   1.032   6.211 -1.3857  0.8221 -1.7465
 3934SOL    HW223262   4.021   0.901   6.126 -0.8166  1.4470 -2.9257
 3935SOL     OW23263   2.771   3.254   5.108  0.1188  0.1408  0.5278
 3935SOL    HW123264   2.700   3.209   5.153 -0.0661 -1.0281 -0.9301
 3935SOL    HW223265   2.720   3.327   5.072 -0.1325 -1.2403 -1.9480
 3936SOL     OW23266   1.299   2.366   7.821 -0.0960  0.1523 -0.1101
 3936SOL    HW123267   1.316   2.273   7.806 -1.6134 -0.8712  4.4150
 3936SOL    HW223268   1.255   2.356   7.906  0.9356  1.1515  0.5467
 3937SOL     OW23269   0.418   3.600   1.194  0.2918  0.0863 -0.2053
 3937SOL    HW123270   0.491   3.557   1.150  0.1721 -0.3421  0.0153
 3937SOL    HW223271   0.468   3.627   1.270 -0.3688  1.1882 -0.1595
 3938SOL     OW23272   3.259   1.267   6.938 -0.9359  0.0489  0.3118
 3938SOL    HW123273   3.173   1.282   6.978 -1.5477  0.6506 -1.2053
 3938SOL    HW223274   3.279   1.359   6.926  0.3537 -0.1621  0.8819
 3939SOL     OW23275   1.741   2.723  12.724  0.3429  0.4956  0.0267
 3939SOL    HW123276   1.650   2.736  12.695 -1.5560 -2.9740  4.4423
 3939SOL    HW223277   1.783   2.666  12.660  0.7998 -0.2530  0.9983
 3940SOL     OW23278   3.148   2.159   9.390  0.7968 -0.2007  0.3303
 3940SOL    HW123279   3.216   2.199   9.336 -1.0561 -0.3103 -2.0968
 3940SOL    HW223280   3.103   2.118   9.316  1.1995 -0.7429  0.3832
 3941SOL     OW23281   4.593   2.368   5.295  0.5232 -0.0196  0.5981
 3941SOL    HW123282   4.683   2.351   5.265  0.0185  0.2830 -1.0562
 3941SOL    HW223283   4.565   2.442   5.242 -2.3492 -2.0680 -0.7212
 3942SOL     OW23284   4.618   2.687   9.097 -0.0931  0.3096  0.0806
 3942SOL    HW123285   4.643   2.706   9.007 -0.8075  1.6187  0.1456
 3942SOL    HW223286   4.632   2.593   9.102 -2.0972  0.0947  1.8675
 3943SOL     OW23287   3.155   2.865   3.641 -0.2245  0.4043  0.4062
 3943SOL    HW123288   3.074   2.851   3.690  0.4423 -1.1167  1.0849
 3943SOL    HW223289   3.163   2.772   3.616 -0.0214  0.4576  0.2708
 3944SOL     OW23290   1.537   1.130   4.854 -0.4080 -0.0456  0.0158
 3944SOL    HW123291   1.529   1.113   4.760 -0.2115 -2.3783  0.4259
 3944SOL    HW223292   1.583   1.053   4.887 -0.0449  0.8292  1.5119
 3945SOL     OW23293   1.938   3.818   1.549  0.2676  0.0256 -0.8248
 3945SOL    HW123294   1.860   3.811   1.604  0.2829  2.4071 -0.4938
 3945SOL    HW223295   1.979   3.893   1.594 -0.6608  0.8821 -1.4042
 3946SOL     OW23296   2.247   2.369   6.684 -0.6817 -0.0331  0.5470
 3946SOL    HW123297   2.288   2.383   6.599 -0.1943 -0.4090  0.7197
 3946SOL    HW223298   2.194   2.289   6.682 -0.8044  0.0276  1.1388
 3947SOL     OW23299   4.526   0.749  11.018 -0.8686  0.0075  0.3143
 3947SOL    HW123300   4.449   0.798  10.989 -0.3265  1.4901  1.3542
 3947SOL    HW223301   4.592   0.776  10.954 -0.1519  1.2889  1.5839
 3948SOL     OW23302   1.303   3.478   7.073 -0.7709  0.0339  0.4514
 3948SOL    HW123303   1.357   3.427   7.133 -0.5938  0.9308  1.0539
 3948SOL    HW223304   1.229   3.418   7.079  1.4038 -2.6534  0.0738
 3949SOL     OW23305   4.042   0.399   1.014 -0.1099  0.3876 -0.1164
 3949SOL    HW123306   4.020   0.490   1.033  2.4901  0.7374  1.1860
 3949SOL    HW223307   3.962   0.373   0.968  0.2820 -1.2324  0.1162
 3950SOL     OW23308   2.913   2.961  16.389 -0.0380  0.0959 -0.1614
 3950SOL    HW123309   2.819   2.965  16.408 -0.0169 -2.0119  0.3971
 3950SOL    HW223310   2.944   2.898  16.454 -0.5062 -0.3543 -0.3769
 3951SOL     OW23311   0.420   3.617  12.456 -0.1671 -0.8037 -0.0070
 3951SOL    HW123312   0.494   3.569  12.494 -1.0581  0.1141  2.8646
 3951SOL    HW223313   0.468   3.700  12.456 -0.8316 -0.4235  0.6285
 3952SOL     OW23314   0.286   0.178  14.134  0.1960 -0.2153 -0.0799
 3952SOL    HW123315   0.355   0.221  14.083 -1.3179  0.7425 -1.3271
 3952SOL    HW223316   0.210   0.233  14.115 -0.0586  0.4582  2.8769
 3953SOL     OW23317   4.661   3.688  15.023 -0.0350 -0.4735  0.1181
 3953SOL    HW123318   0.029   3.659  15.009 -0.1250 -1.4443  1.5417
 3953SOL    HW223319   4.654   3.719  14.933 -2.1320 -0.2437  0.3426
 3954SOL     OW23320   1.293   3.799   2.916 -0.1534 -0.5193 -0.2516
 3954SOL    HW123321   1.329   3.795   2.828 -0.0383 -0.1525 -0.2218
 3954SOL    HW223322   1.210   3.753   2.905 -1.0468  0.4258  2.3626
 3955SOL     OW23323   2.654   0.042  17.136  0.3509 -0.3419 -0.0658
 3955SOL    HW123324   2.731   0.036  17.193 -0.5743 -0.7206  1.1369
 3955SOL    HW223325   2.583   0.035  17.199  0.3684 -1.1377 -0.1435
 3956SOL     OW23326   3.393   4.369   8.516 -0.3017  0.1994 -0.4844
 3956SOL    HW123327   3.375   4.275   8.516 -0.5551  0.2474 -0.5745
 3956SOL    HW223328   3.486   4.362   8.498 -0.2016  0.5732 -0.1146
 3957SOL     OW23329   1.146   0.324   6.839  0.1084 -0.2000  0.2953
 3957SOL    HW123330   1.127   0.381   6.914  1.4653 -0.7948  1.0994
 3957SOL    HW223331   1.241   0.332   6.839 -0.0047  1.1746  2.9507
 3958SOL     OW23332   0.029   4.356   2.402 -0.3923  0.1339 -0.2539
 3958SOL    HW123333   0.117   4.360   2.440 -0.5145  0.6491 -0.0318
 3958SOL    HW223334   0.022   4.443   2.364 -2.1722 -0.1980 -0.6665
 3959SOL     OW23335   0.187   3.664   2.402  0.5821  0.1469  0.0424
 3959SOL    HW123336   0.130   3.731   2.363  0.5723 -0.0886 -0.3487
 3959SOL    HW223337   0.129   3.623   2.466  0.5331  1.2944  0.7411
 3960SOL     OW23338   1.049   3.762   8.802 -0.2215  0.5984  0.2685
 3960SOL    HW123339   1.000   3.682   8.820 -1.1904  1.4892  1.6363
 3960SOL    HW223340   1.072   3.785   8.892  0.8078 -1.6605  0.5748
 3961SOL     OW23341   0.418   2.442   8.081 -0.5133  0.1083 -0.2758
 3961SOL    HW123342   0.398   2.499   8.156 -0.4644 -0.5837  0.2651
 3961SOL    HW223343   0.485   2.487   8.030  1.9461 -2.0765  1.0129
 3962SOL     OW23344   0.487   2.426   4.082  0.1592  0.0732  0.5203
 3962SOL    HW123345   0.503   2.497   4.020 -0.7924 -3.3125 -3.6339
 3962SOL    HW223346   0.571   2.409   4.125  1.1462  1.6284 -0.8285
 3963SOL     OW23347   1.936   0.710   4.289  0.0561 -0.0458  0.1722
 3963SOL    HW123348   2.010   0.652   4.273  0.6315  0.1867  2.0099
 3963SOL    HW223349   1.857   0.657   4.300 -0.3548  0.4389 -0.3595
 3964SOL     OW23350   3.705   4.566   5.576 -0.5756 -0.4804  0.1710
 3964SOL    HW123351   3.696   4.654   5.541 -0.5303 -0.1462  1.0023
 3964SOL    HW223352   3.797   4.545   5.559 -0.4212  0.0125  0.3873
 3965SOL     OW23353   0.917   4.038   7.563 -0.0253  0.5776 -0.1603
 3965SOL    HW123354   0.889   3.951   7.592 -1.8532  2.0625  2.5642
 3965SOL    HW223355   0.873   4.105   7.616  0.2183 -0.3678  1.2362
 3966SOL     OW23356   0.593   0.741  11.734  0.0852  0.2405 -0.5946
 3966SOL    HW123357   0.590   0.647  11.749 -0.0365  0.4855  0.9599
 3966SOL    HW223358   0.536   0.781  11.800 -0.1833  0.4776 -0.9676
 3967SOL     OW23359   2.772   1.530   1.707 -0.5133 -0.7809  0.3566
 3967SOL    HW123360   2.807   1.442   1.723  3.0015  0.4820 -0.3033
 3967SOL    HW223361   2.684   1.515   1.672  0.0207 -2.4432 -0.3102
 3968SOL     OW23362   1.414   1.738   9.912 -0.2188 -0.1060 -0.1426
 3968SOL    HW123363   1.325   1.747   9.947 -0.6057  1.7251 -1.5966
 3968SOL    HW223364   1.456   1.657   9.940 -0.3951 -0.3189 -0.5012
 3969SOL     OW23365   0.683   0.443   5.431 -0.0392  0.0238  0.2586
 3969SOL    HW123366   0.645   0.470   5.347 -1.4868  0.7443  1.1489
 3969SOL    HW223367   0.594   0.442   5.465  0.3279 -0.1612  1.2057
 3970SOL     OW23368   1.458   0.761   5.640  0.1910  1.1425  0.1086
 3970SOL    HW123369   1.427   0.802   5.559  1.6171 -1.2600 -1.6709
 3970SOL    HW223370   1.553   0.757   5.629 -0.2292 -0.1548 -3.3401
 3971SOL     OW23371   2.100   0.830  10.017 -0.3379 -0.1415  0.1666
 3971SOL    HW123372   2.023   0.818  10.072 -1.5775  2.8107 -0.9222
 3971SOL    HW223373   2.159   0.772  10.065  1.2261  0.8962 -0.5285
 3972SOL     OW23374   2.247   3.929   3.141 -0.2865 -0.5890 -0.3514
 3972SOL    HW123375   2.205   3.996   3.086  0.7362  0.5956  0.3176
 3972SOL    HW223376   2.281   3.974   3.218 -1.2809  0.5622 -0.5704
 3973SOL     OW23377   2.647   1.259  13.752  0.0847  0.5288 -0.2098
 3973SOL    HW123378   2.637   1.177  13.705  1.9518 -0.6983  1.5305
 3973SOL    HW223379   2.562   1.257  13.797  1.5615 -3.8174  2.3979
 3974SOL     OW23380   4.512   3.623   2.250  0.3245  0.3953  0.3207
 3974SOL    HW123381   4.455   3.569   2.304 -1.0113 -0.1616 -1.6307
 3974SOL    HW223382   4.589   3.572   2.225 -0.9049  0.0377 -2.7779
 3975SOL     OW23383   1.270   1.542  11.004 -0.2081 -0.0584  0.3282
 3975SOL    HW123384   1.270   1.638  11.011 -1.4326 -0.2354  2.8998
 3975SOL    HW223385   1.363   1.521  11.009  0.2796  1.2164 -3.1158
 3976SOL     OW23386   2.648   1.957  15.568 -0.1858 -0.1066  0.4201
 3976SOL    HW123387   2.652   2.016  15.493  2.6339 -1.2909 -0.3562
 3976SOL    HW223388   2.607   1.877  15.533  1.8593  0.2000 -2.6960
 3977SOL     OW23389   3.569   2.537   7.359 -0.0710 -0.1724  0.2458
 3977SOL    HW123390   3.647   2.492   7.391  0.0114 -1.3736 -1.6203
 3977SOL    HW223391   3.511   2.462   7.345 -0.0978 -0.0348 -0.4254
 3978SOL     OW23392   4.258   0.639   4.182 -0.3093 -0.2612 -0.2751
 3978SOL    HW123393   4.272   0.635   4.087 -2.0230 -2.1357 -0.4606
 3978SOL    HW223394   4.257   0.734   4.190 -0.5059 -0.3553  0.8264
 3979SOL     OW23395   1.718   3.205   6.251  0.2650 -0.0538  0.4938
 3979SOL    HW123396   1.800   3.156   6.252 -0.3668 -1.1068  0.9969
 3979SOL    HW223397   1.676   3.192   6.336 -0.8896 -1.9454 -0.3733
 3980SOL     OW23398   4.051   1.739   8.322  0.5581 -0.2194  0.1720
 3980SOL    HW123399   4.118   1.807   8.319 -0.3079  0.6231  0.1741
 3980SOL    HW223400   4.074   1.695   8.404  2.2746  0.5404  0.0983
 3981SOL     OW23401   0.111   3.373   2.919 -1.0039 -0.0243 -0.2340
 3981SOL    HW123402   0.122   3.278   2.917  0.6877  0.1240  1.7775
 3981SOL    HW223403   0.072   3.391   3.005 -0.3407  1.0647 -0.1730
 3982SOL     OW23404   1.680   0.280   7.568  0.0426 -0.3473 -0.2182
 3982SOL    HW123405   1.734   0.290   7.490 -1.7535  0.8100 -1.3148
 3982SOL    HW223406   1.590   0.277   7.535  0.1425  0.8713 -0.6015
 3983SOL     OW23407   0.443   1.023   5.150 -0.2775 -0.4574  0.3322
 3983SOL    HW123408   0.493   1.020   5.069 -2.9719  0.2791 -1.3397
 3983SOL    HW223409   0.355   1.024   5.113 -0.7444  1.0246  1.4672
 3984SOL     OW23410   3.698   3.314   9.724 -0.1659 -0.1759  0.2347
 3984SOL    HW123411   3.789   3.286   9.731  0.2655  1.0464 -0.4656
 3984SOL    HW223412   3.688   3.371   9.800  0.8562  0.5878 -0.2067
 3985SOL     OW23413   3.986   3.623   1.867 -0.0234  0.5060 -0.3344
 3985SOL    HW123414   4.021   3.691   1.809 -1.8177  2.6849  1.1227
 3985SOL    HW223415   3.893   3.620   1.845 -0.4038  2.0018  1.1017
 3986SOL     OW23416   3.393   0.561   2.373 -0.4733  0.1807  0.7542
 3986SOL    HW123417   3.349   0.632   2.420  0.2559  0.1501  1.4662
 3986SOL    HW223418   3.482   0.554   2.408 -0.5207  0.0095  0.8345
 3987SOL     OW23419   3.000   0.534  17.384 -0.1963  0.2036 -0.2988
 3987SOL    HW123420   3.086   0.532  17.425 -0.2178  0.8108 -0.2371
 3987SOL    HW223421   3.018   0.532  17.290 -3.5979  0.9623 -0.9754
 3988SOL     OW23422   3.957   0.871  11.963  0.3959  0.1903  0.4998
 3988SOL    HW123423   3.879   0.912  11.926 -0.5674 -1.1815  0.9988
 3988SOL    HW223424   4.007   0.867  11.881  1.1873  1.1705  0.9372
 3989SOL     OW23425   2.498   4.241   4.916 -0.1371  0.4193  0.1084
 3989SOL    HW123426   2.551   4.321   4.915  1.7263 -0.8064  0.3381
 3989SOL    HW223427   2.422   4.263   4.970 -0.5141 -0.0691 -0.2167
 3990SOL     OW23428   1.383   3.528   0.960 -0.1471 -0.2308  0.1854
 3990SOL    HW123429   1.468   3.545   0.919  1.4926 -1.7212  3.0158
 3990SOL    HW223430   1.343   3.615   0.960 -2.8216 -1.4457  0.7840
 3991SOL     OW23431   3.849   2.090   7.887  0.0216  0.6983 -0.0190
 3991SOL    HW123432   3.829   2.153   7.818  0.6756  0.2887 -0.5880
 3991SOL    HW223433   3.759   2.062   7.898  0.3223 -1.2538 -2.5818
 3992SOL     OW23434   3.680   1.719   7.366 -0.0616  0.1572 -0.2145
 3992SOL    HW123435   3.684   1.632   7.326  0.3443 -0.1712  0.5206
 3992SOL    HW223436   3.598   1.719   7.415  0.8739  1.9316  1.3632
 3993SOL     OW23437   2.073   3.779   5.436 -0.6662 -0.7264  0.4622
 3993SOL    HW123438   1.979   3.788   5.451 -0.6343  1.4500 -0.5442
 3993SOL    HW223439   2.095   3.846   5.371  0.6917 -0.7688  0.8779
 3994SOL     OW23440   4.260   4.046  14.883  0.0816  0.4385  0.3096
 3994SOL    HW123441   4.345   4.035  14.927 -0.2728  2.1914  1.4351
 3994SOL    HW223442   4.231   4.126  14.927 -0.5796  0.2258  0.2527
 3995SOL     OW23443   2.159   3.261   1.121 -0.2967  0.7248  0.4963
 3995SOL    HW123444   2.254   3.277   1.118 -0.2277  0.1529 -0.4855
 3995SOL    HW223445   2.141   3.273   1.028  2.6750 -1.0163 -0.3028
 3996SOL     OW23446   2.665   0.953   7.701  0.1079 -0.0318  0.2791
 3996SOL    HW123447   2.668   0.860   7.723 -1.5769 -0.0276  0.5222
 3996SOL    HW223448   2.714   0.984   7.777 -1.6187  0.9657  1.0087
 3997SOL     OW23449   0.786   0.775   2.850 -0.3927 -0.3054 -0.0414
 3997SOL    HW123450   0.847   0.747   2.781 -0.1045 -1.5960  0.7479
 3997SOL    HW223451   0.703   0.797   2.806 -0.1930 -1.1475 -0.8361
 3998SOL     OW23452   1.622   2.912  10.127 -0.2671 -0.2416 -0.0152
 3998SOL    HW123453   1.696   2.857  10.152  1.3500  1.1370 -1.7025
 3998SOL    HW223454   1.597   2.867  10.047 -0.7833  2.7867 -1.5827
 3999SOL     OW23455   3.945   4.469  15.319  0.2575 -0.0559  0.2422
 3999SOL    HW123456   3.947   4.542  15.257 -2.0292  0.5847  0.9490
 3999SOL    HW223457   3.852   4.448  15.313 -0.2268  2.0450  0.5526
 4000SOL     OW23458   0.183   3.396   6.622  0.6239  0.1876  0.3778
 4000SOL    HW123459   0.156   3.409   6.531  3.5948  1.1638 -0.3540
 4000SOL    HW223460   0.188   3.488   6.648  0.5490  0.3255 -0.1069
 4001SOL     OW23461   0.486   3.551   3.540 -0.3487  0.0123 -0.1340
 4001SOL    HW123462   0.490   3.637   3.500  1.6226  0.4429  0.9936
 4001SOL    HW223463   0.407   3.513   3.503 -0.4384 -1.1816  1.2527
 4002SOL     OW23464   2.786   2.598   3.469  0.0830  0.1073  0.4821
 4002SOL    HW123465   2.735   2.516   3.466  0.1617  0.0257  1.5591
 4002SOL    HW223466   2.763   2.634   3.554  0.6671  0.3973  0.5125
 4003SOL     OW23467   2.434   1.261   2.868  0.1581 -0.5052  0.2053
 4003SOL    HW123468   2.385   1.339   2.892 -0.2631 -0.3026 -1.3096
 4003SOL    HW223469   2.427   1.198   2.940  1.8910  0.3103  1.0896
 4004SOL     OW23470   2.735   1.209   8.425  0.2968  0.0121 -0.4261
 4004SOL    HW123471   2.791   1.231   8.350  0.8739 -0.7154 -0.2084
 4004SOL    HW223472   2.772   1.269   8.491  0.1934 -1.6998  1.1904
 4005SOL     OW23473   1.781   4.507   9.798 -0.2868  0.3677  0.7075
 4005SOL    HW123474   1.854   4.446   9.788 -0.5593  0.2406 -0.5202
 4005SOL    HW223475   1.790   4.567   9.724 -1.6342 -0.0308  0.2105
 4006SOL     OW23476   1.050   4.118  15.344 -0.1288  0.5328  0.3616
 4006SOL    HW123477   1.135   4.163  15.347 -0.1089  0.4659  0.9044
 4006SOL    HW223478   1.000   4.176  15.287  0.1274 -0.8659 -1.2825
 4007SOL     OW23479   3.941   2.923   5.301  0.4564  0.5625 -0.3659
 4007SOL    HW123480   3.883   2.861   5.257  0.2508 -0.4582  1.3522
 4007SOL    HW223481   3.905   3.006   5.270 -0.5104 -1.0455 -3.5135
 4008SOL     OW23482   0.298   3.001   3.851  0.3885 -0.1377 -0.7571
 4008SOL    HW123483   0.275   3.093   3.839  1.3031  0.1624 -0.2049
 4008SOL    HW223484   0.392   3.001   3.869  0.4571 -1.6567 -1.1525
 4009SOL     OW23485   2.361   0.297  17.054 -0.8720 -0.3805 -0.3015
 4009SOL    HW123486   2.328   0.322  16.968  0.7321  0.7955 -0.5702
 4009SOL    HW223487   2.433   0.242  17.023 -0.3668  0.1995 -0.1611
 4010SOL     OW23488   0.730   2.594   2.437  0.0831 -0.5982  0.1112
 4010SOL    HW123489   0.761   2.674   2.479 -0.6876  0.3575 -1.1896
 4010SOL    HW223490   0.710   2.618   2.347 -1.2219  2.7046  1.2866
 4011SOL     OW23491   1.556   2.184   5.492 -0.1097  0.2431  0.6220
 4011SOL    HW123492   1.645   2.190   5.528 -0.4575 -0.8345  1.6647
 4011SOL    HW223493   1.510   2.254   5.537  2.4468  1.8632  0.6895
 4012SOL     OW23494   0.271   0.606   6.154 -0.0975  0.1179 -0.9074
 4012SOL    HW123495   0.263   0.568   6.241 -1.7320 -0.4096 -1.2789
 4012SOL    HW223496   0.349   0.658   6.170  1.5393 -2.0335 -1.9271
 4013SOL     OW23497   2.509   0.105   8.900  0.2139 -0.1557  0.0937
 4013SOL    HW123498   2.548   0.108   8.987  0.8051  3.4701 -0.2831
 4013SOL    HW223499   2.420   0.081   8.926  0.0610  1.2940  0.9313
 4014SOL     OW23500   2.015   0.037  10.272  0.3313  0.2420 -0.0792
 4014SOL    HW123501   2.097   0.073  10.239  0.0887 -2.0319 -3.2480
 4014SOL    HW223502   1.997   4.697  10.201 -2.4002  1.1786 -0.2332
 4015SOL     OW23503   0.432   1.246  13.306 -0.1179 -0.2632 -0.0155
 4015SOL    HW123504   0.397   1.161  13.330 -0.7931  0.0693  0.1879
 4015SOL    HW223505   0.448   1.243  13.212 -0.2391 -0.6162 -0.0241
 4016SOL     OW23506   0.857   0.556   3.832 -0.3051 -0.3630  0.2379
 4016SOL    HW123507   0.865   0.537   3.738  2.5679 -1.1239  0.6360
 4016SOL    HW223508   0.935   0.608   3.847  0.6777 -1.6672 -0.3239
 4017SOL     OW23509   0.394   1.624   7.680  0.0297 -0.2088 -0.5493
 4017SOL    HW123510   0.439   1.686   7.737 -1.0786 -1.9644  2.2820
 4017SOL    HW223511   0.328   1.684   7.645  1.2819 -0.9369 -4.0665
 4018SOL     OW23512   2.251   1.566   4.955  0.0066  1.0343  0.0140
 4018SOL    HW123513   2.289   1.506   5.020  0.3573  0.8466 -0.3680
 4018SOL    HW223514   2.164   1.527   4.954  1.1384 -1.4940  0.4501
 4019SOL     OW23515   2.487   0.905   1.477  0.5499  0.1585  0.1094
 4019SOL    HW123516   2.394   0.899   1.498  0.7605  1.6894  1.4636
 4019SOL    HW223517   2.502   0.994   1.510 -0.0604  1.1538 -2.2705
 4020SOL     OW23518   0.449   1.004   2.458  0.6280  0.2230 -0.4529
 4020SOL    HW123519   0.454   0.909   2.469 -0.2337  0.2028 -0.2653
 4020SOL    HW223520   0.432   1.005   2.363  1.0263  1.3117 -0.5126
 4021SOL     OW23521   1.689   1.229   0.149  0.8871  0.2966 -0.8388
 4021SOL    HW123522   1.778   1.194   0.143  0.8991 -0.0863  1.7285
 4021SOL    HW223523   1.710   1.313   0.191  1.4333  0.0556 -0.6230
 4022SOL     OW23524   0.122   1.293   4.724 -0.1571  0.1055 -0.4206
 4022SOL    HW123525   0.132   1.295   4.819  0.0319 -0.8296 -0.4234
 4022SOL    HW223526   0.102   1.202   4.704 -3.5116  0.4017  1.6230
 4023SOL     OW23527   0.923   1.570   7.538 -0.4499 -0.3720 -0.5330
 4023SOL    HW123528   1.009   1.600   7.507 -0.2061 -0.0080  0.4924
 4023SOL    HW223529   0.874   1.594   7.460 -1.3034  0.2560  0.2014
 4024SOL     OW23530   2.775   1.732  11.395 -0.5916  0.4670  0.0208
 4024SOL    HW123531   2.691   1.715  11.437 -1.1140 -0.4524 -1.3885
 4024SOL    HW223532   2.823   1.651  11.408 -0.9255  0.6895  2.7004
 4025SOL     OW23533   3.811   2.102   8.897 -0.2593 -0.8469 -0.7778
 4025SOL    HW123534   3.817   2.195   8.876  0.6137 -0.9586 -1.0381
 4025SOL    HW223535   3.839   2.096   8.988 -0.0653 -4.2416 -1.0388
 4026SOL     OW23536   4.630   0.442  12.073 -0.2109  0.3314 -0.0777
 4026SOL    HW123537   4.652   0.531  12.045 -0.5051  0.4170 -0.0385
 4026SOL    HW223538   4.674   0.390  12.005 -0.8079 -0.7873  0.3918
 4027SOL     OW23539   3.609   2.091   6.223  0.2519 -0.2247 -0.4244
 4027SOL    HW123540   3.551   2.126   6.156 -0.7693 -2.0492 -0.5073
 4027SOL    HW223541   3.637   2.165   6.277  0.6132 -1.2633  0.8072
 4028SOL     OW23542   3.522   2.045   0.881 -0.6019  0.0318 -0.2468
 4028SOL    HW123543   3.520   2.123   0.937  0.1666 -0.1401  0.0186
 4028SOL    HW223544   3.432   2.044   0.847 -0.5750 -2.3873 -0.2385
 4029SOL     OW23545   0.617   2.604   7.936  0.0343 -0.1239  0.1939
 4029SOL    HW123546   0.701   2.629   7.897  0.6173 -3.5453 -0.6542
 4029SOL    HW223547   0.652   2.578   8.021 -0.9066  0.2787  0.7093
 4030SOL     OW23548   1.849   4.555   5.530  0.3020 -0.0916 -0.0386
 4030SOL    HW123549   1.857   4.484   5.467 -1.4565 -1.0963  0.8478
 4030SOL    HW223550   1.943   4.568   5.540  0.9008 -1.3083 -4.2905
 4031SOL     OW23551   2.268   1.543  16.450  0.4631  0.3743  0.0481
 4031SOL    HW123552   2.341   1.604  16.433 -1.1125  2.7824  1.8559
 4031SOL    HW223553   2.313   1.464  16.480  0.7774  0.3577 -0.4627
 4032SOL     OW23554   0.309   3.292   4.236 -0.3116  0.2699 -0.1060
 4032SOL    HW123555   0.274   3.203   4.235  0.8549 -0.1847 -1.1001
 4032SOL    HW223556   0.228   3.341   4.251 -0.8428 -0.4284 -0.7030
 4033SOL     OW23557   2.595   0.210  13.755 -0.1427  0.0378 -0.3767
 4033SOL    HW123558   2.590   0.152  13.831 -0.6241  1.5214  0.7103
 4033SOL    HW223559   2.524   0.273  13.769 -0.0473  0.0100  0.2548
 4034SOL     OW23560   0.087   0.217   5.901 -0.1296  0.6458 -0.5274
 4034SOL    HW123561   0.139   0.259   5.970 -1.6222  0.6957  0.5691
 4034SOL    HW223562   0.018   0.280   5.881 -0.8310 -0.1730 -0.6885
 4035SOL     OW23563   4.130   4.129   4.769 -0.0842 -0.0936 -0.3393
 4035SOL    HW123564   4.129   4.176   4.852  0.5441  0.4259 -0.6305
 4035SOL    HW223565   4.128   4.196   4.701 -0.6987 -0.0173 -0.2495
 4036SOL     OW23566   2.419   0.371  10.906 -0.1150 -0.1517 -0.5145
 4036SOL    HW123567   2.488   0.339  10.964 -0.0501 -2.1880 -1.7202
 4036SOL    HW223568   2.356   0.303  10.928  0.6520 -1.0028 -0.9686
 4037SOL     OW23569   3.915   0.595  16.860 -0.0156 -0.2553  0.2708
 4037SOL    HW123570   3.906   0.675  16.912  2.1010  0.6336 -0.7056
 4037SOL    HW223571   3.918   0.635  16.773 -1.9743 -1.4922 -0.3742
 4038SOL     OW23572   2.636   0.276   3.330 -0.7881 -0.3881 -0.6485
 4038SOL    HW123573   2.712   0.219   3.342 -2.6182 -2.9967 -1.3445
 4038SOL    HW223574   2.684   0.350   3.293 -1.9173  0.2022 -0.9207
 4039SOL     OW23575   1.552   0.038  16.185 -0.0368  0.8003 -0.3993
 4039SOL    HW123576   1.484   0.090  16.142 -0.2453  1.1450  0.3448
 4039SOL    HW223577   1.594   4.707  16.117 -0.1140  0.8531 -0.4888
 4040SOL     OW23578   2.557   1.822  12.841  0.3283 -0.1677 -0.6052
 4040SOL    HW123579   2.491   1.776  12.790 -0.5059  0.4624 -0.0989
 4040SOL    HW223580   2.555   1.757  12.911  0.7766  2.5133  1.8708
 4041SOL     OW23581   0.979   1.994   7.388 -0.0332 -0.2816  0.0402
 4041SOL    HW123582   0.919   1.941   7.335 -2.0325  3.1661 -1.1145
 4041SOL    HW223583   1.017   1.931   7.450  2.2850  0.5707 -0.5094
 4042SOL     OW23584   4.241   2.001   5.357 -0.7332  0.8456  0.3812
 4042SOL    HW123585   4.303   2.023   5.287 -0.6091  0.1202  0.2671
 4042SOL    HW223586   4.300   1.950   5.412  1.3238  4.1974  1.2362
 4043SOL     OW23587   0.594   2.365   3.770  0.0736  0.0129 -0.1174
 4043SOL    HW123588   0.594   2.270   3.778 -0.2512  0.0600  0.4464
 4043SOL    HW223589   0.642   2.401   3.845 -0.8946  2.9061 -0.8808
 4044SOL     OW23590   0.224   1.841   8.034 -0.1590  0.1197 -0.2738
 4044SOL    HW123591   0.224   1.748   8.057 -0.0756  0.6877  1.9917
 4044SOL    HW223592   0.141   1.867   8.075 -0.1204  0.2393 -0.2713
 4045SOL     OW23593   2.245   1.522   1.736 -0.1856 -0.2858  0.1090
 4045SOL    HW123594   2.296   1.442   1.749 -0.1636 -0.4183 -0.7571
 4045SOL    HW223595   2.183   1.506   1.664 -0.5485 -1.0573  0.5931
 4046SOL     OW23596   3.615   4.176   8.739  0.4488 -0.1358 -0.3343
 4046SOL    HW123597   3.682   4.245   8.731 -0.3211  0.5949 -0.5137
 4046SOL    HW223598   3.545   4.211   8.795 -1.8373 -1.7684 -2.1913
 4047SOL     OW23599   1.362   1.752   8.112 -0.1910 -0.4184 -0.1559
 4047SOL    HW123600   1.441   1.765   8.059 -0.5784 -1.6457 -1.0297
 4047SOL    HW223601   1.365   1.660   8.136  1.4775 -0.6460 -1.2974
 4048SOL     OW23602   4.312   3.722  15.128  0.0960  0.3065  0.8187
 4048SOL    HW123603   4.342   3.807  15.161  0.2435  0.5668  0.0157
 4048SOL    HW223604   4.304   3.727  15.033 -1.7099 -1.7446  0.8683
 4049SOL     OW23605   4.282   0.540   3.001  0.7253 -0.0260 -0.4174
 4049SOL    HW123606   4.326   0.502   2.924  1.5774 -1.8645  0.9685
 4049SOL    HW223607   4.360   0.552   3.055  0.9014 -1.5769 -0.3237
 4050SOL     OW23608   2.458   2.467   3.272 -0.6216 -0.2359 -0.4485
 4050SOL    HW123609   2.538   2.422   3.246 -0.6925  0.2082 -1.4600
 4050SOL    HW223610   2.399   2.393   3.256 -1.2844  0.2431 -0.2366
 4051SOL     OW23611   3.319   1.450  13.613 -0.6324  0.5369  0.4812
 4051SOL    HW123612   3.373   1.395  13.670 -1.3180 -0.9254 -0.2737
 4051SOL    HW223613   3.302   1.521  13.674 -2.4130 -0.3818  1.0562
 4052SOL     OW23614   2.017   2.137   6.397 -0.1103 -0.7176  0.1785
 4052SOL    HW123615   2.104   2.174   6.383  1.1473 -2.9509  2.1652
 4052SOL    HW223616   1.994   2.120   6.306  0.1764  2.3628 -0.4694
 4053SOL     OW23617   0.730   2.788   3.721 -0.0700  0.1128 -0.3780
 4053SOL    HW123618   0.716   2.881   3.736  3.0057  0.5460 -0.1733
 4053SOL    HW223619   0.660   2.759   3.662 -1.2586  2.3567 -0.0619
 4054SOL     OW23620   3.367   4.088   8.528 -0.2092 -0.3085 -0.4406
 4054SOL    HW123621   3.442   4.041   8.492 -0.5679  0.0995 -1.7162
 4054SOL    HW223622   3.346   4.050   8.613  2.5525 -1.7562 -0.4112
 4055SOL     OW23623   2.660   0.545  11.719 -0.2165 -0.2029  0.7354
 4055SOL    HW123624   2.737   0.589  11.683 -3.2402  4.0621 -0.6049
 4055SOL    HW223625   2.668   0.570  11.811  0.0168  0.4388  0.5429
 4056SOL     OW23626   0.405   4.043   1.873 -0.6030 -0.3867 -0.8945
 4056SOL    HW123627   0.443   3.958   1.893  1.6565 -0.0273 -3.5342
 4056SOL    HW223628   0.459   4.095   1.933  1.4661 -2.4422 -0.9589
 4057SOL     OW23629   1.689   2.338  11.217  0.1640 -0.1610 -0.1525
 4057SOL    HW123630   1.731   2.412  11.172 -1.7401  0.2351 -1.2761
 4057SOL    HW223631   1.763   2.325  11.277  1.3186 -0.9954 -1.7438
 4058SOL     OW23632   0.948   3.887   3.337  0.4079 -0.5237 -0.2752
 4058SOL    HW123633   0.869   3.916   3.292  1.6075 -0.9485 -2.6507
 4058SOL    HW223634   1.005   3.901   3.262  1.6336  0.0758  0.7843
 4059SOL     OW23635   4.286   0.637   1.125 -0.6813 -0.9196  0.3472
 4059SOL    HW123636   4.330   0.650   1.209  0.1573  1.6447 -0.4782
 4059SOL    HW223637   4.254   0.726   1.110 -0.2515 -0.8113  0.0382
 4060SOL     OW23638   3.600   2.394   1.230 -0.5052  0.0938  0.3333
 4060SOL    HW123639   3.582   2.359   1.317 -0.0765 -0.1775  0.3149
 4060SOL    HW223640   3.695   2.409   1.233 -0.7706  1.1890  3.0826
 4061SOL     OW23641   1.101   0.077   5.728  0.0645 -0.5071  0.3132
 4061SOL    HW123642   1.132   4.711   5.709  0.4093 -0.6302  1.4497
 4061SOL    HW223643   1.181   0.124   5.703 -0.5061 -0.5434 -1.6142
 4062SOL     OW23644   0.052   1.392   3.800 -0.5828  0.1073 -0.1105
 4062SOL    HW123645   0.076   1.430   3.885 -1.8673  0.1238  0.2504
 4062SOL    HW223646   4.680   1.390   3.820 -0.7749 -1.2119 -1.1374
 4063SOL     OW23647   2.800   0.077   4.680 -0.2498 -0.2056 -0.1169
 4063SOL    HW123648   2.798   0.032   4.764 -1.0111  2.0468  1.0557
 4063SOL    HW223649   2.888   0.048   4.655  0.1068  1.3597 -0.6481
 4064SOL     OW23650   2.788   1.390   9.617 -0.7042  0.1430  0.4872
 4064SOL    HW123651   2.837   1.365   9.696 -1.5973  1.0248  1.3212
 4064SOL    HW223652   2.809   1.333   9.543 -0.5070  0.6741  0.1368
 4065SOL     OW23653   4.587   1.616   5.982  0.2736  0.2772  0.1337
 4065SOL    HW123654   4.583   1.585   5.891 -1.9389  1.5653 -0.2364
 4065SOL    HW223655   4.503   1.585   6.016  0.3462 -0.2402 -0.1565
 4066SOL     OW23656   0.693   3.063   1.813  0.1335 -0.4748 -0.5568
 4066SOL    HW123657   0.692   2.968   1.819 -1.2393 -0.4072  0.5203
 4066SOL    HW223658   0.692   3.076   1.908 -1.5301  1.2795 -0.7981
 4067SOL     OW23659   1.154   1.701   4.320  0.4796  0.5775  0.3738
 4067SOL    HW123660   1.214   1.728   4.389  1.4783  1.2461 -0.7667
 4067SOL    HW223661   1.200   1.692   4.237 -0.4367 -1.3436  0.0788
 4068SOL     OW23662   1.986   4.588   7.249 -0.5914 -0.4152 -0.0030
 4068SOL    HW123663   2.034   4.511   7.220 -1.1988 -0.3456 -1.1706
 4068SOL    HW223664   1.949   4.558   7.332 -1.0466  1.2994  0.4130
 4069SOL     OW23665   2.435   1.816  13.636  0.4916 -0.8763  0.4644
 4069SOL    HW123666   2.482   1.782  13.712  0.0478 -0.9851  0.6938
 4069SOL    HW223667   2.502   1.881  13.614 -2.7354  2.1426 -0.4918
 4070SOL     OW23668   2.626   3.732   4.914 -0.0339  0.7245  0.4814
 4070SOL    HW123669   2.621   3.649   4.960 -0.6875  0.4877 -0.0250
 4070SOL    HW223670   2.719   3.738   4.893 -0.0639  0.1884  0.2084
 4071SOL     OW23671   1.391   4.491   4.756  0.1918 -0.1713 -0.4251
 4071SOL    HW123672   1.426   4.427   4.818  2.2822  1.3913 -0.0085
 4071SOL    HW223673   1.361   4.549   4.827 -2.8382 -2.2260  0.0064
 4072SOL     OW23674   2.420   2.184  15.772  0.1296 -0.1565  0.3668
 4072SOL    HW123675   2.384   2.158  15.687  1.7020  0.5538 -0.5199
 4072SOL    HW223676   2.378   2.121  15.831  1.1580 -0.1770  1.0733
 4073SOL     OW23677   1.525   3.759   8.336 -0.0745 -0.6743 -0.3355
 4073SOL    HW123678   1.494   3.848   8.348 -0.2236 -0.7706 -0.0096
 4073SOL    HW223679   1.506   3.722   8.422  0.0708  0.6398  0.2531
 4074SOL     OW23680   0.937   0.689   9.269 -0.3645 -0.4898  0.9004
 4074SOL    HW123681   0.991   0.691   9.348  0.5770  0.8970  0.2071
 4074SOL    HW223682   0.977   0.764   9.225 -2.4372  0.1063  0.0415
 4075SOL     OW23683   0.275   0.649   4.827 -0.3184 -0.4782  0.3245
 4075SOL    HW123684   0.223   0.612   4.898 -2.3624 -2.5141 -2.2215
 4075SOL    HW223685   0.213   0.711   4.789 -1.0091 -1.3639  0.0037
 4076SOL     OW23686   1.724   2.093   6.447 -0.5339  0.2462 -0.5457
 4076SOL    HW123687   1.681   2.107   6.362  1.1586  1.6783 -1.1733
 4076SOL    HW223688   1.816   2.084   6.423 -0.4713 -0.9403  0.1431
 4077SOL     OW23689   4.230   0.411  14.571  0.4503 -0.5540  0.5314
 4077SOL    HW123690   4.189   0.334  14.533  0.3011  0.0818 -0.5832
 4077SOL    HW223691   4.158   0.465  14.603 -1.1652 -0.5034 -3.2504
 4078SOL     OW23692   1.598   0.944   9.411  0.2390  0.3247 -0.5208
 4078SOL    HW123693   1.673   0.906   9.363  0.3393 -0.0380 -0.0742
 4078SOL    HW223694   1.629   1.028   9.444  0.3904  0.4784 -1.0526
 4079SOL     OW23695   4.447   3.976   7.697 -0.2207 -0.8686  0.4107
 4079SOL    HW123696   4.396   3.965   7.617  1.7911 -1.3103 -0.8268
 4079SOL    HW223697   4.534   3.997   7.660 -0.6330 -0.7936 -0.5289
 4080SOL     OW23698   1.106   0.053   9.161 -0.3964  0.6308 -0.9350
 4080SOL    HW123699   1.013   0.034   9.165 -0.5462  1.5424 -0.0773
 4080SOL    HW223700   1.132   0.002   9.084 -0.4640  3.3373 -2.7375
 4081SOL     OW23701   1.341   0.407   2.341  0.1871  0.1913  0.3049
 4081SOL    HW123702   1.264   0.442   2.387 -0.6172 -0.1942 -0.7593
 4081SOL    HW223703   1.354   0.330   2.396 -1.3815 -1.6903 -1.9949
 4082SOL     OW23704   0.248   3.208   1.348 -0.6352  0.1600  0.7374
 4082SOL    HW123705   0.182   3.260   1.394 -0.2671 -0.1291  1.5914
 4082SOL    HW223706   0.232   3.121   1.384  0.8798 -0.1290  0.7112
 4083SOL     OW23707   3.612   4.674   8.759  0.3215 -0.2212 -0.1147
 4083SOL    HW123708   3.639   4.590   8.795  1.3781  0.9163  1.7115
 4083SOL    HW223709   3.686   0.005   8.790 -1.0385  1.0772  0.9091
 4084SOL     OW23710   0.912   0.444  15.378 -0.2162  0.1805 -0.1070
 4084SOL    HW123711   0.841   0.382  15.393  1.2219 -1.5849 -0.5170
 4084SOL    HW223712   0.868   0.523  15.410  1.4245  0.4999  1.3827
 4085SOL     OW23713   1.417   3.013   7.219  0.3288 -0.0244 -0.7720
 4085SOL    HW123714   1.458   2.982   7.300 -1.7653  0.9399  0.6574
 4085SOL    HW223715   1.386   2.933   7.177  1.4412 -0.2518 -1.1477
 4086SOL     OW23716   0.070   2.169  12.009  0.6822 -0.1121  0.0501
 4086SOL    HW123717   0.030   2.156  12.095 -0.4042 -1.6827 -0.7004
 4086SOL    HW223718   0.051   2.089  11.959 -0.3517 -0.8569  1.6360
 4087SOL     OW23719   0.491   3.238   0.752  0.2192  0.3854  0.2518
 4087SOL    HW123720   0.400   3.214   0.733 -0.0470  0.2576  1.7447
 4087SOL    HW223721   0.524   3.180   0.820 -0.4531  0.4713  0.6529
 4088SOL     OW23722   1.605   2.477   7.178 -0.4671 -0.3649  0.1263
 4088SOL    HW123723   1.692   2.438   7.186  0.0610  0.6083 -0.8327
 4088SOL    HW223724   1.610   2.523   7.261 -1.4612  0.4341 -0.2564
 4089SOL     OW23725   1.112   3.571  14.448 -0.4285 -0.3133 -0.3140
 4089SOL    HW123726   1.062   3.501  14.491  1.9632 -0.1552  2.7231
 4089SOL    HW223727   1.165   3.607  14.520 -0.8094  4.7308 -2.5461
 4090SOL     OW23728   4.374   3.469   0.134 -0.3754 -0.3069 -0.1146
 4090SOL    HW123729   4.318   3.394   0.155  0.0686 -0.9176 -1.0733
 4090SOL    HW223730   4.431   3.425   0.070  1.1948 -0.6863  1.5591
 4091SOL     OW23731   2.642   3.446   3.551 -0.0220  0.2972  0.0057
 4091SOL    HW123732   2.650   3.396   3.470  0.2188 -0.2574  0.3669
 4091SOL    HW223733   2.729   3.485   3.555  0.9429 -1.9407  1.1971
 4092SOL     OW23734   0.032   3.687   9.984 -0.3890 -0.3308 -0.2611
 4092SOL    HW123735   4.692   3.759   9.991 -0.0903 -0.2302  1.4298
 4092SOL    HW223736   0.116   3.732   9.975 -1.3762  1.2290 -1.6585
 4093SOL     OW23737   0.778   3.057   4.487 -0.0136 -0.4236  0.5820
 4093SOL    HW123738   0.774   3.059   4.583 -1.3813 -0.7004  0.5260
 4093SOL    HW223739   0.802   2.965   4.477 -0.7301 -0.4114 -1.2418
 4094SOL     OW23740   4.352   3.624  12.804  0.3718 -0.4693 -0.3390
 4094SOL    HW123741   4.355   3.550  12.865  1.0588 -1.2459 -1.3120
 4094SOL    HW223742   4.310   3.591  12.724  0.0402  0.5586 -0.5810
 4095SOL     OW23743   1.427   3.449  12.678  0.3806 -0.3211 -0.3406
 4095SOL    HW123744   1.368   3.522  12.698 -0.2537 -1.1974  0.9966
 4095SOL    HW223745   1.466   3.487  12.600  0.7384 -1.0344 -0.5102
 4096SOL     OW23746   3.651   4.139   1.367 -0.2718 -0.1928  0.6579
 4096SOL    HW123747   3.589   4.208   1.344  1.2905  1.4773  1.4318
 4096SOL    HW223748   3.720   4.141   1.300 -0.1542  0.0403  0.7863
 4097SOL     OW23749   2.333   2.091  15.531  0.0714  0.2596 -0.4374
 4097SOL    HW123750   2.272   2.158  15.501  0.8573  1.1497 -0.0540
 4097SOL    HW223751   2.338   2.032  15.456 -1.2131  2.4485 -2.2526
 4098SOL     OW23752   2.697   2.723   3.720  0.3112  0.4127  0.0263
 4098SOL    HW123753   2.711   2.818   3.715  0.9596  0.4280  1.9878
 4098SOL    HW223754   2.607   2.725   3.688 -0.3733 -2.5864  1.7028
 4099SOL     OW23755   2.115   4.037   8.440  0.5043  0.6078  0.0768
 4099SOL    HW123756   2.070   4.103   8.387 -0.9936 -0.6490 -0.1998
 4099SOL    HW223757   2.065   3.958   8.421 -0.8628  1.3566  0.6317
 4100SOL     OW23758   0.608   0.966   3.832 -0.2260 -0.3366 -0.4108
 4100SOL    HW123759   0.652   0.985   3.915 -0.0108  0.5270 -0.7199
 4100SOL    HW223760   0.538   1.031   3.829  1.1328  1.1831  0.9230
 4101SOL     OW23761   2.319   0.881   5.687  0.2743  0.4942  0.2992
 4101SOL    HW123762   2.303   0.811   5.750 -0.9277  0.2271 -0.3040
 4101SOL    HW223763   2.239   0.933   5.699 -1.6384 -2.3187 -0.1856
 4102SOL     OW23764   3.720   3.176   0.304 -0.3830  0.2023 -0.3253
 4102SOL    HW123765   3.753   3.088   0.288  0.1119  0.0368  1.6141
 4102SOL    HW223766   3.760   3.183   0.390 -2.1526  1.8761  0.3692
 4103SOL     OW23767   2.620   4.262   8.677  0.3454 -0.3666 -0.0555
 4103SOL    HW123768   2.535   4.277   8.636  0.3839  0.5322  0.2048
 4103SOL    HW223769   2.650   4.352   8.688 -0.5921 -0.1147  0.4178
 4104SOL     OW23770   1.970   1.693   6.193 -0.0164 -0.2450 -0.4156
 4104SOL    HW123771   1.941   1.781   6.216 -0.7955 -0.6943  0.3215
 4104SOL    HW223772   2.063   1.696   6.218 -0.0785  2.2913 -0.4345
 4105SOL     OW23773   1.114   2.078  14.123 -0.2492 -0.1115 -0.3760
 4105SOL    HW123774   1.130   2.106  14.213 -1.7635  0.6906 -0.3564
 4105SOL    HW223775   1.022   2.055  14.138 -0.6808  0.6430 -1.8786
 4106SOL     OW23776   0.797   3.407   0.952  0.1768 -0.0972  0.6337
 4106SOL    HW123777   0.828   3.492   0.983 -0.1261  0.4971 -0.7342
 4106SOL    HW223778   0.867   3.349   0.985  1.6277  1.4004  0.1918
 4107SOL     OW23779   3.121   3.773  11.014 -0.2285 -0.8103  0.3869
 4107SOL    HW123780   3.035   3.780  11.057 -0.6445 -1.4090 -0.3554
 4107SOL    HW223781   3.148   3.690  11.055  1.8845  1.2854  3.1934
 4108SOL     OW23782   3.112   2.740   8.006  0.3744 -0.0827  0.2417
 4108SOL    HW123783   3.130   2.676   7.937  3.2192  1.2709 -0.2921
 4108SOL    HW223784   3.204   2.759   8.024 -0.2091  1.8192  1.2465
 4109SOL     OW23785   3.587   1.332   4.845  0.0513  0.5128 -0.7085
 4109SOL    HW123786   3.502   1.365   4.816 -0.4063 -0.2713 -0.2582
 4109SOL    HW223787   3.562   1.293   4.929  1.9198 -1.8600 -1.2499
 4110SOL     OW23788   3.661   1.426   7.340  0.0225  0.0357  0.4210
 4110SOL    HW123789   3.643   1.359   7.274  0.8723  0.2442 -0.0131
 4110SOL    HW223790   3.638   1.383   7.423  0.6660  0.4517  0.8102
 4111SOL     OW23791   3.970   2.258   5.438 -0.0737  0.3489 -0.4988
 4111SOL    HW123792   4.008   2.236   5.353 -0.5390 -3.5008  0.2959
 4111SOL    HW223793   4.046   2.296   5.483  0.0586  0.2340 -0.6260
 4112SOL     OW23794   2.217   3.847   1.413 -0.2671 -0.3033 -0.2245
 4112SOL    HW123795   2.164   3.776   1.450 -0.4010 -0.4310 -0.6557
 4112SOL    HW223796   2.275   3.856   1.489 -2.0229  1.5133  0.8964
 4113SOL     OW23797   0.772   3.208   6.606 -0.5466  0.2294 -0.3733
 4113SOL    HW123798   0.777   3.235   6.515 -0.9320  0.2541 -0.3858
 4113SOL    HW223799   0.679   3.186   6.615 -0.7497  1.0780 -0.3913
 4114SOL     OW23800   3.555   1.165   8.494  0.2355  0.0520 -0.2158
 4114SOL    HW123801   3.476   1.216   8.474  0.4908  0.5021 -0.0794
 4114SOL    HW223802   3.534   1.092   8.436  1.2321  0.2883 -0.8861
 4115SOL     OW23803   2.874   0.405   4.728 -0.5228  0.5831 -0.2135
 4115SOL    HW123804   2.795   0.458   4.722 -0.2312  1.1162  0.6553
 4115SOL    HW223805   2.830   0.321   4.738 -0.0678  0.5063  1.1591
 4116SOL     OW23806   3.079   3.274   3.773 -0.1028 -0.0791  0.2137
 4116SOL    HW123807   2.997   3.234   3.744 -0.5945  1.4094 -0.4515
 4116SOL    HW223808   3.045   3.309   3.856 -0.3804  0.9937 -0.3549
 4117SOL     OW23809   4.479   0.397   8.777 -0.1830  0.2153 -0.1590
 4117SOL    HW123810   4.504   0.343   8.853  1.9477  1.4457  0.0233
 4117SOL    HW223811   4.554   0.402   8.718 -0.2449  2.1259 -0.0766
 4118SOL     OW23812   1.837   1.989   4.982  0.5113 -0.4620 -0.4242
 4118SOL    HW123813   1.831   2.013   5.075 -0.8879  0.3018 -0.7189
 4118SOL    HW223814   1.932   1.996   4.971  0.4542  1.6628  0.4181
 4119SOL     OW23815   0.568   0.166   8.898 -0.0716 -0.2352 -0.1984
 4119SOL    HW123816   0.489   0.207   8.864  0.7559  2.6911  1.4087
 4119SOL    HW223817   0.610   0.244   8.933  2.5511 -1.7770  0.1096
 4120SOL     OW23818   2.528   3.435   8.025  0.6647  0.4982 -0.1059
 4120SOL    HW123819   2.464   3.382   7.978  1.0668 -0.1267  0.0566
 4120SOL    HW223820   2.607   3.383   8.014  0.0046 -0.6680  0.7101
 4121SOL     OW23821   4.388   0.586   7.054  0.0220 -0.3996  0.2185
 4121SOL    HW123822   4.357   0.608   6.966 -2.2875  2.7924  1.8191
 4121SOL    HW223823   4.314   0.549   7.102 -0.7391 -0.0111 -0.6437
 4122SOL     OW23824   1.493   3.654   8.992  0.0963  0.0437  0.0260
 4122SOL    HW123825   1.433   3.664   9.066 -1.5026 -1.9253 -0.9685
 4122SOL    HW223826   1.521   3.564   9.012 -0.5793 -0.0910  0.3958
 4123SOL     OW23827   2.585   3.222  17.511 -0.0999 -0.7649  0.4198
 4123SOL    HW123828   2.644   3.213  17.436 -0.8350  0.4275 -0.3168
 4123SOL    HW223829   2.508   3.245  17.458  0.5889 -1.1831 -0.7635
 4124SOL     OW23830   1.715   1.504   8.810 -0.2704 -0.4255  0.6668
 4124SOL    HW123831   1.728   1.599   8.803 -1.7283 -0.3147 -0.5760
 4124SOL    HW223832   1.798   1.471   8.776  0.2474  0.9633  0.5964
 4125SOL     OW23833   0.345   3.171   5.245 -0.0752 -0.0861  0.0873
 4125SOL    HW123834   0.286   3.097   5.260 -0.1145 -0.3102 -1.1764
 4125SOL    HW223835   0.405   3.170   5.320  0.0294 -0.7026 -0.0058
 4126SOL     OW23836   0.054   4.181   6.424 -0.4545  0.0466 -0.3077
 4126SOL    HW123837   4.694   4.142   6.393  0.3265 -1.1912 -0.8296
 4126SOL    HW223838   0.125   4.117   6.421  0.9512  1.7405 -2.7872
 4127SOL     OW23839   1.845   4.000   9.292  0.0934 -0.0183 -0.0189
 4127SOL    HW123840   1.928   4.018   9.336  1.8867 -2.3226 -2.4441
 4127SOL    HW223841   1.826   4.088   9.259  1.2924  0.3428  0.2601
 4128SOL     OW23842   4.577   1.122   6.847  0.4545  0.1070 -0.1973
 4128SOL    HW123843   4.532   1.159   6.923 -0.6131  0.6892 -1.1186
 4128SOL    HW223844   4.665   1.156   6.862  1.1359 -0.9805 -1.6624
 4129SOL     OW23845   0.672   4.570  10.421  0.3040  0.3710  0.0597
 4129SOL    HW123846   0.739   4.639  10.423  1.5489 -0.9236  2.6776
 4129SOL    HW223847   0.643   4.547  10.509 -0.1204 -0.8792 -0.4137
 4130SOL     OW23848   2.376   4.330   3.343  0.2615  0.1476 -0.0146
 4130SOL    HW123849   2.351   4.255   3.397  0.1489  0.4114  0.3037
 4130SOL    HW223850   2.380   4.300   3.253 -0.7332  2.6809 -0.9158
 4131SOL     OW23851   3.912   2.870  16.158 -0.1362  1.0252  0.0434
 4131SOL    HW123852   3.932   2.895  16.248  1.1247 -1.0275  0.3434
 4131SOL    HW223853   3.890   2.778  16.175  0.0581  0.9877  0.0839
 4132SOL     OW23854   0.772   2.741   3.412 -0.0356 -0.2375  0.2136
 4132SOL    HW123855   0.751   2.674   3.477 -1.0334 -1.2611 -1.1556
 4132SOL    HW223856   0.699   2.802   3.415  1.9877  2.2804 -1.2630
 4133SOL     OW23857   1.981   1.042   2.777  0.0318 -0.2069 -0.3778
 4133SOL    HW123858   1.963   1.029   2.870  0.3815 -1.1044 -0.4410
 4133SOL    HW223859   1.894   1.038   2.736  0.2167 -1.9957 -0.6022
 4134SOL     OW23860   2.480   1.521   3.503 -0.2706 -0.1606 -0.0859
 4134SOL    HW123861   2.431   1.468   3.566 -0.6742  2.0550  1.4649
 4134SOL    HW223862   2.431   1.602   3.518 -2.3367 -1.3356 -0.4348
 4135SOL     OW23863   3.150   0.322   5.082 -0.1505  0.4901 -0.1503
 4135SOL    HW123864   3.103   0.394   5.042  1.7051  0.1541 -2.9051
 4135SOL    HW223865   3.196   0.286   5.006  0.1955  0.9188 -0.1388
 4136SOL     OW23866   3.649   3.801   5.723  0.6262  0.0697 -0.7394
 4136SOL    HW123867   3.564   3.821   5.764  0.0497 -1.9217 -0.9458
 4136SOL    HW223868   3.641   3.707   5.707  1.5052 -0.4758  2.0502
 4137SOL     OW23869   4.226   1.799   7.416  0.1355 -0.5469 -0.1877
 4137SOL    HW123870   4.241   1.706   7.401  1.2826 -0.1839 -1.3254
 4137SOL    HW223871   4.134   1.798   7.388 -0.0528 -0.8941  0.4537
 4138SOL     OW23872   0.382   1.054   4.805 -0.1444  0.4525  0.0663
 4138SOL    HW123873   0.441   1.128   4.790  1.9607 -1.1787  0.2526
 4138SOL    HW223874   0.389   1.019   4.716  0.0937  1.6370 -0.3912
 4139SOL     OW23875   3.668   3.629   2.210 -0.1976 -0.3065 -0.0308
 4139SOL    HW123876   3.679   3.661   2.121  1.0904 -0.1772  0.1694
 4139SOL    HW223877   3.610   3.689   2.256  2.0963  2.2357 -0.4862
 4140SOL     OW23878   3.547   3.528   5.094  0.1224 -0.5150  0.7233
 4140SOL    HW123879   3.573   3.510   5.184 -0.3444  2.0299  1.3591
 4140SOL    HW223880   3.637   3.534   5.060 -0.8748  0.4390 -1.7753
 4141SOL     OW23881   4.600   2.679  10.327 -0.4821  0.2773 -0.5625
 4141SOL    HW123882   4.550   2.598  10.331  0.0289 -0.0415 -0.7163
 4141SOL    HW223883   4.589   2.703  10.234  2.8023 -2.7625 -1.7051
 4142SOL     OW23884   4.416   3.641   1.310  0.5607  0.2992 -0.1120
 4142SOL    HW123885   4.398   3.660   1.218 -0.1188  2.1983  0.4117
 4142SOL    HW223886   4.511   3.647   1.308  0.6814 -2.0408 -1.9367
 4143SOL     OW23887   2.120   1.086   6.174 -0.1171 -0.0702  0.1969
 4143SOL    HW123888   2.091   1.025   6.106  3.0674 -3.2350  1.7318
 4143SOL    HW223889   2.041   1.101   6.226 -0.2859  1.2532 -0.4239
 4144SOL     OW23890   0.983   0.691   7.956 -0.2061  0.0735  0.2068
 4144SOL    HW123891   0.987   0.775   7.910 -1.5249  0.8224  1.5148
 4144SOL    HW223892   1.028   0.633   7.894 -0.5569 -0.3064  0.3112
 4145SOL     OW23893   4.693   0.334   4.736 -0.0396  0.7365  0.2485
 4145SOL    HW123894   0.022   0.295   4.807  0.6180  3.1067  1.0553
 4145SOL    HW223895   0.024   0.328   4.656  0.1451  0.2114  0.4129
 4146SOL     OW23896   3.283   3.039   7.779  0.0342  0.0837 -0.8917
 4146SOL    HW123897   3.356   2.977   7.774  0.3178  0.3677 -0.3482
 4146SOL    HW223898   3.265   3.070   7.691  0.3350  0.3533 -0.8587
 4147SOL     OW23899   0.298   2.007   3.057  0.2855  0.6161  0.1061
 4147SOL    HW123900   0.359   1.979   2.989  0.3497  0.7794  0.0975
 4147SOL    HW223901   0.306   2.102   3.054 -0.3047  0.6670  0.0190
 4148SOL     OW23902   1.870   1.800  14.718  0.1065  0.2603  0.4547
 4148SOL    HW123903   1.895   1.722  14.668 -1.0488 -0.1106  0.4762
 4148SOL    HW223904   1.853   1.850  14.638 -3.8255  2.0117  2.3953
 4149SOL     OW23905   0.655   0.806   3.655 -0.1680 -0.0185 -0.3099
 4149SOL    HW123906   0.639   0.877   3.717  1.4029  1.8551 -2.0773
 4149SOL    HW223907   0.747   0.816   3.630  0.4809 -1.1910  1.5608
 4150SOL     OW23908   3.921   3.420   7.699 -0.6005  0.1984  0.0327
 4150SOL    HW123909   3.918   3.431   7.604 -1.4640  0.9450  0.1415
 4150SOL    HW223910   3.888   3.509   7.715 -1.4316  0.0624 -0.9074
 4151SOL     OW23911   1.464   1.190   9.165 -0.2630  1.0169  0.6079
 4151SOL    HW123912   1.452   1.110   9.216 -0.2024 -0.6676 -2.0040
 4151SOL    HW223913   1.374   1.213   9.143 -0.5968 -0.3243  0.6097
 4152SOL     OW23914   4.230   2.807   5.024 -0.1753 -0.2754 -0.1383
 4152SOL    HW123915   4.253   2.883   5.078 -2.7835  2.0956 -2.3585
 4152SOL    HW223916   4.145   2.834   4.990 -0.3868  0.6330  1.1035
 4153SOL     OW23917   3.758   3.957   6.265 -0.4152  0.0956  0.0013
 4153SOL    HW123918   3.778   3.905   6.187 -1.4618 -1.8803  1.0391
 4153SOL    HW223919   3.664   3.972   6.266 -0.3882  0.3083 -1.0634
 4154SOL     OW23920   2.480   4.085  16.190 -0.4414  0.0723  0.1848
 4154SOL    HW123921   2.562   4.040  16.212  1.0449  1.9368 -1.5663
 4154SOL    HW223922   2.508   4.136  16.114  0.0523  0.7815  0.8441
 4155SOL     OW23923   2.400   1.634  12.738  0.0897  0.2999 -0.1397
 4155SOL    HW123924   2.357   1.590  12.812 -2.7695  1.4724 -1.0765
 4155SOL    HW223925   2.431   1.569  12.675  1.2784 -1.0218  1.8321
 4156SOL     OW23926   3.230   1.054  15.182 -0.4384 -0.3486  0.2795
 4156SOL    HW123927   3.300   1.061  15.118 -1.3458  2.2484 -0.4460
 4156SOL    HW223928   3.276   1.050  15.266 -0.8760 -3.7875  0.3438
 4157SOL     OW23929   2.597   4.092  15.344  0.0193  0.1277  0.3783
 4157SOL    HW123930   2.661   4.072  15.275 -1.7238  0.0873 -1.2439
 4157SOL    HW223931   2.530   4.025  15.332  2.1912 -2.0328  0.3329
 4158SOL     OW23932   4.562   0.001   7.153  0.0217  0.2357 -0.0989
 4158SOL    HW123933   4.491   4.664   7.131  0.3369  0.2702 -1.2259
 4158SOL    HW223934   4.513   0.079   7.181 -0.8124 -0.4497  0.3559
 4159SOL     OW23935   0.019   4.248   4.458  0.1066  0.0452  0.2391
 4159SOL    HW123936   0.049   4.159   4.443  0.9435 -0.1429  2.9496
 4159SOL    HW223937   4.692   4.241   4.540  0.1281 -1.9667  0.0676
 4160SOL     OW23938   3.800   3.551   4.987 -1.1544 -0.2276  0.0613
 4160SOL    HW123939   3.855   3.573   5.062  2.2765 -1.1284 -2.1977
 4160SOL    HW223940   3.823   3.466   4.951  0.9278  0.8652 -1.1888
 4161SOL     OW23941   1.028   2.184   5.614  0.3664 -0.0628  0.2542
 4161SOL    HW123942   0.950   2.132   5.633 -0.6669  1.7774  1.0533
 4161SOL    HW223943   1.049   2.164   5.523 -0.8602  3.2647 -0.7619
 4162SOL     OW23944   2.321   1.090  14.843  0.0110 -0.0154  0.6641
 4162SOL    HW123945   2.240   1.118  14.887 -0.4172  0.7887 -0.6318
 4162SOL    HW223946   2.290   1.014  14.794  1.2870 -0.0033 -0.1711
 4163SOL     OW23947   4.114   1.174   0.302  1.1559  0.3214  0.4898
 4163SOL    HW123948   4.183   1.108   0.300  0.8596  0.0702 -1.4227
 4163SOL    HW223949   4.040   1.116   0.284  1.5902  0.1425 -0.7459
 4164SOL     OW23950   4.482   1.332   6.304 -0.0250 -0.1800 -0.1532
 4164SOL    HW123951   4.556   1.326   6.245 -0.4842 -2.4352 -0.5226
 4164SOL    HW223952   4.517   1.331   6.394  0.9167  0.0418 -0.5192
 4165SOL     OW23953   2.744   3.080   7.306 -0.5499  1.0358 -0.6987
 4165SOL    HW123954   2.800   3.015   7.348  1.2701  1.1741 -2.9066
 4165SOL    HW223955   2.693   3.112   7.380  0.2197 -0.6681  0.5785
 4166SOL     OW23956   3.844   1.187   1.762  0.1857  0.0483 -0.2640
 4166SOL    HW123957   3.886   1.206   1.678  0.4265  6.7966  1.3712
 4166SOL    HW223958   3.882   1.101   1.778  0.3547 -0.1124 -1.5516
 4167SOL     OW23959   2.292   1.995   1.779  0.0367  0.0386  0.4541
 4167SOL    HW123960   2.305   2.011   1.873  1.6981 -1.9776  0.5733
 4167SOL    HW223961   2.348   2.058   1.735 -0.7745 -0.3021 -1.0417
 4168SOL     OW23962   4.049   4.103  13.001 -0.2161 -0.3372  0.9791
 4168SOL    HW123963   3.955   4.087  13.006 -0.0332 -2.6205 -2.8634
 4168SOL    HW223964   4.059   4.195  12.978  1.2832 -0.2941  1.7574
 4169SOL     OW23965   2.665   0.563   4.628  0.2824 -0.1923 -0.0503
 4169SOL    HW123966   2.609   0.617   4.571 -0.1252 -0.1349  0.4035
 4169SOL    HW223967   2.602   0.494   4.649  0.9135 -1.2531 -1.6087
 4170SOL     OW23968   1.651   2.000   7.206  0.0287  0.1062  0.5251
 4170SOL    HW123969   1.623   2.080   7.162 -1.2429 -1.5283 -1.6700
 4170SOL    HW223970   1.614   2.016   7.294 -0.2204  2.3063  0.0163
 4171SOL     OW23971   2.356   1.152  13.603 -0.1265 -0.1246 -0.0593
 4171SOL    HW123972   2.310   1.200  13.672 -1.3184  1.2748 -1.8390
 4171SOL    HW223973   2.395   1.223  13.552  0.4374  0.3060  0.9714
 4172SOL     OW23974   3.227   2.386   8.554 -0.7823  0.1208 -0.8396
 4172SOL    HW123975   3.132   2.397   8.562 -0.9636  0.2779 -3.1113
 4172SOL    HW223976   3.251   2.457   8.495 -0.1336  0.6370  0.0678
 4173SOL     OW23977   3.624   0.152   2.647  0.4008  0.1871 -0.1717
 4173SOL    HW123978   3.658   0.066   2.673  1.4992  0.2235 -1.4767
 4173SOL    HW223979   3.678   0.154   2.568 -2.2445 -0.4924 -2.0081
 4174SOL     OW23980   4.625   4.593   0.487  0.0047 -0.5093  0.4240
 4174SOL    HW123981   4.544   4.601   0.437  1.7067  0.1968 -2.2003
 4174SOL    HW223982   4.623   4.674   0.539 -0.0655 -0.1656 -0.1108
 4175SOL     OW23983   3.457   3.716   6.361 -0.7133  0.1013 -0.6732
 4175SOL    HW123984   3.441   3.746   6.271  1.0569  2.0760 -0.3370
 4175SOL    HW223985   3.463   3.792   6.420 -0.5201  0.5067 -1.2068
 4176SOL     OW23986   4.421   2.201   8.783 -0.1083  0.7211  0.0854
 4176SOL    HW123987   4.510   2.205   8.747 -0.4639 -1.2264 -1.0176
 4176SOL    HW223988   4.394   2.289   8.810 -0.7928 -0.0412  1.9023
 4177SOL     OW23989   3.928   2.050   6.216  0.2948  0.1991 -0.3741
 4177SOL    HW123990   3.856   2.111   6.204 -0.8014 -1.1817 -0.7052
 4177SOL    HW223991   3.882   1.975   6.254 -2.3368  1.8903 -0.2650
 4178SOL     OW23992   3.998   4.152   4.038  0.2561  0.3042 -0.2164
 4178SOL    HW123993   4.024   4.061   4.032 -1.0277 -0.1054  0.5012
 4178SOL    HW223994   3.966   4.150   4.128  1.1977  3.0464  0.1880
 4179SOL     OW23995   1.302   1.626   6.908 -0.1565 -0.4988  0.3357
 4179SOL    HW123996   1.283   1.533   6.911  2.2878 -1.0905 -2.7270
 4179SOL    HW223997   1.301   1.650   7.001  1.1698 -1.0955  0.5068
 4180SOL     OW23998   0.357   2.015   4.118 -0.0314  0.0799 -0.4883
 4180SOL    HW123999   0.320   1.996   4.205 -0.8974 -0.4177 -0.9633
 4180SOL    HW224000   0.314   1.947   4.067 -2.7451  0.8423  0.7532
 4181SOL     OW24001   1.973   3.231  13.991  0.3168 -0.2078 -0.3127
 4181SOL    HW124002   1.885   3.214  14.024 -0.2937 -0.6205 -2.1353
 4181SOL    HW224003   1.959   3.214  13.897  0.3033 -2.5052  0.1165
 4182SOL     OW24004   2.176   2.915   8.938 -0.1348 -0.6243  0.1276
 4182SOL    HW124005   2.103   2.977   8.933 -0.5537 -1.1881 -0.7175
 4182SOL    HW224006   2.192   2.917   9.033 -1.1464  0.0083  0.2857
 4183SOL     OW24007   2.465   0.809   9.173 -0.0338 -0.4930  0.2092
 4183SOL    HW124008   2.402   0.806   9.101  0.7276  0.9756 -0.5148
 4183SOL    HW224009   2.528   0.744   9.143  0.5827  0.3783 -0.3537
 4184SOL     OW24010   3.673   1.294   5.388  0.2338  0.2521 -0.3151
 4184SOL    HW124011   3.726   1.226   5.430  2.1491  0.6238 -2.1544
 4184SOL    HW224012   3.660   1.351   5.464  1.6054  0.0950  0.0241
 4185SOL     OW24013   3.911   3.266   4.369  0.0938 -0.4255  0.0572
 4185SOL    HW124014   3.838   3.264   4.306 -1.5099  2.4108  1.7856
 4185SOL    HW224015   3.861   3.293   4.447  1.8925 -0.1283  1.1011
 4186SOL     OW24016   1.627   1.640   3.259 -0.2561 -0.6689 -0.2063
 4186SOL    HW124017   1.582   1.632   3.176 -0.2552  3.5014 -0.5807
 4186SOL    HW224018   1.669   1.554   3.269  1.1182 -0.0360 -0.5498
 4187SOL     OW24019   2.275   1.772   1.946 -0.0001  0.5736  0.4246
 4187SOL    HW124020   2.223   1.700   1.911  1.2872 -1.5104  2.8149
 4187SOL    HW224021   2.291   1.833   1.874  2.4765 -1.6504 -0.8992
 4188SOL     OW24022   3.415   4.491  14.534  0.5013 -0.5133 -0.2391
 4188SOL    HW124023   3.382   4.560  14.477  0.7150 -0.1225  0.1142
 4188SOL    HW224024   3.362   4.515  14.611  0.1211 -0.2860 -0.5727
 4189SOL     OW24025   3.913   0.641  16.583  0.3592 -0.1724  0.2074
 4189SOL    HW124026   3.913   0.568  16.520 -0.1868  0.4914 -0.5606
 4189SOL    HW224027   3.973   0.705  16.545  0.5543  0.3938  1.4666
 4190SOL     OW24028   2.861   4.680   5.410  0.3336 -0.1463  0.2691
 4190SOL    HW124029   2.892   0.030   5.355  0.0854  0.1893  0.5673
 4190SOL    HW224030   2.945   4.639   5.429  0.1379 -0.6127  0.1471
 4191SOL     OW24031   1.414   0.555   9.856  0.0718 -0.2583 -0.2312
 4191SOL    HW124032   1.471   0.613   9.804  1.2511 -0.4317  0.8579
 4191SOL    HW224033   1.384   0.597   9.936 -0.6338  0.3803 -0.8386
 4192SOL     OW24034   3.344   2.738  14.324  0.7001 -0.3059 -0.1430
 4192SOL    HW124035   3.429   2.782  14.337  0.6209  0.3749 -1.9851
 4192SOL    HW224036   3.346   2.697  14.411  1.9525 -1.2206 -0.5925
 4193SOL     OW24037   1.302   4.319  16.433  0.2701  0.6499  0.3496
 4193SOL    HW124038   1.209   4.325  16.410 -0.1603 -0.4383  1.8567
 4193SOL    HW224039   1.334   4.406  16.406  2.0470 -0.2071 -0.3136
 4194SOL     OW24040   0.234   1.923   8.515  0.1580  0.1164  0.0586
 4194SOL    HW124041   0.178   1.860   8.470 -0.6311  2.0422 -1.6205
 4194SOL    HW224042   0.220   1.895   8.606 -2.0792  0.4910 -0.1727
 4195SOL     OW24043   1.985   3.665   7.279  0.4322 -0.2611 -0.0674
 4195SOL    HW124044   1.912   3.726   7.287  0.5611 -0.0022 -0.8946
 4195SOL    HW224045   2.057   3.723   7.306 -1.2444  1.9690 -0.3954
 4196SOL     OW24046   0.372   2.580  12.952 -0.1344 -0.3326  0.7550
 4196SOL    HW124047   0.375   2.543  12.864  1.1958 -0.6853  0.9551
 4196SOL    HW224048   0.459   2.553  12.980  0.3899  0.0055 -0.5553
 4197SOL     OW24049   2.774   3.164   8.790  0.1915  0.7253 -0.0960
 4197SOL    HW124050   2.833   3.154   8.864 -0.2592  2.3076  0.4805
 4197SOL    HW224051   2.713   3.231   8.823 -1.8074 -1.0678 -0.1816
 4198SOL     OW24052   1.366   4.671   9.012 -0.0075 -0.0952  0.3636
 4198SOL    HW124053   1.373   0.043   9.028  2.8419  0.0748 -1.8617
 4198SOL    HW224054   1.402   4.666   8.923 -1.7675  0.0284 -0.3396
 4199SOL     OW24055   3.280   2.113   0.605 -0.4985  0.2045 -0.1389
 4199SOL    HW124056   3.229   2.194   0.616 -1.2137 -0.6846  3.2389
 4199SOL    HW224057   3.239   2.057   0.671  0.9014 -0.0523  0.4976
 4200SOL     OW24058   1.515   4.568   8.755 -0.0387  0.2441 -0.2938
 4200SOL    HW124059   1.503   4.481   8.793 -0.8522  0.3885 -0.2127
 4200SOL    HW224060   1.453   4.566   8.682  0.9137 -0.6098 -1.0938
 4201SOL     OW24061   4.305   0.558  10.955 -0.1371 -0.1777 -0.2547
 4201SOL    HW124062   4.362   0.482  10.969  0.6084  0.6114  0.9216
 4201SOL    HW224063   4.310   0.619  11.028  0.4855 -1.0281  0.4272
 4202SOL     OW24064   2.610   3.124   5.535 -0.0114  0.0841  0.3227
 4202SOL    HW124065   2.516   3.110   5.526  0.0871 -0.3255 -0.0695
 4202SOL    HW224066   2.603   3.174   5.616 -1.3360 -0.4539  0.5407
 4203SOL     OW24067   0.110   4.708   6.521  0.6870  0.0180 -0.3271
 4203SOL    HW124068   0.016   4.714   6.537  0.4677 -1.5348 -1.0491
 4203SOL    HW224069   0.130   0.027   6.437  0.0050  1.1422  0.0594
 4204SOL     OW24070   3.151   1.023  13.778 -0.0728  0.5554  0.2221
 4204SOL    HW124071   3.160   0.930  13.757  0.7401  0.4936  0.8443
 4204SOL    HW224072   3.072   1.048  13.729 -0.9492 -2.5131  0.0952
 4205SOL     OW24073   2.368   2.073  17.461 -0.0242 -0.1079  0.5973
 4205SOL    HW124074   2.411   2.137  17.518  0.5099  1.0158 -1.0848
 4205SOL    HW224075   2.278   2.106  17.463 -0.6021 -1.6710  0.2291
 4206SOL     OW24076   4.274   3.991   2.722  0.6457 -0.0809 -0.2041
 4206SOL    HW124077   4.183   4.016   2.709  0.5015 -0.9765 -0.9436
 4206SOL    HW224078   4.317   4.076   2.710 -1.4020  0.9777  0.0609
 4207SOL     OW24079   1.534   3.401   9.061 -0.2702 -0.4407 -0.3137
 4207SOL    HW124080   1.507   3.355   8.982 -0.1336 -2.7357  0.9628
 4207SOL    HW224081   1.465   3.388   9.127 -0.7692 -1.7181 -1.0699
 4208SOL     OW24082   0.645   2.213   4.844 -0.9537 -0.4360  0.7109
 4208SOL    HW124083   0.621   2.293   4.891 -0.4047  0.4709 -0.5630
 4208SOL    HW224084   0.591   2.222   4.766 -0.0757 -0.6858  0.0753
 4209SOL     OW24085   2.236   1.780  12.439  0.9619 -0.2407 -0.0223
 4209SOL    HW124086   2.286   1.861  12.445  0.1251  0.3949 -1.5216
 4209SOL    HW224087   2.308   1.718  12.430 -0.8419 -2.4223  0.3924
 4210SOL     OW24088   4.255   3.609  17.623 -0.4997 -0.1624 -0.1998
 4210SOL    HW124089   4.255   3.552   0.009  0.8681 -0.0018 -0.0825
 4210SOL    HW224090   4.178   3.663  17.640  1.3520  2.5424 -0.5767
 4211SOL     OW24091   4.671   4.583  11.944  0.5997  0.2929 -0.1476
 4211SOL    HW124092   4.625   4.588  12.028  1.3907 -0.3196  0.3184
 4211SOL    HW224093   4.631   4.505  11.905  0.8601  0.2880 -0.4076
 4212SOL     OW24094   3.664   3.567   8.472  0.0829  0.1582  0.3994
 4212SOL    HW124095   3.682   3.614   8.554 -0.0931 -2.9981  2.2355
 4212SOL    HW224096   3.576   3.603   8.461 -0.2328 -0.1637  1.8385
 4213SOL     OW24097   2.082   2.277   0.524  0.0659 -0.2256 -0.0306
 4213SOL    HW124098   1.993   2.286   0.489  1.0479  1.4276 -2.1324
 4213SOL    HW224099   2.057   2.208   0.585 -0.7846 -0.0823 -0.2091
 4214SOL     OW24100   1.534   1.308  14.844 -0.0629  0.3725 -0.3063
 4214SOL    HW124101   1.612   1.363  14.847 -0.0751  0.3145  1.3707
 4214SOL    HW224102   1.490   1.357  14.775 -0.4323 -0.5638 -0.7321
 4215SOL     OW24103   3.165   2.425   3.719 -0.2925 -0.1842  0.2262
 4215SOL    HW124104   3.134   2.510   3.749 -0.1404 -0.5445  1.3766
 4215SOL    HW224105   3.102   2.375   3.770 -0.7420 -0.2386 -0.3746
 4216SOL     OW24106   1.560   2.447  14.977 -0.1567  0.4932 -0.4390
 4216SOL    HW124107   1.597   2.534  14.989  1.7934 -0.3368 -0.4715
 4216SOL    HW224108   1.568   2.456  14.882  0.2402  0.6670 -0.3878
 4217SOL     OW24109   1.192   1.299   4.918 -0.0200 -0.1089 -0.1972
 4217SOL    HW124110   1.191   1.225   4.979  0.3173  0.5515  0.6244
 4217SOL    HW224111   1.157   1.373   4.967  1.7914  1.2206 -0.9152
 4218SOL     OW24112   2.007   1.459   8.686 -0.1345 -0.1415  0.2937
 4218SOL    HW124113   2.041   1.369   8.683  0.7808  0.2245 -0.2927
 4218SOL    HW224114   2.043   1.492   8.604  1.1492 -2.6795 -0.1755
 4219SOL     OW24115   2.165   0.910  15.090 -0.6158  0.1924  0.1876
 4219SOL    HW124116   2.132   0.971  15.024 -0.0449 -1.0292 -1.2351
 4219SOL    HW224117   2.221   0.963  15.146 -0.2573 -2.1949  2.0737
 4220SOL     OW24118   0.894   0.262   1.288  0.1862  0.3921  0.5164
 4220SOL    HW124119   0.895   0.345   1.242 -0.3433 -0.1554 -0.4805
 4220SOL    HW224120   0.802   0.261   1.316 -0.3990  2.3540 -1.3583
 4221SOL     OW24121   3.517   0.473  14.818  0.2405  0.0940  0.0600
 4221SOL    HW124122   3.461   0.505  14.888  1.9458 -0.8303  1.8379
 4221SOL    HW224123   3.534   0.386  14.853  0.1631  0.4343  0.9569
 4222SOL     OW24124   2.080   2.131   6.663  0.0698  0.0512 -0.1429
 4222SOL    HW124125   2.035   2.091   6.737 -0.5356 -1.8657 -1.5623
 4222SOL    HW224126   2.012   2.135   6.595  1.6122 -0.1771 -1.7146
 4223SOL     OW24127   3.556   1.097   3.235 -0.3803 -1.2167  0.1588
 4223SOL    HW124128   3.462   1.075   3.233 -0.7937  0.7634 -1.8407
 4223SOL    HW224129   3.592   1.026   3.287 -2.6152 -1.0493  1.9459
 4224SOL     OW24130   3.172   0.016   2.818  0.1253 -0.7964  0.2712
 4224SOL    HW124131   3.135   4.704   2.737  1.8914 -3.1985  0.4850
 4224SOL    HW224132   3.225   0.088   2.783 -1.3369  1.1105  1.9249
 4225SOL     OW24133   0.259   4.684   5.163  0.1545 -0.0927  0.4365
 4225SOL    HW124134   0.294   4.719   5.245 -1.5948 -1.1008  1.6074
 4225SOL    HW224135   0.191   0.024   5.138  1.1508  0.9562  0.3637
 4226SOL     OW24136   4.611   0.011   1.750  0.2076  0.2668 -0.8163
 4226SOL    HW124137   4.566   4.667   1.697  0.9081 -0.7694 -0.1292
 4226SOL    HW224138   4.547   0.080   1.763 -2.0539 -2.0081  0.0735
 4227SOL     OW24139   4.045   4.277   9.903  0.6254  0.2588 -0.3720
 4227SOL    HW124140   4.122   4.332   9.890  1.2657 -0.5278  0.0850
 4227SOL    HW224141   3.971   4.337   9.902  0.6224  0.2539 -0.6783
 4228SOL     OW24142   3.168   2.540   8.220  0.2464  0.1425  0.5380
 4228SOL    HW124143   3.204   2.575   8.302  1.6449  2.3210 -1.0174
 4228SOL    HW224144   3.133   2.627   8.198  1.1692 -0.3327 -2.8103
 4229SOL     OW24145   3.714   3.952   1.567 -0.4528 -0.1586 -0.2289
 4229SOL    HW124146   3.689   3.993   1.484 -0.5190  2.8364  1.2472
 4229SOL    HW224147   3.674   4.000   1.640  0.5231  0.7918 -0.3121
 4230SOL     OW24148   2.778   2.997   8.462 -0.4075  0.3691 -1.2041
 4230SOL    HW124149   2.709   3.035   8.516 -0.9568 -0.7241 -1.1517
 4230SOL    HW224150   2.830   2.952   8.529 -0.8751  1.4273 -0.1376
 4231SOL     OW24151   3.909   2.122   4.578 -0.1846 -0.3538 -0.3536
 4231SOL    HW124152   3.868   2.200   4.614  1.6192 -0.0702  1.1314
 4231SOL    HW224153   3.990   2.112   4.629 -1.4508 -2.6982  1.2062
 4232SOL     OW24154   3.858   0.633  11.047 -0.5136 -0.3934  0.3421
 4232SOL    HW124155   3.890   0.547  11.075 -0.3533 -0.3584  0.2667
 4232SOL    HW224156   3.877   0.654  10.955 -1.2647  0.1704  0.3213
 4233SOL     OW24157   2.397   1.336   7.157 -0.1083 -0.0334 -0.1994
 4233SOL    HW124158   2.340   1.401   7.196 -0.9452  1.0265 -3.1592
 4233SOL    HW224159   2.397   1.369   7.067  2.5585 -1.1445 -0.6337
 4234SOL     OW24160   3.310   3.329   7.863 -0.2055 -0.2792 -0.4845
 4234SOL    HW124161   3.403   3.317   7.849  0.2703 -0.1238  2.6181
 4234SOL    HW224162   3.292   3.235   7.868 -1.0027 -0.0358  1.3237
 4235SOL     OW24163   0.114   0.959   9.411 -0.0063 -0.0357  0.1827
 4235SOL    HW124164   0.097   1.052   9.397 -1.2007 -0.2487  0.1754
 4235SOL    HW224165   0.135   0.936   9.321  1.2354  1.0975  0.1917
 4236SOL     OW24166   2.615   1.772  14.428 -0.2840 -0.3509  0.3601
 4236SOL    HW124167   2.692   1.825  14.448 -0.0068 -0.0103 -1.5822
 4236SOL    HW224168   2.610   1.791  14.334 -0.2338 -0.2911  0.3693
 4237SOL     OW24169   2.458   0.236   7.363 -0.6291  0.8682 -0.0584
 4237SOL    HW124170   2.372   0.199   7.384  0.1269 -1.2752 -0.7292
 4237SOL    HW224171   2.448   0.235   7.268 -0.1922  0.5405 -0.1030
 4238SOL     OW24172   0.373   3.063   1.757 -0.4262  0.5185  0.0972
 4238SOL    HW124173   0.346   3.112   1.835  3.0943  2.8658 -0.1608
 4238SOL    HW224174   0.467   3.069   1.771 -0.4096 -0.3443  0.3938
 4239SOL     OW24175   0.046   0.637  13.869  0.1776 -0.6929 -0.0919
 4239SOL    HW124176   0.012   0.549  13.886  0.5514 -0.6973  0.6363
 4239SOL    HW224177   0.091   0.620  13.787  0.4994 -0.6084  0.0668
 4240SOL     OW24178   2.750   1.465   3.775  0.2908 -0.1142 -0.3386
 4240SOL    HW124179   2.832   1.429   3.741 -0.0660 -1.0482 -0.2109
 4240SOL    HW224180   2.711   1.379   3.789 -3.1939  1.4517 -0.5641
 4241SOL     OW24181   4.465   4.165   3.777 -0.3028 -0.4219 -0.3783
 4241SOL    HW124182   4.426   4.143   3.692 -0.5959 -0.5137 -0.2217
 4241SOL    HW224183   4.394   4.187   3.837 -0.6547 -2.2539 -0.1256
 4242SOL     OW24184   1.725   2.358   4.886 -0.0651 -0.4040  0.1435
 4242SOL    HW124185   1.789   2.411   4.838  0.6846 -2.2853 -0.9522
 4242SOL    HW224186   1.739   2.380   4.978 -1.2366  0.3962  0.1237
 4243SOL     OW24187   4.284   2.884   0.748 -0.2964  0.3913 -0.2650
 4243SOL    HW124188   4.331   2.944   0.804  0.8964  0.7272 -1.6279
 4243SOL    HW224189   4.314   2.913   0.662  1.9517  0.9657  0.7354
 4244SOL     OW24190   1.196   4.275   7.240  0.1604 -0.2643  0.0109
 4244SOL    HW124191   1.156   4.219   7.173 -0.6191  1.5035 -0.9805
 4244SOL    HW224192   1.223   4.355   7.197  3.3856 -1.7597 -0.7269
 4245SOL     OW24193   2.835   3.130   3.827 -0.3869 -0.2504 -0.2916
 4245SOL    HW124194   2.807   3.090   3.744  0.6722 -1.8594  0.1232
 4245SOL    HW224195   2.783   3.210   3.829 -1.4116 -0.9839  2.0306
 4246SOL     OW24196   2.068   0.897  13.645 -0.5411 -0.3616  0.4009
 4246SOL    HW124197   2.040   0.805  13.644 -0.0865 -0.4995  2.5677
 4246SOL    HW224198   2.000   0.942  13.695 -1.3448 -1.9396  0.7489
 4247SOL     OW24199   4.692   0.610   9.643  0.6132  0.2092  0.5531
 4247SOL    HW124200   0.013   0.651   9.718  1.9727  0.0068 -0.1096
 4247SOL    HW224201   4.657   0.532   9.685  2.3533  0.4879  2.4973
 4248SOL     OW24202   3.781   3.152  14.559 -0.1439 -0.3711 -0.6190
 4248SOL    HW124203   3.823   3.154  14.473  1.4354  1.8854  0.1959
 4248SOL    HW224204   3.692   3.184  14.550  0.3418  0.4682 -2.3904
 4249SOL     OW24205   0.705   0.543   6.049  0.3616 -0.1467 -0.0761
 4249SOL    HW124206   0.751   0.625   6.068  0.0708  0.2099 -0.9574
 4249SOL    HW224207   0.760   0.512   5.977  1.2551 -0.5306  0.7607
 4250SOL     OW24208   2.401   4.405   1.796 -0.5261  0.4091 -1.0031
 4250SOL    HW124209   2.339   4.337   1.771 -1.0744  0.0402  1.3337
 4250SOL    HW224210   2.477   4.354   1.771  0.4950  2.4394 -2.0598
 4251SOL     OW24211   3.599   1.666   4.841  0.0843  0.3619  0.8285
 4251SOL    HW124212   3.653   1.603   4.889  0.8127  0.6237  0.3568
 4251SOL    HW224213   3.668   1.705   4.787  0.2990 -0.6706  0.3704
 4252SOL     OW24214   2.065   1.653   7.493  0.0270  0.1379 -0.4837
 4252SOL    HW124215   1.978   1.693   7.497  0.3397  0.8971 -1.2192
 4252SOL    HW224216   2.049   1.578   7.550 -2.3855  1.3936  0.5262
 4253SOL     OW24217   4.199   3.188   8.004 -0.4932 -0.2430  0.6748
 4253SOL    HW124218   4.224   3.280   8.015 -1.5008  0.2531 -1.2212
 4253SOL    HW224219   4.145   3.197   7.925  0.7029  0.5205 -0.0665
 4254SOL     OW24220   1.830   3.744   7.587 -0.0254  0.2990 -0.3859
 4254SOL    HW124221   1.894   3.720   7.654 -0.1707  0.7243 -0.0919
 4254SOL    HW224222   1.759   3.776   7.643 -0.3448 -2.8365  0.9704
 4255SOL     OW24223   4.707   2.219  12.511 -0.5065  0.5067 -0.1163
 4255SOL    HW124224   4.680   2.309  12.530 -1.3094  0.2239  0.1125
 4255SOL    HW224225   4.654   2.162  12.568  0.1505  0.8980  0.8915
 4256SOL     OW24226   4.716   0.769   0.926 -0.0185 -0.5562 -0.0661
 4256SOL    HW124227   4.673   0.799   1.007  1.0823  1.4827 -0.2493
 4256SOL    HW224228   0.066   0.832   0.922 -0.6198  0.0519 -1.2147
 4257SOL     OW24229   4.503   2.231   3.047 -0.3172  0.0433  0.1716
 4257SOL    HW124230   4.501   2.157   3.108 -1.0422  0.1304  0.2542
 4257SOL    HW224231   4.487   2.310   3.099 -1.1183 -1.8867  2.8950
 4258SOL     OW24232   0.385   4.687   4.054 -0.3469  0.7528 -0.8106
 4258SOL    HW124233   0.450   4.633   4.011 -2.2458 -1.0150 -1.4362
 4258SOL    HW224234   0.433   0.043   4.083  2.0672 -0.6716 -0.9646
 4259SOL     OW24235   1.229   3.631  12.738  0.5375 -0.1631 -0.0618
 4259SOL    HW124236   1.157   3.635  12.800 -1.5352  1.7542 -2.5878
 4259SOL    HW224237   1.206   3.695  12.671  1.2778  1.2912  1.0831
 4260SOL     OW24238   2.619   0.331   5.523  0.0755 -0.5012  0.3331
 4260SOL    HW124239   2.564   0.397   5.566 -0.6643 -2.0862  1.8046
 4260SOL    HW224240   2.559   0.258   5.507 -1.2700  0.2246  2.0534
 4261SOL     OW24241   3.916   1.497   2.420 -0.6582 -0.0369 -0.2845
 4261SOL    HW124242   3.909   1.425   2.483  0.0214 -1.5275 -1.9130
 4261SOL    HW224243   3.968   1.454   2.352 -0.1686 -1.6128  1.0684
 4262SOL     OW24244   0.587   4.329   8.645  0.0941 -0.0097 -0.4172
 4262SOL    HW124245   0.678   4.358   8.651 -0.4360  1.4032  0.6875
 4262SOL    HW224246   0.584   4.314   8.550  3.7720 -3.0502 -0.0651
 4263SOL     OW24247   3.115   1.918  12.628  0.1077 -0.2999 -0.1945
 4263SOL    HW124248   3.040   1.931  12.570 -2.4840  0.5848  3.3464
 4263SOL    HW224249   3.094   1.857  12.698  0.2273  2.6826  2.4289
 4264SOL     OW24250   2.269   3.030   6.461 -0.3247 -0.0360  0.2779
 4264SOL    HW124251   2.335   3.072   6.516  1.8442 -1.6564 -1.1125
 4264SOL    HW224252   2.312   3.028   6.376 -1.9078  1.9458 -0.5597
 4265SOL     OW24253   2.905   1.471  11.693  0.0778  0.7337 -0.1457
 4265SOL    HW124254   2.968   1.529  11.652  0.3860  2.0757  2.2139
 4265SOL    HW224255   2.892   1.422  11.612 -1.8762  0.8029  0.1113
 4266SOL     OW24256   2.495   3.641   6.410  0.6213 -0.2138 -0.1489
 4266SOL    HW124257   2.470   3.685   6.491 -2.2209 -1.8987 -0.0982
 4266SOL    HW224258   2.428   3.677   6.351  2.9569  0.8357 -2.1637
 4267SOL     OW24259   1.956   2.726  15.961 -0.3717  0.3513 -0.4218
 4267SOL    HW124260   1.987   2.644  15.923  3.2571  1.5445 -0.0643
 4267SOL    HW224261   1.902   2.762  15.890 -1.1214 -0.7176 -0.3804
 4268SOL     OW24262   4.648   2.474   4.182  0.2737  0.6589  0.4066
 4268SOL    HW124263   4.679   2.385   4.199 -1.4405 -0.1069 -0.4989
 4268SOL    HW224264   4.707   2.522   4.241  1.2530 -2.2912  1.8553
 4269SOL     OW24265   2.326   3.779  14.953 -0.7909 -0.5003  0.2294
 4269SOL    HW124266   2.357   3.710  15.012  2.2836 -0.0561 -0.8521
 4269SOL    HW224267   2.280   3.834  15.017  4.1436  2.3282  1.3018
 4270SOL     OW24268   1.284   3.871   0.047 -0.6220 -0.2441 -0.5171
 4270SOL    HW124269   1.207   3.927   0.062 -0.8009 -0.7440  0.3928
 4270SOL    HW224270   1.319   3.913  17.659  2.0655 -2.7725 -0.6601
 4271SOL     OW24271   2.098   0.603   3.456  0.8630  0.2577 -0.2849
 4271SOL    HW124272   2.081   0.695   3.438 -0.4514  0.0931  0.1272
 4271SOL    HW224273   2.089   0.598   3.551  0.3843 -1.0248 -0.3963
 4272SOL     OW24274   2.448   1.436  11.748  0.3456 -0.2350  0.0550
 4272SOL    HW124275   2.517   1.370  11.746 -1.7422 -2.3867 -3.1794
 4272SOL    HW224276   2.495   1.505  11.793 -1.0560  1.0431 -0.4389
 4273SOL     OW24277   1.661   2.723   2.140  0.1773  0.0658  0.2122
 4273SOL    HW124278   1.705   2.704   2.057 -1.6786 -0.6119 -0.6244
 4273SOL    HW224279   1.679   2.814   2.163  1.4489  0.1457 -1.0477
 4274SOL     OW24280   2.568   1.098   3.182  0.3737  0.0060  0.1125
 4274SOL    HW124281   2.586   1.172   3.240 -1.4915  0.2768  0.3571
 4274SOL    HW224282   2.653   1.083   3.141  0.2482 -0.0681 -0.1204
 4275SOL     OW24283   1.050   1.474   5.058  0.4163 -0.3422  0.1117
 4275SOL    HW124284   0.960   1.451   5.085 -0.0496 -0.7799 -1.8405
 4275SOL    HW224285   1.040   1.568   5.047  0.0598 -0.3207  0.5938
 4276SOL     OW24286   3.309   0.214  10.094 -0.1266  0.5584  0.0129
 4276SOL    HW124287   3.378   0.210  10.160 -0.1328 -2.1548 -0.1376
 4276SOL    HW224288   3.262   0.131  10.101 -0.1113  0.5031 -0.4969
 4277SOL     OW24289   0.546   2.574   8.787  0.0619 -0.4560 -0.1345
 4277SOL    HW124290   0.467   2.566   8.841  0.2728  1.6112  0.4768
 4277SOL    HW224291   0.584   2.489   8.807 -2.9538 -2.1856 -1.7127
 4278SOL     OW24292   1.564   4.024  15.075  0.1674 -0.2572 -0.4872
 4278SOL    HW124293   1.539   4.096  15.018 -1.0469  0.8313  1.3888
 4278SOL    HW224294   1.657   4.011  15.056  0.1665 -1.9000  0.5732
 4279SOL     OW24295   0.250   3.153   0.677  0.4466 -0.3226  0.3460
 4279SOL    HW124296   0.181   3.218   0.692  0.1602 -0.9629  1.8122
 4279SOL    HW224297   0.196   3.076   0.694  1.4744 -1.3710 -1.0979
 4280SOL     OW24298   0.905   4.139   3.453 -0.1338  0.5364 -0.3575
 4280SOL    HW124299   0.883   4.187   3.373 -1.8757  0.2308 -0.0688
 4280SOL    HW224300   0.949   4.063   3.416 -2.3681 -0.5320 -0.8591
 4281SOL     OW24301   0.826   0.810  10.248 -0.0539 -0.2227  0.6096
 4281SOL    HW124302   0.841   0.718  10.269  0.6616 -0.3899 -0.6619
 4281SOL    HW224303   0.906   0.862  10.247 -0.2073  0.0317  2.2578
 4282SOL     OW24304   4.319   0.599   8.362  0.0093  0.0836  0.3778
 4282SOL    HW124305   4.281   0.521   8.402 -1.5642  0.3383 -0.6067
 4282SOL    HW224306   4.408   0.566   8.350 -1.0655 -1.8012 -2.3434
 4283SOL     OW24307   1.488   0.747  14.704 -0.3101 -0.2735 -0.0167
 4283SOL    HW124308   1.430   0.753  14.780 -0.0784 -3.6542  0.4090
 4283SOL    HW224309   1.560   0.804  14.730 -0.8300  0.4677 -0.1905
 4284SOL     OW24310   1.762   0.863  12.710  0.1988  0.4588  0.4716
 4284SOL    HW124311   1.711   0.882  12.789  0.4674 -1.4231  1.0914
 4284SOL    HW224312   1.742   0.769  12.705 -2.5867  1.0344  0.6463
 4285SOL     OW24313   0.100   2.498   5.898  0.3434 -0.4386  0.1222
 4285SOL    HW124314   0.173   2.437   5.891  1.3280  0.8939 -1.3102
 4285SOL    HW224315   0.089   2.540   5.812  0.4659 -0.3180  0.1653
 4286SOL     OW24316   3.920   1.267   3.396 -0.1235 -0.3886  0.2291
 4286SOL    HW124317   3.911   1.219   3.314 -0.4011 -0.6753  0.4271
 4286SOL    HW224318   3.852   1.329   3.371  0.5313  0.1683 -0.1733
 4287SOL     OW24319   2.593   1.517   2.838  0.2344 -0.1701  0.2462
 4287SOL    HW124320   2.587   1.510   2.933 -0.0489 -1.4340  0.1379
 4287SOL    HW224321   2.580   1.611   2.826 -0.7481 -0.3658 -0.2675
 4288SOL     OW24322   0.813   3.106   3.433  0.2062 -0.2509 -0.6311
 4288SOL    HW124323   0.774   3.183   3.392  1.0528  0.8570  0.6495
 4288SOL    HW224324   0.825   3.052   3.355  0.3774 -1.1717  0.0242
 4289SOL     OW24325   3.441   2.040   7.731  0.5013 -0.4022  0.1805
 4289SOL    HW124326   3.445   2.134   7.715  1.1496 -0.6511 -1.1149
 4289SOL    HW224327   3.381   2.014   7.661  0.2522 -2.3660  1.1201
 4290SOL     OW24328   2.830   4.531  17.240  0.0821  0.7432 -0.1150
 4290SOL    HW124329   2.887   4.596  17.199  0.7900 -0.3885 -0.9271
 4290SOL    HW224330   2.886   4.456  17.259 -0.9353  0.2717  1.0044
 4291SOL     OW24331   0.209   1.888   7.725 -0.7758  0.1845  0.2366
 4291SOL    HW124332   0.162   1.811   7.695  1.2766 -0.3779 -1.5836
 4291SOL    HW224333   0.211   1.862   7.817 -1.0256 -2.1878 -0.4240
 4292SOL     OW24334   3.836   4.454   5.159  0.2093 -0.3747  0.6806
 4292SOL    HW124335   3.861   4.391   5.227  0.9436 -0.1985  0.5733
 4292SOL    HW224336   3.761   4.505   5.189  0.8682  0.6756  0.5501
 4293SOL     OW24337   3.431   0.175   5.579  0.1388 -0.2777  0.0280
 4293SOL    HW124338   3.405   0.263   5.552  3.4556  0.8078  0.3384
 4293SOL    HW224339   3.354   0.126   5.552  0.9468 -1.3381 -0.3789
 4294SOL     OW24340   1.836   4.030   3.285 -0.4826  0.4299 -0.1431
 4294SOL    HW124341   1.768   3.979   3.241  1.3378 -2.3519  0.2581
 4294SOL    HW224342   1.786   4.096   3.332 -1.9995 -0.7861 -0.0594
 4295SOL     OW24343   2.224   0.224  11.021 -0.7478  0.2537  0.1526
 4295SOL    HW124344   2.141   0.233  11.067 -0.8353 -0.1466  0.0749
 4295SOL    HW224345   2.236   0.129  11.016 -2.6274  0.1293 -2.1834
 4296SOL     OW24346   1.945   2.339   2.070 -0.2998  0.3115  0.1319
 4296SOL    HW124347   2.035   2.329   2.100 -0.6385 -0.4322  0.9005
 4296SOL    HW224348   1.928   2.417   2.124 -1.6271  1.8006 -2.4259
 4297SOL     OW24349   2.067   3.008   5.373  0.4258 -0.3009  0.2575
 4297SOL    HW124350   1.979   3.012   5.336  0.5247 -0.0954  0.0438
 4297SOL    HW224351   2.080   3.097   5.407  1.2987 -0.2978 -0.0911
 4298SOL     OW24352   3.811   4.237   1.581 -0.1826 -0.5972  0.1517
 4298SOL    HW124353   3.816   4.154   1.533  2.2745 -0.0335 -0.5233
 4298SOL    HW224354   3.729   4.225   1.630  0.8977 -0.4124  1.9905
 4299SOL     OW24355   3.952   4.281   5.373 -0.4498  0.4294 -0.4719
 4299SOL    HW124356   3.972   4.248   5.461 -1.6213 -2.5146 -1.3319
 4299SOL    HW224357   3.948   4.374   5.394 -0.0526  0.2097  0.5711
 4300SOL     OW24358   4.435   2.811   9.257 -0.1237  0.7147  0.5761
 4300SOL    HW124359   4.478   2.751   9.195 -1.1907  0.5954 -0.0555
 4300SOL    HW224360   4.369   2.854   9.202  0.7132  0.2579 -0.8117
 4301SOL     OW24361   4.449   0.392   4.022  0.0222 -0.3449  0.3231
 4301SOL    HW124362   4.448   0.361   3.931 -2.6812  0.8672 -0.0573
 4301SOL    HW224363   4.458   0.485   4.000 -2.9605  0.2910  1.8420
 4302SOL     OW24364   2.963   3.155   7.565 -0.1619  0.0163 -0.2242
 4302SOL    HW124365   2.934   3.076   7.609 -2.0727  1.8710  1.8312
 4302SOL    HW224366   2.924   3.228   7.613 -0.4680 -0.2418 -0.0849
 4303SOL     OW24367   3.873   2.288   2.474  0.1373 -0.4473 -0.2590
 4303SOL    HW124368   3.855   2.201   2.510  1.6972 -1.0593 -0.9474
 4303SOL    HW224369   3.789   2.332   2.490  2.3273  3.1086  1.1896
 4304SOL     OW24370   3.693   0.228  11.884  0.3256  0.6459  0.3847
 4304SOL    HW124371   3.782   0.199  11.905 -0.1988  0.0791  1.7751
 4304SOL    HW224372   3.651   0.153  11.843  0.4973  0.2926  0.8583
 4305SOL     OW24373   3.107   0.080   3.400 -0.2641 -0.2852  0.2359
 4305SOL    HW124374   3.199   0.062   3.417  0.0301 -0.5272 -1.5850
 4305SOL    HW224375   3.067   0.049   3.482 -2.0210 -1.7903 -1.1807
 4306SOL     OW24376   1.771   3.599   8.927  0.0443  0.3897 -0.2198
 4306SOL    HW124377   1.687   3.637   8.952  0.8415  1.0491  1.4372
 4306SOL    HW224378   1.828   3.674   8.944  0.8584 -0.6229  1.4396
 4307SOL     OW24379   4.241   4.024   8.274 -0.3267 -0.5438 -0.2527
 4307SOL    HW124380   4.199   4.054   8.355  2.8291  0.8385  0.8495
 4307SOL    HW224381   4.333   4.042   8.292 -0.5473  0.6548 -0.3446
 4308SOL     OW24382   2.582   2.749   8.557  0.2117  0.3410 -0.5468
 4308SOL    HW124383   2.611   2.827   8.604  0.6293  0.7498 -1.4801
 4308SOL    HW224384   2.510   2.789   8.509 -0.3601 -0.5674 -0.4457
 4309SOL     OW24385   2.974   4.371   3.218  0.0389 -0.2415 -0.2650
 4309SOL    HW124386   2.931   4.431   3.279  1.9354 -1.0634  1.8872
 4309SOL    HW224387   2.959   4.424   3.140  0.0394  0.2571  0.0713
 4310SOL     OW24388   3.009   3.875   7.699 -0.2704  0.2441  0.6774
 4310SOL    HW124389   3.099   3.890   7.668 -1.2155 -0.0173 -2.2098
 4310SOL    HW224390   2.967   3.946   7.651  1.4124  0.0473 -1.1092
 4311SOL     OW24391   1.096   2.647   4.559  0.4427 -0.3490  0.2206
 4311SOL    HW124392   1.153   2.583   4.601  1.7344  0.2796 -0.5381
 4311SOL    HW224393   1.151   2.726   4.563 -0.9536  0.5763  1.3846
 4312SOL     OW24394   2.109   2.545   4.875  0.0465 -0.2700  0.3918
 4312SOL    HW124395   2.174   2.544   4.805  2.7640  0.9690  2.9463
 4312SOL    HW224396   2.095   2.637   4.896  2.0648  0.1867 -0.3152
 4313SOL     OW24397   3.462   3.084   9.376  0.0507 -0.3446  0.0346
 4313SOL    HW124398   3.469   3.156   9.313  0.8324  2.8697  3.7780
 4313SOL    HW224399   3.552   3.055   9.390 -0.6511 -2.0906  0.9878
 4314SOL     OW24400   3.689   1.866   7.131 -0.1336  0.0736  0.2977
 4314SOL    HW124401   3.673   1.813   7.209 -0.2498  1.9608  1.5644
 4314SOL    HW224402   3.781   1.842   7.122 -0.7685 -1.8409 -1.1808
 4315SOL     OW24403   2.422   0.850   8.561  0.0992 -0.1947 -0.1812
 4315SOL    HW124404   2.434   0.852   8.656 -3.3945  0.0491  0.2709
 4315SOL    HW224405   2.496   0.902   8.532  0.5851 -0.4017  0.6943
 4316SOL     OW24406   4.402   4.282   7.013 -0.4269 -0.4809  0.1885
 4316SOL    HW124407   4.314   4.261   7.043 -0.8402  0.3259 -0.4565
 4316SOL    HW224408   4.460   4.253   7.083  0.0817 -1.8118 -0.7833
 4317SOL     OW24409   3.249   4.052   9.625  0.7510  0.1085  0.8320
 4317SOL    HW124410   3.199   4.055   9.544  0.3604 -0.5964  1.0466
 4317SOL    HW224411   3.276   4.143   9.635  1.1328 -0.0075  0.8951
 4318SOL     OW24412   0.455   2.711   1.581 -0.5548  0.0758 -0.0155
 4318SOL    HW124413   0.412   2.663   1.510 -0.0514 -0.1818 -0.1430
 4318SOL    HW224414   0.385   2.719   1.646 -0.7294  0.1469 -0.2104
 4319SOL     OW24415   2.344   2.895   1.430  0.1676  0.5354  0.7333
 4319SOL    HW124416   2.271   2.838   1.454 -0.3136  0.7177 -0.2877
 4319SOL    HW224417   2.303   2.936   1.353  0.9971  1.1468  0.6150
 4320SOL     OW24418   2.272   0.645  15.112  0.5342 -0.4726 -0.3677
 4320SOL    HW124419   2.230   0.727  15.083 -0.4656  0.8335  4.7641
 4320SOL    HW224420   2.303   0.601  15.033  0.5597 -1.0746 -0.0230
 4321SOL     OW24421   0.038   0.392   2.515  0.4257 -0.0710 -0.1368
 4321SOL    HW124422   0.071   0.342   2.590  2.5952 -1.1507 -1.8037
 4321SOL    HW224423   4.666   0.384   2.522  0.3548  1.1876  0.4473
 4322SOL     OW24424   0.815   4.293   2.842  0.5134 -0.2553 -0.0384
 4322SOL    HW124425   0.901   4.295   2.884  0.4821  0.7398 -0.0106
 4322SOL    HW224426   0.761   4.236   2.897  1.6030 -2.0063 -0.7650
 4323SOL     OW24427   3.786   2.926   8.881 -0.4667 -0.2517  0.4198
 4323SOL    HW124428   3.847   3.000   8.877  0.7052 -1.2265  0.3702
 4323SOL    HW224429   3.702   2.965   8.904 -0.2959  0.6264 -0.4400
 4324SOL     OW24430   2.353   3.027   0.443 -0.4349  0.9389  0.0883
 4324SOL    HW124431   2.388   2.947   0.484  0.4434  0.2440 -2.0217
 4324SOL    HW224432   2.324   2.992   0.359  0.6699 -0.7059  0.3831
 4325SOL     OW24433   2.899   2.630   1.843  0.3993 -0.0924  0.4474
 4325SOL    HW124434   2.979   2.670   1.879  0.6730 -0.9759  0.8182
 4325SOL    HW224435   2.857   2.603   1.924  3.4816 -0.5039  1.9055
 4326SOL     OW24436   4.471   3.432  15.712 -0.5718 -0.6052 -0.4836
 4326SOL    HW124437   4.555   3.422  15.756 -1.4238  0.7136  1.4678
 4326SOL    HW224438   4.507   3.488  15.643  1.5355 -0.5574  0.6782
 4327SOL     OW24439   4.514   1.708   2.221  0.7447 -0.2188 -0.1940
 4327SOL    HW124440   4.609   1.696   2.229  0.6745 -1.1389 -0.6695
 4327SOL    HW224441   4.487   1.662   2.301  0.1312 -1.3955 -1.0788
 4328SOL     OW24442   3.916   1.639   6.584 -0.2826  0.0220 -0.3949
 4328SOL    HW124443   3.914   1.611   6.493  0.5419 -1.2502 -0.0179
 4328SOL    HW224444   3.869   1.565   6.624  2.1424  0.1661  2.7312
 4329SOL     OW24445   3.304   4.630   7.281  0.3752  0.1331 -0.1380
 4329SOL    HW124446   3.356   4.566   7.330 -3.1063 -1.1697  1.8127
 4329SOL    HW224447   3.314   4.599   7.191 -1.8544  0.6981 -0.5648
 4330SOL     OW24448   4.190   2.246   3.702 -0.0398  0.2093  0.0527
 4330SOL    HW124449   4.099   2.220   3.716 -0.5584  1.2506 -1.3341
 4330SOL    HW224450   4.180   2.331   3.658 -2.0082 -0.6181 -1.1232
 4331SOL     OW24451   2.372   3.251   7.883 -0.1301  0.1330 -0.0017
 4331SOL    HW124452   2.330   3.247   7.797  0.0572 -1.0792 -0.0376
 4331SOL    HW224453   2.316   3.201   7.942 -1.9442  1.6614 -0.4225
 4332SOL     OW24454   4.695   4.502  10.634 -0.8707  0.6260  0.0153
 4332SOL    HW124455   4.627   4.453  10.681  0.8552 -1.8153 -0.0364
 4332SOL    HW224456   4.709   4.443  10.560 -1.7508  1.9188 -1.2029
 4333SOL     OW24457   1.017   2.718   9.502 -0.6529  0.0430 -0.0986
 4333SOL    HW124458   1.060   2.653   9.556 -1.9789 -1.1238 -0.4416
 4333SOL    HW224459   0.943   2.725   9.563 -0.3137  1.3231  0.1753
 4334SOL     OW24460   3.558   2.734   5.466 -0.3430 -0.1058 -0.1410
 4334SOL    HW124461   3.616   2.795   5.511 -1.5815  1.2802 -0.4165
 4334SOL    HW224462   3.515   2.701   5.545 -0.0927 -0.3469 -0.1081
 4335SOL     OW24463   2.436   1.906   4.191 -0.5107 -0.3562 -0.0246
 4335SOL    HW124464   2.392   1.840   4.244 -0.5161  0.3765  0.8821
 4335SOL    HW224465   2.495   1.956   4.247  0.1970  0.8023 -1.7974
 4336SOL     OW24466   0.562   0.706  14.032 -0.0940  0.2233 -0.1361
 4336SOL    HW124467   0.595   0.647  14.099 -0.9175  0.1207  0.1792
 4336SOL    HW224468   0.476   0.731  14.067  0.3340  0.2331  0.9102
 4337SOL     OW24469   1.199   1.383   6.801 -0.0570 -0.6913  0.1865
 4337SOL    HW124470   1.201   1.348   6.890 -0.8252  0.6687  0.7487
 4337SOL    HW224471   1.135   1.321   6.768  1.0819 -2.5810  1.5615
 4338SOL     OW24472   0.547   2.193  10.626 -0.3407 -0.2847  0.0071
 4338SOL    HW124473   0.481   2.261  10.616  3.1577  2.8258 -1.7702
 4338SOL    HW224474   0.524   2.139  10.551 -1.2858  0.0997  0.0163
 4339SOL     OW24475   2.154   0.720   5.447  0.0609  0.6414  0.1428
 4339SOL    HW124476   2.192   0.757   5.367  0.5247 -0.0419  0.0467
 4339SOL    HW224477   2.232   0.711   5.502 -0.4920  1.2057  1.0207
 4340SOL     OW24478   1.626   3.283  15.961 -0.2823 -0.3659 -0.2565
 4340SOL    HW124479   1.634   3.378  15.955 -0.1388 -0.4119 -0.7392
 4340SOL    HW224480   1.651   3.261  16.051  1.4285  1.5953 -0.2597
 4341SOL     OW24481   3.840   3.968   8.222 -0.6669 -0.0176  0.0776
 4341SOL    HW124482   3.865   3.883   8.259 -1.5764 -0.2397  0.1875
 4341SOL    HW224483   3.756   3.939   8.185 -0.5773 -0.2035  0.0198
 4342SOL     OW24484   3.268   1.901   7.133  0.1405  0.2156  0.5155
 4342SOL    HW124485   3.244   1.992   7.152  1.5147  1.1689 -2.3553
 4342SOL    HW224486   3.191   1.855   7.165  0.0822  0.7141  1.0779
 4343SOL     OW24487   1.075   2.288  13.068  0.3800 -0.8223  0.5540
 4343SOL    HW124488   1.002   2.287  13.130  0.1480  0.8287  0.3215
 4343SOL    HW224489   1.110   2.375  13.087  1.6959 -1.9182  3.1268
 4344SOL     OW24490   1.400   1.042  15.515 -0.3832  0.4133  0.5257
 4344SOL    HW124491   1.437   0.987  15.584 -0.7840  0.2860  0.6387
 4344SOL    HW224492   1.428   1.002  15.433 -0.9752  1.3013 -0.1049
 4345SOL     OW24493   3.341   0.371   3.590  0.0736 -0.2628 -0.4322
 4345SOL    HW124494   3.304   0.300   3.643  0.7025 -0.9790 -0.9521
 4345SOL    HW224495   3.270   0.382   3.527 -0.6292  1.7187  0.7184
 4346SOL     OW24496   1.742   0.532   3.166 -0.6288  0.5064 -0.5968
 4346SOL    HW124497   1.815   0.469   3.165 -1.3968 -0.3653 -1.7711
 4346SOL    HW224498   1.737   0.560   3.075  0.6638  1.4540 -0.3750
 4347SOL     OW24499   4.719   1.354   0.686  0.5002  0.0779 -0.3150
 4347SOL    HW124500   0.084   1.380   0.656  0.0953  0.2698 -1.3364
 4347SOL    HW224501   4.703   1.289   0.617  1.2387  0.8843 -1.2494
 4348SOL     OW24502   2.543   1.640   2.386  0.0375  0.1847  0.7444
 4348SOL    HW124503   2.555   1.632   2.291  0.5991 -0.0179  0.8339
 4348SOL    HW224504   2.572   1.553   2.413  0.7966 -0.3871 -1.9067
 4349SOL     OW24505   0.204   3.160   2.615 -0.1435 -0.0807 -0.2117
 4349SOL    HW124506   0.252   3.233   2.655  2.9842 -2.2657  0.0865
 4349SOL    HW224507   0.261   3.086   2.639  1.4356  0.8323 -1.1273
 4350SOL     OW24508   4.608   2.752  10.072  0.7593 -0.2640  0.4534
 4350SOL    HW124509   4.663   2.828  10.055  0.4918 -0.2653 -0.4551
 4350SOL    HW224510   4.595   2.713   9.985 -1.8158  0.5751  0.4674
 4351SOL     OW24511   0.898   2.712  17.014 -0.1435 -0.3285  0.7777
 4351SOL    HW124512   0.955   2.766  16.960  1.3255 -3.0115 -0.3767
 4351SOL    HW224513   0.814   2.713  16.969  0.0577 -0.8543  0.3875
 4352SOL     OW24514   2.982   1.034   8.717 -0.3771 -0.2165  0.3118
 4352SOL    HW124515   3.005   0.960   8.660  0.6879  1.3396 -1.2873
 4352SOL    HW224516   3.066   1.079   8.707 -0.2643 -0.0659  1.9403
 4353SOL     OW24517   1.158   1.421  12.603  0.1122  0.0680  0.1890
 4353SOL    HW124518   1.191   1.499  12.560  1.1806 -1.0115 -0.9353
 4353SOL    HW224519   1.225   1.396  12.668 -1.1489  0.1542  1.5286
 4354SOL     OW24520   4.599   3.933   7.001  0.0313 -0.2229  0.4948
 4354SOL    HW124521   4.618   3.887   7.082 -0.3161 -1.8162 -0.3416
 4354SOL    HW224522   4.674   3.918   6.943 -0.8532 -0.3792 -0.6141
 4355SOL     OW24523   2.579   2.970   3.368  0.1963 -0.2394 -0.0532
 4355SOL    HW124524   2.575   2.878   3.343  0.6499 -0.8936  2.2750
 4355SOL    HW224525   2.505   3.010   3.322  0.6863 -0.6176 -1.1637
 4356SOL     OW24526   0.996   3.769   0.403 -0.1130  0.3999  0.2474
 4356SOL    HW124527   0.971   3.781   0.312 -3.0565  2.0236  1.2423
 4356SOL    HW224528   1.033   3.682   0.413  0.0658  0.6778  1.9961
 4357SOL     OW24529   3.327   3.393   6.258 -0.5495  0.0759  0.0156
 4357SOL    HW124530   3.377   3.460   6.210 -0.1006  2.1974  3.4335
 4357SOL    HW224531   3.375   3.315   6.228  0.2258  0.5566 -0.0089
 4358SOL     OW24532   2.985   2.842   4.702  0.4784  0.5976  0.9047
 4358SOL    HW124533   3.073   2.859   4.668  1.3000 -1.0884  2.2152
 4358SOL    HW224534   3.004   2.848   4.796  1.6863  1.5047  0.6080
 4359SOL     OW24535   0.478   3.433   3.179  0.0775  0.5156  0.5353
 4359SOL    HW124536   0.521   3.432   3.093  2.1180  1.3923  1.5503
 4359SOL    HW224537   0.449   3.523   3.188  0.3439  0.4339  2.1722
 4360SOL     OW24538   2.652   0.306  10.371  0.1340 -0.0031 -0.0297
 4360SOL    HW124539   2.707   0.304  10.450  0.8346  1.4222 -0.4817
 4360SOL    HW224540   2.665   0.218  10.338 -0.7700 -0.4593  0.8358
 4361SOL     OW24541   1.312   3.635   9.207  0.4720 -0.2441  0.7619
 4361SOL    HW124542   1.359   3.650   9.289  1.4773 -1.9737  0.4917
 4361SOL    HW224543   1.231   3.595   9.240  0.6834 -0.2417  1.2797
 4362SOL     OW24544   2.010   0.884   3.362 -0.0061  0.1739 -0.0916
 4362SOL    HW124545   2.054   0.881   3.277 -2.1205  0.4037 -1.1977
 4362SOL    HW224546   1.919   0.870   3.338 -0.3832  0.1699  1.3585
 4363SOL     OW24547   4.689   4.184  12.474 -0.4672 -0.3042  0.6171
 4363SOL    HW124548   0.047   4.206  12.522  0.2553  1.0123 -1.1752
 4363SOL    HW224549   4.661   4.136  12.552 -0.3857 -1.0535  0.1826
 4364SOL     OW24550   3.596   3.492   5.363 -0.0632  0.1385  0.5222
 4364SOL    HW124551   3.638   3.533   5.438 -1.9336  1.1038  1.0321
 4364SOL    HW224552   3.548   3.420   5.404 -1.5604  1.4916  1.1560
 4365SOL     OW24553   4.272   2.345   8.132 -0.3966  0.5963 -0.3719
 4365SOL    HW124554   4.329   2.270   8.117 -0.5530  0.6003 -0.9644
 4365SOL    HW224555   4.186   2.304   8.116  0.4468 -1.4218  0.2819
 4366SOL     OW24556   0.974   2.377  14.048  0.4233  0.2144  0.1947
 4366SOL    HW124557   0.992   2.318  14.122  1.4566  1.0166  0.5831
 4366SOL    HW224558   1.060   2.416  14.035  0.4371  0.3471  0.6679
 4367SOL     OW24559   2.011   2.024   2.037 -0.0684 -0.5204  0.2231
 4367SOL    HW124560   2.102   2.007   2.064  0.4848 -1.1232 -2.0241
 4367SOL    HW224561   2.004   2.119   2.049  0.7906 -0.3521 -0.6010
 4368SOL     OW24562   0.745   0.709  16.414  0.4009  1.0164 -0.4799
 4368SOL    HW124563   0.685   0.783  16.402 -0.4695  0.6261  1.5690
 4368SOL    HW224564   0.685   0.640  16.383 -1.7294  2.9421 -0.6451
 4369SOL     OW24565   3.874   4.465   1.142 -0.5671  0.0844 -0.3233
 4369SOL    HW124566   3.922   4.471   1.224 -1.0837 -0.2201  0.0012
 4369SOL    HW224567   3.865   4.558   1.121 -0.8205  0.7140  2.6317
 4370SOL     OW24568   3.214   0.791   8.046  0.2331 -0.2194  0.0818
 4370SOL    HW124569   3.298   0.746   8.044  1.5091  2.2451 -1.4240
 4370SOL    HW224570   3.234   0.872   8.092 -0.6074  1.0961 -1.9063
 4371SOL     OW24571   0.397   1.824   5.634  0.2444  0.4460 -0.0660
 4371SOL    HW124572   0.450   1.875   5.695 -0.9873  0.7912  0.7004
 4371SOL    HW224573   0.410   1.735   5.666 -0.0876  1.4878  2.9637
 4372SOL     OW24574   2.572   3.567  17.676  0.6084  0.0821  0.1814
 4372SOL    HW124575   2.582   3.505   0.058 -2.6585  1.7872  2.0944
 4372SOL    HW224576   2.595   3.647   0.033  1.1592 -0.8195  1.4199
 4373SOL     OW24577   1.588   2.217   7.051  0.5746  0.3970 -0.0305
 4373SOL    HW124578   1.585   2.283   7.120 -0.0787  1.5442 -1.1641
 4373SOL    HW224579   1.494   2.208   7.038  1.1699 -1.7776 -2.8704
 4374SOL     OW24580   3.507   3.308  16.220  0.2372 -0.3308  0.2622
 4374SOL    HW124581   3.414   3.283  16.225  0.1543  0.1509  1.1812
 4374SOL    HW224582   3.537   3.288  16.309  1.0750 -1.1119 -0.1946
 4375SOL     OW24583   2.717   2.185   1.664 -0.3908  0.5118 -0.3962
 4375SOL    HW124584   2.728   2.198   1.758 -1.4489  1.1187 -0.3481
 4375SOL    HW224585   2.781   2.116   1.650  0.3372  1.2631 -0.7547
 4376SOL     OW24586   1.109   4.311   8.969 -0.1677  0.5848 -0.2406
 4376SOL    HW124587   1.175   4.243   8.957 -0.4036  0.3458 -0.1574
 4376SOL    HW224588   1.047   4.274   9.032 -1.6219 -0.7667 -2.4700
 4377SOL     OW24589   0.123   4.436   5.014 -0.7086 -0.6854 -0.5035
 4377SOL    HW124590   0.034   4.463   5.038 -1.0729 -0.4463 -2.1464
 4377SOL    HW224591   0.176   4.488   5.074 -0.4007 -1.0378 -0.4709
 4378SOL     OW24592   1.427   2.398   9.093 -0.1641 -0.0681 -0.0178
 4378SOL    HW124593   1.458   2.319   9.136  1.5621  1.8514  2.2634
 4378SOL    HW224594   1.371   2.357   9.026  0.8602  0.2885 -1.0933
 4379SOL     OW24595   3.943   0.222   2.601 -0.2779  0.0585 -0.0140
 4379SOL    HW124596   3.901   0.215   2.515  0.6673  2.7678 -0.7036
 4379SOL    HW224597   3.949   0.317   2.610 -0.2745 -0.2701  3.2669
 4380SOL     OW24598   1.202   0.691  17.062  0.0079  0.5727 -0.2902
 4380SOL    HW124599   1.175   0.783  17.061 -2.1459 -0.0296  1.8012
 4380SOL    HW224600   1.218   0.681  16.968 -0.7265  1.3172 -0.5006
 4381SOL     OW24601   3.563   4.298   6.164 -0.1471  0.2885 -0.9497
 4381SOL    HW124602   3.622   4.308   6.090  1.3006  1.7544  0.3949
 4381SOL    HW224603   3.492   4.358   6.145  0.5825  1.3535 -0.3304
 4382SOL     OW24604   0.270   2.696   3.219 -0.5047 -0.4944  0.7507
 4382SOL    HW124605   0.231   2.613   3.246 -2.1006 -0.6182 -1.8590
 4382SOL    HW224606   0.330   2.656   3.156 -1.8604  0.1802 -1.0108
 4383SOL     OW24607   2.465   1.387   5.706 -0.0356 -0.5950  0.2210
 4383SOL    HW124608   2.513   1.338   5.774  1.1201 -1.3771 -1.1685
 4383SOL    HW224609   2.453   1.472   5.749  0.5606 -0.0933 -0.6215
 4384SOL     OW24610   2.295   0.740  10.665  0.6914  0.3208 -0.4500
 4384SOL    HW124611   2.312   0.648  10.683 -1.6577  0.0456  0.3400
 4384SOL    HW224612   2.336   0.753  10.580  0.9150 -1.8245 -0.6670
 4385SOL     OW24613   0.547   2.808   6.191  0.1318 -0.4168 -0.4088
 4385SOL    HW124614   0.486   2.754   6.141  2.6904 -3.6687 -0.0367
 4385SOL    HW224615   0.614   2.740   6.201  0.7971  0.1025 -1.3364
 4386SOL     OW24616   3.118   1.657   7.210 -0.5057 -0.0480 -0.2214
 4386SOL    HW124617   3.065   1.608   7.274 -0.9875  2.7190  1.5035
 4386SOL    HW224618   3.194   1.600   7.203 -2.1313 -2.2357 -0.1351
 4387SOL     OW24619   3.795   0.647   9.416  0.5481 -0.0703 -0.4263
 4387SOL    HW124620   3.746   0.719   9.378 -1.6416 -1.8551 -0.9879
 4387SOL    HW224621   3.842   0.616   9.338 -0.4645 -1.5310 -0.4573
 4388SOL     OW24622   2.383   3.539   5.521 -0.6929  0.0254  0.5409
 4388SOL    HW124623   2.302   3.509   5.562 -0.3058 -0.0405  1.2630
 4388SOL    HW224624   2.385   3.482   5.445  1.3390  0.1273  0.5205
 4389SOL     OW24625   4.147   2.096   7.238  0.4039  0.1320 -0.4708
 4389SOL    HW124626   4.103   2.145   7.308  1.5960  1.4125 -0.5973
 4389SOL    HW224627   4.216   2.048   7.285 -0.2505  1.8668  2.2819
 4390SOL     OW24628   3.186   3.197   3.404  0.4647 -0.2400  0.1844
 4390SOL    HW124629   3.271   3.157   3.425 -0.6134 -2.3177  0.5836
 4390SOL    HW224630   3.207   3.240   3.321  2.5757  0.2894  0.9791
 4391SOL     OW24631   2.098   1.040   5.137 -0.3392 -0.0579  0.1264
 4391SOL    HW124632   2.012   1.073   5.159  0.6800  1.9517  1.0898
 4391SOL    HW224633   2.083   0.946   5.145  0.4574 -0.0789  1.3984
 4392SOL     OW24634   1.092   1.205   6.221 -0.0043 -0.2478 -0.1391
 4392SOL    HW124635   1.139   1.152   6.157  0.2723  0.6368 -0.6667
 4392SOL    HW224636   1.061   1.277   6.166  0.6458  1.2086  1.3886
 4393SOL     OW24637   0.959   3.818   8.468 -0.3150 -0.2797 -0.1351
 4393SOL    HW124638   1.020   3.759   8.512 -0.5033 -1.9226 -2.0480
 4393SOL    HW224639   0.906   3.752   8.422 -0.1086 -0.0845 -0.6493
 4394SOL     OW24640   2.582   1.965   6.620  0.1203 -0.1429  0.1513
 4394SOL    HW124641   2.671   2.002   6.624 -0.8064  2.0275  0.5016
 4394SOL    HW224642   2.531   2.034   6.662 -0.7762 -0.9670  0.4098
 4395SOL     OW24643   2.746   3.271   8.263  0.3744  0.1864  0.2923
 4395SOL    HW124644   2.816   3.261   8.326  0.7337 -0.6143 -0.2303
 4395SOL    HW224645   2.751   3.366   8.251  1.7562  0.1745  0.8300
 4396SOL     OW24646   1.809   0.990  16.607 -0.2688 -0.2571  0.6666
 4396SOL    HW124647   1.780   0.953  16.690  0.5651  0.2697  1.1939
 4396SOL    HW224648   1.851   0.911  16.574  3.4749  2.0228 -0.0745
 4397SOL     OW24649   0.995   0.607   7.449 -0.2383  0.0709  0.1304
 4397SOL    HW124650   0.959   0.522   7.474  1.7287 -0.7976  0.0585
 4397SOL    HW224651   0.927   0.670   7.472  0.6866  1.2430 -0.3626
 4398SOL     OW24652   1.920   3.941  11.516 -0.4362 -0.7609  0.4344
 4398SOL    HW124653   1.928   3.960  11.423 -0.9859  0.4310  0.6362
 4398SOL    HW224654   2.010   3.969  11.531 -0.8256 -0.5138  2.2860
 4399SOL     OW24655   0.424   2.197   2.541 -0.0921  0.0374 -0.4930
 4399SOL    HW124656   0.509   2.163   2.569 -0.5221 -0.9792 -0.4593
 4399SOL    HW224657   0.440   2.290   2.561 -3.1840  0.5647 -0.4541
 4400SOL     OW24658   4.031   1.130   9.499 -0.1691  0.2435 -0.2176
 4400SOL    HW124659   4.010   1.170   9.415  1.4400 -0.0591 -0.7660
 4400SOL    HW224660   4.125   1.148   9.504  0.2107 -1.6192 -0.7093
 4401SOL     OW24661   0.259   4.479   4.191  0.2803  0.2018 -0.0659
 4401SOL    HW124662   0.308   4.554   4.156 -0.4820  0.2487 -1.0403
 4401SOL    HW224663   0.242   4.431   4.110 -0.5306  0.6283 -0.1496
 4402SOL     OW24664   4.544   0.788  14.140  0.2744 -0.3637 -0.2631
 4402SOL    HW124665   4.489   0.806  14.216  0.4277 -0.2337 -0.1814
 4402SOL    HW224666   4.504   0.705  14.113 -0.1608 -0.4571  0.6500
 4403SOL     OW24667   3.624   1.795  16.452 -0.2548  0.0933 -0.0921
 4403SOL    HW124668   3.598   1.722  16.396  1.3887 -0.6443  0.0991
 4403SOL    HW224669   3.639   1.857  16.381 -0.4613  0.4136  0.1478
 4404SOL     OW24670   2.921   0.099   8.213  0.1030 -0.4072  0.2537
 4404SOL    HW124671   2.996   0.071   8.267  1.4813  1.0313 -0.9186
 4404SOL    HW224672   2.963   0.158   8.150  0.8527 -2.0910 -0.8259
 4405SOL     OW24673   1.777   0.301   2.091 -0.0511  0.4895 -0.3836
 4405SOL    HW124674   1.848   0.349   2.049  0.2844  1.4867  1.3187
 4405SOL    HW224675   1.696   0.330   2.049 -0.6580  0.5343  0.7992
 4406SOL     OW24676   0.402   3.454   9.623  0.0767 -0.2713 -0.2903
 4406SOL    HW124677   0.316   3.425   9.654 -0.3807 -0.4421 -1.7187
 4406SOL    HW224678   0.391   3.453   9.528  2.0746  0.6316 -0.5209
 4407SOL     OW24679   4.167   2.524   5.754  0.0595 -0.1169  0.4434
 4407SOL    HW124680   4.194   2.562   5.837 -1.9077  2.1353  0.0578
 4407SOL    HW224681   4.142   2.604   5.708 -0.8243 -1.3916 -1.3060
 4408SOL     OW24682   0.423   4.443   1.957 -0.3699  0.1008 -0.2645
 4408SOL    HW124683   0.494   4.419   1.898 -1.8982 -1.6547 -1.4168
 4408SOL    HW224684   0.356   4.483   1.901  2.3561  1.9164 -2.1973
 4409SOL     OW24685   2.076   4.481   2.718 -0.1525  0.1740 -0.2933
 4409SOL    HW124686   2.143   4.424   2.755 -0.5384  0.0496  0.2051
 4409SOL    HW224687   1.992   4.434   2.725 -0.6932  1.4793  1.7979
 4410SOL     OW24688   3.253   3.761   9.437  0.3975  0.2122  0.0872
 4410SOL    HW124689   3.303   3.720   9.508 -1.7692 -2.0904  0.2835
 4410SOL    HW224690   3.226   3.831   9.498  0.9916 -0.6410  1.3405
 4411SOL     OW24691   2.821   3.729   3.042  0.0649 -0.2699 -0.1657
 4411SOL    HW124692   2.821   3.686   2.956 -1.5021  0.1058 -0.3505
 4411SOL    HW224693   2.833   3.822   3.022  0.5383  0.0098  1.4727
 4412SOL     OW24694   2.536   0.692   6.232 -0.2952 -0.5603 -0.0565
 4412SOL    HW124695   2.588   0.708   6.310  1.1008  0.8507 -1.2824
 4412SOL    HW224696   2.461   0.647   6.272 -0.7197 -0.7824 -1.0965
 4413SOL     OW24697   1.574   3.969   6.547 -0.1137 -0.1015 -0.0193
 4413SOL    HW124698   1.550   3.892   6.599 -2.2186  0.5494 -0.0012
 4413SOL    HW224699   1.528   4.035   6.599  1.0636  1.2609 -0.6933
 4414SOL     OW24700   3.451   4.543   7.043  0.1216  0.8573  0.8564
 4414SOL    HW124701   3.474   4.595   6.966  0.0276  0.0108  0.2451
 4414SOL    HW224702   3.510   4.469   7.030 -1.9620 -1.1594  2.7818
 4415SOL     OW24703   1.804   4.277  16.956  0.2651 -0.3470 -0.0200
 4415SOL    HW124704   1.839   4.366  16.963  1.1972 -0.6818 -0.4660
 4415SOL    HW224705   1.883   4.227  16.970 -0.1553 -1.0820 -0.2917
 4416SOL     OW24706   3.721   2.214  17.360 -0.6731 -0.0372  0.5285
 4416SOL    HW124707   3.812   2.233  17.385  0.0384  0.0448 -2.1363
 4416SOL    HW224708   3.707   2.140  17.419  1.6865  0.8307  2.1722
 4417SOL     OW24709   0.473   4.417   3.386  0.1559  0.0992  0.1748
 4417SOL    HW124710   0.480   4.397   3.480 -0.7932 -0.7570  0.0592
 4417SOL    HW224711   0.389   4.463   3.382 -1.2572 -2.3474  1.5054
 4418SOL     OW24712   0.113   1.364   7.175  0.4838  0.1120  0.1118
 4418SOL    HW124713   0.101   1.270   7.160  0.1222 -0.2341  2.5855
 4418SOL    HW224714   0.206   1.363   7.197  1.1004 -0.6353 -2.4507
 4419SOL     OW24715   0.878   3.037   4.223 -0.0775 -0.4401 -0.3629
 4419SOL    HW124716   0.874   3.103   4.153  0.4962  1.2479  1.1922
 4419SOL    HW224717   0.831   3.081   4.294  1.2473  1.0624 -0.3925
 4420SOL     OW24718   3.379   0.521  15.078 -0.9150  0.2728  0.5492
 4420SOL    HW124719   3.403   0.451  15.139  0.7712  0.3530 -0.0359
 4420SOL    HW224720   3.284   0.514  15.095 -1.5551  3.0317 -1.9422
 4421SOL     OW24721   2.086   3.457   1.869 -0.5936  0.0634  0.6412
 4421SOL    HW124722   2.080   3.384   1.807 -0.4002  0.4160  0.2059
 4421SOL    HW224723   2.041   3.525   1.818 -0.0471  0.2832  0.4585
 4422SOL     OW24724   4.580   1.148  13.996  0.4388  0.3748  0.2292
 4422SOL    HW124725   4.614   1.089  14.063 -1.6282  0.3093  1.2294
 4422SOL    HW224726   4.523   1.096  13.939  1.4429 -1.7250  1.1551
 4423SOL     OW24727   2.338   3.188  14.619  0.3190 -0.3658 -0.3976
 4423SOL    HW124728   2.322   3.218  14.529 -1.4090 -0.4028 -0.1123
 4423SOL    HW224729   2.265   3.125  14.614 -0.8734  0.7188  3.6623
 4424SOL     OW24730   1.191   1.870   1.154 -0.6507  0.4505  0.4482
 4424SOL    HW124731   1.181   1.843   1.063  0.8459  1.5548 -0.0419
 4424SOL    HW224732   1.280   1.905   1.150 -0.1384 -0.9203 -0.1253
 4425SOL     OW24733   4.369   4.697  17.339  0.0170  0.3237  0.9547
 4425SOL    HW124734   4.299   0.029  17.375  1.0772  2.3625 -0.0111
 4425SOL    HW224735   4.448   0.021  17.369  0.4751  0.9223 -1.1694
 4426SOL     OW24736   4.432   2.459   6.679  0.3878  0.8950  0.1358
 4426SOL    HW124737   4.490   2.383   6.679  1.6512  1.8308 -1.1062
 4426SOL    HW224738   4.344   2.423   6.687  0.2419  1.8023  2.4579
 4427SOL     OW24739   3.995   0.659   9.999  0.2479  0.2644 -0.3204
 4427SOL    HW124740   4.077   0.641  10.045  0.2191  0.7209 -0.0876
 4427SOL    HW224741   4.010   0.644   9.906  0.5532 -2.9081  0.2517
 4428SOL     OW24742   1.323   3.175   6.911 -0.0622 -0.2433 -0.0348
 4428SOL    HW124743   1.341   3.100   6.968  0.4970 -0.3668 -0.3835
 4428SOL    HW224744   1.250   3.208   6.963 -1.9348 -1.9659 -1.5537
 4429SOL     OW24745   2.543   3.934   0.980 -0.0282  0.1940  0.2359
 4429SOL    HW124746   2.448   3.942   0.992 -0.2452 -2.1799  0.0871
 4429SOL    HW224747   2.570   3.932   1.072 -0.5553 -0.1435  0.3796
 4430SOL     OW24748   3.368   2.770  10.137  0.2379 -1.1074 -0.1428
 4430SOL    HW124749   3.307   2.707  10.099 -0.5817 -0.2499 -0.2443
 4430SOL    HW224750   3.319   2.850  10.153  2.0087  0.1175 -0.7896
 4431SOL     OW24751   0.170   0.848   1.262  0.1999 -0.2741  0.3268
 4431SOL    HW124752   0.148   0.891   1.345  0.9661  1.2301 -0.2481
 4431SOL    HW224753   0.142   0.911   1.196  1.3331  2.4161  2.4060
 4432SOL     OW24754   2.305   0.927  13.402  0.5347  0.1534 -0.3661
 4432SOL    HW124755   2.326   0.991  13.470 -0.6952  0.5507 -0.3554
 4432SOL    HW224756   2.228   0.878  13.431  0.3382  0.6773  0.0047
 4433SOL     OW24757   3.074   3.602  14.598 -0.3056 -0.0627 -0.4467
 4433SOL    HW124758   2.998   3.562  14.557  0.2678  0.4040 -1.9695
 4433SOL    HW224759   3.058   3.693  14.573  1.2272 -0.4640 -2.9565
 4434SOL     OW24760   0.002   1.509   6.714 -0.0657 -0.4356 -0.4090
 4434SOL    HW124761   0.026   1.561   6.637  2.8711 -1.4286 -0.1503
 4434SOL    HW224762   4.667   1.441   6.678 -1.0094  0.2150 -0.1210
 4435SOL     OW24763   1.709   2.598   3.578 -0.6092  0.0181 -0.1914
 4435SOL    HW124764   1.725   2.690   3.559  0.8405 -0.1869  0.0428
 4435SOL    HW224765   1.619   2.584   3.550 -1.1366  1.5187  0.7466
 4436SOL     OW24766   4.058   3.672  15.932  0.4728 -0.4151 -0.3097
 4436SOL    HW124767   4.086   3.709  16.016  1.3140 -0.2797 -0.6467
 4436SOL    HW224768   4.146   3.669  15.895  0.8908  0.0841  0.6477
 4437SOL     OW24769   4.153   3.737   5.442 -0.0528 -0.0832  0.1904
 4437SOL    HW124770   4.132   3.734   5.536  1.6151  0.5803  0.5765
 4437SOL    HW224771   4.081   3.791   5.409  2.5532  2.3670 -1.4928
 4438SOL     OW24772   0.895   4.189   4.111 -0.6442 -0.1697 -0.1794
 4438SOL    HW124773   0.868   4.098   4.107 -1.1476  0.0868 -2.7474
 4438SOL    HW224774   0.808   4.227   4.121 -0.5563  0.5627 -2.0919
 4439SOL     OW24775   4.649   3.337   5.940 -0.0633 -0.4649  0.0598
 4439SOL    HW124776   4.594   3.400   5.986  2.6310  1.7713  0.1839
 4439SOL    HW224777   4.652   3.372   5.852  1.6139 -0.3931  0.1316
 4440SOL     OW24778   0.097   0.562   5.716  0.1346 -0.1339  0.3180
 4440SOL    HW124779   0.191   0.547   5.705 -0.0449 -1.0311 -0.0323
 4440SOL    HW224780   0.092   0.569   5.811 -3.3769 -1.9394  0.2722
 4441SOL     OW24781   2.247   3.916   5.604  0.3351 -0.4449  0.4338
 4441SOL    HW124782   2.181   3.874   5.548 -0.9770  2.0257  0.1161
 4441SOL    HW224783   2.185   3.962   5.662 -0.7245  1.4113 -2.1320
 4442SOL     OW24784   1.901   3.493   5.555 -0.1733  0.1554  0.4194
 4442SOL    HW124785   1.921   3.581   5.524  0.1463  0.2694  0.9450
 4442SOL    HW224786   1.892   3.509   5.649  1.5130 -2.1828  0.9730
 4443SOL     OW24787   0.117   3.636   6.379 -0.3536 -0.4141 -0.0051
 4443SOL    HW124788   0.188   3.693   6.407 -1.4391  0.7356  0.4368
 4443SOL    HW224789   0.048   3.689   6.419  1.0007  0.3682  1.3087
 4444SOL     OW24790   2.130   1.949   6.007  0.4032 -0.1318 -0.0613
 4444SOL    HW124791   2.215   1.994   6.003  0.1314  0.4870  1.2781
 4444SOL    HW224792   2.155   1.859   5.987 -1.4773 -1.2200  2.4889
 4445SOL     OW24793   0.528   3.251   7.584 -0.4277 -0.4061 -0.6222
 4445SOL    HW124794   0.536   3.225   7.493  1.4432  0.2435 -0.6494
 4445SOL    HW224795   0.457   3.190   7.603 -0.7119  0.3577  0.7724
 4446SOL     OW24796   2.440   4.524  14.333  0.0907  0.1169  0.3053
 4446SOL    HW124797   2.453   4.536  14.239 -0.9071 -0.4321  0.0852
 4446SOL    HW224798   2.451   4.611  14.371  1.1639 -0.4126  1.2085
 4447SOL     OW24799   3.730   3.949   5.516  0.3260 -0.4641  0.6933
 4447SOL    HW124800   3.726   3.879   5.450  3.9388  1.4873 -1.5795
 4447SOL    HW224801   3.692   3.909   5.594  2.0794  0.7797  2.1793
 4448SOL     OW24802   2.732   2.248   1.937 -0.2092 -0.5019 -0.3917
 4448SOL    HW124803   2.738   2.219   2.028 -0.2017 -0.3230 -0.3335
 4448SOL    HW224804   2.684   2.331   1.937  0.1505 -0.2941  0.6255
 4449SOL     OW24805   4.290   0.679   5.641  0.1828 -0.2610  0.4454
 4449SOL    HW124806   4.318   0.747   5.580 -2.2805 -1.0543 -1.5414
 4449SOL    HW224807   4.290   0.726   5.725 -1.7857  1.6161 -0.6061
 4450SOL     OW24808   4.064   4.352   4.926  0.1751  0.8503  0.3683
 4450SOL    HW124809   4.034   4.358   4.835  1.1255 -1.7435 -0.1309
 4450SOL    HW224810   4.101   4.440   4.938 -1.3162  1.4718  0.3599
 4451SOL     OW24811   1.242   2.145   7.416  0.0291  0.1083 -0.0293
 4451SOL    HW124812   1.175   2.078   7.402 -0.2458  0.5787 -0.9365
 4451SOL    HW224813   1.234   2.141   7.512 -0.1198  0.2605 -0.0354
 4452SOL     OW24814   4.445   3.413   7.801 -0.4493  0.1691  0.1432
 4452SOL    HW124815   4.471   3.501   7.776 -2.2407  0.8232  0.5644
 4452SOL    HW224816   4.460   3.359   7.723 -0.9139  1.1359 -0.6143
 4453SOL     OW24817   3.700   4.324   9.296  0.8841  0.3687  0.3884
 4453SOL    HW124818   3.734   4.408   9.326 -2.2252  1.8670 -0.2301
 4453SOL    HW224819   3.774   4.265   9.307  0.6263 -0.2150 -1.1357
 4454SOL     OW24820   3.956   2.181   2.225 -0.5752 -0.7143 -0.6094
 4454SOL    HW124821   3.894   2.112   2.248  0.6823 -1.3616  0.8229
 4454SOL    HW224822   3.922   2.243   2.290 -0.9508  1.5951 -3.0158
 4455SOL     OW24823   0.006   0.708   5.201  0.0509 -0.2620 -1.1077
 4455SOL    HW124824   0.008   0.759   5.282 -1.6685  1.1793 -1.9710
 4455SOL    HW224825   4.662   0.643   5.226  0.2291 -0.2205 -0.5189
 4456SOL     OW24826   2.974   2.134  16.671 -0.7137  0.0501 -0.2669
 4456SOL    HW124827   2.891   2.130  16.623 -1.1964  1.9508  0.3639
 4456SOL    HW224828   2.931   2.123  16.756  0.6326 -0.7175  0.3177
 4457SOL     OW24829   4.154   1.416   8.943 -0.2312 -0.2397  0.2308
 4457SOL    HW124830   4.060   1.419   8.924 -0.4358  1.6236  1.5448
 4457SOL    HW224831   4.150   1.423   9.038  0.9194 -2.0592  0.4000
 4458SOL     OW24832   0.443   1.183   3.840  0.3757  0.2814  0.5083
 4458SOL    HW124833   0.404   1.208   3.924  1.7925  0.7889  1.0009
 4458SOL    HW224834   0.482   1.266   3.815  1.4916  0.0820  1.5743
 4459SOL     OW24835   0.633   4.421   5.486 -0.2549  0.0892  0.2942
 4459SOL    HW124836   0.647   4.339   5.532 -1.3716 -0.0160  0.4497
 4459SOL    HW224837   0.647   4.395   5.395  1.1244  0.4945  0.3888
 4460SOL     OW24838   0.600   1.119  12.324  0.6187  0.1497 -0.1496
 4460SOL    HW124839   0.639   1.194  12.369  0.5881 -0.1515  0.3849
 4460SOL    HW224840   0.679   1.087  12.280  1.0189  1.5851 -0.4605
 4461SOL     OW24841   1.194   0.209   7.863  0.4717  0.1391  0.4895
 4461SOL    HW124842   1.150   0.245   7.940 -0.1591  0.2479  0.0713
 4461SOL    HW224843   1.149   0.127   7.843 -0.3784  0.6908  0.1786
 4462SOL     OW24844   2.770   3.302   7.750 -0.2234 -0.0112 -0.3706
 4462SOL    HW124845   2.741   3.263   7.832 -0.5863 -1.5648 -1.2337
 4462SOL    HW224846   2.799   3.389   7.778  1.4284 -0.1914 -1.4955
 4463SOL     OW24847   4.236   4.452  10.930 -0.3257  0.0310  0.4128
 4463SOL    HW124848   4.175   4.433  11.001 -2.5597  1.3842 -1.1194
 4463SOL    HW224849   4.291   4.375  10.943  3.1902  2.5866  0.6842
 4464SOL     OW24850   1.027   2.342  15.569 -0.3617  0.2058  0.0607
 4464SOL    HW124851   0.986   2.281  15.508 -1.8491  1.2382  0.0293
 4464SOL    HW224852   1.110   2.347  15.521 -0.4857  0.8129 -0.0874
 4465SOL     OW24853   1.039   4.009  14.440  0.0521  0.5466 -0.2074
 4465SOL    HW124854   1.086   3.959  14.373 -1.5150 -0.2696 -0.6768
 4465SOL    HW224855   0.988   3.943  14.486 -1.4414  2.0369  0.2555
 4466SOL     OW24856   3.319   0.744   6.411  0.3234 -0.4242 -0.3706
 4466SOL    HW124857   3.239   0.784   6.376  0.6467  1.0582  0.5363
 4466SOL    HW224858   3.367   0.714   6.335 -0.3607 -1.2358 -0.4804
 4467SOL     OW24859   0.121   1.876   7.267 -0.8397 -0.0337 -0.2990
 4467SOL    HW124860   0.181   1.835   7.204  0.4292 -1.0723  1.5733
 4467SOL    HW224861   0.106   1.800   7.324  0.3049 -0.3521 -0.4103
 4468SOL     OW24862   2.849   0.316   9.536 -0.0012  0.9134  0.0727
 4468SOL    HW124863   2.897   0.244   9.497 -3.5099 -0.6945 -1.2235
 4468SOL    HW224864   2.767   0.272   9.558  0.5258 -0.1955 -0.2175
 4469SOL     OW24865   0.774   1.140   5.680  0.2807  0.0935 -0.2185
 4469SOL    HW124866   0.854   1.188   5.699 -1.3868  2.4888  0.7298
 4469SOL    HW224867   0.792   1.105   5.592 -1.2066 -2.0490  0.3170
 4470SOL     OW24868   3.593   4.540   5.259 -0.3555 -0.4910  0.0229
 4470SOL    HW124869   3.634   4.585   5.333  1.4625 -1.0858 -0.6282
 4470SOL    HW224870   3.504   4.542   5.295 -1.3725  3.8917 -2.8136
 4471SOL     OW24871   0.910   3.441  11.504  0.2924  0.1097 -0.3758
 4471SOL    HW124872   0.839   3.454  11.567 -0.2482 -2.8739 -0.3544
 4471SOL    HW224873   0.970   3.388  11.557 -1.1737  0.0617  1.2517
 4472SOL     OW24874   1.417   3.791   1.770 -0.2708  0.1612 -0.6945
 4472SOL    HW124875   1.341   3.769   1.824 -0.4798  0.3568 -0.9085
 4472SOL    HW224876   1.470   3.821   1.844  0.0302 -0.1354 -0.7877
 4473SOL     OW24877   3.028   1.723   1.128  0.3869 -0.1211 -0.7050
 4473SOL    HW124878   3.054   1.648   1.182  0.4182  2.0887  2.4116
 4473SOL    HW224879   3.029   1.688   1.039 -0.5245 -1.6962 -0.0874
 4474SOL     OW24880   0.899   1.085   6.353  0.3489 -0.0733  0.0245
 4474SOL    HW124881   0.830   1.149   6.367  2.1736  1.9129 -0.0128
 4474SOL    HW224882   0.967   1.142   6.316 -0.6764  0.9583 -0.2503
 4475SOL     OW24883   4.694   4.660   2.468  0.0352 -0.4680  0.1970
 4475SOL    HW124884   4.714   4.658   2.562  0.7735 -0.8371  0.0318
 4475SOL    HW224885   0.008   0.022   2.440 -2.2403 -1.2306 -5.0269
 4476SOL     OW24886   2.028   1.309   2.693 -0.2087  0.1317 -0.7293
 4476SOL    HW124887   2.000   1.218   2.702  2.8343 -0.4786  2.5976
 4476SOL    HW224888   1.983   1.344   2.616 -0.5897 -2.1351 -1.5451
 4477SOL     OW24889   3.052   3.990   5.193 -0.2151 -1.3086  0.0389
 4477SOL    HW124890   2.959   3.973   5.209 -0.0358 -3.2569 -1.0022
 4477SOL    HW224891   3.047   4.007   5.099  3.6782  0.6318  0.1922
 4478SOL     OW24892   0.965   3.668   5.764  0.8014 -0.2797  0.3710
 4478SOL    HW124893   1.018   3.734   5.718  1.3585 -1.2237 -0.3447
 4478SOL    HW224894   0.881   3.705   5.738  1.3290  0.8120  0.1960
 4479SOL     OW24895   3.270   4.344   5.549 -0.1723  0.0805 -0.2931
 4479SOL    HW124896   3.233   4.287   5.482  0.0369  0.8288 -1.0464
 4479SOL    HW224897   3.313   4.279   5.605 -0.7099  1.3892  1.6716
 4480SOL     OW24898   2.829   4.222  17.599  0.1416 -0.7557 -0.9734
 4480SOL    HW124899   2.884   4.297  17.621 -0.4126 -0.1696 -1.5817
 4480SOL    HW224900   2.891   4.156  17.570 -0.6308 -2.0421  0.3102
 4481SOL     OW24901   1.558   0.544   9.532  0.6312 -0.9395 -0.2875
 4481SOL    HW124902   1.594   0.582   9.612 -1.8508  1.7842 -0.4270
 4481SOL    HW224903   1.624   0.480   9.507  0.4674 -0.6869 -1.4072
 4482SOL     OW24904   0.250   1.635   8.877  0.1790  0.3200 -0.0460
 4482SOL    HW124905   0.192   1.639   8.953 -0.1031  1.3320 -0.3167
 4482SOL    HW224906   0.307   1.565   8.908  1.0696  1.0973  0.0851
 4483SOL     OW24907   0.271   2.619   6.295 -0.1442  0.8555 -0.0700
 4483SOL    HW124908   0.257   2.705   6.334  0.3777  0.0957  1.7615
 4483SOL    HW224909   0.268   2.555   6.366 -0.6583  2.1198  1.0450
 4484SOL     OW24910   3.191   0.383   2.553  0.0461 -0.0795 -0.3277
 4484SOL    HW124911   3.203   0.444   2.481 -0.2221  0.8156  0.3904
 4484SOL    HW224912   3.097   0.383   2.567  0.4833 -2.2012  2.7837
 4485SOL     OW24913   1.861   3.198   4.642 -0.4033 -0.0492  0.2085
 4485SOL    HW124914   1.911   3.210   4.561 -0.4919 -3.1363 -0.2966
 4485SOL    HW224915   1.919   3.256   4.692 -0.0243 -0.3935  0.1626
 4486SOL     OW24916   3.789   2.666   7.696  0.3095 -0.1307  0.3780
 4486SOL    HW124917   3.773   2.755   7.664 -1.2328 -0.6079 -0.1993
 4486SOL    HW224918   3.712   2.648   7.751 -0.3780  1.2420 -0.1311
 4487SOL     OW24919   1.458   0.270   7.844  0.1666 -0.0794 -0.0771
 4487SOL    HW124920   1.443   0.318   7.762 -2.8854 -0.5070  0.2393
 4487SOL    HW224921   1.369   0.244   7.865  0.4314 -0.3622  0.6760
 4488SOL     OW24922   0.074   1.628  16.643  0.4778  0.2963 -0.1967
 4488SOL    HW124923   0.115   1.548  16.611  0.1862 -0.4294  1.2299
 4488SOL    HW224924   4.706   1.612  16.617  0.3187  3.0626 -1.2842
 4489SOL     OW24925   1.148   3.383   3.211 -0.1409 -0.2197  0.0907
 4489SOL    HW124926   1.125   3.442   3.140  0.3733  1.2650  1.1663
 4489SOL    HW224927   1.089   3.307   3.206  0.9979 -1.1564  0.8812
 4490SOL     OW24928   4.565   2.741   5.582 -0.3498  0.0818  0.2167
 4490SOL    HW124929   4.532   2.812   5.528 -0.0344  0.1152  0.0685
 4490SOL    HW224930   4.528   2.662   5.542  2.0872 -0.1985 -1.4568
 4491SOL     OW24931   1.223   3.317  12.840 -0.7266  0.2076 -0.2032
 4491SOL    HW124932   1.293   3.377  12.813  0.4338 -1.0782 -0.0883
 4491SOL    HW224933   1.246   3.316  12.933  0.2923 -0.7906 -0.4628
 4492SOL     OW24934   3.588   0.735   5.193 -0.4870 -0.0148 -0.3368
 4492SOL    HW124935   3.493   0.735   5.192 -0.4541  0.5958 -4.0564
 4492SOL    HW224936   3.607   0.661   5.135 -0.7861 -0.2756 -0.0982
 4493SOL     OW24937   0.084   2.132   7.675 -0.6596  0.5339  0.6686
 4493SOL    HW124938   0.112   2.186   7.749  0.7065 -1.4118  1.5843
 4493SOL    HW224939   0.138   2.053   7.687 -0.7040  0.1052 -1.9422
 4494SOL     OW24940   3.388   3.188  13.409 -0.0474  0.7053 -0.3255
 4494SOL    HW124941   3.358   3.278  13.396 -2.2620  0.3470  2.3832
 4494SOL    HW224942   3.424   3.183  13.498 -0.9799 -0.6291 -0.0343
 4495SOL     OW24943   2.543   0.928   3.551  0.3510 -0.4755  0.4736
 4495SOL    HW124944   2.620   0.884   3.587 -1.1313 -1.6207  2.1884
 4495SOL    HW224945   2.472   0.884   3.597 -0.0038 -0.3570  0.0454
 4496SOL     OW24946   2.804   1.709   9.016 -0.2651  0.1349 -0.5771
 4496SOL    HW124947   2.798   1.757   9.099 -0.9728  0.8465 -1.0473
 4496SOL    HW224948   2.870   1.642   9.032 -0.5409 -0.2838 -1.1784
 4497SOL     OW24949   3.989   1.876   2.454 -0.1940 -0.7660  0.6051
 4497SOL    HW124950   3.949   1.940   2.395 -2.0966 -1.5905  0.9755
 4497SOL    HW224951   3.943   1.897   2.535 -1.7963  0.2986 -0.5665
 4498SOL     OW24952   1.462   1.760   4.455  0.5484  0.3080 -0.1396
 4498SOL    HW124953   1.494   1.833   4.508  2.1996  0.1125 -0.8956
 4498SOL    HW224954   1.451   1.792   4.366 -0.4861  0.5268  0.0643
 4499SOL     OW24955   3.973   3.481   5.749 -0.0009  0.5132 -0.1930
 4499SOL    HW124956   3.947   3.426   5.824  0.7101  2.4020  1.4331
 4499SOL    HW224957   4.048   3.431   5.715 -0.5694  0.8044 -1.8394
 4500SOL     OW24958   0.557   1.827   9.840  0.6118  0.0715 -0.2488
 4500SOL    HW124959   0.574   1.737   9.865  0.4235  0.0359 -0.2530
 4500SOL    HW224960   0.637   1.866   9.876 -0.0157  0.7671  0.3983
 4501SOL     OW24961   1.860   2.788   4.635 -0.0449 -0.3772 -0.1532
 4501SOL    HW124962   1.802   2.712   4.634 -1.2238  0.5134  0.5152
 4501SOL    HW224963   1.888   2.794   4.544 -0.7075  2.1307 -0.2073
 4502SOL     OW24964   1.762   4.158   6.565 -0.6986 -0.3105  0.5282
 4502SOL    HW124965   1.806   4.122   6.642 -0.4583  0.4636  0.7534
 4502SOL    HW224966   1.706   4.084   6.538  2.3537 -1.6980 -2.0549
 4503SOL     OW24967   3.727   1.748  17.545 -0.4513 -0.1188  0.4126
 4503SOL    HW124968   3.710   1.842  17.550 -1.1161 -0.2943  1.3477
 4503SOL    HW224969   3.752   1.723  17.634  0.1921  1.5937  0.7204
 4504SOL     OW24970   2.615   3.591  10.126  0.2297  1.1699  0.0762
 4504SOL    HW124971   2.587   3.552  10.044  1.0583 -0.2403  0.4684
 4504SOL    HW224972   2.539   3.577  10.183 -0.0782 -1.2285 -0.9424
 4505SOL     OW24973   2.465   4.606   0.787 -0.1056 -0.4004 -0.8250
 4505SOL    HW124974   2.447   4.686   0.837 -0.0981 -0.8196 -0.1519
 4505SOL    HW224975   2.488   4.645   0.703  1.8840 -1.3923 -0.7309
 4506SOL     OW24976   3.550   3.095  12.484  0.6034  0.7226  0.3431
 4506SOL    HW124977   3.551   3.075  12.390  3.1186  0.7021  0.3742
 4506SOL    HW224978   3.496   3.019  12.505  0.1172  0.8186 -0.5281
 4507SOL     OW24979   1.962   3.157   2.879  0.4899 -0.2645  0.8370
 4507SOL    HW124980   1.935   3.234   2.928  0.4048 -0.9457  1.8572
 4507SOL    HW224981   2.051   3.178   2.852 -0.2412  0.9697 -0.6170
 4508SOL     OW24982   2.690   0.333   7.507  0.3129  0.4234 -0.2786
 4508SOL    HW124983   2.609   0.315   7.461 -0.1246  0.6665  0.4033
 4508SOL    HW224984   2.681   0.268   7.577 -2.0287 -1.1922 -2.1026
 4509SOL     OW24985   4.017   0.876  11.356  0.1859  0.2446 -0.0473
 4509SOL    HW124986   4.033   0.888  11.450  1.1685  0.4610 -0.2409
 4509SOL    HW224987   4.028   0.970  11.342 -0.4269  0.1464 -1.1433
 4510SOL     OW24988   2.078   3.423   7.330  0.1615  0.3338  0.0830
 4510SOL    HW124989   2.109   3.437   7.420 -0.8564  0.2077  0.4529
 4510SOL    HW224990   2.030   3.502   7.308 -2.3067 -1.0172  0.5818
 4511SOL     OW24991   0.716   3.215   7.163  0.2713  0.5983 -0.0249
 4511SOL    HW124992   0.787   3.175   7.213 -0.9892 -0.1368  1.1929
 4511SOL    HW224993   0.756   3.217   7.076 -0.5518  3.5362 -0.3170
 4512SOL     OW24994   3.965   3.713   4.428 -0.0747  0.2917 -0.1313
 4512SOL    HW124995   3.913   3.793   4.432 -2.5932 -1.4929  2.6598
 4512SOL    HW224996   4.050   3.744   4.396 -1.4957  1.1266 -3.1085
 4513SOL     OW24997   0.336   1.349  14.023 -0.3139 -0.5150 -0.7341
 4513SOL    HW124998   0.255   1.368  14.070  0.0783 -0.0612 -0.2493
 4513SOL    HW224999   0.322   1.255  14.009 -0.9694 -0.5990  0.4891
 4514SOL     OW25000   2.983   4.405   0.049  0.0678 -0.1206  0.5961
 4514SOL    HW125001   2.962   4.497   0.063  2.6216  0.5245  0.0839
 4514SOL    HW225002   3.077   4.403   0.067  0.1690  0.5556  0.1190
 4515SOL     OW25003   3.233   1.972   6.133  0.2357 -0.3540  0.0009
 4515SOL    HW125004   3.253   2.045   6.074 -1.1647  0.2359  0.2716
 4515SOL    HW225005   3.290   1.902   6.101  0.9245  0.9855 -1.7188
 4516SOL     OW25006   2.015   3.082   8.692  0.5435 -0.3044 -0.3166
 4516SOL    HW125007   1.939   3.047   8.737  0.9864 -0.2096  0.4966
 4516SOL    HW225008   1.968   3.139   8.631  0.2566  1.6341  1.6878
 4517SOL     OW25009   2.171   4.493   3.050  0.2917 -0.1399 -0.4194
 4517SOL    HW125010   2.264   4.515   3.042  0.2595  0.0463 -0.2890
 4517SOL    HW225011   2.149   4.532   3.135 -0.5190 -3.0586  0.7250
 4518SOL     OW25012   2.688   3.304   2.678  0.0892 -0.2694 -0.2522
 4518SOL    HW125013   2.759   3.359   2.643  1.0377 -2.5802 -1.9581
 4518SOL    HW225014   2.697   3.221   2.631 -0.1016  0.0034 -0.7610
 4519SOL     OW25015   4.311   3.597  16.097  0.2626 -0.2521  0.2377
 4519SOL    HW125016   4.380   3.641  16.147  1.2614 -2.7740  1.0902
 4519SOL    HW225017   4.236   3.636  16.141  0.8260  0.6250  0.4080
 4520SOL     OW25018   1.329   4.712  12.229 -0.0860  0.2376  0.1687
 4520SOL    HW125019   1.368   4.639  12.278 -1.4158 -0.1237  0.6713
 4520SOL    HW225020   1.366   0.064  12.277 -1.3318  0.9829 -0.0442
 4521SOL     OW25021   1.931   0.232   7.393  0.0782 -0.2141 -0.5047
 4521SOL    HW125022   1.854   0.240   7.337  0.1960  0.9726 -0.4899
 4521SOL    HW225023   1.912   0.143   7.422  2.4117 -0.9678 -1.2556
 4522SOL     OW25024   1.934   4.090  15.141 -0.1655  0.3839 -0.0211
 4522SOL    HW125025   1.897   4.155  15.201 -0.1633 -1.3621  1.8935
 4522SOL    HW225026   1.948   4.145  15.064 -0.4643  0.5626  0.0529
 4523SOL     OW25027   0.677   0.290  16.337  0.5929  0.2297  0.1805
 4523SOL    HW125028   0.670   0.385  16.344  0.7523  0.2453  0.1445
 4523SOL    HW225029   0.717   0.292  16.250  0.3354 -1.1444  0.0325
 4524SOL     OW25030   4.495   4.538   2.327  0.3792 -0.6207  0.1286
 4524SOL    HW125031   4.549   4.594   2.382  1.0974 -2.0847  0.9143
 4524SOL    HW225032   4.482   4.594   2.250 -0.1302  0.6305  1.1368
 4525SOL     OW25033   2.238   3.874   6.650  0.0804  0.0823  0.3930
 4525SOL    HW125034   2.283   3.873   6.734  0.9460  1.2029 -0.0570
 4525SOL    HW225035   2.197   3.787   6.648  0.6148 -0.1483 -0.3405
 4526SOL     OW25036   4.091   2.879   5.892  0.0255 -0.4957  0.6961
 4526SOL    HW125037   4.034   2.861   5.817  0.1300  0.7967  0.2975
 4526SOL    HW225038   4.148   2.950   5.861  2.0594 -1.3653  2.4783
 4527SOL     OW25039   1.854   4.066   5.374  0.4437  0.1169  0.0464
 4527SOL    HW125040   1.911   4.124   5.426  0.2119 -0.1977  0.6591
 4527SOL    HW225041   1.805   4.040   5.452  1.7192 -0.9005  0.5312
 4528SOL     OW25042   4.175   3.554   2.586  0.3473  0.1014  0.4507
 4528SOL    HW125043   4.111   3.484   2.570 -0.6786  1.3088 -0.6794
 4528SOL    HW225044   4.147   3.610   2.514  1.1271 -1.7188 -1.2583
 4529SOL     OW25045   2.436   1.212   8.839  0.3147  0.7566  0.7273
 4529SOL    HW125046   2.361   1.258   8.877 -0.1474 -0.1366  0.9149
 4529SOL    HW225047   2.415   1.119   8.846  0.1291  0.7470  0.0859
 4530SOL     OW25048   3.642   2.685   3.889 -0.0372 -0.3310 -0.1860
 4530SOL    HW125049   3.667   2.773   3.859 -0.9798 -0.3786 -1.0911
 4530SOL    HW225050   3.554   2.682   3.852  0.8806 -1.2224 -2.2704
 4531SOL     OW25051   2.455   2.457   8.962  0.7001  0.1050 -0.3461
 4531SOL    HW125052   2.428   2.396   9.031 -3.1840  0.4447 -1.6028
 4531SOL    HW225053   2.435   2.544   8.997  1.7018  0.9825 -1.9373
 4532SOL     OW25054   0.276   3.239   4.983 -0.3865 -0.0932 -0.1010
 4532SOL    HW125055   0.327   3.167   4.944 -0.2213  0.1351 -0.3059
 4532SOL    HW225056   0.269   3.215   5.075 -1.5588  1.6071  0.2554
 4533SOL     OW25057   3.170   4.099   8.777  0.1917 -0.1980 -0.3385
 4533SOL    HW125058   3.099   4.136   8.829  0.4464  1.3041 -1.0667
 4533SOL    HW225059   3.133   4.122   8.692 -0.7695 -2.6609 -0.5860
 4534SOL     OW25060   1.699   1.784   3.758 -0.4774  0.2138  0.6006
 4534SOL    HW125061   1.741   1.700   3.738  0.9848  0.8010  1.1906
 4534SOL    HW225062   1.643   1.793   3.680  4.5860  0.9950 -2.9732
 4535SOL     OW25063   2.746   0.427   6.198  0.4109  0.6916 -0.8946
 4535SOL    HW125064   2.667   0.373   6.196  1.1031 -0.3605  0.1417
 4535SOL    HW225065   2.742   0.456   6.289  0.1655  1.2346 -1.0752
 4536SOL     OW25066   1.400   3.391   6.051  0.2770 -0.4377  0.2258
 4536SOL    HW125067   1.437   3.433   6.128  0.2888 -0.7414  0.3840
 4536SOL    HW225068   1.311   3.425   6.037  1.3449  2.1388 -0.3441
 4537SOL     OW25069   2.953   0.418   7.624  0.6197 -0.5019 -0.8466
 4537SOL    HW125070   2.983   0.335   7.661  2.1134  0.4001 -0.0424
 4537SOL    HW225071   2.860   0.411   7.603 -0.1169  0.6868  2.0175
 4538SOL     OW25072   1.796   2.084   7.541 -0.0223  1.1382 -0.4037
 4538SOL    HW125073   1.795   1.997   7.582 -1.2268  1.5375  0.3992
 4538SOL    HW225074   1.710   2.096   7.503 -1.6254 -2.1683  2.1884
 4539SOL     OW25075   0.987   2.799   6.350  0.1228  0.0035 -0.0865
 4539SOL    HW125076   0.936   2.864   6.400 -0.2218 -1.3990  1.3697
 4539SOL    HW225077   0.973   2.717   6.397 -0.9291  0.9165  1.2151
 4540SOL     OW25078   3.895   3.083   4.750  0.6035  0.2233  0.0720
 4540SOL    HW125079   3.821   3.129   4.712  0.2747 -0.5358 -0.1979
 4540SOL    HW225080   3.842   3.050   4.822  0.0415  1.3277  0.1708
 4541SOL     OW25081   3.000   2.547   7.043  0.1200  1.1024 -0.0392
 4541SOL    HW125082   2.916   2.501   7.040  0.3287  0.5924  1.7741
 4541SOL    HW225083   2.960   2.633   7.028  0.0041  1.0057 -0.2751
 4542SOL     OW25084   1.109   0.446   8.317  0.4221 -0.3993  0.1278
 4542SOL    HW125085   1.202   0.434   8.301  0.4468  0.5802 -0.4942
 4542SOL    HW225086   1.074   0.395   8.244  2.3434  0.8947 -1.6935
 4543SOL     OW25087   3.040   0.121  16.416 -0.3506  0.2939  0.0415
 4543SOL    HW125088   3.006   0.037  16.445 -2.1823  1.0966  0.2309
 4543SOL    HW225089   2.980   0.142  16.344 -1.2313 -1.2299  0.3442
 4544SOL     OW25090   3.396   3.956   5.375  0.4314  0.5806  0.5236
 4544SOL    HW125091   3.463   4.024   5.376 -0.0603  1.0736  0.1774
 4544SOL    HW225092   3.387   3.942   5.469 -0.9669  3.1523  0.7502
 4545SOL     OW25093   4.491   1.872  17.662  0.6689 -0.2396  0.1388
 4545SOL    HW125094   4.523   1.912   0.051 -1.9158 -0.4570  1.3050
 4545SOL    HW225095   4.405   1.914  17.654  0.9945  0.6569  1.3215
 4546SOL     OW25096   1.989   3.623   7.778 -0.0377 -0.0288  0.0978
 4546SOL    HW125097   2.011   3.641   7.870 -1.4613  0.8849  0.2529
 4546SOL    HW225098   1.981   3.528   7.788 -0.0336 -0.1109 -0.6819
 4547SOL     OW25099   3.354   1.074   5.313 -0.1846  0.3911  0.4645
 4547SOL    HW125100   3.358   1.115   5.227 -0.7266 -1.7315 -0.5638
 4547SOL    HW225101   3.417   1.125   5.364 -0.3296  0.4959  0.5410
 4548SOL     OW25102   2.130   4.001   1.719 -0.2435  0.0797 -0.5577
 4548SOL    HW125103   2.168   4.074   1.669 -1.2388  1.0241  0.0567
 4548SOL    HW225104   2.188   3.999   1.796  1.6265  1.1096 -1.9353
 4549SOL     OW25105   1.100   0.673   6.521 -0.8528  0.2719 -0.0059
 4549SOL    HW125106   1.070   0.670   6.612  0.0482 -2.7441  0.2040
 4549SOL    HW225107   1.166   0.742   6.530  2.8975 -3.5113  1.4002
 4550SOL     OW25108   1.036   3.091   2.424 -0.7797  0.3943 -0.1316
 4550SOL    HW125109   1.096   3.111   2.352  2.1459 -1.2821  1.8082
 4550SOL    HW225110   1.066   3.154   2.490 -1.4464  0.5439  0.0246
 4551SOL     OW25111   3.725   4.456  17.210  0.1498 -0.0421  0.4603
 4551SOL    HW125112   3.788   4.452  17.282 -0.1078  1.0076  0.7469
 4551SOL    HW225113   3.752   4.535  17.164 -0.6476 -0.1345 -0.1650
 4552SOL     OW25114   2.259   0.223   9.878  0.2268  0.1516 -0.0719
 4552SOL    HW125115   2.315   0.145   9.871 -0.7035 -0.4729 -0.5914
 4552SOL    HW225116   2.171   0.188   9.862 -0.0684  0.7086  0.3379
 4553SOL     OW25117   2.320   2.464  15.786 -0.5349  0.2198 -0.1501
 4553SOL    HW125118   2.338   2.388  15.840  0.2618  0.7806  0.3755
 4553SOL    HW225119   2.314   2.428  15.697 -0.0804  3.0030 -1.3165
 4554SOL     OW25120   1.539   1.708   5.026 -0.7127 -0.0735 -0.3394
 4554SOL    HW125121   1.620   1.701   5.076 -0.6518  0.6445 -0.3391
 4554SOL    HW225122   1.505   1.619   5.037  0.2986 -1.0376 -5.1556
 4555SOL     OW25123   0.181   0.104   6.297 -0.1009  0.0738  0.1269
 4555SOL    HW125124   0.097   0.104   6.251 -1.1369 -0.6841  2.0363
 4555SOL    HW225125   0.243   0.133   6.230 -1.4632 -1.0610 -1.6544
 4556SOL     OW25126   4.231   3.096   4.971  0.3781 -0.1190  0.3015
 4556SOL    HW125127   4.165   3.138   4.916  1.5425  1.4378  0.0969
 4556SOL    HW225128   4.299   3.067   4.911  1.2376 -0.3848  1.3895
 4557SOL     OW25129   2.329   3.551   0.859 -0.3697 -0.4692  0.2756
 4557SOL    HW125130   2.341   3.495   0.783  1.8232 -1.3141  1.2493
 4557SOL    HW225131   2.255   3.607   0.834  0.5187  0.6269  0.1306
 4558SOL     OW25132   0.725   4.397   5.207  0.1752 -0.2503  0.2429
 4558SOL    HW125133   0.640   4.440   5.209  1.9314  3.1308  2.6062
 4558SOL    HW225134   0.790   4.468   5.198  0.6834 -0.9264 -1.3482
 4559SOL     OW25135   4.100   1.907  16.099 -0.0496 -0.1881 -0.0985
 4559SOL    HW125136   4.152   1.970  16.049  1.0102 -1.3129 -0.4244
 4559SOL    HW225137   4.067   1.973  16.160  0.8762 -1.4069  1.7280
 4560SOL     OW25138   2.361   0.682   4.978 -0.6580 -0.3598 -0.1734
 4560SOL    HW125139   2.423   0.747   4.944 -0.2884 -0.7771 -0.2996
 4560SOL    HW225140   2.291   0.689   4.913 -2.6784  0.0514  2.0220
 4561SOL     OW25141   1.753   2.845   3.231 -0.2815 -0.1141  0.3146
 4561SOL    HW125142   1.773   2.917   3.171 -2.3708 -0.3298 -0.6298
 4561SOL    HW225143   1.659   2.837   3.211  0.1198  0.5555 -1.8615
 4562SOL     OW25144   1.025   2.065  16.842 -0.2466 -0.3858 -0.0405
 4562SOL    HW125145   1.012   1.973  16.821 -1.5852 -0.6776  2.0083
 4562SOL    HW225146   0.939   2.105  16.848  0.3429  0.8812  0.0736
 4563SOL     OW25147   2.416   0.450  12.913  0.7884  0.7380 -0.4898
 4563SOL    HW125148   2.488   0.502  12.878  0.6522  1.5059  0.3723
 4563SOL    HW225149   2.459   0.373  12.950 -0.4576  0.3863  0.2018
 4564SOL     OW25150   0.117   2.773  12.586 -0.2122  0.5390 -0.0897
 4564SOL    HW125151   0.120   2.805  12.676 -2.5700  0.0967  0.1325
 4564SOL    HW225152   0.103   2.679  12.598  0.3583  0.5174  0.3640
 4565SOL     OW25153   2.995   4.403   9.443  0.1457 -0.8302 -0.3549
 4565SOL    HW125154   3.063   4.455   9.400 -1.8900  2.1665  0.0947
 4565SOL    HW225155   2.933   4.471   9.470  0.2795 -0.6679 -0.4538
 4566SOL     OW25156   1.398   1.671  12.057 -0.1547 -0.2760  0.4860
 4566SOL    HW125157   1.411   1.611  11.984 -3.0365  2.2871 -2.1034
 4566SOL    HW225158   1.324   1.721  12.023 -1.7848 -1.3994  2.3449
 4567SOL     OW25159   1.047   4.278   8.696 -0.0466 -0.1555  0.5738
 4567SOL    HW125160   1.069   4.285   8.789  2.4289 -1.0277  0.0673
 4567SOL    HW225161   1.038   4.184   8.679 -0.1332 -0.1207  0.4251
 4568SOL     OW25162   4.424   2.137   3.666  0.0155  0.3184 -1.1141
 4568SOL    HW125163   4.334   2.168   3.679 -0.1220 -0.2966 -0.6202
 4568SOL    HW225164   4.398   2.046   3.654 -1.0546  0.6264 -1.1097
 4569SOL     OW25165   0.969   4.214   5.504  0.3411  0.0604 -0.3972
 4569SOL    HW125166   1.004   4.302   5.489 -1.2143  0.3051 -2.5145
 4569SOL    HW225167   0.881   4.235   5.534  0.1600 -0.3426 -0.6575
 4570SOL     OW25168   0.867   3.802   3.048  0.1319  0.3704 -0.6528
 4570SOL    HW125169   0.841   3.781   2.958  0.4269 -1.3222 -0.3477
 4570SOL    HW225170   0.840   3.893   3.056  2.0563  0.9026 -0.2559
 4571SOL     OW25171   4.087   3.206   6.122  0.1423  0.4096 -0.3028
 4571SOL    HW125172   4.178   3.222   6.147 -1.1711  2.8199  2.9188
 4571SOL    HW225173   4.067   3.121   6.159 -1.7311  0.6378 -0.8057
 4572SOL     OW25174   0.803   1.581   8.888 -0.3733  0.4173 -0.2309
 4572SOL    HW125175   0.810   1.667   8.846 -1.8130  0.1410 -1.0355
 4572SOL    HW225176   0.733   1.545   8.834 -0.7312  0.7111  0.0445
 4573SOL     OW25177   3.068   1.654   0.872  0.1520  0.0447  0.1636
 4573SOL    HW125178   3.112   1.570   0.885 -0.1453 -0.2176 -0.4678
 4573SOL    HW225179   2.982   1.616   0.852  1.3734 -1.5010 -2.1850
 4574SOL     OW25180   0.952   1.564   8.566 -0.8843  0.1853 -0.1886
 4574SOL    HW125181   1.036   1.541   8.527 -0.7691  1.7410 -0.8364
 4574SOL    HW225182   0.962   1.515   8.648 -0.0349  1.9886  0.7840
 4575SOL     OW25183   0.546   4.203   5.097  0.1830  0.2233  0.5294
 4575SOL    HW125184   0.594   4.277   5.134  0.4966 -0.2036  0.9742
 4575SOL    HW225185   0.533   4.228   5.006 -1.0219  1.8218  1.1448
 4576SOL     OW25186   4.029   1.002   5.172  0.5918 -0.1937 -0.1855
 4576SOL    HW125187   4.115   0.962   5.181  0.0283 -1.2703  0.4552
 4576SOL    HW225188   3.959   0.939   5.189  0.3907  0.2232  0.5594
 4577SOL     OW25189   0.328   0.016  15.424 -0.2828 -0.0919 -0.1075
 4577SOL    HW125190   0.236   4.714  15.432  0.0427 -0.6831  1.9654
 4577SOL    HW225191   0.351   0.026  15.517  0.0674  1.4554 -0.3480
 4578SOL     OW25192   3.453   3.939   7.801 -0.3378  0.0475  0.2219
 4578SOL    HW125193   3.424   3.848   7.796  3.3600 -1.3490  4.0020
 4578SOL    HW225194   3.372   3.986   7.779 -0.0605  0.9741  1.1780
 4579SOL     OW25195   0.601   1.293   5.121  0.0523  0.0159 -0.5121
 4579SOL    HW125196   0.656   1.216   5.111 -0.6176 -0.8194  2.2247
 4579SOL    HW225197   0.573   1.275   5.211 -0.4549  1.3395 -0.4034
 4580SOL     OW25198   4.217   1.390   6.710 -0.2342 -0.7571 -0.1692
 4580SOL    HW125199   4.294   1.446   6.714 -0.0599 -1.1391  1.8483
 4580SOL    HW225200   4.202   1.380   6.616  0.2549 -0.6723 -0.2536
 4581SOL     OW25201   1.575   0.686  15.499 -0.2094 -0.0687 -0.2930
 4581SOL    HW125202   1.605   0.733  15.421 -0.4092  0.8264  0.1651
 4581SOL    HW225203   1.563   0.757  15.562 -0.7282  0.0108 -0.4834
 4582SOL     OW25204   2.483   3.041   7.678 -0.1499 -0.0733 -0.2434
 4582SOL    HW125205   2.525   2.999   7.753 -1.0963  1.0300  0.9074
 4582SOL    HW225206   2.414   2.975   7.671 -0.1768 -0.4420  3.3347
 4583SOL     OW25207   1.769   2.600   3.855 -0.1317  0.2148  0.0500
 4583SOL    HW125208   1.823   2.678   3.861  0.7915 -0.5188  1.2295
 4583SOL    HW225209   1.750   2.605   3.761  0.9841 -0.0566 -0.1924
 4584SOL     OW25210   1.264   0.158   5.027  0.2378  0.3653 -0.3738
 4584SOL    HW125211   1.191   0.096   5.022  1.1963 -0.5286 -3.5491
 4584SOL    HW225212   1.297   0.145   4.938 -1.2127 -0.6543 -0.7657
 4585SOL     OW25213   3.760   2.436   3.830  0.6680  0.1981  0.2479
 4585SOL    HW125214   3.688   2.381   3.860  0.5632  1.2351  1.9447
 4585SOL    HW225215   3.739   2.525   3.861 -1.2691 -0.1982  0.0860
 4586SOL     OW25216   2.924   1.811  11.868 -0.0400  0.0085 -0.3391
 4586SOL    HW125217   2.888   1.862  11.795  0.9971  0.3521 -0.5959
 4586SOL    HW225218   2.846   1.778  11.914  1.5795 -0.1028  2.3331
 4587SOL     OW25219   3.745   3.667   4.277  0.1028 -0.0377  0.0195
 4587SOL    HW125220   3.810   3.683   4.345  0.2735  3.4423 -0.9607
 4587SOL    HW225221   3.797   3.657   4.197  0.0282  0.2253 -0.0638
 4588SOL     OW25222   4.408   4.303  16.329  0.2215 -0.8965 -0.6456
 4588SOL    HW125223   4.339   4.312  16.394  0.1818 -0.8329 -0.6963
 4588SOL    HW225224   4.485   4.320  16.383 -0.1304 -1.7762  0.1301
 4589SOL     OW25225   3.809   1.094   8.512 -0.5393  0.7597  0.6697
 4589SOL    HW125226   3.722   1.130   8.492 -0.6259 -0.3100 -0.8372
 4589SOL    HW225227   3.797   1.002   8.490 -1.5339  0.3918  2.7924
 4590SOL     OW25228   1.258   0.593   4.847  0.7690 -0.0290  0.1232
 4590SOL    HW125229   1.254   0.517   4.788 -0.3507  0.6621 -0.6905
 4590SOL    HW225230   1.286   0.547   4.926 -1.6038 -0.6659  0.5933
 4591SOL     OW25231   4.346   3.210   1.117  0.2656  0.3298 -0.0280
 4591SOL    HW125232   4.298   3.290   1.096 -1.1707  0.2392  2.9253
 4591SOL    HW225233   4.369   3.229   1.208 -1.4754  1.1262  0.2490
 4592SOL     OW25234   1.424   1.921   4.224 -0.2506  0.3803 -0.5894
 4592SOL    HW125235   1.487   1.898   4.156  1.5744  0.6957  0.9849
 4592SOL    HW225236   1.365   1.989   4.190  0.3820  1.6039  0.7230
 4593SOL     OW25237   0.874   2.460   3.477  0.0767 -0.2702  0.4521
 4593SOL    HW125238   0.784   2.482   3.500  0.5621  1.7065  0.4972
 4593SOL    HW225239   0.901   2.444   3.568 -0.3938 -0.7057  0.5142
 4594SOL     OW25240   4.324   4.241   2.236 -0.0422  0.1939 -0.0365
 4594SOL    HW125241   4.296   4.169   2.179  0.9242 -2.2481  2.6051
 4594SOL    HW225242   4.264   4.300   2.191  1.0535 -0.4771 -2.3936
 4595SOL     OW25243   4.449   0.947   3.389  0.1951 -0.2979  0.1353
 4595SOL    HW125244   4.397   1.005   3.444 -1.9558  0.5140 -2.7589
 4595SOL    HW225245   4.522   0.955   3.450  0.5154  1.4628 -0.4724
 4596SOL     OW25246   3.647   1.284   2.248 -0.1215  0.7031 -0.1206
 4596SOL    HW125247   3.743   1.290   2.251  0.0039  0.0418 -2.2035
 4596SOL    HW225248   3.638   1.249   2.159 -2.0739  0.0564  0.3348
 4597SOL     OW25249   3.046   0.918   6.499  0.1211  0.2009 -0.2733
 4597SOL    HW125250   3.037   0.823   6.500  1.3971  0.0575 -2.3420
 4597SOL    HW225251   2.991   0.949   6.427 -1.7524 -0.8021  0.7339
 4598SOL     OW25252   2.551   4.100  17.413  0.0020 -0.5053  0.2989
 4598SOL    HW125253   2.582   4.010  17.420  1.6444 -0.0312 -0.7559
 4598SOL    HW225254   2.456   4.091  17.422 -0.0876  1.0271  0.9341
 4599SOL     OW25255   3.772   1.378  12.583 -0.2656  0.1918 -0.4274
 4599SOL    HW125256   3.682   1.374  12.549  0.2749  0.9374 -1.9481
 4599SOL    HW225257   3.820   1.338  12.511 -0.3683 -0.3810 -0.1731
 4600SOL     OW25258   2.506   3.783   7.333  0.6127  0.2955 -0.0089
 4600SOL    HW125259   2.476   3.771   7.243  0.5063 -3.6864  0.5376
 4600SOL    HW225260   2.511   3.691   7.361  0.7962 -0.3157 -2.0567
 4601SOL     OW25261   2.953   2.127   1.282  0.1324 -0.0779  0.0766
 4601SOL    HW125262   2.953   2.041   1.324 -0.9945  0.4957  1.2668
 4601SOL    HW225263   2.859   2.139   1.273  0.0635  0.5711  1.5834
 4602SOL     OW25264   2.445   2.243  17.658  0.0243 -0.7316 -0.1554
 4602SOL    HW125265   2.384   2.258   0.039 -0.2164 -1.0185 -0.3027
 4602SOL    HW225266   2.507   2.313  17.676 -0.2148 -0.9231  1.4842
 4603SOL     OW25267   0.235   4.521   8.647 -0.0429  0.1315  0.0212
 4603SOL    HW125268   0.325   4.550   8.665  0.4032 -1.6272  0.5971
 4603SOL    HW225269   0.208   4.482   8.730 -2.5006  2.0453  0.1278
 4604SOL     OW25270   2.806   4.163   6.777 -0.2217  0.7078 -0.1020
 4604SOL    HW125271   2.841   4.237   6.727 -0.2179  1.9333  1.6739
 4604SOL    HW225272   2.886   4.110   6.774 -0.5098  0.1343  2.5653
 4605SOL     OW25273   3.918   0.735   6.935 -0.7120  0.8131 -0.6917
 4605SOL    HW125274   4.006   0.699   6.933 -0.6687  0.9774 -1.6245
 4605SOL    HW225275   3.868   0.663   6.896 -0.0975 -0.0464  0.1110
 4606SOL     OW25276   4.439   2.312   3.968  0.7032 -0.5088 -0.3986
 4606SOL    HW125277   4.484   2.392   3.995  0.9214  0.0685 -2.5013
 4606SOL    HW225278   4.417   2.342   3.880  0.6496 -1.8875 -0.8568
 4607SOL     OW25279   0.759   3.655  12.342  0.4613 -0.1173 -0.3799
 4607SOL    HW125280   0.711   3.584  12.384  1.0862 -0.8674 -0.9343
 4607SOL    HW225281   0.757   3.724  12.408  0.6742 -1.0141  0.5750
 4608SOL     OW25282   4.672   0.818   4.676 -0.4245 -0.0941  0.2944
 4608SOL    HW125283   4.682   0.833   4.770 -0.2908 -0.5416  0.3490
 4608SOL    HW225284   4.677   0.907   4.641  0.8396  0.2682  1.3893
 4609SOL     OW25285   1.395   1.151   2.552  0.3921 -0.0763  0.7296
 4609SOL    HW125286   1.347   1.123   2.629 -3.2195  0.5304 -1.3009
 4609SOL    HW225287   1.346   1.113   2.479  1.4706  0.2407 -0.1686
 4610SOL     OW25288   3.876   1.297   7.753  0.1593  0.7013  0.2221
 4610SOL    HW125289   3.804   1.359   7.745 -0.5958 -0.0973  0.7757
 4610SOL    HW225290   3.869   1.250   7.670  0.9169  3.2905 -1.3130
 4611SOL     OW25291   0.445   1.010  10.882 -0.0712  0.1991 -0.0165
 4611SOL    HW125292   0.434   0.963  10.964 -1.5022  0.1165 -0.2577
 4611SOL    HW225293   0.534   0.983  10.859  0.3547  0.6203  1.1324
 4612SOL     OW25294   2.389   2.492   4.100 -0.0402  0.1791 -0.3069
 4612SOL    HW125295   2.485   2.497   4.094  0.1511 -1.1756  1.9180
 4612SOL    HW225296   2.381   2.399   4.122 -1.8399 -0.0393 -1.8504
 4613SOL     OW25297   0.194   4.163  16.656 -0.0981 -0.1731 -0.3657
 4613SOL    HW125298   0.178   4.068  16.659 -3.9595  0.4938 -0.6018
 4613SOL    HW225299   0.146   4.213  16.722  0.4622  0.6301 -0.5721
 4614SOL     OW25300   2.144   0.485   6.907  0.4846 -0.6986 -0.7425
 4614SOL    HW125301   2.173   0.560   6.959  1.0119 -1.2804 -0.2099
 4614SOL    HW225302   2.179   0.416   6.962  0.1756 -1.7772 -1.9014
 4615SOL     OW25303   4.173   2.186   9.036  0.4383  0.3537 -0.1708
 4615SOL    HW125304   4.093   2.143   9.065 -0.5142  1.8136 -0.6576
 4615SOL    HW225305   4.195   2.126   8.965  0.4317 -1.2107  1.1341
 4616SOL     OW25306   1.865   0.784  13.179 -0.0347 -0.7852  0.4453
 4616SOL    HW125307   1.873   0.729  13.257  1.3186 -0.5993  0.4414
 4616SOL    HW225308   1.939   0.748  13.131  1.2569  3.4297 -0.6884
 4617SOL     OW25309   0.323   1.727  16.051  0.2051 -0.2975  0.2788
 4617SOL    HW125310   0.272   1.648  16.038  1.5213 -0.9091 -1.2216
 4617SOL    HW225311   0.290   1.760  16.135 -1.0979 -1.1347  0.0945
 4618SOL     OW25312   4.349   0.850   2.827 -0.2344  0.1986  1.1818
 4618SOL    HW125313   4.405   0.928   2.831 -0.0199  0.1682 -0.9842
 4618SOL    HW225314   4.277   0.880   2.771 -1.5174 -2.0404  1.6654
 4619SOL     OW25315   0.637   3.046   5.000  0.0163  0.3617 -0.1165
 4619SOL    HW125316   0.645   2.951   4.996  2.6133  0.5121  1.4413
 4619SOL    HW225317   0.543   3.063   4.998  0.1656  1.3788  1.1713
 4620SOL     OW25318   3.465   4.710  14.358  0.6691 -0.3341  0.6327
 4620SOL    HW125319   3.411   0.026  14.289  1.7336  1.5599  0.8500
 4620SOL    HW225320   3.545   4.683  14.312 -0.5083  0.1576 -1.6912
 4621SOL     OW25321   0.587   3.127  15.503 -0.3467 -0.0314  0.0915
 4621SOL    HW125322   0.548   3.210  15.532  2.4688  1.9961 -1.9565
 4621SOL    HW225323   0.569   3.127  15.409  1.0742  0.9590 -0.1876
 4622SOL     OW25324   2.736   0.107   1.751  0.2770  0.1377  0.2385
 4622SOL    HW125325   2.677   0.034   1.735  0.7310 -0.4817  1.3767
 4622SOL    HW225326   2.670   0.170   1.780  1.0497  0.5313  1.1391
 4623SOL     OW25327   1.598   3.860   2.833  0.1261  0.1338 -0.0000
 4623SOL    HW125328   1.563   3.882   2.920  1.8541 -0.4091  0.8373
 4623SOL    HW225329   1.553   3.928   2.783 -1.1373 -0.2920  0.5529
 4624SOL     OW25330   2.750   2.677   5.982  0.6068 -0.2891 -0.6145
 4624SOL    HW125331   2.708   2.743   5.926  0.4956 -0.6794 -0.9884
 4624SOL    HW225332   2.673   2.666   6.038 -0.7054 -1.1703 -2.6008
 4625SOL     OW25333   0.189   0.306   1.264 -0.0446 -0.3433  0.0554
 4625SOL    HW125334   0.236   0.223   1.254 -0.6406 -0.6666 -0.0756
 4625SOL    HW225335   0.137   0.326   1.186 -2.5684 -2.6592  1.1586
 4626SOL     OW25336   1.533   4.204   6.315  0.1001 -0.1911 -0.2022
 4626SOL    HW125337   1.625   4.227   6.323  0.0873  0.6853 -2.5673
 4626SOL    HW225338   1.549   4.130   6.257 -0.8616  0.2020 -0.9728
 4627SOL     OW25339   3.770   2.428  16.537 -0.2095 -0.1225  0.1094
 4627SOL    HW125340   3.702   2.360  16.543  0.3435 -0.5016  2.0475
 4627SOL    HW225341   3.842   2.379  16.496  1.0178 -1.0458  3.3492
 4628SOL     OW25342   0.849   2.587   1.576  0.4778  0.6196 -0.0087
 4628SOL    HW125343   0.832   2.496   1.551 -1.3947  0.8648  0.3671
 4628SOL    HW225344   0.935   2.597   1.536  0.5153  2.2020  0.4853
 4629SOL     OW25345   4.446   3.084   1.697  0.0564 -0.3078 -0.3957
 4629SOL    HW125346   4.437   3.067   1.790 -0.5608 -0.6645 -0.5178
 4629SOL    HW225347   4.541   3.077   1.688  0.5289  1.8419  2.9811
 4630SOL     OW25348   4.368   1.835   8.514  0.5560 -0.0086 -0.0740
 4630SOL    HW125349   4.339   1.757   8.467  0.2157  1.3342 -2.1095
 4630SOL    HW225350   4.364   1.897   8.441 -1.8167  0.0299  0.0701
 4631SOL     OW25351   4.488   0.409   9.272  0.1210 -0.2340 -0.6593
 4631SOL    HW125352   4.430   0.486   9.266 -1.4987 -1.2624  2.2007
 4631SOL    HW225353   4.436   0.341   9.313 -1.7536  0.6696 -1.5250
 4632SOL     OW25354   4.511   1.720   4.635  0.2463  0.1871  1.0810
 4632SOL    HW125355   4.488   1.801   4.591 -0.2916 -1.0084 -0.8559
 4632SOL    HW225356   4.604   1.739   4.637 -0.1207  2.4121 -2.3777
 4633SOL     OW25357   4.526   4.016   8.907 -0.1417 -0.4626 -0.4078
 4633SOL    HW125358   4.565   3.931   8.930 -0.5180 -0.6785 -0.5618
 4633SOL    HW225359   4.449   3.979   8.862 -1.8445 -0.7806  2.7398
 4634SOL     OW25360   3.764   3.068   3.630  0.0763 -0.0274 -0.6696
 4634SOL    HW125361   3.801   3.038   3.713  0.0482 -0.4604 -0.8158
 4634SOL    HW225362   3.693   3.123   3.663  0.4266 -0.2417  0.4491
 4635SOL     OW25363   0.856   1.145   4.040  0.1768  0.0358  0.2123
 4635SOL    HW125364   0.772   1.189   4.049 -0.4787 -1.4175  1.2111
 4635SOL    HW225365   0.857   1.077   4.107  0.3587 -0.2813 -0.1163
 4636SOL     OW25366   2.187   2.911   2.840 -0.7568  0.7422 -0.3053
 4636SOL    HW125367   2.206   3.004   2.837 -1.9327  1.0633  1.7879
 4636SOL    HW225368   2.272   2.878   2.870 -0.2580  1.9043 -0.4513
 4637SOL     OW25369   2.443   2.691  15.917  0.5423  0.0767  0.6870
 4637SOL    HW125370   2.367   2.679  15.860  0.5566 -0.7495  0.8414
 4637SOL    HW225371   2.504   2.637  15.868  0.4285  0.8569 -0.3307
 4638SOL     OW25372   0.466   1.970   8.288  0.6053 -0.1090 -0.4684
 4638SOL    HW125373   0.530   1.953   8.357  0.2532 -2.1709 -0.6251
 4638SOL    HW225374   0.393   2.004   8.341  0.3746 -1.3711  0.0306
 4639SOL     OW25375   2.812   1.277   7.420  0.0012 -0.5709  0.1879
 4639SOL    HW125376   2.740   1.295   7.481  1.8756  1.0038  1.9103
 4639SOL    HW225377   2.768   1.299   7.337  0.4295 -1.4158 -0.2644
 4640SOL     OW25378   3.211   3.550   9.835 -0.3539 -0.1195 -0.0577
 4640SOL    HW125379   3.278   3.495   9.876  0.1435  0.7411  0.2641
 4640SOL    HW225380   3.251   3.573   9.751 -0.3188 -2.9332 -0.8259
 4641SOL     OW25381   1.067   3.939  11.666 -0.2753  0.4548  0.1582
 4641SOL    HW125382   1.048   3.847  11.647 -1.8227  0.8638 -0.2570
 4641SOL    HW225383   0.993   3.967  11.719 -1.9719 -2.2192 -0.8231
 4642SOL     OW25384   4.058   0.617  13.524  0.3705 -0.1414 -0.1916
 4642SOL    HW125385   3.989   0.551  13.532 -0.3627  0.7163  0.5953
 4642SOL    HW225386   4.012   0.697  13.547  0.8339  0.8579 -2.8233
 4643SOL     OW25387   3.611   0.173   6.886 -0.2035 -0.7232  0.2958
 4643SOL    HW125388   3.615   0.155   6.980  1.1097 -0.1907  0.3428
 4643SOL    HW225389   3.567   0.094   6.852 -0.4715 -1.9819  3.5474
 4644SOL     OW25390   4.372   1.448  12.520  0.2791  0.3176  0.0088
 4644SOL    HW125391   4.352   1.542  12.524 -2.8497 -0.3477  0.4446
 4644SOL    HW225392   4.320   1.405  12.588 -1.1731 -0.5680 -1.6504
 4645SOL     OW25393   4.717   1.236  11.215  0.2469 -0.5251  0.2603
 4645SOL    HW125394   4.652   1.294  11.254  0.3675 -2.4244  3.2417
 4645SOL    HW225395   4.713   1.246  11.120 -0.5452  2.0291  0.5646
 4646SOL     OW25396   4.463   1.328   7.036 -0.4615 -0.3615 -0.0036
 4646SOL    HW125397   4.541   1.374   7.006  0.5576 -1.5530  0.8338
 4646SOL    HW225398   4.457   1.366   7.124 -0.3277  0.5182 -0.3712
 4647SOL     OW25399   0.237   3.588   0.712 -0.1695  0.4963 -0.7618
 4647SOL    HW125400   0.198   3.572   0.627  1.6102 -0.8588 -1.3128
 4647SOL    HW225401   0.320   3.628   0.684 -0.0422  1.1867  0.5721
 4648SOL     OW25402   3.491   1.066   4.367  0.2693 -0.3088  0.5360
 4648SOL    HW125403   3.519   1.157   4.359  1.1038 -0.6296 -0.1887
 4648SOL    HW225404   3.580   1.031   4.373  1.3366  2.3091 -0.1865
 4649SOL     OW25405   0.538   2.343   1.277  0.0952  0.6865  0.3680
 4649SOL    HW125406   0.445   2.364   1.282 -0.0428 -0.0267  0.7287
 4649SOL    HW225407   0.555   2.373   1.366  2.2785  1.9013 -0.4380
 4650SOL     OW25408   4.056   3.255   7.075  0.1053 -0.7481  0.2229
 4650SOL    HW125409   4.114   3.216   7.141 -0.0416  0.3803  1.0187
 4650SOL    HW225410   4.005   3.181   7.043  1.6882 -2.5265  1.7769
 4651SOL     OW25411   4.205   3.886   8.549 -0.5716  0.0424 -0.4187
 4651SOL    HW125412   4.291   3.860   8.516 -1.0628  0.7561 -2.2519
 4651SOL    HW225413   4.159   3.810   8.515 -0.8459 -1.2384  2.7837
 4652SOL     OW25414   1.522   3.827   5.993 -0.1119  0.4138 -0.1036
 4652SOL    HW125415   1.544   3.879   6.071 -0.4459  2.6211 -1.4794
 4652SOL    HW225416   1.428   3.842   5.990  0.0220  1.5120  0.8525
 4653SOL     OW25417   0.557   3.612   1.438  0.0702  0.2087 -0.8129
 4653SOL    HW125418   0.624   3.630   1.505  0.5428  0.6158 -1.3955
 4653SOL    HW225419   0.556   3.516   1.435  0.9261  0.1877 -0.6140
 4654SOL     OW25420   1.433   2.513   2.835 -0.2859 -0.0496  0.4613
 4654SOL    HW125421   1.423   2.480   2.746 -0.1651  0.8098  0.1344
 4654SOL    HW225422   1.466   2.429   2.866  0.8314  0.2242 -0.0148
 4655SOL     OW25423   1.129   1.619  17.159  0.1762 -0.8113  0.2463
 4655SOL    HW125424   1.080   1.538  17.145  2.1438 -1.9650  0.1400
 4655SOL    HW225425   1.218   1.594  17.135  0.0907  0.5533 -1.4464
 4656SOL     OW25426   1.223   2.563   2.417 -0.7966  0.1817  0.1884
 4656SOL    HW125427   1.315   2.588   2.404 -1.5412  1.2201 -2.9916
 4656SOL    HW225428   1.196   2.539   2.329  1.4720  0.9391 -0.7236
 4657SOL     OW25429   0.650   4.132   4.500 -0.1311  0.1455  0.4547
 4657SOL    HW125430   0.570   4.088   4.530  0.5188 -0.3805  1.4237
 4657SOL    HW225431   0.614   4.221   4.500  1.5542  0.8203 -1.1810
 4658SOL     OW25432   4.323   4.567  16.254 -0.2614  0.0463  0.5004
 4658SOL    HW125433   4.373   4.487  16.264 -2.2700 -1.3619 -0.5702
 4658SOL    HW225434   4.239   4.536  16.290 -0.9386  1.7016  0.3708
 4659SOL     OW25435   0.914   2.823   0.743 -0.4375  0.0959  0.3243
 4659SOL    HW125436   0.916   2.847   0.835  0.9226  1.8352 -0.1605
 4659SOL    HW225437   0.950   2.735   0.754 -1.0418 -0.1283  0.5155
 4660SOL     OW25438   1.168   1.633   7.880  0.6412 -0.0493  0.5512
 4660SOL    HW125439   1.168   1.725   7.853  1.2995 -0.7559 -1.8363
 4660SOL    HW225440   1.099   1.648   7.945 -0.1936 -0.5100 -0.2280
 4661SOL     OW25441   1.553   3.498  17.464 -0.1700  0.2835 -0.2963
 4661SOL    HW125442   1.559   3.535  17.376  0.3005  0.1139 -0.3407
 4661SOL    HW225443   1.460   3.497  17.483 -0.2432 -0.4684 -0.6906
 4662SOL     OW25444   1.004   2.305   3.295 -0.2394 -0.2846  0.2396
 4662SOL    HW125445   0.950   2.357   3.355 -3.1693  0.4976 -3.1032
 4662SOL    HW225446   1.069   2.370   3.266  2.8598 -2.7060  1.6909
 4663SOL     OW25447   1.610   3.743  11.979 -0.4134  0.2236 -0.1542
 4663SOL    HW125448   1.564   3.698  11.908 -1.5728 -0.2300  0.8883
 4663SOL    HW225449   1.661   3.805  11.927 -0.7414  0.1462 -0.5774
 4664SOL     OW25450   3.428   0.596   3.427 -0.2485 -0.3529  0.4294
 4664SOL    HW125451   3.409   0.505   3.448 -0.0311 -0.8865 -1.7158
 4664SOL    HW225452   3.449   0.624   3.516 -0.7779  2.7146 -0.4038
 4665SOL     OW25453   2.076   0.849   8.772 -0.0913  0.0493 -0.3950
 4665SOL    HW125454   2.138   0.869   8.842  0.0824 -1.1216 -0.2168
 4665SOL    HW225455   2.023   0.787   8.822 -1.7293  1.0244 -0.9094
 4666SOL     OW25456   2.450   3.746   5.671  0.2009 -0.5257  0.1720
 4666SOL    HW125457   2.381   3.809   5.648  2.0717  1.4566 -0.1089
 4666SOL    HW225458   2.416   3.667   5.630  0.5516 -2.2208  3.1901
 4667SOL     OW25459   3.062   1.647  10.189 -0.4662 -0.1009 -0.0163
 4667SOL    HW125460   3.104   1.724  10.227  0.2705 -0.6696  0.3356
 4667SOL    HW225461   3.038   1.607  10.272  0.1300 -0.1409  0.1361
 4668SOL     OW25462   1.906   4.473   1.119  0.1042 -0.3017 -0.3919
 4668SOL    HW125463   1.918   4.409   1.049 -0.4202  0.3406 -1.0647
 4668SOL    HW225464   1.935   4.557   1.082 -0.8400  0.6755  1.0848
 4669SOL     OW25465   2.190   0.179   8.074 -0.0786 -0.0357 -0.0847
 4669SOL    HW125466   2.139   0.195   8.154 -0.0478 -0.4336  0.0184
 4669SOL    HW225467   2.262   0.134   8.118 -0.0164 -0.6179 -0.7686
 4670SOL     OW25468   3.267   2.851   9.019 -0.5596  0.0320 -0.0891
 4670SOL    HW125469   3.283   2.902   9.099  1.8994  0.3067 -0.7519
 4670SOL    HW225470   3.237   2.916   8.956  1.1323  0.3714 -0.5560
 4671SOL     OW25471   3.235   2.274   4.003 -0.0852 -0.0858 -0.3861
 4671SOL    HW125472   3.244   2.231   4.088 -1.2679  0.5567  0.0698
 4671SOL    HW225473   3.164   2.227   3.960  1.7953 -2.5256 -0.8410
 4672SOL     OW25474   0.683   4.679   8.432  0.4163  0.0395 -0.1461
 4672SOL    HW125475   0.753   4.640   8.381 -0.2441 -0.1466 -0.9115
 4672SOL    HW225476   0.656   4.606   8.488 -0.4753 -0.3191 -1.0535
 4673SOL     OW25477   2.679   1.732   4.420  0.1504  0.5336 -0.5553
 4673SOL    HW125478   2.687   1.743   4.325  0.4907 -0.5419 -0.6469
 4673SOL    HW225479   2.720   1.648   4.439  0.5203  1.0529  0.9649
 4674SOL     OW25480   0.745   1.885   6.774 -0.9623  0.2337 -0.3890
 4674SOL    HW125481   0.718   1.973   6.803 -1.4822 -0.3127  0.7923
 4674SOL    HW225482   0.667   1.839   6.744 -2.2539  0.6170  2.3454
 4675SOL     OW25483   0.668   2.208   8.498 -0.3707 -0.4097  0.0737
 4675SOL    HW125484   0.656   2.224   8.404  1.8407 -1.9382 -0.4585
 4675SOL    HW225485   0.658   2.113   8.498 -0.9003 -0.3561 -0.1695
 4676SOL     OW25486   4.412   2.443  10.368  0.7707  0.2604  0.4597
 4676SOL    HW125487   4.410   2.404  10.281 -1.4252  2.3590 -0.4476
 4676SOL    HW225488   4.348   2.514  10.358  0.3308 -0.3317 -0.8671
 4677SOL     OW25489   2.388   0.068  14.457 -0.3114  0.5152 -0.3216
 4677SOL    HW125490   2.326   0.140  14.443 -0.5381  0.4189  0.2148
 4677SOL    HW225491   2.402   0.081  14.550 -1.6732  1.6763 -0.2717
 4678SOL     OW25492   2.316   1.063   6.000 -0.4096 -0.4514  0.2163
 4678SOL    HW125493   2.287   1.149   5.970 -2.1142 -1.2075 -0.3180
 4678SOL    HW225494   2.257   1.060   6.076 -1.0740  2.8760 -0.1865
 4679SOL     OW25495   1.496   1.253   6.877 -0.6041 -0.2720  0.1340
 4679SOL    HW125496   1.470   1.212   6.794  0.6219 -1.5805  0.4023
 4679SOL    HW225497   1.409   1.258   6.916 -0.3210 -0.0478  0.7243
 4680SOL     OW25498   2.325   4.044   9.471 -0.0290  0.2399  0.1468
 4680SOL    HW125499   2.330   3.956   9.509 -0.7727  0.7514  1.3991
 4680SOL    HW225500   2.379   4.023   9.394  3.2168  0.8664  2.2275
 4681SOL     OW25501   1.522   0.498   8.289  0.0756 -0.1045 -0.1739
 4681SOL    HW125502   1.464   0.424   8.269 -0.4368  0.5898 -1.2031
 4681SOL    HW225503   1.578   0.468   8.361  0.3331  1.0440  0.0963
 4682SOL     OW25504   4.285   3.392   1.416  0.2316  0.1163 -0.2090
 4682SOL    HW125505   4.308   3.476   1.377  2.8329 -0.3582  0.3297
 4682SOL    HW225506   4.196   3.384   1.382 -0.1207 -0.1532  0.7585
 4683SOL     OW25507   0.705   3.227   2.453 -0.2995 -0.1923 -0.2434
 4683SOL    HW125508   0.788   3.248   2.496 -1.7061  0.1734  2.2834
 4683SOL    HW225509   0.697   3.300   2.391 -3.2428 -1.9464 -1.9133
 4684SOL     OW25510   3.912   3.374   9.115 -0.1958  1.0156  0.5156
 4684SOL    HW125511   3.875   3.389   9.202 -1.9005 -2.0211  0.3325
 4684SOL    HW225512   3.990   3.429   9.121  1.7569 -1.8068  1.0920
 4685SOL     OW25513   2.942   2.062   4.402 -0.2246 -0.5733 -0.4148
 4685SOL    HW125514   2.944   2.092   4.493 -0.3950 -1.2369 -0.1977
 4685SOL    HW225515   3.034   2.079   4.383 -0.6010 -0.7476 -2.4064
 4686SOL     OW25516   0.707   3.195   1.593  0.9772  0.1657 -0.0134
 4686SOL    HW125517   0.715   3.153   1.679 -1.9090 -1.5446 -0.6010
 4686SOL    HW225518   0.795   3.234   1.593  0.3057  1.7486  3.6869
 4687SOL     OW25519   3.519   3.047   8.930  0.7582 -0.8848  0.2595
 4687SOL    HW125520   3.502   3.065   8.837  0.5782  3.7342  1.1585
 4687SOL    HW225521   3.447   3.098   8.968  1.3720  0.2205 -0.0752
 4688SOL     OW25522   0.970   2.508  17.188  0.0392 -0.5086  0.4916
 4688SOL    HW125523   0.918   2.428  17.183  0.2554 -0.7468  2.1781
 4688SOL    HW225524   0.922   2.573  17.137  1.7562  0.2576 -0.1373
 4689SOL     OW25525   2.364   3.761   9.535  0.1627  0.2072 -0.1344
 4689SOL    HW125526   2.459   3.746   9.536  0.1073 -0.1132  1.3576
 4689SOL    HW225527   2.332   3.683   9.489  0.8304 -1.7439  2.6674
 4690SOL     OW25528   3.972   3.705   7.123  0.1226  0.3801 -0.6573
 4690SOL    HW125529   4.063   3.722   7.097  0.7726 -2.3791 -0.2670
 4690SOL    HW225530   3.925   3.768   7.069  2.5534  0.6919 -2.4228
 4691SOL     OW25531   2.534   3.009  17.270  0.7847  0.0947  0.1547
 4691SOL    HW125532   2.622   3.046  17.271  1.5513 -1.6599 -3.1714
 4691SOL    HW225533   2.488   3.082  17.229 -0.2294 -1.4196 -1.3690
 4692SOL     OW25534   2.106   3.259   8.406 -0.0310 -0.4777  0.0061
 4692SOL    HW125535   2.071   3.170   8.414 -0.3251 -0.4126 -0.5487
 4692SOL    HW225536   2.045   3.287   8.338 -0.7961  1.2042  1.4187
 4693SOL     OW25537   2.269   4.016   9.155 -0.1336 -0.4452 -0.2552
 4693SOL    HW125538   2.237   4.106   9.162  1.5888  0.1414  0.0495
 4693SOL    HW225539   2.304   4.009   9.066  0.8264  0.7565  0.0332
 4694SOL     OW25540   3.143   3.440  14.132  0.5488  0.6854  0.4381
 4694SOL    HW125541   3.114   3.440  14.041  0.7998 -3.6228  0.3948
 4694SOL    HW225542   3.151   3.535  14.143 -0.0894  0.4791  2.8752
 4695SOL     OW25543   1.102   4.369   3.017 -0.2849  0.0193 -0.3860
 4695SOL    HW125544   1.107   4.463   2.999  0.1621  0.0338 -0.1829
 4695SOL    HW225545   1.193   4.363   3.044 -0.6899 -1.1372  0.7076
 4696SOL     OW25546   2.029   4.279   6.853 -0.6863  0.3389  0.1254
 4696SOL    HW125547   2.115   4.291   6.814 -0.5098 -1.5173 -0.0659
 4696SOL    HW225548   2.016   4.187   6.829 -2.2756  0.3801  0.8377
 4697SOL     OW25549   2.345   3.390   8.841 -0.0989  0.3270  0.2160
 4697SOL    HW125550   2.308   3.419   8.758  1.1696  0.3183 -0.3594
 4697SOL    HW225551   2.348   3.476   8.882  0.2132  0.4694 -0.1076
 4698SOL     OW25552   3.048   1.691   6.349  0.5275  0.4040  0.2885
 4698SOL    HW125553   3.126   1.637   6.358  0.7889  0.6808 -0.3424
 4698SOL    HW225554   2.984   1.650   6.408  2.4886 -0.1103  2.0534
 4699SOL     OW25555   1.889   1.272  12.822 -0.1274  0.3046  0.6503
 4699SOL    HW125556   1.806   1.288  12.867  1.1006 -1.2283  3.4313
 4699SOL    HW225557   1.863   1.286  12.731 -0.4551  0.7753  0.8195
 4700SOL     OW25558   3.670   2.614   0.250  0.3428 -0.3041 -0.1360
 4700SOL    HW125559   3.720   2.553   0.304  0.6148  1.2636  1.3902
 4700SOL    HW225560   3.704   2.597   0.162  3.5836  1.1327  0.8241
 4701SOL     OW25561   2.910   1.045  13.641 -0.0411  0.6650  0.7462
 4701SOL    HW125562   2.934   1.008  13.556 -1.1659 -1.8997  1.5406
 4701SOL    HW225563   2.817   1.023  13.644  0.0937  0.3610  2.9232
 4702SOL     OW25564   3.002   2.336   8.142  0.4852 -0.6629  0.0359
 4702SOL    HW125565   2.954   2.333   8.225  1.4952 -0.9569  0.6183
 4702SOL    HW225566   3.076   2.392   8.165 -1.2633  2.6256 -2.4983
 4703SOL     OW25567   0.036   0.470   2.961  0.0712  0.1803 -0.0091
 4703SOL    HW125568   0.055   0.532   2.891  0.9553 -0.7430 -0.5856
 4703SOL    HW225569   0.106   0.495   3.021  1.5792 -4.6068  0.1670
 4704SOL     OW25570   4.103   0.416   6.475  0.1829 -0.2088 -0.1163
 4704SOL    HW125571   4.031   0.452   6.423 -0.0155 -0.1529  0.2024
 4704SOL    HW225572   4.069   0.329   6.496 -0.9620 -0.1482 -1.7127
 4705SOL     OW25573   0.075   4.342   3.266  0.2731 -0.1509  0.2037
 4705SOL    HW125574   0.026   4.379   3.340  1.1430 -1.1411  1.2762
 4705SOL    HW225575   0.102   4.420   3.218 -2.8974  0.1777 -1.0690
 4706SOL     OW25576   3.987   1.656   5.219 -0.7792  0.4615 -0.1588
 4706SOL    HW125577   4.080   1.676   5.209 -0.6066 -0.1992  0.1136
 4706SOL    HW225578   3.987   1.611   5.304  1.2757  0.2829 -0.2708
 4707SOL     OW25579   4.376   4.414  11.345  0.4642 -0.2775  0.3366
 4707SOL    HW125580   4.331   4.383  11.267 -1.1067  4.6556 -0.7214
 4707SOL    HW225581   4.358   4.353  11.416  1.4409  0.3069  1.0819
 4708SOL     OW25582   2.629   3.475   5.041  0.2060  0.0855  0.0397
 4708SOL    HW125583   2.565   3.451   4.974 -1.5185  2.2528  0.9043
 4708SOL    HW225584   2.580   3.471   5.123  1.8551 -1.0081  0.9599
 4709SOL     OW25585   4.194   1.651   2.799 -0.8419 -0.8891 -0.0626
 4709SOL    HW125586   4.170   1.683   2.712 -1.4687 -1.6908 -0.1851
 4709SOL    HW225587   4.263   1.595   2.762  0.0460 -0.0703  0.3696
 4710SOL     OW25588   4.518   1.175  12.502 -0.8709 -0.5670  0.0348
 4710SOL    HW125589   4.576   1.185  12.427  1.1221  0.0406  1.6759
 4710SOL    HW225590   4.520   1.266  12.529  1.8127 -0.8139  0.6516
 4711SOL     OW25591   4.060   0.368   8.254  0.1472  0.1989  0.0816
 4711SOL    HW125592   4.088   0.383   8.344  2.7672 -0.4943 -0.6248
 4711SOL    HW225593   4.006   0.444   8.232 -0.0510 -0.0779 -0.3901
 4712SOL     OW25594   0.958   1.988   3.761  0.1412 -0.4170 -0.3407
 4712SOL    HW125595   0.913   1.915   3.718 -0.2760 -0.7060  0.5763
 4712SOL    HW225596   1.046   1.950   3.766 -0.0047 -0.7803 -0.5118
 4713SOL     OW25597   0.766   4.377  12.487 -0.0934 -0.5938  0.2176
 4713SOL    HW125598   0.700   4.443  12.511  1.2402  0.2837  1.4471
 4713SOL    HW225599   0.837   4.436  12.461  0.7497 -1.2222  1.1245
 4714SOL     OW25600   1.447   3.013  11.663  0.0823 -0.2272  0.2265
 4714SOL    HW125601   1.472   3.105  11.661  1.5023 -0.6266 -0.7057
 4714SOL    HW225602   1.493   2.988  11.743  2.0711  1.9670 -0.2267
 4715SOL     OW25603   0.436   0.257   0.250 -0.4696  0.5427 -0.2025
 4715SOL    HW125604   0.351   0.233   0.215  0.1575 -1.5928 -0.2746
 4715SOL    HW225605   0.447   0.184   0.311 -0.6646  0.2642 -0.5026
 4716SOL     OW25606   4.390   0.186   1.349  0.0671  0.2830  0.0513
 4716SOL    HW125607   4.396   0.151   1.261  0.6646 -0.8978  0.5598
 4716SOL    HW225608   4.302   0.224   1.353  1.3684  3.1409  1.5924
 4717SOL     OW25609   2.301   3.967  17.396 -0.2891 -0.3057  0.1247
 4717SOL    HW125610   2.288   3.952  17.303  2.2382 -1.6892 -0.0257
 4717SOL    HW225611   2.250   3.900  17.441 -3.2065  0.6273 -1.8361
 4718SOL     OW25612   3.771   1.985   3.760 -0.1438  0.2227 -0.6070
 4718SOL    HW125613   3.730   1.941   3.834 -0.1503 -2.8004 -2.3947
 4718SOL    HW225614   3.740   2.075   3.775  1.5063  1.0995 -2.3970
 4719SOL     OW25615   4.666   3.018   7.439  0.3816 -0.1573 -0.8275
 4719SOL    HW125616   4.663   2.966   7.359  1.1378 -0.6742 -0.5191
 4719SOL    HW225617   0.006   3.089   7.424  1.6100 -0.6334  2.0468
 4720SOL     OW25618   1.979   2.803   3.924  0.4418 -0.5629  0.0649
 4720SOL    HW125619   2.003   2.887   3.963  1.5015  0.0076 -1.7903
 4720SOL    HW225620   2.070   2.774   3.918  0.0695 -2.3094  2.6704
 4721SOL     OW25621   3.394   1.379   3.643  0.5207 -0.0076  0.1584
 4721SOL    HW125622   3.328   1.439   3.678  1.0243  0.1216  0.8819
 4721SOL    HW225623   3.333   1.314   3.607  2.2875 -2.7683  2.1366
 4722SOL     OW25624   3.124   3.693   2.825  0.4300 -0.0267  0.2108
 4722SOL    HW125625   3.159   3.605   2.827 -1.2998 -0.7373 -0.5642
 4722SOL    HW225626   3.043   3.676   2.777 -0.3278  1.2970  1.0042
 4723SOL     OW25627   3.961   0.818   4.221 -0.9891  0.3316 -0.6218
 4723SOL    HW125628   4.051   0.788   4.235 -0.6795  2.3127  1.6285
 4723SOL    HW225629   3.911   0.769   4.285 -1.2990  0.6330 -0.6388
 4724SOL     OW25630   1.574   2.792   4.880  0.5388 -0.2952  0.2533
 4724SOL    HW125631   1.613   2.870   4.839 -1.1295  0.2944 -0.1833
 4724SOL    HW225632   1.555   2.819   4.970  0.7822 -1.1999  0.5782
 4725SOL     OW25633   4.025   1.517   6.304 -0.1466  0.4151  0.5770
 4725SOL    HW125634   4.019   1.446   6.367  1.0966 -0.9504 -0.8412
 4725SOL    HW225635   3.934   1.545   6.295  0.1033  1.3032  0.7529
 4726SOL     OW25636   2.375   4.699   9.908 -0.4438 -0.3305 -0.0687
 4726SOL    HW125637   2.421   4.681   9.990 -0.5114 -1.6566 -0.3290
 4726SOL    HW225638   2.432   4.675   9.836 -1.5614  1.3312 -1.4992
 4727SOL     OW25639   0.032   3.553   7.762 -0.2337  0.2025  0.3744
 4727SOL    HW125640   4.663   3.582   7.768 -0.4161  0.0686 -1.9505
 4727SOL    HW225641   0.026   3.459   7.747  1.0049  0.5415 -2.2354
 4728SOL     OW25642   2.678   2.368   5.928  0.2572  0.5165  0.0734
 4728SOL    HW125643   2.658   2.324   5.845 -0.2880  1.8116 -0.4809
 4728SOL    HW225644   2.597   2.412   5.955  1.6523  1.8247  2.1318
 4729SOL     OW25645   1.232   0.485   2.735  0.0905 -0.5914 -0.2027
 4729SOL    HW125646   1.287   0.419   2.693 -1.6255 -1.9543 -0.3177
 4729SOL    HW225647   1.191   0.519   2.655  0.4660  3.0498  1.1287
 4730SOL     OW25648   2.608   1.227   1.281 -0.0444 -0.6269  0.1426
 4730SOL    HW125649   2.696   1.191   1.288  0.4284  0.7170  1.2609
 4730SOL    HW225650   2.583   1.183   1.200 -0.1094 -0.0622 -0.1447
 4731SOL     OW25651   3.144   1.416   2.929  0.1774  0.3834 -0.1736
 4731SOL    HW125652   3.223   1.465   2.953  0.3452 -0.4087  0.9412
 4731SOL    HW225653   3.185   1.355   2.867  0.1621  0.5892 -0.3855
 4732SOL     OW25654   4.057   3.216   2.535  0.0604  0.2232  0.3401
 4732SOL    HW125655   4.057   3.231   2.630 -0.1225 -0.1407  0.3997
 4732SOL    HW225656   4.121   3.147   2.551 -0.6843 -0.4970  0.2410
 4733SOL     OW25657   2.945   4.560  11.590  0.2008  0.2658 -0.1543
 4733SOL    HW125658   3.004   4.631  11.617 -1.3935  0.8397  1.7862
 4733SOL    HW225659   2.872   4.616  11.563  0.3928  0.5667 -0.0505
 4734SOL     OW25660   0.382   3.170   3.266 -0.3208  0.5363  0.3545
 4734SOL    HW125661   0.432   3.244   3.230 -0.8242  0.9482  0.4856
 4734SOL    HW225662   0.379   3.111   3.190 -0.0400 -0.2637  0.9752
 4735SOL     OW25663   0.111   1.401   2.732 -0.0693 -0.4685  0.2102
 4735SOL    HW125664   0.147   1.437   2.651  1.3654  0.9530  1.4776
 4735SOL    HW225665   0.181   1.344   2.763  0.2402 -0.5541 -0.6494
 4736SOL     OW25666   0.515   4.561   7.000  0.0137  0.0520  0.1633
 4736SOL    HW125667   0.421   4.579   7.002  0.8164  3.9327  2.0721
 4736SOL    HW225668   0.515   4.479   6.949 -0.1755  0.5497 -0.6389
 4737SOL     OW25669   4.094   3.562  16.447  0.0922  0.3532  0.9051
 4737SOL    HW125670   4.084   3.573  16.353 -0.0841  0.3080  0.9196
 4737SOL    HW225671   4.025   3.504  16.477 -0.4572 -0.5606 -2.1677
 4738SOL     OW25672   4.281   4.308   3.299  0.1452 -0.0766  0.2057
 4738SOL    HW125673   4.295   4.284   3.207 -2.3648  2.2002 -0.7784
 4738SOL    HW225674   4.316   4.397   3.307 -1.0065  0.4245 -0.2401
 4739SOL     OW25675   1.653   0.974   5.153 -0.8902 -0.0356 -0.2065
 4739SOL    HW125676   1.660   0.880   5.136 -0.2522 -0.0850  0.3181
 4739SOL    HW225677   1.562   0.983   5.180 -0.8600  0.0368 -0.1280
 4740SOL     OW25678   1.480   4.378  13.883 -0.1305 -0.4519  0.0007
 4740SOL    HW125679   1.480   4.289  13.850 -0.9895 -0.4440 -0.0184
 4740SOL    HW225680   1.393   4.385  13.924 -0.9096  2.7118 -2.2157
 4741SOL     OW25681   3.372   0.781  11.561  0.3316  0.6501 -0.3658
 4741SOL    HW125682   3.334   0.818  11.482  0.5170  1.1602 -0.2221
 4741SOL    HW225683   3.446   0.734  11.524  0.8432 -0.5859  2.1708
 4742SOL     OW25684   2.828   4.399   2.562 -0.1492 -0.1381 -0.3776
 4742SOL    HW125685   2.760   4.453   2.604 -1.0479 -0.2637 -1.6573
 4742SOL    HW225686   2.818   4.417   2.469  0.1847  1.0653 -0.1911
 4743SOL     OW25687   2.262   1.436  13.586 -0.1040  0.1626 -0.1226
 4743SOL    HW125688   2.351   1.430  13.553 -0.0166 -2.2790  0.5484
 4743SOL    HW225689   2.222   1.516  13.551 -0.2045 -0.8655 -2.3051
 4744SOL     OW25690   1.207   0.360   3.442 -0.3674 -0.0651  0.4202
 4744SOL    HW125691   1.157   0.384   3.364  2.2264 -1.0112 -1.5653
 4744SOL    HW225692   1.213   0.265   3.427  0.7448  0.3008 -1.5465
 4745SOL     OW25693   2.188   1.350  14.111 -0.0043  0.4723  0.2756
 4745SOL    HW125694   2.128   1.335  14.038  0.9432 -1.8515 -0.0196
 4745SOL    HW225695   2.185   1.445  14.123 -2.7534  0.2948  1.0134
 4746SOL     OW25696   4.214   3.513   3.860 -0.5376  0.2293  0.4009
 4746SOL    HW125697   4.257   3.598   3.848  0.5667 -0.4760 -0.6222
 4746SOL    HW225698   4.186   3.517   3.952 -0.9971  0.1326  0.2611
 4747SOL     OW25699   0.593   2.154   0.171 -0.1108 -0.0225 -0.4203
 4747SOL    HW125700   0.519   2.204   0.207  1.5460  0.3971  2.3957
 4747SOL    HW225701   0.604   2.097   0.246  0.4213  0.7257  0.0645
 4748SOL     OW25702   3.497   1.998   2.218  0.2763  0.7441  0.1357
 4748SOL    HW125703   3.405   1.980   2.199 -0.8135  2.2273  3.9743
 4748SOL    HW225704   3.495   2.092   2.232 -2.2334  0.9923 -2.0112
 4749SOL     OW25705   4.668   1.076   3.574  0.5365  0.1414  0.0185
 4749SOL    HW125706   0.016   1.118   3.624  0.3111 -0.7660  1.0900
 4749SOL    HW225707   4.628   1.026   3.645  0.3825  0.4297  0.1384
 4750SOL     OW25708   2.485   2.707   3.536  0.0598 -0.1442 -0.3520
 4750SOL    HW125709   2.524   2.698   3.449 -0.0922 -0.4334 -0.3921
 4750SOL    HW225710   2.393   2.704   3.510  0.6166 -1.1715 -2.2721
 4751SOL     OW25711   2.344   4.367   3.714 -0.0206 -0.0279  0.1864
 4751SOL    HW125712   2.406   4.299   3.688 -0.4356 -0.8959  1.4573
 4751SOL    HW225713   2.407   4.436   3.735 -1.7438  1.1341  1.5979
 4752SOL     OW25714   4.497   1.380   3.584 -0.0805  0.2502 -0.0415
 4752SOL    HW125715   4.512   1.369   3.677  0.5387  0.6876 -0.0925
 4752SOL    HW225716   4.448   1.462   3.573 -0.7752  0.0672  1.7129
 4753SOL     OW25717   3.659   0.772  11.480 -0.1400  0.0070 -0.0997
 4753SOL    HW125718   3.639   0.680  11.465 -2.5263  0.4964  0.0648
 4753SOL    HW225719   3.679   0.805  11.393  0.8102  1.3261  0.6038
 4754SOL     OW25720   0.668   3.515  11.885 -0.1574  0.0355 -0.1710
 4754SOL    HW125721   0.713   3.452  11.942 -0.2231 -0.5672 -0.7767
 4754SOL    HW225722   0.658   3.460  11.807 -0.7159 -0.7837  0.4715
 4755SOL     OW25723   2.859   2.797  15.255 -0.0768 -0.6752 -0.2928
 4755SOL    HW125724   2.891   2.747  15.181 -0.3920 -0.5663 -0.5057
 4755SOL    HW225725   2.787   2.842  15.210  1.6222  2.4405  0.1017
 4756SOL     OW25726   4.042   1.271   9.756 -0.1544 -0.2879  0.1155
 4756SOL    HW125727   4.055   1.355   9.711  2.6599 -0.4150  0.6903
 4756SOL    HW225728   4.022   1.213   9.682 -2.8011  0.4360  0.2413
 4757SOL     OW25729   4.494   4.030  15.045 -0.2115  0.2607 -0.4330
 4757SOL    HW125730   4.561   3.984  15.096  0.4912 -0.1528 -1.7150
 4757SOL    HW225731   4.535   4.114  15.022  0.4435  0.7242  2.3685
 4758SOL     OW25732   4.388   0.434   8.070 -0.6113  0.2577 -0.3814
 4758SOL    HW125733   4.447   0.433   8.146  0.4983  0.3369 -1.2466
 4758SOL    HW225734   4.357   0.345   8.083 -0.3144  0.4016  1.3227
 4759SOL     OW25735   4.043   4.456   1.351  0.1823  0.2412 -0.0399
 4759SOL    HW125736   4.088   4.539   1.337 -0.1637  0.6286  1.1566
 4759SOL    HW225737   3.982   4.472   1.423 -1.2861 -1.0205 -0.9808
 4760SOL     OW25738   2.231   3.707  17.517 -0.3113 -0.8469 -0.4671
 4760SOL    HW125739   2.279   3.624  17.516  3.8570  1.5492 -0.7468
 4760SOL    HW225740   2.220   3.721  17.611 -0.9587 -1.8731 -0.3983
 4761SOL     OW25741   1.796   0.427   9.618 -0.3593 -0.1926  0.1794
 4761SOL    HW125742   1.820   0.509   9.660  1.5973 -1.4922  1.5787
 4761SOL    HW225743   1.849   0.375   9.678 -0.0944 -2.2588 -1.8398
 4762SOL     OW25744   4.679   1.426   3.163 -0.1345  0.1971 -0.5134
 4762SOL    HW125745   0.031   1.483   3.183  0.3635 -0.9079  0.7735
 4762SOL    HW225746   4.691   1.357   3.228 -0.7636  0.1204 -0.4741
 4763SOL     OW25747   3.133   4.374   5.953 -0.0657 -0.1299 -0.0937
 4763SOL    HW125748   3.098   4.285   5.949 -0.4577 -0.0567  1.6360
 4763SOL    HW225749   3.051   4.423   5.946  0.8334  1.2351 -1.0516
 4764SOL     OW25750   2.026   2.576  10.958 -0.4683  0.2239 -0.5758
 4764SOL    HW125751   2.019   2.508  11.024  0.8975  1.5158  0.8956
 4764SOL    HW225752   2.044   2.512  10.888 -0.3474  0.4862 -0.7857
 4765SOL     OW25753   1.590   2.992   2.302  0.4194  0.1362 -0.7127
 4765SOL    HW125754   1.579   2.995   2.397  1.1887 -1.2962 -0.5678
 4765SOL    HW225755   1.651   3.059   2.274  1.5903 -0.3270  0.7482
 4766SOL     OW25756   0.099   2.632   2.366  0.2950  0.2445  0.3219
 4766SOL    HW125757   0.053   2.618   2.448  1.1948 -2.6886  0.3318
 4766SOL    HW225758   0.109   2.539   2.346 -0.2039  0.3190 -0.2871
 4767SOL     OW25759   0.793   2.095   3.264  0.1550 -0.1903  0.1234
 4767SOL    HW125760   0.858   2.164   3.246 -0.6277  0.7894  1.0195
 4767SOL    HW225761   0.758   2.117   3.350  1.0022  2.3977 -0.1934
 4768SOL     OW25762   3.241   0.935   3.868 -0.2467  0.0613  0.1236
 4768SOL    HW125763   3.173   0.902   3.809 -1.8828  3.1506  0.2630
 4768SOL    HW225764   3.190   0.978   3.937 -0.6723  0.7163 -0.5970
 4769SOL     OW25765   2.143   3.948  10.403 -0.6460  0.2925  0.0025
 4769SOL    HW125766   2.151   3.995  10.486  0.0937  0.6062 -0.2497
 4769SOL    HW225767   2.235   3.934  10.380 -0.7199 -0.9836  0.4853
 4770SOL     OW25768   4.426   3.757   8.022  0.8082  0.2542  0.6441
 4770SOL    HW125769   4.434   3.691   8.091 -0.5241  1.7928  2.2917
 4770SOL    HW225770   4.334   3.781   8.027  0.3282 -1.4738  0.1048
 4771SOL     OW25771   4.018   3.887   4.031 -0.7291 -0.1555  0.4386
 4771SOL    HW125772   3.934   3.921   4.062 -2.2655 -2.5504 -1.1385
 4771SOL    HW225773   4.007   3.793   4.017 -0.6851 -0.1039  0.0681
 4772SOL     OW25774   1.999   3.977   6.246  0.0236 -0.0348 -0.5612
 4772SOL    HW125775   2.038   4.020   6.322  1.7159 -3.0638  0.2816
 4772SOL    HW225776   1.995   3.891   6.289 -2.6158  0.1858 -0.3390
 4773SOL     OW25777   3.339   1.761   8.536 -0.7531  0.1602  0.2488
 4773SOL    HW125778   3.334   1.797   8.624  1.0746  2.8603 -0.7499
 4773SOL    HW225779   3.420   1.796   8.498 -0.8202  0.6669  0.5745
 4774SOL     OW25780   4.690   1.358   5.191 -0.4470 -0.3646  0.1923
 4774SOL    HW125781   0.006   1.373   5.277 -0.1238 -1.2280  0.1995
 4774SOL    HW225782   4.597   1.377   5.204 -0.7619 -0.1304 -2.4894
 4775SOL     OW25783   2.411   3.032  14.225  0.2921 -0.3178 -0.0400
 4775SOL    HW125784   2.365   3.039  14.141 -1.5705 -0.1695  1.0204
 4775SOL    HW225785   2.381   3.114  14.262  0.9028 -0.2265  0.2484
 4776SOL     OW25786   4.385   0.434   9.709  0.2803 -0.2463  0.3377
 4776SOL    HW125787   4.333   0.485   9.646 -0.6689 -2.0661 -0.3551
 4776SOL    HW225788   4.335   0.353   9.716 -0.7422  0.4883  1.3149
 4777SOL     OW25789   3.748   2.861  15.761  0.2208  0.3931 -1.2880
 4777SOL    HW125790   3.841   2.841  15.774  0.2858  0.0811 -2.1974
 4777SOL    HW225791   3.710   2.775  15.742 -1.0891  0.4238  1.2459
 4778SOL     OW25792   1.968   3.726   6.350 -0.5617 -0.2083  0.6009
 4778SOL    HW125793   1.933   3.714   6.438 -0.9338 -3.8883 -0.0480
 4778SOL    HW225794   1.912   3.665   6.301 -1.7802  0.2770  1.3932
 4779SOL     OW25795   2.079   4.097   2.981 -0.4495  0.1643 -0.1626
 4779SOL    HW125796   2.129   4.126   2.904 -0.3935  1.8869  0.5053
 4779SOL    HW225797   2.012   4.047   2.936 -0.5161  0.9656 -0.9687
 4780SOL     OW25798   2.253   0.834  12.775 -0.0638  0.1906 -0.0679
 4780SOL    HW125799   2.182   0.898  12.780  0.8279  1.1269  0.6223
 4780SOL    HW225800   2.259   0.833  12.680  0.0342 -1.4640 -0.0430
 4781SOL     OW25801   4.107   2.154  15.778  0.1846  0.5002  0.3776
 4781SOL    HW125802   4.178   2.164  15.714  1.9904  2.5477  2.7382
 4781SOL    HW225803   4.165   2.137  15.852 -0.2387 -0.3482  0.5156
 4782SOL     OW25804   2.195   0.456  15.906  0.8182  0.2375  0.1327
 4782SOL    HW125805   2.101   0.464  15.897  0.9706  1.4650 -0.2848
 4782SOL    HW225806   2.224   0.487  15.821 -0.6364  1.5434  0.1230
 4783SOL     OW25807   2.891   2.817   6.445 -0.1311 -0.0535 -0.3222
 4783SOL    HW125808   2.943   2.757   6.392  0.5892 -2.0015  2.5834
 4783SOL    HW225809   2.927   2.900   6.413  1.7161 -0.3557  1.0100
 4784SOL     OW25810   0.728   0.646  15.477 -0.1367  0.0056  0.0127
 4784SOL    HW125811   0.651   0.605  15.438  0.5664  0.9760 -2.3856
 4784SOL    HW225812   0.726   0.713  15.410  0.5538 -1.1729 -1.1890
 4785SOL     OW25813   1.373   1.231  11.854 -0.0542  0.3702 -0.2449
 4785SOL    HW125814   1.369   1.194  11.942 -1.2208  1.3633  0.1179
 4785SOL    HW225815   1.414   1.164  11.799 -2.1034 -0.0377 -1.3059
 4786SOL     OW25816   0.530   3.399   3.835 -0.2821 -0.4712  0.3297
 4786SOL    HW125817   0.584   3.476   3.818  0.9304 -1.5368 -0.6729
 4786SOL    HW225818   0.518   3.365   3.746 -2.0187 -0.7673  0.6761
 4787SOL     OW25819   4.201   0.767   6.044  0.3533 -0.0440 -0.6046
 4787SOL    HW125820   4.237   0.802   5.962  2.0155 -0.1991  0.0488
 4787SOL    HW225821   4.117   0.733   6.013 -0.6645 -0.6513  2.8392
 4788SOL     OW25822   0.424   2.140   9.194  0.1807  0.4548 -0.0345
 4788SOL    HW125823   0.438   2.117   9.102  1.1596 -0.5657  0.3722
 4788SOL    HW225824   0.498   2.199   9.207  0.5418  0.0773 -0.3535
 4789SOL     OW25825   0.853   1.055   9.809  0.2315  0.4872  0.2015
 4789SOL    HW125826   0.891   0.985   9.862  1.4398  1.7089  0.9501
 4789SOL    HW225827   0.912   1.042   9.734  0.3485 -0.8292  0.5122
 4790SOL     OW25828   0.849   3.564   5.148  0.6951 -0.3659 -0.2493
 4790SOL    HW125829   0.859   3.614   5.067 -2.4593  0.4630 -0.1384
 4790SOL    HW225830   0.804   3.492   5.102  0.6374  0.7981 -2.0185
 4791SOL     OW25831   4.411   3.056   0.909  0.2669 -0.7592 -0.2292
 4791SOL    HW125832   4.383   3.098   0.990  0.3147 -0.7877 -0.1980
 4791SOL    HW225833   4.489   3.105   0.884  0.3802 -0.3699  0.8827
 4792SOL     OW25834   1.646   2.648   0.194 -0.9460  0.0179 -0.7171
 4792SOL    HW125835   1.580   2.607   0.251 -1.1839 -2.1128 -2.5361
 4792SOL    HW225836   1.628   2.626   0.103  1.8150 -2.7395 -0.6084
 4793SOL     OW25837   0.145   2.921   4.687 -0.6630 -0.3568  0.0322
 4793SOL    HW125838   0.054   2.952   4.679  0.0352  1.3059 -1.3638
 4793SOL    HW225839   0.190   2.986   4.633 -0.3645 -0.4040  0.2253
 4794SOL     OW25840   1.507   0.190   3.771  0.0295  0.1429  0.3593
 4794SOL    HW125841   1.518   0.220   3.861 -1.4525  2.0134 -0.0821
 4794SOL    HW225842   1.583   0.134   3.760 -1.6210 -1.7310 -1.4383
 4795SOL     OW25843   4.147   3.478   7.898 -0.5747 -0.0534 -0.4801
 4795SOL    HW125844   4.126   3.561   7.854 -0.3254  1.3333  2.0295
 4795SOL    HW225845   4.222   3.440   7.853  0.2044  0.3416  0.5031
 4796SOL     OW25846   3.509   4.719  16.948 -0.3313 -0.0767  0.0137
 4796SOL    HW125847   3.416   4.696  16.957  0.3710 -2.4568  1.4359
 4796SOL    HW225848   3.520   0.088  16.922 -1.3735  0.1389  0.3475
 4797SOL     OW25849   2.535   0.753   2.998 -0.2126  0.0046 -0.1116
 4797SOL    HW125850   2.488   0.687   2.946 -1.1448 -0.1744  0.9498
 4797SOL    HW225851   2.467   0.804   3.042 -0.4142 -1.3891  1.1815
 4798SOL     OW25852   1.231   2.941   3.766 -0.2033 -0.3926  0.0905
 4798SOL    HW125853   1.188   3.023   3.792 -1.5904 -0.2149 -2.8085
 4798SOL    HW225854   1.291   2.951   3.840  2.4480  1.0527 -2.2863
 4799SOL     OW25855   3.696   3.377   6.486 -0.2174  0.1749 -0.6185
 4799SOL    HW125856   3.745   3.326   6.422  3.1995 -0.5024  2.4670
 4799SOL    HW225857   3.611   3.336   6.469  0.5163 -2.2922  1.6221
 4800SOL     OW25858   3.568   0.975   0.176  0.3332 -0.3539  0.3874
 4800SOL    HW125859   3.502   0.955   0.242 -1.1149 -2.3159 -1.6853
 4800SOL    HW225860   3.544   0.910   0.110  1.0144  0.2187 -0.4401
 4801SOL     OW25861   2.452   0.716   3.969  0.7019 -0.6019  0.0387
 4801SOL    HW125862   2.357   0.725   3.974  0.7935 -1.2840  2.7782
 4801SOL    HW225863   2.479   0.661   4.042  1.8579  0.6223  0.5497
 4802SOL     OW25864   3.632   0.788   3.871  0.0111  0.2372  0.1681
 4802SOL    HW125865   3.707   0.831   3.912  1.0497 -0.3568 -1.1003
 4802SOL    HW225866   3.573   0.774   3.946 -0.4516  0.6472 -0.1191
 4803SOL     OW25867   1.651   2.087   6.178  0.5995 -0.2045  0.2933
 4803SOL    HW125868   1.745   2.091   6.163  0.3892  1.4005 -0.5162
 4803SOL    HW225869   1.603   2.075   6.096  0.9756 -3.3071  0.5123
 4804SOL     OW25870   4.140   4.212  16.376 -0.1378 -0.2201  0.0315
 4804SOL    HW125871   4.066   4.240  16.322  0.6044 -0.1196 -0.9523
 4804SOL    HW225872   4.129   4.261  16.457 -0.9150  1.3029 -0.9835
 4805SOL     OW25873   0.280   4.088   3.907 -0.5056 -0.1297 -0.3423
 4805SOL    HW125874   0.285   3.997   3.877  0.6848  0.3029 -1.4520
 4805SOL    HW225875   0.266   4.079   4.001 -0.6117  0.7247 -0.2728
 4806SOL     OW25876   2.498   3.210   3.964 -0.4249 -0.0278 -0.1916
 4806SOL    HW125877   2.531   3.280   3.908 -0.2150  0.2045  0.2204
 4806SOL    HW225878   2.437   3.257   4.021 -0.8906  1.9396 -2.3337
 4807SOL     OW25879   2.552   3.896   4.625 -0.2671  1.0389  0.4332
 4807SOL    HW125880   2.532   3.842   4.702 -1.0861  1.9482  0.8670
 4807SOL    HW225881   2.464   3.900   4.589  0.5185  2.5567 -1.3028
 4808SOL     OW25882   1.225   3.847   6.583  0.0874  0.2546  0.4202
 4808SOL    HW125883   1.314   3.834   6.617 -0.2698 -0.2449  1.1537
 4808SOL    HW225884   1.192   3.906   6.651 -1.3199 -1.8354  1.5709
 4809SOL     OW25885   3.198   1.915   2.497 -0.0330 -0.3500  0.4116
 4809SOL    HW125886   3.115   1.948   2.533  1.1271  2.7393  0.2848
 4809SOL    HW225887   3.189   1.823   2.522 -0.2060 -1.4288 -3.6149
 4810SOL     OW25888   2.807   2.842   9.548  0.5814 -0.6701  0.4291
 4810SOL    HW125889   2.737   2.866   9.488  0.0165  0.9390  1.7276
 4810SOL    HW225890   2.781   2.755   9.578 -1.7194 -0.4573 -0.9616
 4811SOL     OW25891   3.467   0.667   6.163  0.5398 -0.8552  0.7855
 4811SOL    HW125892   3.521   0.717   6.102  0.5573 -1.5787  0.2123
 4811SOL    HW225893   3.431   0.603   6.102  1.0977  0.7099 -1.2114
 4812SOL     OW25894   4.334   3.115   1.451  0.3535 -0.4367 -0.2390
 4812SOL    HW125895   4.289   3.200   1.449  1.3987  0.1616  1.1104
 4812SOL    HW225896   4.356   3.114   1.544 -3.4339  2.4357  0.7028
 4813SOL     OW25897   0.700   0.222   2.694 -0.1127  0.2235 -0.4128
 4813SOL    HW125898   0.772   0.283   2.678 -0.2540  0.6234  0.4700
 4813SOL    HW225899   0.736   0.164   2.761 -1.4165 -0.6739 -0.4936
 4814SOL     OW25900   0.534   0.336   0.534  0.1507  0.1218  0.3469
 4814SOL    HW125901   0.498   0.249   0.518 -0.3635  0.0560  1.8149
 4814SOL    HW225902   0.472   0.367   0.601 -1.1154 -0.1427 -0.6875
 4815SOL     OW25903   2.946   1.040   6.743  0.0301 -0.4485  0.0891
 4815SOL    HW125904   3.000   1.021   6.666 -0.0907 -2.9115  0.5899
 4815SOL    HW225905   2.929   0.952   6.776  1.8459 -1.4879 -1.6893
 4816SOL     OW25906   1.842   0.364  13.531  0.3375 -0.6327 -0.0393
 4816SOL    HW125907   1.856   0.412  13.613  0.8641 -0.3020 -0.3256
 4816SOL    HW225908   1.913   0.301  13.528  2.7131  2.1192 -1.6168
 4817SOL     OW25909   4.580   2.705   3.253 -0.0161 -0.6952  0.1475
 4817SOL    HW125910   4.535   2.771   3.200 -0.7780 -0.4347  1.1264
 4817SOL    HW225911   4.613   2.760   3.324 -0.7364 -2.4495  1.8291
 4818SOL     OW25912   4.518   3.288   4.951 -0.3012 -0.2613 -0.0048
 4818SOL    HW125913   4.481   3.260   5.035  1.3066 -0.0223  0.7792
 4818SOL    HW225914   4.595   3.333   4.985  0.4911  0.1264 -2.3303
 4819SOL     OW25915   1.634   4.035   9.059  0.1062  0.5197  0.1111
 4819SOL    HW125916   1.711   4.036   9.001  0.8042  0.4498  1.0430
 4819SOL    HW225917   1.566   4.061   8.997  0.4620  0.2962 -0.3744
 4820SOL     OW25918   3.846   1.424   3.633 -0.4110 -0.0130 -0.2093
 4820SOL    HW125919   3.780   1.369   3.674 -0.7029 -0.5161 -1.3670
 4820SOL    HW225920   3.890   1.359   3.578 -2.7127  0.2009 -2.3013
 4821SOL     OW25921   2.419   4.204   3.053  0.7069  0.4799 -0.4453
 4821SOL    HW125922   2.409   4.271   2.986 -1.3588  1.4809  0.8448
 4821SOL    HW225923   2.513   4.184   3.054  0.6238  0.0497 -1.8030
 4822SOL     OW25924   0.159   2.673   6.831 -0.3677 -0.0038  0.1112
 4822SOL    HW125925   0.168   2.614   6.906  3.2340  0.3781  0.0026
 4822SOL    HW225926   0.212   2.748   6.859 -0.2150  0.6118 -1.8432
 4823SOL     OW25927   1.007   3.452   0.104  0.2018  0.1571 -1.1336
 4823SOL    HW125928   0.943   3.479   0.170  0.5374  0.1347 -0.7997
 4823SOL    HW225929   1.038   3.369   0.141 -0.8003  0.1569 -0.2822
 4824SOL     OW25930   0.104   4.180   5.354 -0.1180 -0.1049 -0.0377
 4824SOL    HW125931   0.150   4.261   5.376  0.2288 -0.3635  0.1826
 4824SOL    HW225932   0.170   4.145   5.295 -2.6846 -0.6988 -2.5665
 4825SOL     OW25933   3.299   0.784   1.499  0.6844 -0.0454  0.0923
 4825SOL    HW125934   3.288   0.875   1.527 -0.7898 -0.0614 -0.4589
 4825SOL    HW225935   3.356   0.757   1.571 -0.3192 -0.2601  0.7887
 4826SOL     OW25936   2.673   4.175   8.930  0.5532 -0.0207 -0.0897
 4826SOL    HW125937   2.611   4.228   8.979  0.4735 -0.2787  0.0894
 4826SOL    HW225938   2.667   4.217   8.844 -3.2695  0.0044  0.1659
 4827SOL     OW25939   2.813   1.182   0.036 -0.0076 -0.5099  0.8668
 4827SOL    HW125940   2.845   1.118   0.099  1.6861  0.8181  1.3572
 4827SOL    HW225941   2.832   1.264   0.081 -1.3778  0.4504 -0.3264
 4828SOL     OW25942   1.112   4.399  17.652  0.0593 -0.3488  0.1328
 4828SOL    HW125943   1.132   4.425   0.051 -2.5088  1.3196  0.2484
 4828SOL    HW225944   1.164   4.322  17.632  1.3340  0.3976  0.5586
 4829SOL     OW25945   2.292   4.103   0.955  0.1619 -0.6517  0.0941
 4829SOL    HW125946   2.262   4.110   1.045 -0.1545 -1.8641  0.0761
 4829SOL    HW225947   2.222   4.049   0.918  0.8443 -0.7424 -1.0551
 4830SOL     OW25948   2.392   0.110   9.334 -0.3402  0.2132  0.3981
 4830SOL    HW125949   2.468   0.102   9.276 -2.9379 -1.4195 -2.7789
 4830SOL    HW225950   2.376   0.016   9.332  1.3306 -0.0514 -0.6350
 4831SOL     OW25951   0.529   0.823   4.857 -0.0006  0.1891  0.1468
 4831SOL    HW125952   0.477   0.900   4.835  0.1183 -0.0539 -1.0289
 4831SOL    HW225953   0.457   0.771   4.892 -0.9165  0.8704 -0.7119
 4832SOL     OW25954   2.984   1.717   5.143 -0.7318 -0.1212  0.8272
 4832SOL    HW125955   2.920   1.723   5.073 -0.7436  0.9839  0.9299
 4832SOL    HW225956   3.063   1.696   5.093 -0.9376 -2.6756  1.5480
 4833SOL     OW25957   3.198   3.977   5.959 -0.3663 -0.1673 -0.0903
 4833SOL    HW125958   3.127   4.040   5.952  0.3678  0.9211  2.2779
 4833SOL    HW225959   3.240   4.000   6.042 -0.2287 -0.1463 -0.1642
 4834SOL     OW25960   3.486   0.186   8.297  0.2137  0.0582  0.4482
 4834SOL    HW125961   3.533   0.219   8.374  0.0343  2.1583 -0.3442
 4834SOL    HW225962   3.566   0.146   8.262 -1.7582 -1.9263 -1.8008
 4835SOL     OW25963   1.066   2.874  14.793 -0.1413 -0.2647  0.2271
 4835SOL    HW125964   0.993   2.847  14.738  1.2372 -1.2634 -1.1082
 4835SOL    HW225965   1.126   2.800  14.794  0.6065  0.3457 -0.3030
 4836SOL     OW25966   1.550   3.873   7.377 -0.2027 -0.0354  0.5499
 4836SOL    HW125967   1.527   3.899   7.288  0.2988 -0.8675  0.1778
 4836SOL    HW225968   1.619   3.808   7.364 -2.1710 -1.9645 -0.4582
 4837SOL     OW25969   1.074   2.815   2.506  0.2333  0.1841  0.5602
 4837SOL    HW125970   1.157   2.769   2.496 -0.7052 -1.2429 -0.7255
 4837SOL    HW225971   1.087   2.895   2.456  0.6362 -0.1723  0.0950
 4838SOL     OW25972   1.472   4.224   5.850  0.1658 -0.4258  0.1666
 4838SOL    HW125973   1.535   4.263   5.911 -2.3088  0.2421  2.2940
 4838SOL    HW225974   1.494   4.264   5.766 -0.2397  0.9715  0.7169
 4839SOL     OW25975   3.709   3.481  17.645 -0.3120  0.1554 -0.2491
 4839SOL    HW125976   3.689   3.473  17.552 -0.8401  1.3345 -0.2374
 4839SOL    HW225977   3.694   3.390  17.671  0.9779  0.4911  1.6495
 4840SOL     OW25978   0.822   0.964  12.487 -0.4713 -0.6855 -0.4267
 4840SOL    HW125979   0.729   0.981  12.502 -0.0113 -0.6879  2.3454
 4840SOL    HW225980   0.832   0.984  12.394  0.1830  0.4689 -0.1035
 4841SOL     OW25981   2.653   0.086   9.138  0.5301  0.4969  0.5293
 4841SOL    HW125982   2.678   0.034   9.214 -0.5817  1.2077  1.3764
 4841SOL    HW225983   2.713   0.160   9.150 -1.6759  1.9804  2.3293
 4842SOL     OW25984   0.399   3.520   1.750  0.3385 -0.2643 -0.0091
 4842SOL    HW125985   0.471   3.548   1.805 -0.1831 -1.1610  1.1253
 4842SOL    HW225986   0.441   3.465   1.684 -2.2044 -2.4193  0.1420
 4843SOL     OW25987   1.752   4.411  15.060  0.2140  0.7032 -0.6636
 4843SOL    HW125988   1.692   4.475  15.020 -1.1636  0.4766  1.0593
 4843SOL    HW225989   1.830   4.443  15.015  1.0588 -0.4577 -0.0168
 4844SOL     OW25990   1.310   1.437   6.106  0.4869 -1.0715 -0.5355
 4844SOL    HW125991   1.340   1.484   6.028  0.1793  1.1309  0.6544
 4844SOL    HW225992   1.288   1.509   6.165 -0.2559 -2.6332  1.0873
 4845SOL     OW25993   1.417   2.395   4.390  0.1744 -0.1306 -0.0085
 4845SOL    HW125994   1.437   2.459   4.458 -1.2160 -0.3860  0.6408
 4845SOL    HW225995   1.431   2.307   4.424  1.7737 -0.1651 -0.7662
 4846SOL     OW25996   3.830   2.582   8.584 -0.1967  0.0497  0.1947
 4846SOL    HW125997   3.920   2.600   8.610 -0.1484  1.1205 -0.6813
 4846SOL    HW225998   3.771   2.636   8.635  1.2042 -0.4019  2.2836
 4847SOL     OW25999   1.441   2.683   7.894 -0.1873 -0.6742  0.0481
 4847SOL    HW126000   1.383   2.671   7.818 -0.1489  0.5273 -0.1675
 4847SOL    HW226001   1.485   2.598   7.899  1.3147  0.1902  1.4978
 4848SOL     OW26002   0.752   1.750  16.898  0.1219  0.1425 -0.2845
 4848SOL    HW126003   0.742   1.733  16.804  3.0418 -2.6054 -0.1074
 4848SOL    HW226004   0.847   1.747  16.903  0.1093  0.8566  0.2800
 4849SOL     OW26005   0.052   1.759   5.254 -0.3702  0.0429  0.0518
 4849SOL    HW126006   0.035   1.705   5.176 -0.4898  0.1124  0.0286
 4849SOL    HW226007   4.715   1.718   5.316  2.7339 -0.9227  2.3410
 4850SOL     OW26008   3.364   1.046   3.639  0.0275 -0.1245  0.2951
 4850SOL    HW126009   3.305   1.026   3.711 -1.4206 -1.9254 -1.3654
 4850SOL    HW226010   3.437   0.990   3.665  0.8194  1.1606  0.8284
 4851SOL     OW26011   4.647   2.140  12.238 -0.7287  0.0027  0.1243
 4851SOL    HW126012   4.655   2.165  12.330  1.5598 -0.1919 -0.0183
 4851SOL    HW226013   4.569   2.085  12.241  0.4304 -1.4938  2.7873
 4852SOL     OW26014   1.850   4.696   7.473  0.2165 -0.2343  0.5648
 4852SOL    HW126015   1.826   4.605   7.490  0.8916 -0.6534 -0.7039
 4852SOL    HW226016   1.858   0.000   7.564  0.3397 -4.0433  1.6545
 4853SOL     OW26017   1.311   1.025   7.528  0.6979 -0.3370 -0.1744
 4853SOL    HW126018   1.232   1.074   7.503  2.6088  1.5080 -2.5136
 4853SOL    HW226019   1.285   0.933   7.524 -3.3098  0.8452 -1.1379
 4854SOL     OW26020   1.506   3.724  12.772  0.2860  0.4349 -0.1276
 4854SOL    HW126021   1.579   3.708  12.831 -1.0630  1.9395  1.9342
 4854SOL    HW226022   1.433   3.719  12.833  0.3777  0.7050  0.0036
 4855SOL     OW26023   3.733   1.814   1.608 -0.0323 -0.1217 -0.0134
 4855SOL    HW126024   3.779   1.805   1.524 -0.3371  0.0381 -0.1948
 4855SOL    HW226025   3.792   1.860   1.668 -2.2198  0.5641  1.6165
 4856SOL     OW26026   1.461   1.112   1.472 -0.0703  0.5902  0.1685
 4856SOL    HW126027   1.449   1.201   1.439  0.4404  0.2405 -0.9601
 4856SOL    HW226028   1.380   1.103   1.522  0.7285  0.7725  1.4869
 4857SOL     OW26029   1.356   3.989  13.946 -0.0078 -0.1583 -0.7598
 4857SOL    HW126030   1.319   4.061  13.997  1.8894 -0.5177  1.1400
 4857SOL    HW226031   1.417   4.038  13.891  0.4158  0.0365 -0.1158
 4858SOL     OW26032   4.687   0.171   5.361 -0.8022  0.2630 -0.2469
 4858SOL    HW126033   4.692   0.252   5.412 -0.0154  0.5262 -0.7554
 4858SOL    HW226034   4.593   0.151   5.366 -0.2798 -2.0897  0.3580
 4859SOL     OW26035   3.777   1.181   6.847  0.5493 -0.0655  0.3373
 4859SOL    HW126036   3.718   1.256   6.845 -0.2555 -0.7727 -1.8550
 4859SOL    HW226037   3.859   1.229   6.860  0.3593  0.6297 -0.9976
 4860SOL     OW26038   0.797   1.905   6.172  0.1162 -0.5766 -1.0474
 4860SOL    HW126039   0.760   1.850   6.104 -3.2588  0.8725 -0.4016
 4860SOL    HW226040   0.865   1.853   6.215  0.6639  0.1041 -1.0948
 4861SOL     OW26041   0.396   0.598   8.865 -0.0170 -0.0938 -0.1149
 4861SOL    HW126042   0.449   0.518   8.852 -1.5625 -1.0020 -0.7936
 4861SOL    HW226043   0.381   0.591   8.959  0.1899 -1.2895 -0.1684
 4862SOL     OW26044   2.286   1.897  14.983  0.3539  0.0281  0.6403
 4862SOL    HW126045   2.332   1.978  15.003 -0.5820  0.2489  1.9003
 4862SOL    HW226046   2.243   1.917  14.899 -2.6472 -0.6749  1.9921
 4863SOL     OW26047   3.678   1.655   2.458  0.3012  0.6384 -0.1383
 4863SOL    HW126048   3.617   1.614   2.396  0.9779  2.7881 -2.2248
 4863SOL    HW226049   3.752   1.596   2.439  0.4218  0.3593  1.1528
 4864SOL     OW26050   4.278   4.440   0.759 -0.2824  0.2669 -0.3131
 4864SOL    HW126051   4.221   4.410   0.830  0.4000  2.0509  1.0018
 4864SOL    HW226052   4.242   4.394   0.683 -0.1877  0.2433 -0.3433
 4865SOL     OW26053   4.664   0.103   6.207  0.1719 -0.0626  0.3633
 4865SOL    HW126054   4.588   0.146   6.248  0.2502 -0.4015  0.8544
 4865SOL    HW226055   4.655   0.143   6.120  0.2154 -0.3254  0.2389
 4866SOL     OW26056   3.426   2.762   5.706  0.0762  0.0324  0.0987
 4866SOL    HW126057   3.335   2.789   5.694 -0.2896 -0.3319  2.1654
 4866SOL    HW226058   3.474   2.844   5.703 -2.5035  1.5564  0.6966
 4867SOL     OW26059   1.706   2.012  15.096 -0.8424 -0.1117 -0.3851
 4867SOL    HW126060   1.701   2.090  15.151 -2.1197 -0.8833  0.6005
 4867SOL    HW226061   1.635   2.025  15.034 -0.9378 -0.1827 -0.2926
 4868SOL     OW26062   1.046   4.650   6.034 -0.3230 -0.2311 -0.0597
 4868SOL    HW126063   0.968   4.594   6.035  1.1887 -2.4041 -1.0582
 4868SOL    HW226064   1.005   0.003   6.075  0.7659  1.2241 -1.6574
 4869SOL     OW26065   2.609   4.558   8.035  0.1002  0.1063 -0.2634
 4869SOL    HW126066   2.699   4.527   8.035 -0.7025 -2.2114 -0.5975
 4869SOL    HW226067   2.555   4.480   8.047  2.1030 -1.4076 -1.2412
 4870SOL     OW26068   2.787   1.776   6.088  0.2067  0.0946  0.9065
 4870SOL    HW126069   2.864   1.809   6.134  0.0349 -0.6372  1.7239
 4870SOL    HW226070   2.800   1.823   6.006 -0.9208 -0.8197  0.1986
 4871SOL     OW26071   3.499   2.966   4.123  0.8358 -0.4103 -0.2874
 4871SOL    HW126072   3.484   2.872   4.120 -1.3305 -0.0283 -2.5399
 4871SOL    HW226073   3.416   3.004   4.093  0.9976 -0.8875 -1.3551
 4872SOL     OW26074   1.349   3.462  13.940  0.0805 -0.4918  0.3156
 4872SOL    HW126075   1.423   3.406  13.965  1.5145  0.9543 -0.6764
 4872SOL    HW226076   1.306   3.410  13.872 -1.0712  1.3849 -0.3753
 4873SOL     OW26077   0.513   1.623   5.430 -0.1224  0.0456  0.0228
 4873SOL    HW126078   0.489   1.685   5.499 -3.3759 -0.6289 -0.4961
 4873SOL    HW226079   0.536   1.678   5.355 -2.3082  0.2695 -0.4942
 4874SOL     OW26080   3.409   0.374   6.936  0.0703 -0.3709  0.2677
 4874SOL    HW126081   3.388   0.375   6.842  0.1376  2.7220  0.3039
 4874SOL    HW226082   3.480   0.311   6.938  0.9919  0.6561 -0.2651
 4875SOL     OW26083   2.779   1.749   7.625  0.1407 -0.1946 -0.3304
 4875SOL    HW126084   2.710   1.772   7.562  0.3022 -0.5495 -0.6369
 4875SOL    HW226085   2.772   1.826   7.682 -0.1301  0.0039 -0.6266
 4876SOL     OW26086   0.794   3.243  15.154 -0.2581  0.7394 -0.1008
 4876SOL    HW126087   0.737   3.315  15.128 -1.4611 -0.8330 -1.7922
 4876SOL    HW226088   0.863   3.286  15.205 -1.2422  1.0763  0.9666
 4877SOL     OW26089   3.199   3.564   0.431 -0.0941 -0.2253  0.3382
 4877SOL    HW126090   3.168   3.552   0.341  1.1800 -0.9017 -0.0069
 4877SOL    HW226091   3.114   3.558   0.476 -0.2644 -2.1135 -0.2237
 4878SOL     OW26092   1.627   2.020  15.413 -0.5028 -0.2602  0.4411
 4878SOL    HW126093   1.619   1.933  15.374  3.0334 -0.4807  0.2879
 4878SOL    HW226094   1.553   2.017  15.474 -1.7010  1.9353 -0.9281
 4879SOL     OW26095   0.545   3.779   8.276  0.1544 -0.0671  0.2287
 4879SOL    HW126096   0.469   3.747   8.226 -0.7783 -0.7204  2.0488
 4879SOL    HW226097   0.508   3.866   8.291 -0.4849  0.0933 -2.3469
 4880SOL     OW26098   1.536   3.575   5.648  0.4259 -0.8662 -0.0903
 4880SOL    HW126099   1.605   3.634   5.679  2.2868 -2.6778 -0.7328
 4880SOL    HW226100   1.544   3.571   5.553 -0.0639  0.1714 -0.1651
 4881SOL     OW26101   2.602   1.387   5.960  0.2585  0.8755  0.0491
 4881SOL    HW126102   2.685   1.376   5.912 -1.3806 -1.3746 -2.2182
 4881SOL    HW226103   2.628   1.330   6.032  1.8506 -1.7511 -2.6206
 4882SOL     OW26104   0.413   3.897   5.310 -0.0815  0.4274 -0.2538
 4882SOL    HW126105   0.495   3.865   5.273  0.0009  0.6266 -0.2426
 4882SOL    HW226106   0.433   3.880   5.402 -3.8917 -1.3200  0.2428
 4883SOL     OW26107   1.835   1.508   5.734  0.0837 -0.5283 -0.3628
 4883SOL    HW126108   1.784   1.556   5.670 -0.2957  2.0057  1.8457
 4883SOL    HW226109   1.783   1.503   5.815  0.6256 -1.4985 -0.0633
 4884SOL     OW26110   2.590   3.344   4.324 -0.0642  0.1433 -0.3874
 4884SOL    HW126111   2.603   3.266   4.378  2.7590  0.6088 -0.3543
 4884SOL    HW226112   2.588   3.402   4.401  0.2669 -2.3608  1.5083
 4885SOL     OW26113   3.507   2.375   0.329 -0.2455 -0.3911  0.1748
 4885SOL    HW126114   3.524   2.433   0.404  1.1722 -0.1907 -0.3044
 4885SOL    HW226115   3.540   2.294   0.368 -0.7250 -0.7361 -0.1425
 4886SOL     OW26116   1.032   2.171   4.300 -0.1698  0.2458  0.2356
 4886SOL    HW126117   1.015   2.265   4.293 -1.0230  0.1934  1.6467
 4886SOL    HW226118   1.123   2.180   4.271  0.0338 -0.2057  0.7418
 4887SOL     OW26119   4.604   1.999   5.384 -0.1069 -0.3115 -0.3534
 4887SOL    HW126120   4.670   1.964   5.444 -1.3210 -3.3341 -0.7354
 4887SOL    HW226121   4.640   1.970   5.300  0.8928  2.3987 -0.8330
 4888SOL     OW26122   0.316   1.953   9.540 -0.2707  0.1457  0.5967
 4888SOL    HW126123   0.409   1.929   9.540 -1.1551 -3.3536 -1.1317
 4888SOL    HW226124   0.331   2.045   9.558 -2.0368  0.3677  0.9067
 4889SOL     OW26125   0.618   1.187   9.172  0.1769 -0.2252 -1.1228
 4889SOL    HW126126   0.641   1.279   9.179 -0.2763 -0.0951 -1.3616
 4889SOL    HW226127   0.681   1.140   9.226 -0.1160 -0.5037 -1.0253
 4890SOL     OW26128   3.391   2.349  11.968  0.7219 -0.0171 -0.0075
 4890SOL    HW126129   3.333   2.310  11.902  0.8061 -0.2217  0.0400
 4890SOL    HW226130   3.470   2.349  11.914 -0.3741 -1.4293 -1.6306
 4891SOL     OW26131   4.382   2.124   6.557 -0.7882 -0.5656  0.8757
 4891SOL    HW126132   4.313   2.167   6.608  1.9213  1.6847  2.6367
 4891SOL    HW226133   4.375   2.032   6.582  0.8208 -0.6217  1.1170
 4892SOL     OW26134   3.429   4.351   3.412 -0.3668 -0.5347  0.3864
 4892SOL    HW126135   3.407   4.420   3.350 -0.3500 -0.7694  0.1228
 4892SOL    HW226136   3.358   4.290   3.394 -0.5311 -0.5329  1.0319
 4893SOL     OW26137   3.493   2.349  17.356 -0.2759 -0.5966  0.0594
 4893SOL    HW126138   3.577   2.302  17.354  0.4687  0.6729  1.6306
 4893SOL    HW226139   3.487   2.374  17.264  1.2262  0.8538  0.3469
 4894SOL     OW26140   1.676   3.989   1.119 -0.4403  0.0638  0.5536
 4894SOL    HW126141   1.752   4.047   1.117  0.1294 -0.8366 -3.0818
 4894SOL    HW226142   1.707   3.932   1.048  1.1300  0.0370  1.2526
 4895SOL     OW26143   0.873   2.211   3.883  0.2880  0.1566 -0.3785
 4895SOL    HW126144   0.784   2.178   3.873  0.3097  0.3701 -1.2062
 4895SOL    HW226145   0.915   2.140   3.836 -0.9937  0.4468 -1.9467
 4896SOL     OW26146   4.416   1.479   4.572 -0.4436  0.5841  0.1808
 4896SOL    HW126147   4.505   1.482   4.538 -0.8548  0.0562 -0.9484
 4896SOL    HW226148   4.428   1.565   4.613  1.1415 -1.7108  4.5292
 4897SOL     OW26149   4.174   2.049   2.165  0.0165 -0.4078  0.1313
 4897SOL    HW126150   4.236   2.094   2.107  0.2387 -0.4971  0.3024
 4897SOL    HW226151   4.118   2.119   2.200 -0.1445 -1.3879  1.7956
 4898SOL     OW26152   4.233   1.964  17.683  0.1042 -0.6265 -0.3355
 4898SOL    HW126153   4.173   1.912   0.045 -0.4489 -0.2237 -0.5664
 4898SOL    HW226154   4.167   2.016  17.637  1.0642  1.1513  0.2635
 4899SOL     OW26155   1.335   1.804   3.350  0.0710  0.1357 -0.2459
 4899SOL    HW126156   1.275   1.856   3.404  0.2160 -0.6153  0.6321
 4899SOL    HW226157   1.291   1.802   3.265  1.0223  0.8891 -0.7565
 4900SOL     OW26158   1.712   0.813   5.999 -0.1357 -0.1878  0.1605
 4900SOL    HW126159   1.688   0.841   5.910  0.8975  1.8169  0.5226
 4900SOL    HW226160   1.649   0.855   6.057 -0.4796 -1.3752  0.6554
 4901SOL     OW26161   2.478   4.680   2.642 -0.1621 -0.5167 -0.2067
 4901SOL    HW126162   2.414   0.008   2.693 -0.6378 -1.1529 -0.1747
 4901SOL    HW226163   2.485   4.718   2.554 -2.1228  1.7991  0.6513
 4902SOL     OW26164   2.327   3.298   9.131  0.1634 -0.0070  0.4684
 4902SOL    HW126165   2.324   3.300   9.035  1.0050  1.5107  0.4896
 4902SOL    HW226166   2.246   3.251   9.151  0.6563 -0.4520  1.3795
 4903SOL     OW26167   3.955   2.852   8.568 -0.7339 -0.4429 -0.1284
 4903SOL    HW126168   3.942   2.940   8.605 -3.1097 -0.4506 -0.9406
 4903SOL    HW226169   3.903   2.817   8.640 -1.5367  3.7350  1.3237
 4904SOL     OW26170   3.958   2.808   3.689 -0.0544 -0.0488 -0.4916
 4904SOL    HW126171   3.968   2.866   3.764 -0.2690  0.8127 -1.1324
 4904SOL    HW226172   4.005   2.729   3.717 -0.5077  0.2964  1.2380
 4905SOL     OW26173   1.453   2.070   3.856  0.2006  0.0430 -0.6922
 4905SOL    HW126174   1.542   2.078   3.890  0.1587 -1.5105 -0.2057
 4905SOL    HW226175   1.410   2.134   3.911  0.1790  1.4127 -2.3023
 4906SOL     OW26176   2.564   2.444   2.979 -0.0447  0.7054  0.3205
 4906SOL    HW126177   2.486   2.389   2.968  0.2484  0.5766 -1.1219
 4906SOL    HW226178   2.536   2.530   2.949  0.6607  0.5925 -0.6383
 4907SOL     OW26179   4.512   4.311   4.083  0.2605 -0.4077 -0.1333
 4907SOL    HW126180   4.453   4.353   4.021 -1.3482 -1.9072  0.3885
 4907SOL    HW226181   4.478   4.337   4.168 -0.8877 -0.8350 -0.4626
 4908SOL     OW26182   2.731   4.397   7.613  0.1840 -0.4970  0.0139
 4908SOL    HW126183   2.644   4.389   7.576  0.5021  0.4447 -0.9299
 4908SOL    HW226184   2.780   4.452   7.552 -0.3169  1.9400  1.8032
 4909SOL     OW26185   2.052   2.410  10.508 -0.2009  0.0383  0.2093
 4909SOL    HW126186   2.052   2.328  10.459 -1.2348  1.3563 -1.9878
 4909SOL    HW226187   1.988   2.463  10.461 -2.4410 -1.9444  1.0560
 4910SOL     OW26188   3.404   2.028   5.911 -0.1625  0.5507  0.4989
 4910SOL    HW126189   3.403   1.953   5.851 -0.7388  0.0931  1.0635
 4910SOL    HW226190   3.496   2.037   5.936 -0.2953  1.7845  0.5034
 4911SOL     OW26191   0.048   2.276   5.635  0.0358 -0.7773  0.1015
 4911SOL    HW126192   4.682   2.273   5.673 -0.3956 -1.5179 -0.9800
 4911SOL    HW226193   0.058   2.371   5.624 -4.2507 -0.6002 -2.0938
 4912SOL     OW26194   2.072   2.652   6.790 -0.0278 -0.4187 -0.1941
 4912SOL    HW126195   2.048   2.569   6.747 -1.0798 -1.0705  1.6547
 4912SOL    HW226196   2.161   2.639   6.823 -0.0578  0.9999  0.4339
 4913SOL     OW26197   1.209   2.505   7.441 -0.4246 -0.5089  0.2982
 4913SOL    HW126198   1.210   2.475   7.350 -1.3701  0.3084  0.0173
 4913SOL    HW226199   1.199   2.600   7.433  1.6446 -0.3434 -0.3870
 4914SOL     OW26200   2.983   4.039  12.966  0.5661 -0.0587  0.6554
 4914SOL    HW126201   2.920   4.098  13.006 -0.9546  0.0681 -1.9488
 4914SOL    HW226202   3.055   4.047  13.029  0.6997 -0.3025  0.5343
 4915SOL     OW26203   2.213   0.536   6.647  0.0146  0.5354  0.7793
 4915SOL    HW126204   2.272   0.461   6.638 -2.2712 -0.9594 -1.6520
 4915SOL    HW226205   2.166   0.518   6.728 -0.3233 -0.4267  0.3691
 4916SOL     OW26206   4.296   0.614   9.929 -0.3693 -0.3033  0.0483
 4916SOL    HW126207   4.330   0.554   9.863 -0.1543  0.1405 -0.2434
 4916SOL    HW226208   4.381   0.630   9.969  0.9779  1.3097 -3.4360
 4917SOL     OW26209   3.350   1.448   8.497 -0.0350 -0.0734 -0.7058
 4917SOL    HW126210   3.401   1.468   8.575  0.4495  0.4583 -1.1555
 4917SOL    HW226211   3.316   1.535   8.473  0.0913 -0.4961 -2.4286
 4918SOL     OW26212   2.668   3.667   5.450 -1.0864  0.0629 -0.3845
 4918SOL    HW126213   2.580   3.674   5.487  0.0532  1.4455  2.0784
 4918SOL    HW226214   2.639   3.604   5.384 -1.8648  0.6493 -0.5987
 4919SOL     OW26215   1.910   2.713  14.652 -0.1111 -0.6349  0.2540
 4919SOL    HW126216   1.865   2.690  14.571  0.6312 -0.2405 -0.2765
 4919SOL    HW226217   1.952   2.636  14.691  0.9198 -0.5254 -0.6109
 4920SOL     OW26218   3.913   1.120   3.975 -0.7230 -0.2155  0.4412
 4920SOL    HW126219   3.943   1.144   4.062 -1.6077 -0.7094  0.8874
 4920SOL    HW226220   3.958   1.181   3.917 -1.7138 -0.1481 -0.2480
 4921SOL     OW26221   3.001   0.796   5.618 -0.0078  0.6805  0.4970
 4921SOL    HW126222   2.916   0.835   5.596 -0.4663 -0.2685  0.6012
 4921SOL    HW226223   3.058   0.813   5.543  0.6057 -0.7137  0.6626
 4922SOL     OW26224   0.076   4.420   6.558  0.5682 -0.4842  0.5670
 4922SOL    HW126225   0.071   4.473   6.478 -2.5145  0.2471  1.2505
 4922SOL    HW226226   0.077   4.331   6.522 -0.6662 -0.6983  1.0599
 4923SOL     OW26227   1.812   1.830  13.333 -0.2191  0.4725 -0.1124
 4923SOL    HW126228   1.722   1.814  13.304  0.0784 -0.7380 -0.3788
 4923SOL    HW226229   1.823   1.754  13.391  2.0340 -0.2373 -1.4587
 4924SOL     OW26230   3.170   2.265   1.366  0.1839 -0.4054  0.4015
 4924SOL    HW126231   3.100   2.201   1.351  1.6606 -1.5301 -1.6529
 4924SOL    HW226232   3.247   2.208   1.372  0.3285 -0.3016 -0.5043
 4925SOL     OW26233   0.708   1.475   7.007  0.0859  0.4715 -0.1707
 4925SOL    HW126234   0.776   1.416   6.977 -0.1132  0.1610 -0.0078
 4925SOL    HW226235   0.636   1.413   7.020 -0.8064  1.3432 -0.8984
 4926SOL     OW26236   0.585   1.385   8.279  0.0765 -0.2229 -0.9949
 4926SOL    HW126237   0.601   1.411   8.188  1.9189  0.9368 -0.3420
 4926SOL    HW226238   0.531   1.309   8.258 -0.4356 -0.3719  0.9160
 4927SOL     OW26239   2.951   0.637  14.983 -0.4656 -0.3014 -0.5123
 4927SOL    HW126240   3.023   0.590  15.026  1.3372  1.5637 -1.4979
 4927SOL    HW226241   2.944   0.705  15.050  1.0799 -0.8915  0.2749
 4928SOL     OW26242   3.919   0.058   3.826  0.2416 -0.0756  0.2654
 4928SOL    HW126243   3.879   0.069   3.912  1.0715 -1.7964  0.8642
 4928SOL    HW226244   3.991   0.121   3.826 -0.3175  0.5696 -1.0542
 4929SOL     OW26245   1.712   3.832  15.969 -0.0805 -0.2625 -0.1264
 4929SOL    HW126246   1.783   3.881  15.926  0.7632 -1.6343 -0.3028
 4929SOL    HW226247   1.638   3.893  15.974  1.0455  1.0967  0.1201
 4930SOL     OW26248   4.382   0.212   7.153  0.3125 -0.2398 -0.0723
 4930SOL    HW126249   4.372   0.210   7.058 -1.2753 -2.0743  0.1384
 4930SOL    HW226250   4.288   0.220   7.172  0.7495  1.8834  1.1955
 4931SOL     OW26251   0.607   3.406   4.274 -0.3062 -0.0115  0.1992
 4931SOL    HW126252   0.514   3.427   4.287 -0.4487 -1.0617  0.8518
 4931SOL    HW226253   0.645   3.383   4.359 -1.0986 -0.3245  0.4674
 4932SOL     OW26254   3.844   4.356   4.322  0.0835 -0.4528  0.1711
 4932SOL    HW126255   3.771   4.360   4.384 -2.9225  0.6469 -3.3759
 4932SOL    HW226256   3.892   4.287   4.368 -1.3173 -0.4655  1.5953
 4933SOL     OW26257   4.590   1.328   2.599 -0.5306 -0.2014  0.0246
 4933SOL    HW126258   4.624   1.239   2.608 -0.4690 -0.2175 -0.3654
 4933SOL    HW226259   4.657   1.377   2.646  1.4595 -2.0601 -0.8415
 4934SOL     OW26260   2.754   4.236  13.435  0.1046  0.0830 -0.0511
 4934SOL    HW126261   2.750   4.331  13.450 -4.0105 -0.5625  3.0997
 4934SOL    HW226262   2.848   4.222  13.444  0.3101 -0.2997 -2.9566
 4935SOL     OW26263   2.506   3.305   5.791 -0.0540  0.0093 -0.3010
 4935SOL    HW126264   2.512   3.271   5.880 -0.8069 -2.1798 -1.1132
 4935SOL    HW226265   2.535   3.394   5.813 -1.2942  0.2402  0.3858
 4936SOL     OW26266   3.041   2.188   5.053 -0.1458 -0.2328  0.4928
 4936SOL    HW126267   3.006   2.110   5.009  0.1622 -0.9824  1.5452
 4936SOL    HW226268   3.057   2.144   5.137  0.9429  1.3712  1.1145
 4937SOL     OW26269   3.265   4.575   7.645 -0.1406  1.0758  0.0914
 4937SOL    HW126270   3.312   4.492   7.639  0.3497  1.3163  0.6476
 4937SOL    HW226271   3.219   4.561   7.727  0.9096  1.4459  0.7435
 4938SOL     OW26272   1.042   1.747   8.268  0.3008 -0.5956 -0.4173
 4938SOL    HW126273   0.953   1.782   8.268  0.6283  0.2538  0.1854
 4938SOL    HW226274   1.075   1.743   8.358  0.9606  2.6757 -0.4866
 4939SOL     OW26275   4.534   2.563   3.566  0.6956  0.2244 -0.1159
 4939SOL    HW126276   4.457   2.603   3.606  1.0395  1.8398 -1.1131
 4939SOL    HW226277   4.573   2.649   3.553 -0.5903  1.0651  1.5630
 4940SOL     OW26278   4.333   3.940   1.927  0.2185 -0.3197 -0.7492
 4940SOL    HW126279   4.251   3.951   1.880  0.0514  0.6248 -0.2410
 4940SOL    HW226280   4.356   3.848   1.915 -0.0342 -0.5587  0.5833
 4941SOL     OW26281   0.897   3.730   1.498  0.3197 -0.2993  0.4262
 4941SOL    HW126282   0.822   3.752   1.554 -0.3929  0.9903 -1.0482
 4941SOL    HW226283   0.957   3.678   1.552 -0.4965 -1.0737  0.5926
 4942SOL     OW26284   1.457   2.854   6.879 -0.2174 -0.3368  0.2645
 4942SOL    HW126285   1.516   2.905   6.823 -0.5730 -0.0956  0.1052
 4942SOL    HW226286   1.501   2.866   6.963  0.9882 -2.9719  0.0068
 4943SOL     OW26287   3.524   2.210   8.413  0.0221  0.7324 -0.0107
 4943SOL    HW126288   3.531   2.304   8.397 -1.8882  0.4109 -2.6703
 4943SOL    HW226289   3.430   2.202   8.427  0.2694  1.0598  1.8406
 4944SOL     OW26290   0.144   1.638   3.644  0.0236  0.0313 -0.1634
 4944SOL    HW126291   0.233   1.670   3.658 -0.0953  0.0144  0.6824
 4944SOL    HW226292   0.148   1.566   3.708  1.3419  0.3465  0.1120
 4945SOL     OW26293   2.034   2.767   6.295  0.0691 -0.6442 -0.8005
 4945SOL    HW126294   2.056   2.753   6.387  0.7268 -1.6450 -1.1136
 4945SOL    HW226295   2.123   2.766   6.261 -0.0341 -0.4905 -1.0678
 4946SOL     OW26296   4.292   0.879   5.831  0.4393  0.0363  0.2206
 4946SOL    HW126297   4.357   0.949   5.830 -2.0053  2.2926 -1.0775
 4946SOL    HW226298   4.223   0.922   5.780 -0.8040 -0.2645  1.6474
 4947SOL     OW26299   3.096   3.626   2.549 -0.0604  0.3385  0.5038
 4947SOL    HW126300   3.100   3.712   2.590  0.3964  1.0726 -1.0631
 4947SOL    HW226301   3.165   3.630   2.482 -0.6703  0.7856 -0.1049
 4948SOL     OW26302   2.450   0.919   4.749 -0.0030 -0.5470  0.5510
 4948SOL    HW126303   2.529   0.875   4.782  0.8726  0.5339 -0.1327
 4948SOL    HW226304   2.475   1.011   4.747  0.1907 -0.6698 -2.1496
 4949SOL     OW26305   2.554   2.299   2.548 -0.0880  0.1560 -0.0431
 4949SOL    HW126306   2.475   2.318   2.600 -1.3977 -2.0346 -1.2452
 4949SOL    HW226307   2.613   2.318   2.621 -0.2970  3.1035 -0.6283
 4950SOL     OW26308   2.105   1.241   8.117 -0.2444 -0.3849  0.6383
 4950SOL    HW126309   2.170   1.274   8.178  1.3113 -1.4161 -0.4694
 4950SOL    HW226310   2.035   1.224   8.180 -0.7793  2.6174  0.8561
 4951SOL     OW26311   3.589   2.173   1.975  0.0334 -0.2087  0.4301
 4951SOL    HW126312   3.664   2.118   1.998  1.1408  1.2859  0.3923
 4951SOL    HW226313   3.557   2.213   2.056 -1.2421  1.9149 -1.1430
 4952SOL     OW26314   1.483   3.360   0.081  0.0166  0.1739 -0.3876
 4952SOL    HW126315   1.423   3.308   0.029  0.9683  1.7149 -2.9926
 4952SOL    HW226316   1.424   3.434   0.101 -1.5415 -1.0816 -0.3283
 4953SOL     OW26317   0.537   1.787   5.222  0.4747 -0.0343 -0.6686
 4953SOL    HW126318   0.524   1.743   5.138 -1.8540 -0.2363 -0.2050
 4953SOL    HW226319   0.465   1.850   5.220  0.6698  0.2388  0.6717
 4954SOL     OW26320   2.673   2.051   8.771 -0.6328 -0.4420 -0.2578
 4954SOL    HW126321   2.729   1.974   8.784  0.2258  0.6832  2.5765
 4954SOL    HW226322   2.712   2.110   8.836 -1.7486 -0.0699  0.0580
 4955SOL     OW26323   0.298   1.681  11.397 -0.3054 -0.1994  0.6591
 4955SOL    HW126324   0.307   1.589  11.371 -1.7476 -0.2581  0.3334
 4955SOL    HW226325   0.371   1.680  11.459 -1.2941  1.6618  1.8365
 4956SOL     OW26326   4.586   0.998   7.122 -0.1078 -0.3378 -0.4850
 4956SOL    HW126327   4.594   1.089   7.151  2.7863 -0.5783 -0.4988
 4956SOL    HW226328   4.573   0.957   7.207 -0.9718  0.1166 -0.4037
 4957SOL     OW26329   3.851   4.300   6.031  0.0016 -0.2586  0.5180
 4957SOL    HW126330   3.896   4.329   6.110  2.1464 -2.1111 -0.0474
 4957SOL    HW226331   3.818   4.386   6.003  2.3758  0.1285 -1.0766
 4958SOL     OW26332   2.763   2.373   9.119  0.6020  0.2484  0.0840
 4958SOL    HW126333   2.674   2.407   9.125  1.0444  1.2916  0.5601
 4958SOL    HW226334   2.815   2.453   9.119  2.0202 -0.6665 -1.9525
 4959SOL     OW26335   1.126   3.609   8.485 -0.0928  0.2520 -0.1196
 4959SOL    HW126336   1.172   3.588   8.566  0.1223 -0.7682 -0.5161
 4959SOL    HW226337   1.166   3.544   8.428 -0.8122  0.0138 -0.3537
 4960SOL     OW26338   0.920   3.805  14.554  0.1929  0.0322  0.0690
 4960SOL    HW126339   0.992   3.781  14.613 -0.9233 -2.4363  0.4185
 4960SOL    HW226340   0.894   3.722  14.514 -0.7697 -1.3658  3.5730
 4961SOL     OW26341   4.118   3.929   3.735 -0.1440  0.0982 -0.1177
 4961SOL    HW126342   4.118   3.842   3.696 -4.1451  0.0636 -0.0070
 4961SOL    HW226343   4.068   3.917   3.816 -2.8118  0.3710 -1.7459
 4962SOL     OW26344   2.142   1.302   5.957  0.0788  1.0693  0.2097
 4962SOL    HW126345   2.104   1.296   6.044 -0.7828  0.4959 -0.1959
 4962SOL    HW226346   2.061   1.328   5.913 -2.0278 -2.4065  1.9840
 4963SOL     OW26347   3.260   2.112   4.266  0.2865 -0.2800 -0.7620
 4963SOL    HW126348   3.252   2.206   4.282 -1.3120 -0.3683 -1.0063
 4963SOL    HW226349   3.300   2.077   4.345  1.4413 -0.0497 -1.2487
 4964SOL     OW26350   1.221   3.694   0.611 -0.9024 -0.1995  0.0384
 4964SOL    HW126351   1.269   3.680   0.692  1.1301  1.6499 -0.8546
 4964SOL    HW226352   1.186   3.608   0.588  0.2226 -0.8750  0.8427
 4965SOL     OW26353   2.336   0.214  11.867  0.1006 -0.4470  0.0537
 4965SOL    HW126354   2.409   0.269  11.839  1.3160 -3.0276 -1.8859
 4965SOL    HW226355   2.382   0.148  11.919 -1.9233 -1.0593  1.0709
 4966SOL     OW26356   4.155   1.490  14.725 -0.4005  0.1324  0.0663
 4966SOL    HW126357   4.109   1.552  14.781 -1.1514  1.5439 -2.1366
 4966SOL    HW226358   4.202   1.545  14.663  0.5531 -2.3603 -1.4414
 4967SOL     OW26359   0.657   3.556  16.822 -0.5886  0.3446 -0.3615
 4967SOL    HW126360   0.604   3.602  16.757 -1.0236  1.4019  0.7345
 4967SOL    HW226361   0.594   3.506  16.874  0.7006 -0.2423  0.6460
 4968SOL     OW26362   0.343   2.008   0.351 -0.3152  0.1062 -0.6618
 4968SOL    HW126363   0.313   1.930   0.398  0.5371  0.2791  0.1539
 4968SOL    HW226364   0.437   1.989   0.356 -0.6643 -0.5715  3.3188
 4969SOL     OW26365   0.900   3.512  16.348  0.0544  0.6283 -0.2240
 4969SOL    HW126366   0.910   3.547  16.260  1.1003 -1.7744 -1.0630
 4969SOL    HW226367   0.878   3.594  16.393 -1.2571  1.1284 -1.8069
 4970SOL     OW26368   2.581   2.138  17.056  0.1432 -0.3902  0.0885
 4970SOL    HW126369   2.541   2.060  17.095  0.4287 -0.6046 -0.0478
 4970SOL    HW226370   2.627   2.179  17.129  0.5567 -0.7367  0.0234
 4971SOL     OW26371   0.289   1.988   3.695 -0.2664  0.0826 -0.1372
 4971SOL    HW126372   0.250   2.074   3.681 -3.1259 -0.7018  2.9359
 4971SOL    HW226373   0.231   1.944   3.758 -0.6616 -0.5352 -0.9326
 4972SOL     OW26374   4.006   1.143   5.869  0.4472  0.0226  0.2792
 4972SOL    HW126375   3.938   1.204   5.841  0.1668 -0.3694  0.1032
 4972SOL    HW226376   3.949   1.068   5.886 -1.3174  1.7521  2.0206
 4973SOL     OW26377   0.445   2.092   7.881 -0.0282 -0.2104  0.1247
 4973SOL    HW126378   0.366   2.136   7.911  0.1519 -0.5611  1.1138
 4973SOL    HW226379   0.505   2.120   7.950  0.1195  0.6697 -0.3639
 4974SOL     OW26380   4.435   2.532   2.296  0.3141 -0.4663  0.2031
 4974SOL    HW126381   4.347   2.498   2.313 -0.3923  1.2693  0.0210
 4974SOL    HW226382   4.474   2.479   2.366 -0.9906  0.9900  2.0581
 4975SOL     OW26383   3.428   2.750   6.764 -0.3490 -0.1443  0.4201
 4975SOL    HW126384   3.402   2.667   6.723  4.0486  0.3371 -3.2836
 4975SOL    HW226385   3.416   2.811   6.692 -1.1868 -0.1604  0.5442
 4976SOL     OW26386   0.555   4.552   8.018  0.2032 -0.1488  0.2818
 4976SOL    HW126387   0.588   4.478   7.967 -1.3584 -0.5706 -0.1138
 4976SOL    HW226388   0.461   4.557   8.000  0.3276  1.5347  0.1727
 4977SOL     OW26389   1.244   1.382   2.660 -0.9365 -0.5503  0.0195
 4977SOL    HW126390   1.312   1.321   2.630 -0.7420 -0.1718 -0.3035
 4977SOL    HW226391   1.178   1.317   2.682 -0.6475 -0.8369  0.0425
 4978SOL     OW26392   0.829   3.852   6.444 -0.3438  0.2464  0.5684
 4978SOL    HW126393   0.833   3.939   6.406  0.8771 -0.5685 -1.1177
 4978SOL    HW226394   0.887   3.812   6.380 -1.0245  1.7402 -0.9653
 4979SOL     OW26395   1.733   1.778   1.845  0.0684 -0.4085  0.1051
 4979SOL    HW126396   1.697   1.866   1.832  0.4903 -0.4645 -1.4423
 4979SOL    HW226397   1.665   1.724   1.805  1.6315 -2.4697  0.2514
 4980SOL     OW26398   2.013   2.526   1.098  0.4214 -0.0166  0.0825
 4980SOL    HW126399   2.068   2.538   1.020  0.8529  2.0681  0.6963
 4980SOL    HW226400   2.069   2.545   1.174 -1.2144  1.2211  0.9946
 4981SOL     OW26401   0.659   4.716  15.612 -0.0929 -0.3507 -0.2548
 4981SOL    HW126402   0.727   4.703  15.678 -1.0770  1.4960  1.1145
 4981SOL    HW226403   0.580   4.688  15.658 -0.0016  0.3745  0.3538
 4982SOL     OW26404   0.742   3.620  17.546  0.1208  0.7877 -0.5818
 4982SOL    HW126405   0.770   3.537  17.586  0.7323  1.0781 -0.4125
 4982SOL    HW226406   0.647   3.623  17.560  0.2224 -1.3108  0.6568
 4983SOL     OW26407   4.320   1.602   5.391  0.0082  0.2548  0.4884
 4983SOL    HW126408   4.232   1.578   5.419 -0.6884  0.7625 -1.2523
 4983SOL    HW226409   4.336   1.674   5.452 -0.5844  0.6501  0.1834
 4984SOL     OW26410   1.352   3.787   5.313 -0.2663 -1.3296 -0.4941
 4984SOL    HW126411   1.291   3.782   5.239 -0.3587 -0.5473 -0.4795
 4984SOL    HW226412   1.364   3.882   5.319  2.2642 -1.8289  2.1332
 4985SOL     OW26413   1.806   3.018   5.316 -0.2477 -0.2145 -0.0779
 4985SOL    HW126414   1.797   3.014   5.411 -1.8305  1.2380 -0.1611
 4985SOL    HW226415   1.740   3.086   5.300 -0.4558 -0.0542  1.5022
 4986SOL     OW26416   1.630   1.679  11.759 -0.0876  0.6089  0.3791
 4986SOL    HW126417   1.571   1.608  11.738 -0.1451  0.6215  0.4993
 4986SOL    HW226418   1.717   1.643  11.738  0.5774  2.6137 -0.3464
 4987SOL     OW26419   4.007   1.200   6.278 -0.0361 -0.8737  0.6412
 4987SOL    HW126420   3.986   1.242   6.361  0.0461 -0.6653  0.5551
 4987SOL    HW226421   4.097   1.230   6.261  0.1934 -2.8417 -1.6022
 4988SOL     OW26422   4.582   3.351   1.246  0.4359 -0.5117 -0.2482
 4988SOL    HW126423   4.531   3.417   1.198 -2.2979 -1.5251  1.2436
 4988SOL    HW226424   4.652   3.405   1.283 -0.1643 -0.4629  0.7912
 4989SOL     OW26425   1.100   3.692   2.502 -0.2751  0.2324 -0.3228
 4989SOL    HW126426   1.121   3.770   2.452 -0.2231 -0.3320 -1.1956
 4989SOL    HW226427   1.175   3.636   2.481 -0.8677 -1.0131  0.8457
 4990SOL     OW26428   4.248   2.460  15.446  0.1079  0.4791 -0.1941
 4990SOL    HW126429   4.234   2.470  15.352  0.4241  1.4770 -0.1335
 4990SOL    HW226430   4.159   2.485  15.471 -0.5910 -2.7418  0.5404
 4991SOL     OW26431   0.660   3.864   1.232 -0.0532  0.0608 -0.0449
 4991SOL    HW126432   0.668   3.944   1.285 -1.5545 -0.0838  0.3908
 4991SOL    HW226433   0.572   3.842   1.263 -1.5397  0.9676 -3.6077
 4992SOL     OW26434   3.683   1.830   3.514  0.4850 -0.3098 -0.0757
 4992SOL    HW126435   3.655   1.746   3.551 -1.1000  0.3360  0.1890
 4992SOL    HW226436   3.715   1.879   3.590 -2.2361 -1.1667  1.6063
 4993SOL     OW26437   0.188   3.486   2.691  0.1170 -0.2292  0.0864
 4993SOL    HW126438   0.165   3.443   2.773  0.0351  1.4363  0.9372
 4993SOL    HW226439   0.105   3.521   2.658  0.3823  0.0074 -0.3451
 4994SOL     OW26440   1.142   3.926   8.244 -0.3858 -0.0306 -0.2454
 4994SOL    HW126441   1.059   3.918   8.292  2.0096  0.9580  3.9826
 4994SOL    HW226442   1.116   3.913   8.153  0.8984  2.2045 -0.9223
 4995SOL     OW26443   2.994   4.125  15.697  0.0224 -0.3133  0.1375
 4995SOL    HW126444   3.047   4.072  15.638 -0.0147  0.3822 -0.5165
 4995SOL    HW226445   2.924   4.135  15.633 -0.8014  0.5223  1.1648
 4996SOL     OW26446   4.524   2.307   3.448  0.5071 -0.4895 -0.0248
 4996SOL    HW126447   4.516   2.240   3.516  1.1949 -1.1450 -0.5875
 4996SOL    HW226448   4.544   2.381   3.505  1.6167  0.3043 -1.4343
 4997SOL     OW26449   2.767   2.942   2.264 -0.4378  0.1416  0.1345
 4997SOL    HW126450   2.698   2.926   2.199 -1.2648 -0.2104  1.0808
 4997SOL    HW226451   2.789   2.856   2.302 -0.4059 -0.6692 -1.7095
 4998SOL     OW26452   0.240   4.650   7.422  0.1494  0.5079 -0.3381
 4998SOL    HW126453   0.214   4.558   7.427  0.9609  0.2996  0.2236
 4998SOL    HW226454   0.237   4.671   7.516 -2.5688  4.4139 -1.3458
 4999SOL     OW26455   1.473   0.818  12.157 -0.4704 -0.4490  0.3103
 4999SOL    HW126456   1.492   0.909  12.181 -1.7535 -0.7644  2.5587
 4999SOL    HW226457   1.396   0.803  12.211  0.0794 -1.2920  0.8524
 5000SOL     OW26458   2.305   2.224   2.662  0.0232  0.4200  1.1112
 5000SOL    HW126459   2.319   2.178   2.745 -1.0531  1.0005  1.6030
 5000SOL    HW226460   2.340   2.163   2.597 -0.6462 -0.1470  1.2965
 5001SOL     OW26461   3.439   3.424   9.955 -0.0237  0.0692 -0.3915
 5001SOL    HW126462   3.427   3.330   9.971  1.1579  0.1040  0.6466
 5001SOL    HW226463   3.533   3.438   9.965 -0.1120 -1.4246  2.4519
 5002SOL     OW26464   0.009   3.077   1.629  0.1802  0.1076  0.1381
 5002SOL    HW126465   0.072   3.021   1.583 -0.6697  0.2257 -1.1893
 5002SOL    HW226466   0.064   3.154   1.642  1.3413 -1.0816  2.1605
 5003SOL     OW26467   2.040   3.349   3.576  0.4306  0.7112 -0.0701
 5003SOL    HW126468   2.062   3.427   3.626  3.0684 -1.0609  1.5083
 5003SOL    HW226469   2.009   3.384   3.492 -2.8372 -1.2198  0.3378
 5004SOL     OW26470   4.203   0.439   8.794  0.4347 -0.0869 -0.0339
 5004SOL    HW126471   4.182   0.399   8.878  0.6437 -0.5443 -0.1998
 5004SOL    HW226472   4.292   0.405   8.789 -0.0887 -1.7851  2.5024
 5005SOL     OW26473   2.864   2.940   7.724 -0.1898 -0.3979  0.2391
 5005SOL    HW126474   2.794   2.938   7.789 -0.9375  0.2913 -0.5418
 5005SOL    HW226475   2.923   2.868   7.744 -1.0496 -1.0738  0.3519
 5006SOL     OW26476   1.663   1.618  16.858  0.2521 -0.0031  0.3871
 5006SOL    HW126477   1.751   1.581  16.863 -0.9917 -2.9344  0.9162
 5006SOL    HW226478   1.669   1.676  16.783  0.2922 -1.3418 -0.6462
 5007SOL     OW26479   2.537   0.611   1.143  0.6613 -0.1757  0.0430
 5007SOL    HW126480   2.496   0.524   1.140 -0.2563  0.3313 -1.9691
 5007SOL    HW226481   2.590   0.620   1.064  0.3659 -0.1963 -0.1566
 5008SOL     OW26482   3.291   4.214  11.714 -0.3709 -0.1794 -0.1394
 5008SOL    HW126483   3.206   4.223  11.671  0.1404  1.8831 -0.7291
 5008SOL    HW226484   3.329   4.300  11.693 -1.3826  0.3361  0.1524
 5009SOL     OW26485   2.082   2.067   0.711 -0.8917  0.5061  0.7559
 5009SOL    HW126486   2.007   2.066   0.770  0.1484  0.4510  2.0717
 5009SOL    HW226487   2.153   2.095   0.769 -1.0886  1.3894  0.5682
 5010SOL     OW26488   2.446   3.255   9.526  0.4961  0.4581 -0.0825
 5010SOL    HW126489   2.512   3.314   9.490  1.3853 -1.3281 -1.3827
 5010SOL    HW226490   2.402   3.312   9.589  3.4496  3.6791 -0.9223
 5011SOL     OW26491   1.111   1.177   7.811 -0.4777  0.4726  0.1630
 5011SOL    HW126492   1.087   1.085   7.805 -1.0365  0.6799 -0.8876
 5011SOL    HW226493   1.158   1.174   7.894 -0.1986  1.5318  0.0470
 5012SOL     OW26494   1.960   0.224  11.094 -0.1782 -0.3715 -0.0866
 5012SOL    HW126495   1.891   0.183  11.146  0.1685 -0.3708  0.3758
 5012SOL    HW226496   1.970   0.306  11.144  0.2515 -1.5908  1.8214
 5013SOL     OW26497   2.262   3.321   4.069  0.3597 -0.6778  0.7054
 5013SOL    HW126498   2.209   3.269   4.009 -0.6503  2.0858 -0.7791
 5013SOL    HW226499   2.194   3.362   4.123  1.7175 -1.3635  2.9539
 5014SOL     OW26500   0.209   0.417   4.040 -0.0155 -0.2211  0.6153
 5014SOL    HW126501   0.246   0.413   3.952 -2.0151 -0.2214 -0.2259
 5014SOL    HW226502   0.121   0.381   4.025 -0.1638  0.7315 -0.8899
 5015SOL     OW26503   3.578   1.622   2.771  0.3013 -0.2382  0.1816
 5015SOL    HW126504   3.673   1.627   2.781  0.1698  0.4631  1.0285
 5015SOL    HW226505   3.579   1.543   2.716  0.8277  0.1477 -0.3670
 5016SOL     OW26506   0.655   2.069  10.864 -0.3398  0.2129  0.0895
 5016SOL    HW126507   0.567   2.049  10.896 -1.0671  1.9761 -0.8171
 5016SOL    HW226508   0.640   2.089  10.772  0.4318  0.2453 -0.0305
 5017SOL     OW26509   2.574   2.421   7.778  0.1472  0.2279  0.7052
 5017SOL    HW126510   2.528   2.345   7.811 -0.6259  1.8458  3.3258
 5017SOL    HW226511   2.638   2.441   7.845  1.0832  2.4107 -0.8252
 5018SOL     OW26512   3.530   2.100   5.354 -0.3569  0.3049  0.8369
 5018SOL    HW126513   3.563   2.178   5.400  1.0745  0.0747  0.2134
 5018SOL    HW226514   3.588   2.095   5.278 -2.4123 -0.0433 -0.6975
 5019SOL     OW26515   2.828   3.299  10.008  0.3357  0.0648  0.1980
 5019SOL    HW126516   2.864   3.377   9.966 -1.2095 -0.6830 -2.5618
 5019SOL    HW226517   2.886   3.301  10.084 -0.7452 -2.2281  1.0665
 5020SOL     OW26518   3.929   1.477   1.635  0.2194  0.5308 -0.1544
 5020SOL    HW126519   3.969   1.461   1.720  1.1680 -1.3371 -0.9621
 5020SOL    HW226520   3.931   1.392   1.591  1.3725  0.2487  0.4555
 5021SOL     OW26521   2.042   0.084   7.118  0.0813  0.1572 -0.4530
 5021SOL    HW126522   2.031   0.017   7.187  1.0710  0.5178  0.0577
 5021SOL    HW226523   1.954   0.086   7.082  0.0196 -0.0229 -0.3115
 5022SOL     OW26524   1.517   1.754   5.680  0.2780  0.5241 -0.4326
 5022SOL    HW126525   1.494   1.812   5.608 -0.2261  2.1291  1.0365
 5022SOL    HW226526   1.442   1.694   5.683  1.6150 -1.0428  1.7014
 5023SOL     OW26527   4.004   1.157  12.809  0.1428  0.2957 -0.3259
 5023SOL    HW126528   4.069   1.193  12.749  2.1149 -0.8120  1.0931
 5023SOL    HW226529   4.030   1.199  12.891 -0.6714 -1.3310  0.7772
 5024SOL     OW26530   1.361   0.053   2.527 -0.5346 -0.2165  0.5324
 5024SOL    HW126531   1.382   4.692   2.569 -1.5813 -0.1767  1.1288
 5024SOL    HW226532   1.432   0.054   2.462 -1.5231 -1.9151 -0.5817
 5025SOL     OW26533   2.826   2.598   7.816  0.0583  0.0804 -0.1747
 5025SOL    HW126534   2.805   2.687   7.845  2.4314  0.9053 -0.9560
 5025SOL    HW226535   2.811   2.553   7.899 -0.1076  0.2101 -0.1340
 5026SOL     OW26536   1.102   0.226   6.555  0.2628  0.1970  0.0179
 5026SOL    HW126537   1.135   0.242   6.644  3.6636 -0.4693 -1.1249
 5026SOL    HW226538   1.024   0.282   6.563  1.5419  2.0472 -0.3214
 5027SOL     OW26539   2.415   3.052   2.354 -0.6179  1.0393  0.2329
 5027SOL    HW126540   2.473   3.101   2.295  0.1181  1.4151  1.2666
 5027SOL    HW226541   2.335   3.048   2.301 -0.1585 -2.1730 -0.2521
 5028SOL     OW26542   2.205   0.762   7.502 -0.3176 -0.0781 -0.0390
 5028SOL    HW126543   2.253   0.680   7.517 -1.0382 -0.7812 -1.5634
 5028SOL    HW226544   2.265   0.829   7.534  0.4730 -1.0941  0.6441
 5029SOL     OW26545   1.169   2.976   1.776  0.3069 -0.1208  0.5168
 5029SOL    HW126546   1.087   2.956   1.731  0.2748  1.5357 -0.1858
 5029SOL    HW226547   1.212   3.040   1.718 -2.4522  1.2880  0.0243
 5030SOL     OW26548   2.377   3.520   4.204 -0.5147 -0.0012  0.0860
 5030SOL    HW126549   2.464   3.487   4.228  0.0728  1.4740 -0.0272
 5030SOL    HW226550   2.354   3.452   4.140 -1.1439 -0.3828  0.7184
 5031SOL     OW26551   0.484   2.504   8.517 -0.5936  0.0207 -0.0737
 5031SOL    HW126552   0.408   2.456   8.550 -0.8784  1.8013  1.8765
 5031SOL    HW226553   0.528   2.529   8.598 -1.0275 -0.5293  0.3260
 5032SOL     OW26554   0.741   1.016  14.617  0.4456 -0.1880 -0.2137
 5032SOL    HW126555   0.726   1.024  14.523  0.4742  1.8215 -0.0446
 5032SOL    HW226556   0.804   1.087  14.629 -0.0076  0.5250 -2.0831
 5033SOL     OW26557   2.726   4.298   0.191 -0.2421 -0.6953 -0.1240
 5033SOL    HW126558   2.821   4.301   0.188 -0.2964  2.0055  0.8999
 5033SOL    HW226559   2.703   4.249   0.112 -1.3499  0.8205 -0.7428
 5034SOL     OW26560   4.124   0.001   0.831 -0.1051 -0.2499 -0.2782
 5034SOL    HW126561   4.215   4.693   0.837  0.8003  1.9880 -2.8049
 5034SOL    HW226562   4.087   4.679   0.754 -0.0455 -1.0435  0.1437
 5035SOL     OW26563   0.787   1.583   3.725  0.5039  0.3589  0.9565
 5035SOL    HW126564   0.865   1.588   3.780  1.6275  0.5335 -0.6337
 5035SOL    HW226565   0.806   1.498   3.685 -0.4835 -0.6469  2.6236
 5036SOL     OW26566   1.865   1.341   2.453  0.0391 -0.2447 -0.0909
 5036SOL    HW126567   1.821   1.397   2.388  2.1992  1.4230 -0.1403
 5036SOL    HW226568   1.900   1.271   2.397 -0.9983 -2.0088  1.4908
 5037SOL     OW26569   2.810   1.609   4.210 -0.5605  0.1451 -0.2982
 5037SOL    HW126570   2.762   1.527   4.219  0.7126 -0.6429 -0.7484
 5037SOL    HW226571   2.892   1.584   4.252 -1.0091 -0.2664  0.3350
 5038SOL     OW26572   3.377   1.302   5.074 -0.0863 -0.0781  0.0877
 5038SOL    HW126573   3.397   1.357   5.150 -0.8619 -0.8323  0.8311
 5038SOL    HW226574   3.319   1.363   5.030 -1.8969 -1.4972  0.5293
 5039SOL     OW26575   1.096   4.433   4.444 -0.2421  0.2990  0.5808
 5039SOL    HW126576   1.022   4.407   4.499 -0.7069 -2.6852 -1.4457
 5039SOL    HW226577   1.129   4.513   4.484 -0.0392  1.4921 -1.9787
 5040SOL     OW26578   0.718   2.488   2.758 -0.5693 -0.1770 -0.1964
 5040SOL    HW126579   0.768   2.447   2.828  0.7929  2.2340  0.2407
 5040SOL    HW226580   0.783   2.556   2.741 -1.2618  0.7169  0.7504
 5041SOL     OW26581   4.451   3.344   2.314 -0.3051  0.1303 -0.6743
 5041SOL    HW126582   4.498   3.261   2.322 -0.1755  0.3643  0.9168
 5041SOL    HW226583   4.363   3.311   2.293 -1.1072  3.1515 -2.0593
 5042SOL     OW26584   3.524   3.923   3.606  0.6034 -0.3443 -0.3718
 5042SOL    HW126585   3.496   3.984   3.675 -0.8704 -2.0616  0.5427
 5042SOL    HW226586   3.455   3.858   3.620 -0.2165  1.0149  1.8750
 5043SOL     OW26587   3.297   1.893   3.392 -1.0682  0.1446  0.2052
 5043SOL    HW126588   3.252   1.837   3.328 -1.9073  1.0688 -0.0162
 5043SOL    HW226589   3.369   1.928   3.340 -0.3706  1.4370  2.0514
 5044SOL     OW26590   1.008   3.172   4.498 -0.1784 -0.0357  0.5269
 5044SOL    HW126591   1.044   3.160   4.411  1.5344  1.8320  0.9745
 5044SOL    HW226592   0.924   3.130   4.480  1.0944 -1.9305 -0.8735
 5045SOL     OW26593   2.554   3.587   5.858  0.4027  0.5069 -0.0404
 5045SOL    HW126594   2.494   3.589   5.933  0.5617 -4.7806  0.1993
 5045SOL    HW226595   2.515   3.641   5.789  2.9774  2.4944  0.0554
 5046SOL     OW26596   0.417   4.088   2.303  0.5600 -0.0802  0.4045
 5046SOL    HW126597   0.352   4.051   2.363  1.0295  1.2212  1.7070
 5046SOL    HW226598   0.486   4.125   2.358 -1.3494  3.9550  0.1045
 5047SOL     OW26599   2.131   3.045   7.685  0.1578  0.1559 -0.2699
 5047SOL    HW126600   2.183   2.971   7.653 -0.6194 -0.3951 -0.2782
 5047SOL    HW226601   2.188   3.112   7.648 -2.8589  2.5418 -0.6310
 5048SOL     OW26602   2.378   1.170   4.595  0.0201  0.4929  0.1965
 5048SOL    HW126603   2.366   1.126   4.511  2.1958 -1.7862  1.1000
 5048SOL    HW226604   2.314   1.241   4.594 -0.8062 -0.2751 -1.0364
 5049SOL     OW26605   3.394   4.067   4.987 -0.1455  0.1755 -0.0306
 5049SOL    HW126606   3.402   4.000   5.055 -0.5752 -0.6239 -0.7527
 5049SOL    HW226607   3.420   4.015   4.911  0.1034 -2.3781  1.7968
 5050SOL     OW26608   0.752   4.266   3.699  0.0075 -0.0972  0.3413
 5050SOL    HW126609   0.657   4.256   3.688  0.1197  0.2717 -0.9416
 5050SOL    HW226610   0.753   4.353   3.740  0.5342 -0.0031  0.1197
 5051SOL     OW26611   1.951   3.482  15.391 -0.9054 -0.0276  0.1493
 5051SOL    HW126612   1.911   3.472  15.304  0.2644 -1.5810 -0.2170
 5051SOL    HW226613   2.034   3.525  15.371  0.3983 -0.5728  4.3928
 5052SOL     OW26614   1.261   0.428   8.997 -0.3389  0.5492 -0.4726
 5052SOL    HW126615   1.323   0.455   9.065 -0.7282  1.4257 -0.4724
 5052SOL    HW226616   1.197   0.388   9.057  0.9388 -1.9405 -0.7413
 5053SOL     OW26617   2.657   0.296   3.691 -0.4313  0.7406  0.2719
 5053SOL    HW126618   2.610   0.326   3.613 -2.2357  0.9263  1.4149
 5053SOL    HW226619   2.730   0.356   3.683  1.1967 -1.1810  0.5729
 5054SOL     OW26620   1.149   1.795   5.879 -0.4762 -0.3459 -0.3252
 5054SOL    HW126621   1.196   1.869   5.842  2.3977 -1.0130  1.9938
 5054SOL    HW226622   1.220   1.734   5.899  0.1921  0.5223 -0.0848
 5055SOL     OW26623   4.002   2.729   0.986  0.3889  0.2971  0.0521
 5055SOL    HW126624   3.960   2.643   0.978  0.6827  0.1941 -0.4117
 5055SOL    HW226625   4.078   2.716   1.043  1.0482  0.4816 -0.7686
 5056SOL     OW26626   2.283   1.873   5.258 -0.2099 -0.2091 -0.0556
 5056SOL    HW126627   2.193   1.868   5.226  0.0348 -0.0316 -0.7669
 5056SOL    HW226628   2.294   1.966   5.281 -0.7203 -0.0278 -0.5449
 5057SOL     OW26629   0.876   0.485   6.802 -0.8373 -0.4779  0.3085
 5057SOL    HW126630   0.824   0.547   6.752  0.4276  0.4712  0.1712
 5057SOL    HW226631   0.830   0.408   6.769  2.3367 -1.0728 -2.7200
 5058SOL     OW26632   0.352   0.473   1.406 -0.4036 -0.0089  0.5385
 5058SOL    HW126633   0.296   0.403   1.373 -0.6513 -0.9486  2.9404
 5058SOL    HW226634   0.354   0.532   1.331  1.0223 -0.0031  0.5758
 5059SOL     OW26635   1.309   0.314  14.035  0.3673 -0.6787  0.4880
 5059SOL    HW126636   1.219   0.311  14.066  0.3187 -0.3890  0.3695
 5059SOL    HW226637   1.302   0.356  13.950 -2.4860  2.5275  2.3164
 5060SOL     OW26638   4.366   4.620  10.568  0.3807  0.2417  0.1582
 5060SOL    HW126639   4.274   4.643  10.579  0.2979 -0.0050 -0.0370
 5060SOL    HW226640   4.367   4.525  10.553 -0.3670  0.6439 -2.4514
 5061SOL     OW26641   1.953   2.991   4.293 -0.5059 -0.1059 -0.1556
 5061SOL    HW126642   1.952   3.001   4.197 -0.2561  2.1128  0.0902
 5061SOL    HW226643   2.015   2.922   4.319  0.2212  1.2916  1.7525
 5062SOL     OW26644   2.635   2.237   6.921  0.0626  0.2896 -0.4211
 5062SOL    HW126645   2.573   2.206   6.855  1.6565 -1.8450 -0.8891
 5062SOL    HW226646   2.590   2.206   6.999  0.5285 -1.2075 -0.7483
 5063SOL     OW26647   2.417   0.549   2.851 -0.3249  0.4270 -0.3250
 5063SOL    HW126648   2.472   0.481   2.813 -2.0991 -1.0790 -0.1958
 5063SOL    HW226649   2.413   0.616   2.783 -4.0090  2.6290  2.0989
 5064SOL     OW26650   2.250   0.685  14.332 -0.2661 -0.3382 -0.1028
 5064SOL    HW126651   2.302   0.740  14.274 -2.4961  2.5300  0.6278
 5064SOL    HW226652   2.315   0.685  14.403 -0.4409  2.4809  0.0472
 5065SOL     OW26653   3.934   0.152  16.900 -0.3398 -0.0097 -0.2890
 5065SOL    HW126654   4.025   0.181  16.904  0.0024 -1.1382  0.0825
 5065SOL    HW226655   3.893   0.169  16.985 -1.5324  1.6855 -1.2237
 5066SOL     OW26656   4.436   0.025   8.923 -0.1559 -0.5041 -0.4471
 5066SOL    HW126657   4.431   4.716   9.013 -1.1987  2.2521  0.4693
 5066SOL    HW226658   4.459   0.116   8.942 -1.2849  0.0023 -1.4293
 5067SOL     OW26659   2.484   4.721  17.343  0.0203  0.3248  0.2922
 5067SOL    HW126660   2.407   4.701  17.396  1.2841 -1.2991  1.5361
 5067SOL    HW226661   2.538   4.648  17.374  0.1208 -0.2359 -1.2152
 5068SOL     OW26662   1.972   0.529   5.383 -0.1825  0.1168  0.1354
 5068SOL    HW126663   2.013   0.615   5.389  0.0894 -0.0268  0.2936
 5068SOL    HW226664   2.000   0.495   5.467  0.3822  0.2298 -0.0105
 5069SOL     OW26665   1.086   3.078   3.158  0.4248  0.7236 -0.1006
 5069SOL    HW126666   1.057   3.003   3.211  1.9795 -0.2575 -0.6112
 5069SOL    HW226667   1.069   3.048   3.069 -1.5981  0.8038  0.2707
 5070SOL     OW26668   2.145   1.507  12.227  0.0574 -0.4653 -0.0028
 5070SOL    HW126669   2.204   1.479  12.297  2.8697  2.2902 -1.2798
 5070SOL    HW226670   2.059   1.487  12.265 -0.0835 -1.6560 -0.9260
 5071SOL     OW26671   0.351   2.978   4.896 -0.2123  0.0931  0.4499
 5071SOL    HW126672   0.279   2.951   4.838 -0.0000  0.7722 -0.1340
 5071SOL    HW226673   0.381   2.893   4.929  1.9659  0.8606  0.4542
 5072SOL     OW26674   0.528   0.834   8.136 -0.0957 -0.6128  0.3665
 5072SOL    HW126675   0.617   0.865   8.116 -1.2177  2.6235  0.3653
 5072SOL    HW226676   0.512   0.870   8.223  0.5895  1.1214 -0.2224
 5073SOL     OW26677   2.223   2.364  13.337  0.0351 -0.4003  0.5348
 5073SOL    HW126678   2.210   2.420  13.260  0.0777 -2.4169 -0.9356
 5073SOL    HW226679   2.317   2.376  13.352  0.3057 -0.3737 -1.1522
 5074SOL     OW26680   4.382   3.631   6.319 -0.0427  0.0109  0.3550
 5074SOL    HW126681   4.402   3.635   6.226  2.8080 -0.2333  0.9363
 5074SOL    HW226682   4.376   3.537   6.336 -0.7575 -0.5455 -3.0930
 5075SOL     OW26683   4.478   0.034   4.874  0.2416  0.4750  0.2133
 5075SOL    HW126684   4.395   0.080   4.888 -0.0240  0.8132 -2.5610
 5075SOL    HW226685   4.537   0.107   4.852  1.4191 -0.2354  1.0043
 5076SOL     OW26686   3.808   0.849  11.704 -0.5392  0.4132  0.4561
 5076SOL    HW126687   3.899   0.849  11.675 -0.4296  2.2672  0.8406
 5076SOL    HW226688   3.760   0.828  11.624  0.2034 -2.1972  0.6863
 5077SOL     OW26689   1.348   2.315  14.523  0.1452  0.0438  0.3777
 5077SOL    HW126690   1.374   2.395  14.477 -2.2709  1.0887  0.8523
 5077SOL    HW226691   1.343   2.336  14.616 -0.2033  1.5206  0.0131
 5078SOL     OW26692   1.923   2.854   6.715 -0.8317  0.4430 -0.0387
 5078SOL    HW126693   1.988   2.904   6.766 -0.2204 -2.1275  1.7023
 5078SOL    HW226694   1.943   2.762   6.732 -3.6913 -0.1949 -0.1168
 5079SOL     OW26695   4.552   4.299   1.603  0.6278 -0.0421  0.1167
 5079SOL    HW126696   4.506   4.301   1.519 -0.5316 -1.2170  0.7117
 5079SOL    HW226697   4.561   4.206   1.624  1.3062 -0.6288 -2.7785
 5080SOL     OW26698   4.184   0.767   2.194 -0.0414 -0.2735  0.1837
 5080SOL    HW126699   4.108   0.776   2.136  0.2955  0.7209 -0.1060
 5080SOL    HW226700   4.171   0.847   2.245  1.4393 -0.5078  0.9295
 5081SOL     OW26701   3.779   4.480   8.246 -0.2735 -0.0750 -0.3471
 5081SOL    HW126702   3.872   4.457   8.246 -0.3188 -0.2716  0.4142
 5081SOL    HW226703   3.745   4.406   8.296 -0.6310  1.8089  2.2517
 5082SOL     OW26704   3.476   4.305   5.014  0.7686 -0.2602 -0.3074
 5082SOL    HW126705   3.468   4.209   5.014 -0.5502 -0.1356  0.9787
 5082SOL    HW226706   3.561   4.317   4.970  0.1094  0.0554 -1.4950
 5083SOL     OW26707   2.569   3.603   2.654  0.1098 -0.2559  0.0608
 5083SOL    HW126708   2.547   3.670   2.590 -2.1793 -0.3662  0.7581
 5083SOL    HW226709   2.511   3.542   2.607  0.8640 -0.3979 -0.6918
 5084SOL     OW26710   4.298   1.199   9.578  0.2155 -0.1573  0.2155
 5084SOL    HW126711   4.307   1.260   9.651 -1.0745 -3.0386  2.7989
 5084SOL    HW226712   4.321   1.248   9.500  0.6176 -0.8158 -0.0831
 5085SOL     OW26713   0.511   3.354   2.303  0.1279  0.1585  0.5411
 5085SOL    HW126714   0.496   3.264   2.272 -1.2714  0.3708  0.5818
 5085SOL    HW226715   0.428   3.396   2.279  0.3496 -1.2789 -2.6907
 5086SOL     OW26716   2.708   0.483   8.146 -0.0213  0.2909 -0.0187
 5086SOL    HW126717   2.663   0.413   8.193  0.2024 -0.1375 -0.4496
 5086SOL    HW226718   2.771   0.509   8.213  1.7851  1.1515 -2.0391
 5087SOL     OW26719   1.301   0.764   4.047 -0.1344 -0.4550 -0.6446
 5087SOL    HW126720   1.274   0.784   4.137 -0.4438 -0.4072 -0.7475
 5087SOL    HW226721   1.397   0.768   4.052 -0.1877  0.4767 -0.3475
 5088SOL     OW26722   0.649   3.486   6.431  0.3419 -0.0696 -0.5749
 5088SOL    HW126723   0.608   3.557   6.481  0.1302 -0.8234  0.3108
 5088SOL    HW226724   0.726   3.479   6.489 -0.7338 -0.3852  0.8068
 5089SOL     OW26725   1.259   0.828   9.893  0.3970  0.6432 -0.1192
 5089SOL    HW126726   1.266   0.790   9.805 -2.2617  0.7004 -0.3678
 5089SOL    HW226727   1.170   0.810   9.925  0.1796 -1.5201 -1.9106
 5090SOL     OW26728   1.559   1.317   8.445 -0.0356 -0.6774  0.0702
 5090SOL    HW126729   1.524   1.228   8.455  0.3441 -0.8551 -0.2043
 5090SOL    HW226730   1.574   1.325   8.351  0.2574 -1.9740  0.0032
 5091SOL     OW26731   0.620   3.502   2.944 -0.2127 -0.1968 -0.8445
 5091SOL    HW126732   0.603   3.553   2.864 -2.2996 -1.2888 -1.1061
 5091SOL    HW226733   0.685   3.444   2.904  0.1862  0.9233 -1.8376
 5092SOL     OW26734   2.327   1.381   3.678 -0.7291 -0.6022  0.1007
 5092SOL    HW126735   2.350   1.404   3.768 -0.7297 -0.2994  0.0225
 5092SOL    HW226736   2.351   1.289   3.693 -4.3939 -1.8646 -1.8074
 5093SOL     OW26737   0.599   1.980   9.590  0.2230  0.3149  0.0549
 5093SOL    HW126738   0.583   2.066   9.629 -0.7730 -0.5828  1.6517
 5093SOL    HW226739   0.609   1.920   9.664  0.9570 -0.7131 -0.8784
 5094SOL     OW26740   3.964   0.770   4.717  0.1630 -0.2332  0.0220
 5094SOL    HW126741   3.989   0.678   4.725  0.6325 -0.2935 -2.1656
 5094SOL    HW226742   4.024   0.809   4.653 -0.7434 -2.0833 -1.9634
 5095SOL     OW26743   0.987   3.562   4.109  0.2849  0.0692 -0.3815
 5095SOL    HW126744   0.931   3.577   4.185 -1.3426  2.2731 -2.0510
 5095SOL    HW226745   0.940   3.611   4.042 -1.6721  0.5486  1.3696
 5096SOL     OW26746   2.688   4.718  10.642 -0.1829  0.6372 -0.1805
 5096SOL    HW126747   2.616   4.684  10.695  0.4098 -0.3179  0.0084
 5096SOL    HW226748   2.754   4.667  10.689 -2.7587 -1.2257  1.3953
 5097SOL     OW26749   1.792   1.250   7.296  0.5516 -0.0797 -0.7711
 5097SOL    HW126750   1.786   1.155   7.281 -1.9554  0.1554 -1.2018
 5097SOL    HW226751   1.885   1.270   7.306  1.1446 -2.7257 -0.8224
 5098SOL     OW26752   2.684   0.964   8.518  0.1271 -0.8207  0.4734
 5098SOL    HW126753   2.663   1.054   8.493  0.9781 -0.5628  0.7158
 5098SOL    HW226754   2.774   0.963   8.486 -0.3292 -1.6947 -0.7811
 5099SOL     OW26755   2.494   4.250   9.231  0.4969 -0.3127  0.4066
 5099SOL    HW126756   2.537   4.259   9.316  1.0667  0.7822  0.0045
 5099SOL    HW226757   2.493   4.155   9.226 -3.1314 -0.1082 -2.0792
 5100SOL     OW26758   3.046   1.882  11.523 -0.5099  0.2996 -0.6283
 5100SOL    HW126759   2.957   1.868  11.555  0.7871  0.3892  3.0306
 5100SOL    HW226760   3.062   1.964  11.570  0.9431 -1.0123  1.1806
 5101SOL     OW26761   1.965   3.217   5.797 -0.4532  0.0972 -0.2101
 5101SOL    HW126762   1.878   3.180   5.784 -1.0083  0.8767  1.3085
 5101SOL    HW226763   1.954   3.312   5.795  2.1716  0.3823 -1.0445
 5102SOL     OW26764   0.597   0.097  12.218  0.6945 -0.6813 -0.5380
 5102SOL    HW126765   0.672   0.059  12.264  1.3106  1.0079 -0.1194
 5102SOL    HW226766   0.533   0.029  12.234 -0.4992  0.5052 -0.2550
 5103SOL     OW26767   0.037   2.092   2.445  0.0209 -0.4403 -0.7026
 5103SOL    HW126768   4.711   2.010   2.450 -1.3169  0.2892 -1.8207
 5103SOL    HW226769   4.715   2.143   2.513  1.5065  0.3282 -0.3068
 5104SOL     OW26770   0.291   1.738   7.113 -0.3451  0.1434 -0.0458
 5104SOL    HW126771   0.367   1.710   7.062  0.2207 -0.6804  1.2486
 5104SOL    HW226772   0.228   1.713   7.046 -1.5859  0.7906  0.8853
 5105SOL     OW26773   2.659   1.409   5.129 -0.2041 -0.0349 -0.1822
 5105SOL    HW126774   2.746   1.415   5.090 -0.9502 -1.5002 -2.0598
 5105SOL    HW226775   2.653   1.314   5.125  1.1118 -0.1017 -0.5052
 5106SOL     OW26776   4.628   3.752   9.243 -0.2862 -0.3787 -0.3650
 5106SOL    HW126777   4.700   3.797   9.199 -0.8683  0.0886 -0.8449
 5106SOL    HW226778   4.572   3.743   9.166 -1.1458  0.6319  0.1402
 5107SOL     OW26779   1.292   1.325   5.528 -0.5312 -0.3856  0.4375
 5107SOL    HW126780   1.317   1.294   5.615 -2.3780 -0.3482  0.9601
 5107SOL    HW226781   1.363   1.384   5.503 -0.0452 -0.1730  2.3846
 5108SOL     OW26782   0.819   2.010   5.574  0.2489  0.2062 -0.0397
 5108SOL    HW126783   0.731   1.977   5.594 -0.1750  0.9848 -0.6266
 5108SOL    HW226784   0.804   2.033   5.483 -0.6482  0.8004  0.2594
 5109SOL     OW26785   3.644   1.861   2.640  0.3254  0.2202  0.1561
 5109SOL    HW126786   3.633   1.817   2.724  2.6400  0.7147  0.7067
 5109SOL    HW226787   3.632   1.798   2.569  0.5076  2.1390 -1.5823
 5110SOL     OW26788   2.782   4.710   4.919  0.3532  0.1131 -0.0753
 5110SOL    HW126789   2.852   4.703   4.983  0.6290 -2.1395 -0.6245
 5110SOL    HW226790   2.723   0.044   4.969 -1.5309 -1.6871 -0.2935
 5111SOL     OW26791   1.750   2.022   4.311 -0.0907 -0.5365 -0.1829
 5111SOL    HW126792   1.760   1.933   4.276  0.2494  0.3566 -2.3448
 5111SOL    HW226793   1.695   1.998   4.386  0.6649 -0.0548  0.5129
 5112SOL     OW26794   2.904   3.122   9.782 -0.1192  0.3649 -0.0002
 5112SOL    HW126795   2.893   3.163   9.868  0.5831  0.1037  0.2202
 5112SOL    HW226796   2.957   3.044   9.800  0.9547  0.7089 -1.6882
 5113SOL     OW26797   0.711   3.843   2.434 -0.1513  0.1494 -0.1577
 5113SOL    HW126798   0.739   3.797   2.355  0.4135  2.4850 -1.3189
 5113SOL    HW226799   0.626   3.802   2.448 -0.3475  0.0525 -1.6438
 5114SOL     OW26800   0.401   4.006   3.072 -0.6040  0.0297  0.1303
 5114SOL    HW126801   0.354   4.035   3.150 -0.6682 -0.1353  0.1528
 5114SOL    HW226802   0.340   4.005   2.998 -0.1047  0.5391 -0.2888
 5115SOL     OW26803   1.588   1.040   2.904 -0.3806 -0.9731  0.0151
 5115SOL    HW126804   1.539   0.958   2.909 -0.5059 -0.8763  0.4186
 5115SOL    HW226805   1.643   1.032   2.827 -2.0394 -2.3072 -1.0299
 5116SOL     OW26806   2.571   0.422  15.996 -0.5624 -0.5773  0.1748
 5116SOL    HW126807   2.514   0.438  16.071  0.6541  3.1179  0.3245
 5116SOL    HW226808   2.634   0.494  15.996 -1.9890  0.6774 -1.2497
 5117SOL     OW26809   1.127   1.737  12.782  0.1376  0.1546  0.2069
 5117SOL    HW126810   1.056   1.753  12.844  0.1117 -0.0028  0.2183
 5117SOL    HW226811   1.158   1.651  12.809 -1.0050 -1.0304 -2.3119
 5118SOL     OW26812   0.850   2.220   8.896 -0.2699  0.7141 -0.3222
 5118SOL    HW126813   0.890   2.137   8.924  3.4852  2.4017 -0.8001
 5118SOL    HW226814   0.925   2.260   8.853  0.0442  0.8037  0.3007
 5119SOL     OW26815   3.831   3.086  15.636 -0.1006  0.6416 -0.1924
 5119SOL    HW126816   3.789   3.154  15.688 -0.1427  0.7289 -0.3415
 5119SOL    HW226817   3.771   3.014  15.654  0.8103 -0.2280 -0.6094
 5120SOL     OW26818   1.775   2.949  17.145  0.4326  0.2286  0.7473
 5120SOL    HW126819   1.803   2.971  17.056 -0.0600  1.1887  0.8354
 5120SOL    HW226820   1.681   2.969  17.141  0.3991  0.2627  1.7021
 5121SOL     OW26821   3.584   1.086   9.053  0.2972  0.5005  0.0417
 5121SOL    HW126822   3.521   1.016   9.068 -0.0000  0.2455 -2.4697
 5121SOL    HW226823   3.653   1.066   9.117  2.4513  1.6419 -1.9176
 5122SOL     OW26824   4.700   1.132   8.977  0.5255 -0.4328  0.1162
 5122SOL    HW126825   0.010   1.050   9.013 -0.4673 -0.3481  1.2213
 5122SOL    HW226826   4.714   1.114   8.885 -0.3895 -0.8142  0.0498
 5123SOL     OW26827   2.149   1.368  12.674  0.0073  0.1163  0.0982
 5123SOL    HW126828   2.154   1.400  12.764  0.6470  0.5411 -0.0910
 5123SOL    HW226829   2.060   1.332  12.677  0.2567 -0.3701  1.3931
 5124SOL     OW26830   4.237   0.558   3.404 -0.3301  0.4442 -0.2372
 5124SOL    HW126831   4.240   0.630   3.467 -0.0379 -1.1733  1.5906
 5124SOL    HW226832   4.326   0.526   3.415 -1.1016 -1.6996 -0.1910
 5125SOL     OW26833   3.412   3.728   3.355  0.3639 -0.0725 -0.0309
 5125SOL    HW126834   3.402   3.717   3.449 -1.1491 -0.9991 -0.3110
 5125SOL    HW226835   3.322   3.736   3.324  0.1429 -1.3262  0.2790
 5126SOL     OW26836   3.456   1.289  13.781 -0.2759  0.1947 -0.5360
 5126SOL    HW126837   3.541   1.259  13.749  0.4574  3.8479 -2.0251
 5126SOL    HW226838   3.480   1.305  13.873 -0.9704 -3.8015  0.3292
 5127SOL     OW26839   0.547   1.601   8.700 -0.0334  0.1127 -0.0670
 5127SOL    HW126840   0.515   1.513   8.717  1.5155 -0.1532  1.4704
 5127SOL    HW226841   0.527   1.600   8.607 -0.0156 -1.7564 -0.0422
 5128SOL     OW26842   3.256   1.840   9.088  0.3396 -0.1590  0.0116
 5128SOL    HW126843   3.319   1.844   9.160 -0.4127  1.1386  0.6038
 5128SOL    HW226844   3.218   1.753   9.097  0.3323 -0.1446  0.1171
 5129SOL     OW26845   1.523   0.616   2.299  0.0309 -0.2979 -0.2256
 5129SOL    HW126846   1.467   0.540   2.317 -1.6495  0.7429 -1.1021
 5129SOL    HW226847   1.602   0.562   2.294  0.5748  0.7375 -2.6534
 5130SOL     OW26848   3.549   4.407   1.279  0.6849 -0.0364 -0.4535
 5130SOL    HW126849   3.538   4.405   1.184 -0.3472 -1.2764 -0.2928
 5130SOL    HW226850   3.576   4.499   1.280  3.0330 -0.7338  0.8908
 5131SOL     OW26851   1.587   3.940   4.326 -0.0566  0.2211 -0.4386
 5131SOL    HW126852   1.628   3.905   4.405  0.3362  3.0512  0.6071
 5131SOL    HW226853   1.509   3.986   4.356  0.8829  2.8314 -1.9336
 5132SOL     OW26854   2.115   2.260   4.792  0.1041  0.6942  0.1627
 5132SOL    HW126855   2.123   2.187   4.853 -0.1984  1.3536  0.9960
 5132SOL    HW226856   2.086   2.335   4.843 -1.2721 -0.6182  1.2944
 5133SOL     OW26857   3.122   3.736   1.545 -0.2566  0.5783 -0.5216
 5133SOL    HW126858   3.133   3.742   1.450 -0.9459 -1.5179 -0.7473
 5133SOL    HW226859   3.157   3.820   1.574 -1.6451  0.1353  2.3890
 5134SOL     OW26860   4.517   0.510  17.048 -0.0906  0.4246  0.3863
 5134SOL    HW126861   4.485   0.537  16.962  0.6020 -0.3327 -0.1109
 5134SOL    HW226862   4.465   0.557  17.112 -0.2817 -1.4152  1.5901
 5135SOL     OW26863   1.448   1.147   8.867 -0.2323 -0.4713 -0.3001
 5135SOL    HW126864   1.501   1.146   8.946 -0.5946 -0.2214 -0.0533
 5135SOL    HW226865   1.362   1.181   8.893  0.1002  0.5586 -0.5500
 5136SOL     OW26866   3.921   2.428   7.770  0.1541 -0.3695  0.0407
 5136SOL    HW126867   3.892   2.517   7.751  1.1729 -0.2006 -0.7279
 5136SOL    HW226868   4.013   2.436   7.746  0.2364 -0.1987  0.4148
 5137SOL     OW26869   1.092   4.454   5.477  1.0455  0.5189 -0.5424
 5137SOL    HW126870   1.163   4.489   5.531  0.9948 -2.2365  1.3576
 5137SOL    HW226871   1.132   4.466   5.391 -0.1326  0.3441 -1.1103
 5138SOL     OW26872   0.184   3.301   7.212 -0.0636 -0.1008 -0.6574
 5138SOL    HW126873   0.191   3.317   7.118  0.5853  0.7442 -0.4709
 5138SOL    HW226874   0.255   3.359   7.241 -1.9663  0.6699  2.5720
 5139SOL     OW26875   1.002   4.522  12.396  0.1968 -0.1629  0.0532
 5139SOL    HW126876   1.060   4.530  12.472 -0.6432 -0.6638  0.7488
 5139SOL    HW226877   1.044   4.460  12.336 -0.8104  0.7466 -1.5890
 5140SOL     OW26878   2.266   2.825  12.200  0.0105 -0.3662  0.3486
 5140SOL    HW126879   2.225   2.771  12.132 -2.8096  0.4859  1.3939
 5140SOL    HW226880   2.353   2.826  12.161 -0.3604  1.1149 -0.4219
 5141SOL     OW26881   0.684   3.073   0.015 -0.0228 -0.2754 -0.2846
 5141SOL    HW126882   0.615   3.054   0.078 -0.2346  2.7117  0.3886
 5141SOL    HW226883   0.757   3.051   0.072 -0.4045 -0.2014  0.2317
 5142SOL     OW26884   1.575   1.529  10.414 -0.0879 -0.0637  0.0025
 5142SOL    HW126885   1.540   1.580  10.487 -0.4871 -0.8471  0.3558
 5142SOL    HW226886   1.661   1.504  10.448 -0.6272 -1.3225  0.4281
 5143SOL     OW26887   1.452   4.721   7.630 -0.4552  0.6658 -0.0006
 5143SOL    HW126888   1.445   0.093   7.618  1.3980  1.0779  2.3680
 5143SOL    HW226889   1.388   4.676   7.575 -1.8373  2.0560  0.4862
 5144SOL     OW26890   4.475   1.659   7.142 -0.3303 -0.1667 -0.5703
 5144SOL    HW126891   4.547   1.613   7.099  0.2262  0.0844  0.0865
 5144SOL    HW226892   4.487   1.751   7.116  2.2291 -0.1494  0.7050
 5145SOL     OW26893   2.373   1.120   3.412 -0.4727  0.3782  0.0178
 5145SOL    HW126894   2.298   1.089   3.462  0.8612  1.3826  2.6641
 5145SOL    HW226895   2.437   1.058   3.448  1.2646  1.7342 -0.7122
 5146SOL     OW26896   2.447   0.692   9.482 -0.0614  0.6640  0.1505
 5146SOL    HW126897   2.423   0.785   9.487 -2.6027  0.1128 -1.8032
 5146SOL    HW226898   2.492   0.683   9.398  0.0057 -0.2026  0.2809
 5147SOL     OW26899   0.185   2.517   3.600  0.1847 -0.1063  0.7586
 5147SOL    HW126900   0.172   2.551   3.511  1.1508 -3.8472 -0.8352
 5147SOL    HW226901   0.126   2.568   3.655 -2.1926 -1.5945 -0.4175
 5148SOL     OW26902   1.312   1.534   9.045  0.0770  0.4383 -0.1207
 5148SOL    HW126903   1.314   1.607   9.108 -0.1677  1.4558 -1.2992
 5148SOL    HW226904   1.310   1.569   8.956 -1.6338  0.0340 -0.2420
 5149SOL     OW26905   4.527   4.271   6.129  0.6526  0.0488  0.1857
 5149SOL    HW126906   4.443   4.267   6.175  0.2540  1.3236 -0.4500
 5149SOL    HW226907   4.491   4.300   6.046  0.6290  1.1778  0.5904
 5150SOL     OW26908   1.188   3.224   4.707 -0.6435 -0.0455 -0.1144
 5150SOL    HW126909   1.140   3.212   4.626 -1.8172  0.2460  0.5337
 5150SOL    HW226910   1.273   3.251   4.671 -0.3702  0.8056  1.1577
 5151SOL     OW26911   1.619   2.367  14.421 -0.0335  0.7343 -0.4032
 5151SOL    HW126912   1.547   2.412  14.377 -0.3716  1.5425  0.9546
 5151SOL    HW226913   1.574   2.282  14.421 -0.9708  1.2282 -1.2048
 5152SOL     OW26914   0.371   1.761   0.470 -0.1157  0.0527  0.0758
 5152SOL    HW126915   0.366   1.740   0.563  1.2680 -2.5236 -0.4142
 5152SOL    HW226916   0.421   1.684   0.441 -1.5677  0.0161 -2.3084
 5153SOL     OW26917   3.674   4.023  17.014  0.0868 -0.0116 -0.1229
 5153SOL    HW126918   3.640   4.105  16.978 -0.7202 -0.7101 -0.9198
 5153SOL    HW226919   3.734   4.051  17.084  3.1389  0.9483 -3.0902
 5154SOL     OW26920   4.131   2.579   4.847  0.5053  0.3615 -0.5864
 5154SOL    HW126921   4.108   2.643   4.914  1.6428  1.2219 -1.0095
 5154SOL    HW226922   4.096   2.495   4.877 -0.5247 -0.1541 -3.2741
 5155SOL     OW26923   3.534   2.279   0.667  0.7626 -0.0032  0.0074
 5155SOL    HW126924   3.465   2.315   0.722 -1.7204 -2.8910 -1.2278
 5155SOL    HW226925   3.511   2.186   0.658 -0.3303  0.0724  2.1760
 5156SOL     OW26926   1.892   0.195   5.715 -0.2386  0.0423  0.2745
 5156SOL    HW126927   1.862   0.273   5.762 -1.0642  0.0737 -0.3098
 5156SOL    HW226928   1.986   0.191   5.736  0.2651  1.5346 -1.6930
 5157SOL     OW26929   2.740   0.975   8.211  0.4339  0.8171  0.1600
 5157SOL    HW126930   2.800   0.955   8.283  2.4368  0.1613 -1.6724
 5157SOL    HW226931   2.655   0.951   8.248 -0.7173  3.5015 -0.7438
 5158SOL     OW26932   3.584   4.266   8.295 -0.4151  0.2867  0.7869
 5158SOL    HW126933   3.539   4.212   8.230  0.9000  0.0718  0.0551
 5158SOL    HW226934   3.624   4.192   8.342 -1.1642 -1.7755 -1.8000
 5159SOL     OW26935   0.416   3.481   9.317 -0.0146 -0.5705 -0.1396
 5159SOL    HW126936   0.492   3.493   9.260 -2.2604 -0.5085 -3.1855
 5159SOL    HW226937   0.356   3.554   9.299  1.2369  0.4730 -0.0619
 5160SOL     OW26938   1.544   1.979  13.576 -0.2141 -0.0651 -0.0520
 5160SOL    HW126939   1.615   2.016  13.524  0.8587 -3.5128 -1.0283
 5160SOL    HW226940   1.515   2.055  13.627  1.1098  0.3461  0.1053
 5161SOL     OW26941   4.656   4.054   8.635 -0.2526 -0.0219 -0.2531
 5161SOL    HW126942   0.009   3.996   8.636 -0.8562 -0.8151 -1.4126
 5161SOL    HW226943   4.619   4.039   8.722  1.4866  0.0604  0.5095
 5162SOL     OW26944   2.934   0.335  15.739  0.2461  0.1849  0.4475
 5162SOL    HW126945   2.891   0.351  15.655  0.8289 -1.0789 -0.1011
 5162SOL    HW226946   2.969   0.247  15.725  2.0983  0.6256  2.2507
 5163SOL     OW26947   2.987   2.656  10.241  0.0277 -0.3380 -0.2956
 5163SOL    HW126948   2.914   2.703  10.282 -0.7500 -1.4410 -0.4162
 5163SOL    HW226949   3.054   2.723  10.233  0.2617 -0.7866 -2.0644
 5164SOL     OW26950   3.814   2.412   0.425  0.1490 -0.6904  0.1183
 5164SOL    HW126951   3.846   2.328   0.455  1.0531 -1.0325 -1.8075
 5164SOL    HW226952   3.760   2.443   0.498  1.8685  1.1810  0.6070
 5165SOL     OW26953   0.324   0.299   6.904  0.1888 -0.7840 -0.0694
 5165SOL    HW126954   0.332   0.338   6.991 -1.3773 -1.0133  0.1695
 5165SOL    HW226955   0.233   0.269   6.904 -0.4873  1.2690 -2.1285
 5166SOL     OW26956   1.316   3.303   9.200 -0.2708 -0.0621 -0.6682
 5166SOL    HW126957   1.235   3.346   9.172 -0.6166 -0.8872 -0.9321
 5166SOL    HW226958   1.274   3.231   9.247  2.5430 -1.5188 -0.4043
 5167SOL     OW26959   0.887   1.625   0.212  0.0852  0.0343 -0.1106
 5167SOL    HW126960   0.870   1.688   0.142  0.7697  0.7195  0.3396
 5167SOL    HW226961   0.811   1.567   0.216  1.6171 -1.9770 -0.0118
 5168SOL     OW26962   1.295   1.833   0.077 -0.2877  0.4399  0.2474
 5168SOL    HW126963   1.345   1.842   0.158  2.0481  0.0958 -1.1578
 5168SOL    HW226964   1.232   1.764   0.100 -1.1239  1.6922  1.7590
 5169SOL     OW26965   1.011   1.158   8.373 -0.2800 -0.5721  0.7255
 5169SOL    HW126966   0.995   1.183   8.464 -1.1916  2.5419 -0.3005
 5169SOL    HW226967   0.950   1.084   8.374 -0.7785 -0.1635  0.2846
 5170SOL     OW26968   0.822   3.075   7.636  0.6318  0.2040  0.1174
 5170SOL    HW126969   0.769   3.151   7.613  1.2776  0.0852 -1.8256
 5170SOL    HW226970   0.757   3.027   7.687 -0.4582  0.8218 -0.6890
 5171SOL     OW26971   2.134   3.448   6.143 -0.4874  0.4246 -0.2961
 5171SOL    HW126972   2.106   3.480   6.228  1.5491  1.7157 -0.1170
 5171SOL    HW226973   2.068   3.380   6.131  0.3053 -0.5864  1.0972
 5172SOL     OW26974   3.513   0.648   6.609 -0.1010  0.4127  0.3105
 5172SOL    HW126975   3.468   0.685   6.685 -3.0993 -0.0622 -1.2309
 5172SOL    HW226976   3.440   0.653   6.548 -0.0908 -0.5704  0.2102
 5173SOL     OW26977   1.112   0.165  17.610  0.1368  0.5256 -0.0010
 5173SOL    HW126978   1.035   0.222  17.622 -0.9937 -1.2448  1.2782
 5173SOL    HW226979   1.081   0.119  17.532  0.2035  0.5161 -0.0211
 5174SOL     OW26980   2.085   2.551   8.410  0.0132 -0.3771 -0.1215
 5174SOL    HW126981   2.163   2.514   8.451 -0.4810  0.6579  1.7166
 5174SOL    HW226982   2.130   2.609   8.348  1.1456 -1.8455 -0.6825
 5175SOL     OW26983   1.122   3.720   7.683  0.4053  0.3740  0.1685
 5175SOL    HW126984   1.181   3.687   7.616  1.5286 -1.8104  2.2076
 5175SOL    HW226985   1.150   3.673   7.762 -0.8395  1.7461  1.4371
 5176SOL     OW26986   2.924   0.929   8.405  0.1845  0.3732 -0.1457
 5176SOL    HW126987   2.974   1.006   8.378 -0.1617  0.1301 -1.4410
 5176SOL    HW226988   2.977   0.878   8.467 -0.6599  0.1719  0.4175
 5177SOL     OW26989   3.602   2.620   6.991 -0.3096 -0.1859  0.3981
 5177SOL    HW126990   3.530   2.650   6.935 -2.1910 -0.1739  2.7974
 5177SOL    HW226991   3.553   2.556   7.043 -2.3858 -1.2312 -2.8286
 5178SOL     OW26992   1.234   1.809   8.651  0.7415  0.2302  0.3255
 5178SOL    HW126993   1.169   1.879   8.643  0.7348  0.1991  0.1124
 5178SOL    HW226994   1.251   1.785   8.560  1.0492  3.6925 -0.5201
 5179SOL     OW26995   2.971   4.685   3.619 -0.1269  0.2507  0.3365
 5179SOL    HW126996   3.020   4.622   3.672  0.0008  0.8016  0.8851
 5179SOL    HW226997   2.883   4.660   3.649  0.6849 -1.7764  1.0190
 5180SOL     OW26998   2.452   3.317   0.136  0.0230 -0.0565  0.0971
 5180SOL    HW126999   2.363   3.347   0.119  0.1968 -0.7790 -2.1131
 5180SOL    HW227000   2.452   3.329   0.231  0.3597  1.9774 -0.1578
 5181SOL     OW27001   3.369   3.830   2.724  0.6467 -0.0769  0.5688
 5181SOL    HW127002   3.284   3.830   2.766  0.7028  1.7970  0.6646
 5181SOL    HW227003   3.357   3.808   2.631  1.8006  2.3220 -0.1660
 5182SOL     OW27004   0.329   0.305   8.813  0.0587 -0.3944 -0.1106
 5182SOL    HW127005   0.279   0.241   8.864  1.5639 -0.4300  1.3241
 5182SOL    HW227006   0.263   0.373   8.806 -1.5515 -2.1463 -1.8894
 5183SOL     OW27007   4.136   4.163   3.048 -0.6489  0.1618 -0.1283
 5183SOL    HW127008   4.105   4.253   3.038 -2.2990 -0.4530 -0.6398
 5183SOL    HW227009   4.099   4.137   3.133  1.3226  1.0617  1.0119
 5184SOL     OW27010   3.508   3.206   6.212  0.2586 -0.0716  0.4901
 5184SOL    HW127011   3.526   3.118   6.179  0.5747  0.6521 -1.2278
 5184SOL    HW227012   3.579   3.258   6.175  3.2062 -1.9790  3.4555
 5185SOL     OW27013   0.796   0.857   8.425  0.3384  0.4851 -0.0028
 5185SOL    HW127014   0.811   0.770   8.389  0.9016  0.3957  0.4570
 5185SOL    HW227015   0.865   0.858   8.491  2.1900 -0.7022 -1.9246
 5186SOL     OW27016   4.686   2.718  15.340  0.3958  0.1060  0.1557
 5186SOL    HW127017   4.676   2.670  15.422  0.0744  1.8457  1.1311
 5186SOL    HW227018   4.594   2.739  15.325  0.7880  1.1789 -0.7592
 5187SOL     OW27019   4.029   0.372  11.006 -0.3727 -0.2063 -0.0257
 5187SOL    HW127020   4.031   0.379  10.911  0.3138  5.4244  0.3730
 5187SOL    HW227021   4.120   0.396  11.025 -0.8513  1.3947  0.2907
 5188SOL     OW27022   4.161   0.903   8.635 -0.2885 -0.3015  0.1645
 5188SOL    HW127023   4.244   0.857   8.641 -0.1022 -0.0163 -0.1939
 5188SOL    HW227024   4.182   0.993   8.609  0.5025 -0.8320 -1.0433
 5189SOL     OW27025   4.482   4.441   1.831  0.0147 -0.2622 -0.0764
 5189SOL    HW127026   4.416   4.378   1.863  0.4093 -0.5756  0.1158
 5189SOL    HW227027   4.496   4.414   1.740 -1.2297  0.2003 -0.4159
 5190SOL     OW27028   0.672   3.342   0.544  0.1500 -0.1994  0.9572
 5190SOL    HW127029   0.647   3.268   0.600  1.1484 -0.4082  1.1287
 5190SOL    HW227030   0.752   3.376   0.587 -0.3902 -0.6331  2.3030
 5191SOL     OW27031   4.023   2.028  17.514 -0.5201  0.3413 -0.3227
 5191SOL    HW127032   4.014   2.108  17.463 -0.7838  0.8824  0.5658
 5191SOL    HW227033   3.937   2.023  17.556 -0.6799 -0.5030 -0.7520
 5192SOL     OW27034   3.237   4.712   8.097  0.1043  0.1162 -0.2625
 5192SOL    HW127035   3.242   4.657   8.176  0.3520 -0.7541 -0.8850
 5192SOL    HW227036   3.326   4.706   8.064  0.7427  2.1031  1.0750
 5193SOL     OW27037   3.275   1.311  10.928 -0.4468  0.4356  0.5910
 5193SOL    HW127038   3.371   1.308  10.928 -0.4821  0.0937 -3.2499
 5193SOL    HW227039   3.253   1.287  11.018 -0.3240  1.5318  0.9233
 5194SOL     OW27040   0.365   1.389   7.287  0.4668 -0.0297  0.4111
 5194SOL    HW127041   0.365   1.372   7.381 -1.3426  0.3652  0.4725
 5194SOL    HW227042   0.406   1.475   7.288 -1.5415  0.9004  1.4873
 5195SOL     OW27043   4.014   1.684   1.488  0.2427 -0.4106  0.0366
 5195SOL    HW127044   3.989   1.610   1.544 -0.2949 -1.8871 -2.1313
 5195SOL    HW227045   3.946   1.672   1.421  1.3820  0.4989 -1.2748
 5196SOL     OW27046   1.964   3.989   0.450 -0.2552  0.0380  0.3860
 5196SOL    HW127047   1.990   4.064   0.503  0.9826 -1.6223  2.0884
 5196SOL    HW227048   1.894   3.951   0.503  0.7596  0.1983  1.8447
 5197SOL     OW27049   3.442   4.688  10.411 -0.1693  0.0520  0.0478
 5197SOL    HW127050   3.454   4.642  10.328  0.2241  0.1145  0.0737
 5197SOL    HW227051   3.467   0.053  10.381 -0.5366 -0.3587 -1.4643
 5198SOL     OW27052   3.192   4.356   8.070 -0.1330  0.0504  0.2903
 5198SOL    HW127053   3.273   4.402   8.094 -0.0304 -0.8680  1.6585
 5198SOL    HW227054   3.169   4.303   8.146  0.6158  0.1547  0.5905
 5199SOL     OW27055   1.842   0.809   9.250  0.2870 -1.0047 -0.0671
 5199SOL    HW127056   1.894   0.762   9.315  0.3365  1.2390  1.5274
 5199SOL    HW227057   1.891   0.784   9.172  0.5601 -0.2255 -0.1434
 5200SOL     OW27058   2.561   0.606   6.719 -0.1651  0.5789 -0.3113
 5200SOL    HW127059   2.495   0.536   6.712 -1.7600  1.9509  0.9092
 5200SOL    HW227060   2.542   0.647   6.803  0.7437  1.2618 -0.4436
 5201SOL     OW27061   3.637   1.828   7.718 -0.4343  0.1837  0.5331
 5201SOL    HW127062   3.581   1.765   7.763 -0.6949  0.3649  0.4655
 5201SOL    HW227063   3.580   1.899   7.747  2.1024  2.3300  0.2957
 5202SOL     OW27064   2.581   1.192   9.325 -0.7717 -0.3046 -0.1794
 5202SOL    HW127065   2.668   1.189   9.367 -1.6501 -1.6042  1.5767
 5202SOL    HW227066   2.611   1.218   9.239  1.1482 -0.5242  0.4090
 5203SOL     OW27067   4.450   4.679   8.298  0.2376 -0.4306  0.0739
 5203SOL    HW127068   4.513   0.028   8.308 -1.2779  0.7512  1.0448
 5203SOL    HW227069   4.479   4.629   8.374  1.3410 -2.8128 -1.9191
 5204SOL     OW27070   2.906   2.180   8.401  0.2470 -0.2174  0.4250
 5204SOL    HW127071   2.947   2.263   8.428 -2.3027  0.7463  1.2975
 5204SOL    HW227072   2.819   2.198   8.436 -0.3458  0.3653 -1.3701
 5205SOL     OW27073   0.984   1.130  14.899 -0.0933  0.6949  0.0135
 5205SOL    HW127074   1.022   1.045  14.875 -1.3267  0.5784 -1.5417
 5205SOL    HW227075   0.947   1.143  14.811 -0.3905 -0.1065  0.0180
 5206SOL     OW27076   0.624   1.062  17.680 -0.0636 -0.1667 -0.6585
 5206SOL    HW127077   0.610   1.156  17.674 -0.0130 -0.2831 -2.8525
 5206SOL    HW227078   0.557   1.035  17.617 -1.0957 -0.1889  0.4488
 5207SOL     OW27079   3.986   0.914  10.167 -0.8345  0.1150  0.4282
 5207SOL    HW127080   3.991   0.821  10.145 -0.8170  0.0674  0.6337
 5207SOL    HW227081   3.925   0.920  10.241 -0.0442  2.0729  0.9260
 5208SOL     OW27082   1.032   2.242  10.611  0.4762 -0.3313  0.6520
 5208SOL    HW127083   1.022   2.315  10.673 -1.4323 -1.7614  2.0225
 5208SOL    HW227084   0.945   2.238  10.571  0.5194  1.6589  0.3477
 5209SOL     OW27085   1.710   3.163   7.017 -0.4412 -0.4475  0.3455
 5209SOL    HW127086   1.766   3.228   7.061 -1.2255  1.7640 -1.9114
 5209SOL    HW227087   1.750   3.081   7.045 -2.4171 -1.3185  0.5879
 5210SOL     OW27088   4.375   4.503  17.123  0.4747  0.1428  0.1568
 5210SOL    HW127089   4.394   4.566  17.192  1.5534 -1.7726  1.5807
 5210SOL    HW227090   4.293   4.468  17.158  0.1071 -0.6091 -1.4351
 5211SOL     OW27091   2.059   3.369   4.741  0.3427 -0.0219  0.2908
 5211SOL    HW127092   2.107   3.293   4.774 -1.1916  0.6907  4.1375
 5211SOL    HW227093   2.060   3.427   4.817 -2.0015  0.5379 -0.1135
 5212SOL     OW27094   1.112   2.524   2.147 -0.3276 -0.2299 -0.0232
 5212SOL    HW127095   1.033   2.577   2.140 -0.4758 -0.3970  0.3887
 5212SOL    HW227096   1.095   2.448   2.090  1.5611 -0.4520 -0.3215
 5213SOL     OW27097   0.260   1.760   9.737 -0.2239  0.1096 -0.3661
 5213SOL    HW127098   0.313   1.835   9.708 -0.1439 -0.0880 -0.7294
 5213SOL    HW227099   0.260   1.694   9.668 -1.4176 -0.5722  0.3008
 5214SOL     OW27100   2.520   1.430   2.025  0.0019  0.7749 -0.2682
 5214SOL    HW127101   2.476   1.414   1.942 -2.6956 -0.9000  1.4468
 5214SOL    HW227102   2.537   1.341   2.057 -0.8489  1.0616  1.0198
 5215SOL     OW27103   0.744   3.624   6.071  0.1866 -0.1462 -0.4424
 5215SOL    HW127104   0.662   3.636   6.118 -0.7005 -1.1650 -1.7469
 5215SOL    HW227105   0.722   3.659   5.985 -2.3089  0.4822  0.4701
 5216SOL     OW27106   3.090   0.570   7.421  0.3834 -0.6836 -0.1605
 5216SOL    HW127107   3.065   0.508   7.489 -0.9223  0.7930  0.7058
 5216SOL    HW227108   3.007   0.617   7.408  0.4628 -0.3895  0.3810
 5217SOL     OW27109   1.307   4.697   6.269 -0.7300 -0.6162  0.1395
 5217SOL    HW127110   1.377   4.669   6.210 -2.6029 -1.5913 -1.6076
 5217SOL    HW227111   1.349   4.670   6.351  1.8671 -0.6102 -1.1963
 5218SOL     OW27112   4.538   2.599   5.108  0.8932  0.1229  0.1764
 5218SOL    HW127113   4.443   2.592   5.118  0.6528  1.2898 -1.1642
 5218SOL    HW227114   4.537   2.614   5.013  0.8851 -0.0331  0.1522
 5219SOL     OW27115   1.751   2.412   6.398 -0.4877 -0.5278 -0.1550
 5219SOL    HW127116   1.715   2.446   6.316 -2.6209 -3.0658 -0.2642
 5219SOL    HW227117   1.790   2.330   6.367  0.0243 -0.2308 -0.2977
 5220SOL     OW27118   3.937   0.349  12.469  0.0745 -0.4267 -0.1581
 5220SOL    HW127119   3.964   0.436  12.439  2.4704 -0.4860  1.7460
 5220SOL    HW227120   3.994   0.346  12.546 -1.4195 -2.5946  0.8491
 5221SOL     OW27121   3.759   0.870   5.353  0.1157 -0.4193  0.0204
 5221SOL    HW127122   3.687   0.894   5.411  1.5606  1.6756  0.9434
 5221SOL    HW227123   3.723   0.798   5.301 -1.9946  1.3620 -0.9868
 5222SOL     OW27124   3.834   4.231   7.191 -0.4556 -0.1437  0.1233
 5222SOL    HW127125   3.795   4.184   7.265  0.8933  2.5591  2.5424
 5222SOL    HW227126   3.873   4.294   7.251 -1.0358 -1.3669  1.7934
 5223SOL     OW27127   4.655   3.171   6.455 -0.7508 -0.3999 -0.2587
 5223SOL    HW127128   4.655   3.255   6.409  0.9690  0.6760  1.6564
 5223SOL    HW227129   0.024   3.147   6.440 -1.0022 -1.0367 -0.7253
 5224SOL     OW27130   3.305   2.924   3.904  0.4779  0.2352  0.0774
 5224SOL    HW127131   3.359   2.865   3.852 -0.9123 -0.7324 -0.2519
 5224SOL    HW227132   3.296   2.986   3.831 -1.1227 -0.0734  0.0094
 5225SOL     OW27133   3.571   0.245  14.943 -0.1048  0.0418  0.0039
 5225SOL    HW127134   3.644   0.184  14.935  0.0905  0.5020 -1.6930
 5225SOL    HW227135   3.532   0.208  15.023 -0.6665 -2.5136 -1.4315
 5226SOL     OW27136   1.106   2.960   2.037 -0.3348 -0.3792 -0.5742
 5226SOL    HW127137   1.180   2.946   2.096 -1.6045 -0.0408  1.0843
 5226SOL    HW227138   1.143   2.971   1.949  0.5011 -0.7084 -0.2620
 5227SOL     OW27139   2.162   2.967  13.321 -0.0213 -0.5361  0.0216
 5227SOL    HW127140   2.230   2.922  13.370 -1.9728 -1.9861  1.4102
 5227SOL    HW227141   2.204   3.045  13.286  0.1517  0.1007  1.6262
 5228SOL     OW27142   2.176   3.976   3.589 -0.3753  0.2229  0.2713
 5228SOL    HW127143   2.167   4.052   3.532  2.0689  0.8528  0.7147
 5228SOL    HW227144   2.124   3.999   3.666 -0.1228 -0.8719  0.7759
 5229SOL     OW27145   0.612   0.725   9.119 -0.4582  0.4018 -0.0564
 5229SOL    HW127146   0.704   0.712   9.140 -0.6253  0.5701  0.7882
 5229SOL    HW227147   0.587   0.635   9.138  2.2624 -0.3112  0.0591
 5230SOL     OW27148   0.950   3.508   3.415 -0.0947 -0.3027 -0.2613
 5230SOL    HW127149   1.040   3.481   3.434  1.0041  5.2808  2.5010
 5230SOL    HW227150   0.946   3.598   3.446  0.3766 -0.8549  1.3896
 5231SOL     OW27151   2.165   1.408   6.698 -0.2846 -0.5937 -0.0067
 5231SOL    HW127152   2.081   1.437   6.732 -0.1365 -0.5882  0.3597
 5231SOL    HW227153   2.182   1.502   6.688  0.2973 -0.7353 -0.3748
 5232SOL     OW27154   0.440   3.629   4.946  0.4211  0.4208 -0.0678
 5232SOL    HW127155   0.493   3.607   4.869  0.0357 -1.1595  0.1219
 5232SOL    HW227156   0.445   3.543   4.988 -2.5466  0.8159  1.0655
 5233SOL     OW27157   4.631   3.697   7.464  0.2054  0.2086  0.5755
 5233SOL    HW127158   4.671   3.770   7.416  2.8767 -1.2883  0.5237
 5233SOL    HW227159   4.556   3.734   7.511  0.8637  1.3346  0.7232
 5234SOL     OW27160   3.528   4.347   6.443  0.0707 -0.1134  0.0202
 5234SOL    HW127161   3.542   4.319   6.353  0.1958  0.5591 -0.1675
 5234SOL    HW227162   3.546   4.441   6.442 -1.2698  0.1274 -1.0483
 5235SOL     OW27163   2.661   3.498   2.352  0.0044 -0.2927  0.4377
 5235SOL    HW127164   2.700   3.561   2.292  0.4412  0.4418  1.4842
 5235SOL    HW227165   2.712   3.531   2.426  0.3543 -0.4448  0.2592
 5236SOL     OW27166   2.446   2.196  10.301 -0.2679 -0.1398 -0.8078
 5236SOL    HW127167   2.436   2.277  10.253  2.2113  1.2943  1.0617
 5236SOL    HW227168   2.375   2.143  10.265 -0.9097  1.4651 -1.8589
 5237SOL     OW27169   4.262   3.768   1.076 -0.3322 -0.1887 -0.3690
 5237SOL    HW127170   4.191   3.713   1.110 -0.0985 -1.3027 -1.6696
 5237SOL    HW227171   4.262   3.835   1.144 -0.3504 -1.4782  0.8873
 5238SOL     OW27172   1.064   2.457  11.391  0.0044  0.5550 -0.1808
 5238SOL    HW127173   1.043   2.520  11.460  0.0208  1.8080 -1.3186
 5238SOL    HW227174   1.146   2.421  11.427  0.7000 -0.3001 -2.6422
 5239SOL     OW27175   0.147   3.629   5.832  0.5977 -0.0036  0.0209
 5239SOL    HW127176   0.119   3.609   5.922 -0.6546  0.0780 -0.3533
 5239SOL    HW227177   0.147   3.538   5.802  2.2304 -0.3537  1.0887
 5240SOL     OW27178   1.703   1.753   2.448  0.2777 -0.1782 -0.2714
 5240SOL    HW127179   1.612   1.779   2.435 -0.1746 -1.2449  0.6809
 5240SOL    HW227180   1.698   1.662   2.417 -0.5208 -0.2816  0.1740
 5241SOL     OW27181   4.175   1.531   9.725  0.1511 -0.3377  0.0966
 5241SOL    HW127182   4.267   1.542   9.701  0.2133 -1.3537 -0.1225
 5241SOL    HW227183   4.150   1.619   9.699 -0.6236 -1.1401 -1.8617
 5242SOL     OW27184   1.932   2.101   7.255 -0.0019  0.0846 -0.0719
 5242SOL    HW127185   1.957   2.063   7.339  3.1947  0.1252 -1.0030
 5242SOL    HW227186   1.871   2.033   7.227  3.3633 -3.0392  0.0726
 5243SOL     OW27187   0.012   0.596   1.254  0.3678  0.3151 -0.3187
 5243SOL    HW127188   0.070   0.589   1.330  1.2815 -1.0981 -1.1552
 5243SOL    HW227189   0.044   0.680   1.222 -1.8506  0.4181 -2.2979
 5244SOL     OW27190   3.415   4.416   8.787 -0.0660  0.0690  0.0660
 5244SOL    HW127191   3.324   4.445   8.795  0.4227  0.7654  3.4464
 5244SOL    HW227192   3.429   4.426   8.693 -0.1882  0.3309  0.0759
 5245SOL     OW27193   2.657   2.956  16.441  0.2769  0.1339 -0.0180
 5245SOL    HW127194   2.609   2.877  16.414  0.6247  0.2361 -0.9603
 5245SOL    HW227195   2.590   3.021  16.461  1.4059  1.3603 -0.2195
 5246SOL     OW27196   3.520   2.576   4.559  0.1680 -0.0749 -0.2920
 5246SOL    HW127197   3.582   2.552   4.627  1.7544 -0.8634 -2.0311
 5246SOL    HW227198   3.551   2.530   4.481 -2.4589 -1.5426 -0.4694
 5247SOL     OW27199   4.522   2.697   7.065  0.4113 -0.0472 -0.2732
 5247SOL    HW127200   4.479   2.782   7.063  1.4988  0.4936 -0.3486
 5247SOL    HW227201   4.494   2.687   6.974  2.4388  0.0338 -0.9009
 5248SOL     OW27202   2.221   0.473   4.091  0.7357 -0.1369  0.4247
 5248SOL    HW127203   2.311   0.449   4.112  0.7028 -0.3046  0.3714
 5248SOL    HW227204   2.203   0.417   4.016 -0.0156  1.1478 -0.3732
 5249SOL     OW27205   0.413   4.119   0.094 -0.4060  0.1100  0.7276
 5249SOL    HW127206   0.408   4.026   0.070  0.4240 -0.2329  1.8591
 5249SOL    HW227207   0.498   4.138   0.055 -1.7927  0.7044 -1.9772
 5250SOL     OW27208   3.892   3.451   7.423 -0.6985 -0.1692 -0.8382
 5250SOL    HW127209   3.962   3.458   7.358  0.7292  1.9573  0.9337
 5250SOL    HW227210   3.846   3.374   7.389  1.1064 -0.5244 -2.4895
 5251SOL     OW27211   3.381   1.957  17.267 -0.5311  0.3311 -0.2169
 5251SOL    HW127212   3.395   2.043  17.228  3.3838 -0.9838 -1.6851
 5251SOL    HW227213   3.384   1.904  17.187  1.4324  1.5718 -0.9570
 5252SOL     OW27214   3.301   0.998   7.073  0.1978 -0.2928 -0.1366
 5252SOL    HW127215   3.360   0.994   6.998 -0.0838 -1.6428 -0.2796
 5252SOL    HW227216   3.246   1.070   7.043  0.3824  0.4971  1.4024
 5253SOL     OW27217   3.290   2.630   4.711  0.3478 -0.3792 -0.0657
 5253SOL    HW127218   3.302   2.721   4.684  2.0004 -0.5260  0.1898
 5253SOL    HW227219   3.373   2.588   4.690  0.1376 -1.2285  0.8307
 5254SOL     OW27220   4.294   4.556  12.472 -0.3158  0.4072 -0.2776
 5254SOL    HW127221   4.295   4.587  12.562 -0.6757  0.7862 -0.4074
 5254SOL    HW227222   4.200   4.542  12.461 -0.1759 -1.5461  0.9264
 5255SOL     OW27223   4.008   1.345   0.040 -0.0498 -0.0639  0.3410
 5255SOL    HW127224   4.022   1.255   0.009  1.6453  0.6268 -0.9021
 5255SOL    HW227225   4.064   1.325   0.116 -1.3458  0.8012  1.5040
 5256SOL     OW27226   3.586   3.856   2.398 -0.1038  0.6509  0.5084
 5256SOL    HW127227   3.661   3.876   2.454  0.9367 -1.3038 -0.2295
 5256SOL    HW227228   3.571   3.926   2.335  0.5324  0.0440 -0.3063
 5257SOL     OW27229   3.660   0.962   6.241  0.3043 -0.3218  0.2638
 5257SOL    HW127230   3.639   0.937   6.331  3.1296 -3.7555 -0.0189
 5257SOL    HW227231   3.756   0.963   6.242  0.2959  0.0590  1.0481
 5258SOL     OW27232   0.840   3.776   0.834 -0.6296  0.1062 -0.8568
 5258SOL    HW127233   0.893   3.807   0.908  1.7079  0.3120 -2.6382
 5258SOL    HW227234   0.764   3.746   0.884  0.1142  0.1790  0.3412
 5259SOL     OW27235   2.975   0.353   8.458 -0.1319 -0.5769  0.4000
 5259SOL    HW127236   3.034   0.287   8.422  1.2791  0.0331  1.6128
 5259SOL    HW227237   2.936   0.303   8.531  0.4503 -3.3570 -1.2269
 5260SOL     OW27238   4.016   3.617  12.161  0.3228  0.3572 -0.2438
 5260SOL    HW127239   4.002   3.534  12.115  1.2820 -1.3582  2.5614
 5260SOL    HW227240   4.047   3.593  12.248 -1.5938 -1.6137 -0.0876
 5261SOL     OW27241   3.971   1.108   2.737  0.1881 -0.4150 -0.4254
 5261SOL    HW127242   4.008   1.171   2.799  0.2068 -0.3297 -0.5242
 5261SOL    HW227243   3.898   1.080   2.792 -1.0434 -0.9501 -2.3264
 5262SOL     OW27244   0.099   2.611   8.690 -0.1501 -0.1984 -0.6441
 5262SOL    HW127245   0.168   2.549   8.713  1.1097  2.1506  1.9693
 5262SOL    HW227246   0.058   2.562   8.619  0.4054 -1.2350 -0.2548
 5263SOL     OW27247   0.617   0.031   2.501  0.3565 -0.8259 -0.2180
 5263SOL    HW127248   0.644   0.103   2.443 -0.1495 -0.3668  0.1200
 5263SOL    HW227249   0.641   0.074   2.583 -2.2428  0.1538  0.0281
 5264SOL     OW27250   3.681   2.680  16.196  0.0417  0.6204  0.4541
 5264SOL    HW127251   3.599   2.703  16.152  0.6858 -1.8007 -2.0081
 5264SOL    HW227252   3.673   2.724  16.280  2.3634  1.9014 -0.0002
 5265SOL     OW27253   0.487   3.352   1.547  0.0395  0.3414  0.3395
 5265SOL    HW127254   0.407   3.303   1.529 -0.0419  0.1155  1.3263
 5265SOL    HW227255   0.553   3.285   1.564 -0.3796  0.1001  0.9997
 5266SOL     OW27256   3.529   1.249   2.869 -0.1534  0.0215 -0.4133
 5266SOL    HW127257   3.591   1.179   2.848 -0.4882 -0.3069 -0.3001
 5266SOL    HW227258   3.534   1.295   2.785  2.8777  0.9781  0.2756
 5267SOL     OW27259   1.349   0.012   5.230 -0.0546  0.0747  0.4576
 5267SOL    HW127260   1.341   0.077   5.299  0.4230  0.5758  0.0464
 5267SOL    HW227261   1.377   0.072   5.160  0.0442 -0.0321  0.4034
 5268SOL     OW27262   0.298   1.129  11.686 -0.2713 -0.2696  0.1943
 5268SOL    HW127263   0.314   1.175  11.603  2.1110 -0.2781  0.6410
 5268SOL    HW227264   0.368   1.066  11.668  0.5165  1.0238 -1.3381
 5269SOL     OW27265   3.984   3.485  12.763 -0.4072 -0.2171 -0.2201
 5269SOL    HW127266   4.048   3.471  12.693  0.1531 -0.8205  0.4057
 5269SOL    HW227267   3.969   3.578  12.748 -1.4202 -0.3989 -0.2894
 5270SOL     OW27268   4.249   1.431   2.942  0.0269  0.1243  0.0684
 5270SOL    HW127269   4.196   1.510   2.938 -3.0326 -1.8456  1.4852
 5270SOL    HW227270   4.315   1.453   2.876  0.8447  1.0888  1.2209
 5271SOL     OW27271   1.224   0.527  15.705  0.6399  0.0877 -0.1534
 5271SOL    HW127272   1.177   0.455  15.663 -1.8834  1.6131  0.0198
 5271SOL    HW227273   1.158   0.553  15.769  1.6184  0.5046  0.6932
 5272SOL     OW27274   2.790   4.432   3.640 -0.5818 -0.2743  0.2884
 5272SOL    HW127275   2.867   4.397   3.684  0.4157  0.5862 -0.7588
 5272SOL    HW227276   2.729   4.446   3.712  0.9712 -1.5381  1.8467
 5273SOL     OW27277   1.138   2.121   5.362  0.5123  0.3001 -0.0244
 5273SOL    HW127278   1.066   2.106   5.300  0.5470  0.1768 -0.0355
 5273SOL    HW227279   1.193   2.047   5.335 -1.2999 -0.8061 -0.6732
 5274SOL     OW27280   1.539   1.221   3.097 -0.0761  0.4611 -0.1730
 5274SOL    HW127281   1.563   1.146   3.042 -0.4258  0.8761 -0.8854
 5274SOL    HW227282   1.521   1.283   3.027 -1.8834  1.1372  0.9030
 5275SOL     OW27283   1.709   0.741   6.565  0.2594 -0.1181 -0.2538
 5275SOL    HW127284   1.787   0.782   6.603  1.3422 -1.7534 -0.7203
 5275SOL    HW227285   1.650   0.812   6.542 -0.1477 -0.4872 -0.3364
 5276SOL     OW27286   2.791   0.488  14.794 -0.4681 -0.3914 -0.7183
 5276SOL    HW127287   2.807   0.539  14.873  1.6433 -0.1445 -1.3051
 5276SOL    HW227288   2.696   0.481  14.799 -0.4681  1.5130  1.5607
 5277SOL     OW27289   2.143   0.848   9.581  0.1106  0.5500  0.4649
 5277SOL    HW127290   2.163   0.936   9.551 -1.7210  1.1127  0.8685
 5277SOL    HW227291   2.076   0.818   9.520  0.6540  0.2316  0.0281
 5278SOL     OW27292   3.933   3.609   5.205 -0.1281 -0.2127 -0.2237
 5278SOL    HW127293   4.008   3.649   5.161  0.3208 -1.0102 -0.1866
 5278SOL    HW227294   3.966   3.563   5.282 -0.0878 -0.6956 -0.5258
 5279SOL     OW27295   0.186   1.112   6.548 -0.2905  0.6176 -0.6346
 5279SOL    HW127296   0.258   1.169   6.521  0.5059 -0.4945 -0.8230
 5279SOL    HW227297   0.205   1.113   6.642 -2.1380  0.3258 -0.2465
 5280SOL     OW27298   1.459   1.702   3.045 -0.1642 -0.1534 -0.6336
 5280SOL    HW127299   1.364   1.702   3.033 -0.4201 -3.1870  1.2544
 5280SOL    HW227300   1.474   1.654   2.963  2.0842  1.9439 -1.4584
 5281SOL     OW27301   1.369   3.738   4.131 -0.2916 -0.7962 -0.2138
 5281SOL    HW127302   1.296   3.778   4.178  1.7617  1.3637  1.1472
 5281SOL    HW227303   1.384   3.655   4.177 -1.8855 -0.6662  0.5178
 5282SOL     OW27304   0.292   1.788   2.715 -0.2043  0.1604 -0.0457
 5282SOL    HW127305   0.278   1.842   2.637 -0.5747 -0.7384 -0.5995
 5282SOL    HW227306   0.381   1.822   2.730 -0.5422  0.7271  0.6923
 5283SOL     OW27307   2.578   2.979   8.267 -0.4683  0.3084 -0.7319
 5283SOL    HW127308   2.629   2.897   8.265 -1.0945 -0.1571  2.1005
 5283SOL    HW227309   2.641   3.024   8.323  1.3022 -1.8983 -0.8951
 5284SOL     OW27310   0.840   0.844  11.301 -0.0460  0.1457  0.6150
 5284SOL    HW127311   0.846   0.940  11.302 -1.7391  0.2552 -0.6457
 5284SOL    HW227312   0.927   0.813  11.275 -0.4060  1.8523 -2.6426
 5285SOL     OW27313   0.521   1.772  14.327  0.0976  0.2877  0.2110
 5285SOL    HW127314   0.507   1.786  14.234 -2.1556  0.3326  0.5519
 5285SOL    HW227315   0.541   1.858  14.365 -0.7103  0.8931 -0.7295
 5286SOL     OW27316   3.723   1.084   9.292  0.0178  0.1844  0.1286
 5286SOL    HW127317   3.680   1.130   9.363  1.6040  0.8824  0.6404
 5286SOL    HW227318   3.806   1.129   9.278 -0.1707  1.1515  2.2371
 5287SOL     OW27319   3.925   0.255   5.770  0.1108  0.1611 -0.8035
 5287SOL    HW127320   3.915   0.332   5.713 -1.5788  0.5549  0.0171
 5287SOL    HW227321   4.013   0.226   5.750 -0.6452 -1.5057 -1.6554
 5288SOL     OW27322   4.421   1.138   3.951  0.1958  0.5674  0.4915
 5288SOL    HW127323   4.353   1.154   4.015 -0.4389 -1.8280  0.4203
 5288SOL    HW227324   4.404   1.045   3.935  0.1803  0.8110 -0.9209
 5289SOL     OW27325   0.981   0.870   8.647 -0.1026 -0.9343 -0.3270
 5289SOL    HW127326   0.968   0.943   8.708  1.0531  0.6819 -2.0189
 5289SOL    HW227327   1.064   0.831   8.676  0.3853 -1.5551 -2.5431
 5290SOL     OW27328   0.698   1.277   6.344  0.0326 -0.1529 -0.5370
 5290SOL    HW127329   0.627   1.265   6.281 -1.7847 -0.3893  1.5625
 5290SOL    HW227330   0.694   1.372   6.353 -0.4316 -0.1447 -0.8115
 5291SOL     OW27331   0.476   4.364  10.620 -0.0424 -0.3183 -0.2201
 5291SOL    HW127332   0.480   4.337  10.711 -1.0020  1.1562  0.2494
 5291SOL    HW227333   0.435   4.449  10.633 -1.6038 -0.9688 -0.8179
 5292SOL     OW27334   0.566   2.465   4.947 -0.7811 -0.3387  0.3989
 5292SOL    HW127335   0.585   2.500   5.034  0.1257 -0.6429  0.3315
 5292SOL    HW227336   0.485   2.510   4.926 -0.0401  0.0741 -1.5659
 5293SOL     OW27337   2.001   2.923   1.170  0.0194 -0.0532 -0.1540
 5293SOL    HW127338   1.972   2.986   1.237 -1.0249 -0.3849 -0.3048
 5293SOL    HW227339   1.934   2.916   1.102 -0.1657 -2.2498  0.2504
 5294SOL     OW27340   4.688   3.586   2.610  0.2419 -0.1473 -0.6466
 5294SOL    HW127341   4.622   3.522   2.584 -0.7969  0.8534 -0.4586
 5294SOL    HW227342   4.624   3.638   2.659 -0.1958 -0.4132 -0.9398
 5295SOL     OW27343   3.684   4.264   2.269 -0.4915  0.2308 -0.1753
 5295SOL    HW127344   3.752   4.282   2.334  0.5707  1.2406 -1.5740
 5295SOL    HW227345   3.612   4.231   2.323 -1.4312  0.4461 -1.3148
 5296SOL     OW27346   2.036   2.629  11.807 -0.4452 -0.1102 -0.3224
 5296SOL    HW127347   2.056   2.661  11.719 -2.6387  0.2215 -0.6945
 5296SOL    HW227348   2.017   2.539  11.782 -1.7095  0.1526 -0.3326
 5297SOL     OW27349   1.020   3.764  16.239  0.2137  0.5150  0.1941
 5297SOL    HW127350   1.079   3.688  16.247  0.3410  0.5078 -0.7415
 5297SOL    HW227351   0.949   3.729  16.184  1.7910 -0.1040 -1.4761
 5298SOL     OW27352   1.557   0.547   3.819 -0.0580 -0.1323  0.4636
 5298SOL    HW127353   1.473   0.530   3.775 -0.8689  0.3231  1.8246
 5298SOL    HW227354   1.613   0.497   3.759 -0.8330 -1.6354  0.9979
 5299SOL     OW27355   3.828   0.019   3.569  0.3189  0.5707 -0.3467
 5299SOL    HW127356   3.805   4.656   3.606  1.4215  0.9062  1.1103
 5299SOL    HW227357   3.866   0.058   3.648  0.5001  1.7467 -1.0057
 5300SOL     OW27358   4.473   3.116  11.152 -0.3391  0.2413 -0.6419
 5300SOL    HW127359   4.435   3.153  11.072  0.7150  0.2329 -1.1440
 5300SOL    HW227360   4.512   3.036  11.118  1.2310  0.0300  1.7125
 5301SOL     OW27361   4.047   0.142   8.117  0.3732  0.2712  0.0070
 5301SOL    HW127362   4.039   0.220   8.172 -0.6196 -0.7761  1.3302
 5301SOL    HW227363   3.995   0.169   8.042 -1.4764 -0.1711  1.1502
 5302SOL     OW27364   2.391   3.493  17.483  0.0788 -0.6999  0.3549
 5302SOL    HW127365   2.411   3.408  17.443 -0.5653  1.2908 -4.2182
 5302SOL    HW227366   2.467   3.513  17.537 -1.1712  2.2401  1.0412
 5303SOL     OW27367   2.837   0.988   4.562 -0.2441 -0.2133  0.6616
 5303SOL    HW127368   2.871   0.942   4.638  0.1336  0.5450  0.9558
 5303SOL    HW227369   2.905   1.056   4.557  0.0593 -0.6276 -0.9619
 5304SOL     OW27370   3.865   2.452   1.283 -0.0790 -0.5391 -0.1395
 5304SOL    HW127371   3.874   2.513   1.357  0.3393 -2.1442  1.1458
 5304SOL    HW227372   3.955   2.436   1.253  0.2648 -0.6542  0.9391
 5305SOL     OW27373   1.991   3.441   6.416 -0.2164  0.0637 -0.2593
 5305SOL    HW127374   1.991   3.352   6.380  0.9631 -0.4668  1.0487
 5305SOL    HW227375   1.919   3.477   6.364  0.2288  0.3185 -0.6968
 5306SOL     OW27376   0.169   1.166   3.719 -0.1206  0.1328  0.2728
 5306SOL    HW127377   0.262   1.187   3.724 -0.2502  0.5853  0.7601
 5306SOL    HW227378   0.129   1.249   3.744  0.9966  1.1320 -1.2876
 5307SOL     OW27379   4.371   2.885   3.176  0.0435 -0.2229 -0.2239
 5307SOL    HW127380   4.379   2.959   3.236  1.6626 -0.0879 -0.6149
 5307SOL    HW227381   4.332   2.919   3.096 -0.1051 -0.3727 -0.2148
 5308SOL     OW27382   3.720   2.504   0.656  0.4371 -0.3787 -0.6635
 5308SOL    HW127383   3.763   2.509   0.741  1.6322 -2.6207 -1.1270
 5308SOL    HW227384   3.645   2.451   0.685 -0.3442 -1.0811 -3.9141
 5309SOL     OW27385   0.792   2.807   2.933 -0.3088 -0.3776  0.1008
 5309SOL    HW127386   0.815   2.789   2.842  2.5051 -0.2746  0.8010
 5309SOL    HW227387   0.877   2.839   2.964 -0.2686 -0.3802 -0.0094
 5310SOL     OW27388   2.982   4.150   5.942  0.0024 -0.3709  0.5869
 5310SOL    HW127389   2.950   4.071   5.899  0.8635  0.1813 -1.1122
 5310SOL    HW227390   2.907   4.207   5.954  0.8176  0.8617 -0.1511
 5311SOL     OW27391   0.132   3.722   3.311  0.7246  0.5836  0.6618
 5311SOL    HW127392   0.041   3.700   3.332  0.3043  2.2493  0.6301
 5311SOL    HW227393   0.135   3.797   3.370  1.7230  1.4337 -0.4588
 5312SOL     OW27394   4.427   0.316  10.470 -0.5197 -0.3331 -0.3755
 5312SOL    HW127395   4.400   0.399  10.433  0.6582 -0.4469 -1.4759
 5312SOL    HW227396   4.459   0.264  10.397 -0.5207 -0.3758 -0.3459
 5313SOL     OW27397   2.789   2.487   6.421  0.3152  0.0120  0.2891
 5313SOL    HW127398   2.734   2.558   6.453  0.7180  0.7930 -0.7240
 5313SOL    HW227399   2.853   2.523   6.359 -2.2489 -0.1710 -2.5004
 5314SOL     OW27400   3.267   0.106   5.935  0.1406  1.2802  0.5612
 5314SOL    HW127401   3.206   0.151   5.876 -1.4870  1.0195  2.0856
 5314SOL    HW227402   3.351   0.101   5.887 -0.6371  1.3961 -0.8258
 5315SOL     OW27403   1.000   4.011   8.676  0.1937 -0.0075 -0.3988
 5315SOL    HW127404   0.988   3.967   8.760  0.3869  1.2252  0.2744
 5315SOL    HW227405   0.980   3.947   8.608  0.3226 -0.6445  0.1609
 5316SOL     OW27406   0.053   1.244  10.940 -0.0036  0.3508 -0.2778
 5316SOL    HW127407   4.700   1.222  10.886 -1.1422  2.2743  0.5238
 5316SOL    HW227408   0.074   1.324  10.891 -1.9948  1.8987  1.4076
 5317SOL     OW27409   4.719   1.339  16.777  0.4126  0.0601 -0.5707
 5317SOL    HW127410   0.048   1.302  16.849  0.2258  0.4023 -0.2625
 5317SOL    HW227411   4.668   1.398  16.834  0.5827  0.3834 -0.7570
 5318SOL     OW27412   0.745   3.772   2.794  0.2379 -0.0664  0.5921
 5318SOL    HW127413   0.739   3.703   2.728 -1.1572 -0.1886  0.8444
 5318SOL    HW227414   0.702   3.845   2.750 -0.8468 -1.1684 -0.1657
 5319SOL     OW27415   1.414   2.512   6.095  0.3886  0.1912  0.3828
 5319SOL    HW127416   1.399   2.522   6.189  2.1552  2.7008  0.4081
 5319SOL    HW227417   1.506   2.486   6.087 -0.0574 -1.1947 -0.1919
 5320SOL     OW27418   0.979   2.303  14.363  0.2884  0.8297 -0.2950
 5320SOL    HW127419   0.959   2.361  14.437 -0.4427  1.7073 -1.1774
 5320SOL    HW227420   0.891   2.312  14.325 -1.1810  1.4802  3.1720
 5321SOL     OW27421   1.463   3.609  16.940 -0.6631  0.0474  0.4703
 5321SOL    HW127422   1.473   3.670  16.866 -1.3520 -0.5554 -0.1176
 5321SOL    HW227423   1.369   3.595  16.949 -1.3809  2.8265 -2.5439
 5322SOL     OW27424   0.699   1.095   8.916 -0.1872 -0.3493  0.2804
 5322SOL    HW127425   0.615   1.050   8.906 -0.7401  0.7553  0.0808
 5322SOL    HW227426   0.695   1.141   9.000 -1.5684 -0.3428  0.2014
 5323SOL     OW27427   2.254   1.153   1.893 -0.8243 -0.3617 -0.3747
 5323SOL    HW127428   2.229   1.071   1.851  1.2315 -2.4048  2.3912
 5323SOL    HW227429   2.166   1.176   1.924 -0.3239 -1.4568  1.9037
 5324SOL     OW27430   0.251   1.398  11.248 -0.0302  0.2903 -0.0674
 5324SOL    HW127431   0.207   1.477  11.217  0.9497  0.0042 -2.1981
 5324SOL    HW227432   0.259   1.335  11.177 -0.6224 -1.4874  1.4503
 5325SOL     OW27433   1.904   0.298   3.189 -0.3876  0.1538  0.2519
 5325SOL    HW127434   1.981   0.267   3.141 -0.3530  1.8528 -0.7463
 5325SOL    HW227435   1.831   0.259   3.142 -0.3351  1.9959 -1.3376
 5326SOL     OW27436   1.648   3.652  10.925  0.2841 -0.4705  0.2574
 5326SOL    HW127437   1.677   3.685  11.010 -1.4373 -1.3273  1.1857
 5326SOL    HW227438   1.638   3.559  10.947  2.0568 -0.5280  0.7744
 5327SOL     OW27439   2.633   2.314   5.640 -0.6635  0.8894 -0.1894
 5327SOL    HW127440   2.544   2.292   5.666  0.3376 -1.6334  1.1294
 5327SOL    HW227441   2.614   2.359   5.557 -0.3765  0.5388 -0.4473
 5328SOL     OW27442   2.991   3.130   5.269 -0.7013  0.2206  0.1760
 5328SOL    HW127443   2.950   3.099   5.349 -2.3286  0.3378 -0.6120
 5328SOL    HW227444   2.933   3.108   5.196 -0.6457  0.3313  0.0983
 5329SOL     OW27445   1.560   2.244  17.535  0.0793  0.3149  0.1840
 5329SOL    HW127446   1.489   2.199  17.581 -1.0560  2.3257  0.4153
 5329SOL    HW227447   1.602   2.166  17.500 -1.7747 -1.0403  0.9697
 5330SOL     OW27448   0.972   3.795   3.890 -0.2190  0.2782  0.2979
 5330SOL    HW127449   1.067   3.793   3.903 -0.1489  1.8741  0.0051
 5330SOL    HW227450   0.957   3.725   3.826  0.8384  0.7246 -0.4425
 5331SOL     OW27451   2.134   1.589   2.681  0.0924 -0.4981  0.0193
 5331SOL    HW127452   2.123   1.494   2.679 -0.7753 -0.3818 -1.2368
 5331SOL    HW227453   2.042   1.616   2.691 -0.1687 -1.8709  1.2216
 5332SOL     OW27454   0.907   3.291  16.973  0.0089  0.0589  0.5826
 5332SOL    HW127455   0.931   3.243  16.894 -0.0209  0.9612  0.0232
 5332SOL    HW227456   0.812   3.277  16.969  0.0947 -1.6016  4.8222
 5333SOL     OW27457   1.940   0.988   4.238 -0.3621  0.3879  0.4670
 5333SOL    HW127458   1.861   1.014   4.191  0.9328  1.1388 -1.2874
 5333SOL    HW227459   1.913   0.900   4.263  0.8544 -1.0838 -3.5072
 5334SOL     OW27460   1.628   3.276   3.309 -0.0963  0.4188 -0.1638
 5334SOL    HW127461   1.557   3.296   3.249 -1.0562 -3.3078 -0.2150
 5334SOL    HW227462   1.589   3.200   3.350 -0.8122  1.6645  1.4768
 5335SOL     OW27463   1.016   1.493  12.967  0.2063 -0.0214 -0.0453
 5335SOL    HW127464   1.068   1.516  13.044  0.8029 -0.9590 -0.1628
 5335SOL    HW227465   1.087   1.485  12.903  0.7501  0.3819  0.5047
 5336SOL     OW27466   1.597   0.666   3.522  0.2034 -0.1461  0.0764
 5336SOL    HW127467   1.612   0.635   3.433  0.8003 -0.9812  0.4708
 5336SOL    HW227468   1.544   0.593   3.552 -0.4176 -0.2633 -1.3070
 5337SOL     OW27469   3.913   2.259   3.709  0.2163  0.0501 -0.2844
 5337SOL    HW127470   3.858   2.321   3.756  0.9545 -0.7277  1.6264
 5337SOL    HW227471   3.839   2.207   3.676 -0.3512 -0.0224  1.1086
 5338SOL     OW27472   2.257   3.406   4.432  1.1581  0.7491  0.2853
 5338SOL    HW127473   2.290   3.421   4.344  1.0707  0.2835  0.1694
 5338SOL    HW227474   2.228   3.491   4.464  0.2768 -0.1996  2.0059
 5339SOL     OW27475   1.345   0.200   4.341  0.2856 -1.0968  0.7421
 5339SOL    HW127476   1.346   0.109   4.312 -0.7198 -0.5839 -0.9271
 5339SOL    HW227477   1.357   0.242   4.256 -2.1793 -2.1683 -0.1528
 5340SOL     OW27478   2.962   3.816  15.455 -0.2977 -0.1837 -0.5333
 5340SOL    HW127479   2.937   3.853  15.370  1.4845 -0.6685 -1.2686
 5340SOL    HW227480   2.881   3.773  15.481  1.5780 -1.9147  2.4198
 5341SOL     OW27481   0.352   3.415   6.070  0.0673 -0.1642  0.0810
 5341SOL    HW127482   0.360   3.322   6.091  1.7716 -0.3585 -1.4863
 5341SOL    HW227483   0.367   3.417   5.976  2.4962  2.2823  0.5014
 5342SOL     OW27484   2.108   3.271   6.943 -0.1265  0.4405 -0.1174
 5342SOL    HW127485   2.120   3.298   6.852  0.6716  0.0298 -0.1345
 5342SOL    HW227486   2.195   3.293   6.976  0.5948 -1.2595 -0.8985
 5343SOL     OW27487   2.111   2.298   0.075 -0.6759 -0.4383  0.2319
 5343SOL    HW127488   2.027   2.332   0.044 -0.2205  1.2232  0.8096
 5343SOL    HW227489   2.145   2.370   0.129  1.6408 -0.7603 -0.8324
 5344SOL     OW27490   2.085   1.530   7.065  0.0639 -0.4882 -0.2003
 5344SOL    HW127491   2.027   1.555   7.137  1.1904 -0.2299  0.5953
 5344SOL    HW227492   2.033   1.459   7.026 -1.7461  0.5722  0.2966
 5345SOL     OW27493   3.263   2.806   6.023  0.6481 -0.0474 -0.0381
 5345SOL    HW127494   3.176   2.772   6.003 -0.1623  0.0541  3.4557
 5345SOL    HW227495   3.295   2.750   6.093 -0.9213 -0.4239  0.3701
 5346SOL     OW27496   2.925   0.560   6.996 -0.0355  0.2491  0.5207
 5346SOL    HW127497   2.839   0.576   7.035 -1.0360 -0.9448 -1.1845
 5346SOL    HW227498   2.954   0.492   7.057 -0.4657 -0.0314  0.4108
 5347SOL     OW27499   0.538   3.313   6.884 -0.5259  0.4877 -0.3446
 5347SOL    HW127500   0.625   3.273   6.888 -0.6457  0.4436  1.7932
 5347SOL    HW227501   0.550   3.373   6.958 -0.9896  1.1633 -0.8144
 5348SOL     OW27502   0.077   2.571   4.422 -0.0339  0.0324  0.2104
 5348SOL    HW127503   0.094   2.633   4.351 -0.5513 -1.0555 -0.8684
 5348SOL    HW227504   0.135   2.605   4.490  0.0164  0.2141  0.0746
 5349SOL     OW27505   0.753   3.041   0.658 -0.6095  0.0920 -0.0159
 5349SOL    HW127506   0.824   2.993   0.703 -0.0125  0.7756 -0.2363
 5349SOL    HW227507   0.694   3.045   0.734 -0.3557 -2.0424  0.3132
 5350SOL     OW27508   2.650   3.118  16.698 -0.2461  0.9788 -0.0232
 5350SOL    HW127509   2.628   3.197  16.747 -2.2535 -0.8024  2.0011
 5350SOL    HW227510   2.583   3.114  16.629  0.5332 -3.2492 -0.5760
 5351SOL     OW27511   4.083   0.750   8.388  0.0305 -0.6633 -0.1168
 5351SOL    HW127512   4.177   0.737   8.394  0.3076  1.4026  0.1966
 5351SOL    HW227513   4.080   0.837   8.427 -0.8740 -0.5257 -0.4828
 5352SOL     OW27514   1.035   3.407  17.414 -0.0801  0.3066  0.5216
 5352SOL    HW127515   1.051   3.342  17.346 -0.2003  3.0872 -2.2079
 5352SOL    HW227516   0.974   3.455  17.357  0.9316  1.5196  0.4598
 5353SOL     OW27517   3.411   3.576  15.999  0.0571  0.4108 -0.0476
 5353SOL    HW127518   3.378   3.523  15.926  0.5376 -1.4375  1.0870
 5353SOL    HW227519   3.347   3.647  15.993  0.5744  0.9628  1.0296
 5354SOL     OW27520   1.091   2.589   4.912  0.4397 -0.2980 -0.5666
 5354SOL    HW127521   1.138   2.548   4.839 -0.4066 -2.2421 -0.0181
 5354SOL    HW227522   1.011   2.537   4.908 -0.1445  0.6274 -0.9743
 5355SOL     OW27523   3.906   1.254  12.340  0.1224  0.3211  0.1381
 5355SOL    HW127524   3.865   1.277  12.256  0.9440  0.2340 -0.2945
 5355SOL    HW227525   3.991   1.297  12.334  0.9845 -1.7048 -2.0757
 5356SOL     OW27526   3.305   4.231   9.222  0.7718 -0.1631 -0.0604
 5356SOL    HW127527   3.356   4.151   9.212 -0.3317 -0.5626 -2.4393
 5356SOL    HW227528   3.292   4.257   9.131 -1.2409  1.3414  0.6365
 5357SOL     OW27529   1.716   1.620   6.088  0.2610 -0.7987 -0.4318
 5357SOL    HW127530   1.673   1.702   6.065 -1.0998 -1.2739  0.4191
 5357SOL    HW227531   1.811   1.633   6.090  0.2026 -0.3113 -0.8344
 5358SOL     OW27532   0.305   3.738   2.707 -0.0400  0.5642 -0.3832
 5358SOL    HW127533   0.304   3.642   2.710  0.0520  0.5910  0.5121
 5358SOL    HW227534   0.216   3.769   2.688  0.3689  1.0436 -1.5577
 5359SOL     OW27535   0.625   0.573   7.647  0.2916  0.4666  0.5676
 5359SOL    HW127536   0.553   0.528   7.603  1.2743  0.4632 -1.0523
 5359SOL    HW227537   0.582   0.577   7.733  0.0500  0.1232  0.4637
 5360SOL     OW27538   3.607   0.309   3.607  0.0427 -0.0463 -0.5412
 5360SOL    HW127539   3.515   0.332   3.622 -0.3581 -1.4703 -0.7661
 5360SOL    HW227540   3.626   0.339   3.518 -0.2515 -0.0956 -0.6236
 5361SOL     OW27541   0.150   3.600   9.689  0.6820  0.2408 -0.3321
 5361SOL    HW127542   0.193   3.678   9.723  1.8454 -1.3456  1.7756
 5361SOL    HW227543   0.171   3.624   9.598 -0.3964 -0.2680 -0.7180
 5362SOL     OW27544   3.974   0.962  17.140 -0.1465  0.1380 -0.3472
 5362SOL    HW127545   3.962   0.895  17.207  3.3638  0.1673  0.2907
 5362SOL    HW227546   3.918   1.033  17.170  1.1071 -1.2822  5.2140
 5363SOL     OW27547   3.526   0.899  12.911 -0.5759  0.5553 -0.1762
 5363SOL    HW127548   3.546   0.871  12.821 -0.2099  0.8182 -0.1764
 5363SOL    HW227549   3.614   0.932  12.929 -0.6307 -0.3386  1.7276
 5364SOL     OW27550   4.337   0.394   2.239  0.3403 -0.1337  0.8558
 5364SOL    HW127551   4.316   0.397   2.146  1.8184  1.5427  0.5767
 5364SOL    HW227552   4.255   0.354   2.269 -0.8181  0.9789 -0.7855
 5365SOL     OW27553   3.747   2.525   3.199  0.4384 -0.0774  0.1369
 5365SOL    HW127554   3.838   2.500   3.217  0.6354  0.4682 -0.0918
 5365SOL    HW227555   3.750   2.620   3.213  0.5370 -0.0644  0.0325
 5366SOL     OW27556   3.312   0.117  11.737 -0.0531  0.6422  0.2511
 5366SOL    HW127557   3.310   0.115  11.833  1.2197 -0.5737  0.2460
 5366SOL    HW227558   3.384   0.177  11.716  0.0874  0.2771 -0.2849
 5367SOL     OW27559   0.437   0.369   4.807 -0.4850 -0.0351  0.2523
 5367SOL    HW127560   0.427   0.464   4.809 -0.7264 -0.1042  3.2546
 5367SOL    HW227561   0.352   0.344   4.843 -0.4667 -2.9228 -1.7417
 5368SOL     OW27562   0.918   3.451   9.120  0.0598  0.6768 -0.6807
 5368SOL    HW127563   0.971   3.490   9.051 -0.0582  1.2565 -0.4460
 5368SOL    HW227564   0.871   3.380   9.076  0.5361  1.4151 -2.3579
 5369SOL     OW27565   0.443   0.100   0.470  0.3458  0.2349  1.0914
 5369SOL    HW127566   0.371   0.038   0.458  1.4799 -0.9236  0.2467
 5369SOL    HW227567   0.512   0.046   0.508 -1.3058 -1.2339  1.9954
 5370SOL     OW27568   0.778   4.125   0.749  0.1785  0.5931 -0.1253
 5370SOL    HW127569   0.769   4.145   0.655  1.9030  0.3187 -0.3413
 5370SOL    HW227570   0.713   4.055   0.754 -1.5848  2.1971 -0.2295
 5371SOL     OW27571   1.891   0.091   3.612  0.3049 -0.0406 -0.2559
 5371SOL    HW127572   1.947   0.136   3.548  1.9638  1.0311  1.9451
 5371SOL    HW227573   1.823   0.054   3.556  0.3224  2.4615 -1.9213
 5372SOL     OW27574   4.141   4.056   2.122 -0.0744  0.0021  0.1996
 5372SOL    HW127575   4.117   4.075   2.213  0.9566  0.8731  0.2807
 5372SOL    HW227576   4.146   3.960   2.119  0.3985  0.0234  0.3248
 5373SOL     OW27577   0.300   1.251   4.070 -0.3935 -0.7306 -0.8046
 5373SOL    HW127578   0.229   1.309   4.044  0.7456 -0.3954 -3.1758
 5373SOL    HW227579   0.320   1.282   4.158 -2.5926  1.2444 -1.0232
 5374SOL     OW27580   3.470   1.571  17.086 -0.2965  0.2677 -0.5082
 5374SOL    HW127581   3.376   1.557  17.090 -0.4311  1.6020  1.0037
 5374SOL    HW227582   3.481   1.666  17.096  1.6988 -0.2202  1.8100
 5375SOL     OW27583   3.973   4.701   9.573  0.3832 -0.1784 -0.0990
 5375SOL    HW127584   3.883   0.004   9.592  0.4728 -0.9067  1.2900
 5375SOL    HW227585   4.016   0.001   9.656 -1.8062 -1.9258  1.4919
 5376SOL     OW27586   0.889   4.209   0.148 -0.0556  0.1053  0.0939
 5376SOL    HW127587   0.814   4.213   0.089  0.1417 -0.5955 -0.1927
 5376SOL    HW227588   0.872   4.282   0.208 -0.5448  2.1739 -2.5363
 5377SOL     OW27589   2.148   3.614   6.589  0.2468  0.1554 -0.4346
 5377SOL    HW127590   2.169   3.539   6.645  2.0126 -1.4327 -3.2085
 5377SOL    HW227591   2.109   3.566   6.517 -0.0225 -1.4136  0.7675
 5378SOL     OW27592   3.905   3.128   8.604  0.3770 -0.2557 -0.5108
 5378SOL    HW127593   3.971   3.175   8.656 -0.8562  0.4815  0.3715
 5378SOL    HW227594   3.880   3.197   8.543 -1.9284 -1.2143 -0.6318
 5379SOL     OW27595   1.843   0.173  17.120  0.1589 -0.3808  0.2549
 5379SOL    HW127596   1.842   0.211  17.208 -1.6175  0.5136 -0.1429
 5379SOL    HW227597   1.930   0.134  17.119  0.6531  0.7300 -1.3022
 5380SOL     OW27598   4.578   1.649  12.407  0.0159 -0.2199  0.2376
 5380SOL    HW127599   4.529   1.567  12.419  1.6439 -0.9054  2.1992
 5380SOL    HW227600   4.530   1.713  12.459 -4.0575 -0.3147 -3.3713
 5381SOL     OW27601   2.480   2.626  16.444 -0.3070 -0.1864 -0.3842
 5381SOL    HW127602   2.418   2.693  16.471 -1.2602 -0.7481 -1.1467
 5381SOL    HW227603   2.469   2.626  16.348 -0.4012 -0.4426 -0.3736
 5382SOL     OW27604   3.356   1.991  12.522  0.9192 -0.0380 -0.1114
 5382SOL    HW127605   3.274   1.964  12.564  0.5035 -0.1544 -0.9776
 5382SOL    HW227606   3.416   2.010  12.593 -0.1414 -2.3632  1.3966
 5383SOL     OW27607   1.026   0.903   7.748 -0.2760  0.4558  0.1282
 5383SOL    HW127608   0.933   0.926   7.749 -0.6343 -1.0051 -0.4761
 5383SOL    HW227609   1.044   0.892   7.654 -0.7091  0.3392  0.0576
 5384SOL     OW27610   2.099   2.802   9.516  0.1964 -0.0697 -0.3076
 5384SOL    HW127611   2.009   2.787   9.545 -0.5699  0.3805 -2.4708
 5384SOL    HW227612   2.103   2.895   9.494  0.6545  0.1428  0.6789
 5385SOL     OW27613   2.701   3.698   9.060 -0.5182 -0.3340  0.0616
 5385SOL    HW127614   2.722   3.781   9.103  1.2973 -1.9140  2.1895
 5385SOL    HW227615   2.644   3.736   8.993 -0.0700 -0.0351 -0.1507
 5386SOL     OW27616   0.246   3.624   7.067 -0.2689 -0.1027  0.3996
 5386SOL    HW127617   0.296   3.546   7.042  0.5004  0.4017  0.3645
 5386SOL    HW227618   0.309   3.694   7.051 -2.4731  1.6233 -0.6302
 5387SOL     OW27619   1.429   3.182   8.037  0.3046 -0.0410  0.1247
 5387SOL    HW127620   1.502   3.182   7.975  0.8660  0.3336  0.7786
 5387SOL    HW227621   1.437   3.272   8.070  0.6558  0.6638 -1.8519
 5388SOL     OW27622   4.443   2.317  10.601 -0.5846 -0.0667 -0.2605
 5388SOL    HW127623   4.429   2.236  10.551 -0.6088  0.9553 -1.9084
 5388SOL    HW227624   4.441   2.368  10.520  0.3071  2.5798  1.3864
 5389SOL     OW27625   3.260   2.050   1.147  0.0707 -0.4493 -0.2436
 5389SOL    HW127626   3.166   2.061   1.134  0.1927 -0.4567 -1.1486
 5389SOL    HW227627   3.274   1.962   1.181  1.5957 -0.0124  0.2584
 5390SOL     OW27628   1.812   4.539   8.517  0.0424 -0.3755 -0.0619
 5390SOL    HW127629   1.831   4.632   8.504 -0.4086 -0.3235 -0.3334
 5390SOL    HW227630   1.764   4.521   8.436  2.4335  1.0929 -1.8129
 5391SOL     OW27631   1.719   2.105   6.858  0.2863  0.2705  0.0783
 5391SOL    HW127632   1.671   2.141   6.783  1.2585  0.5862 -0.3854
 5391SOL    HW227633   1.674   2.160   6.922 -2.4523 -2.6152  0.6524
 5392SOL     OW27634   0.310   0.549  10.700  0.4722  0.3097 -0.0262
 5392SOL    HW127635   0.376   0.538  10.769 -0.6176  0.0802  0.9812
 5392SOL    HW227636   0.357   0.608  10.641  0.6626  1.2755  1.0719
 5393SOL     OW27637   0.126   4.058   3.219  0.3298 -0.1172 -0.6345
 5393SOL    HW127638   0.099   4.022   3.303  2.8990  2.2742  1.2126
 5393SOL    HW227639   0.083   4.144   3.213 -1.4540 -0.9233  0.6505
 5394SOL     OW27640   1.813   0.723   7.470  0.0348 -0.6920  0.1270
 5394SOL    HW127641   1.780   0.813   7.472 -0.1620 -0.7784  0.7699
 5394SOL    HW227642   1.868   0.720   7.548  1.2122 -0.0045 -0.6702
 5395SOL     OW27643   1.249   4.182  14.531  0.0738  0.6904  0.7025
 5395SOL    HW127644   1.306   4.124  14.582 -0.1140  0.6407  0.8606
 5395SOL    HW227645   1.182   4.115  14.512 -0.8222  1.2267  1.9543
 5396SOL     OW27646   1.887   0.518   4.898  0.2312 -0.4756 -0.0094
 5396SOL    HW127647   1.794   0.510   4.919  0.1879 -3.0471 -1.2058
 5396SOL    HW227648   1.928   0.519   4.984  0.7679  0.6153 -0.2883
 5397SOL     OW27649   3.512   3.580   6.608 -0.1053 -0.3178  0.4348
 5397SOL    HW127650   3.593   3.548   6.567  0.2453  1.2890 -0.1232
 5397SOL    HW227651   3.470   3.610   6.528  2.1716  1.0708 -0.2564
 5398SOL     OW27652   3.681   4.088  11.075  0.1226  0.1828  0.0724
 5398SOL    HW127653   3.638   4.111  10.992  1.9240  1.4521 -0.5111
 5398SOL    HW227654   3.602   4.084  11.129  0.4711  1.7948  0.6968
 5399SOL     OW27655   1.910   3.752   5.816  0.4313  0.4376 -0.2865
 5399SOL    HW127656   1.824   3.792   5.820  1.5236  2.6275  1.7104
 5399SOL    HW227657   1.967   3.815   5.861  0.2098  0.5876 -0.2203
 5400SOL     OW27658   1.545   2.543   4.766  0.2170 -0.0328  0.2860
 5400SOL    HW127659   1.566   2.622   4.817  1.5806 -0.0447 -0.2682
 5400SOL    HW227660   1.601   2.481   4.814  0.2435  0.5532  1.0155
 5401SOL     OW27661   4.193   0.150   0.495 -0.1908 -0.3717  0.1885
 5401SOL    HW127662   4.157   0.229   0.537  0.2255 -0.1759  0.1777
 5401SOL    HW227663   4.144   0.086   0.547 -1.1854 -1.3731 -1.9902
 5402SOL     OW27664   1.141   3.927   4.194 -0.2412  0.6352  0.2281
 5402SOL    HW127665   1.126   3.990   4.264  0.1474 -1.4629  2.1696
 5402SOL    HW227666   1.052   3.896   4.181  0.1062  0.2207 -1.2359
 5403SOL     OW27667   2.281   2.366   1.207  0.0827  0.0433  0.6687
 5403SOL    HW127668   2.267   2.445   1.259 -0.4892  0.3948 -0.0095
 5403SOL    HW227669   2.337   2.321   1.270  1.1165  0.4531  0.0423
 5404SOL     OW27670   3.347   2.258   2.558 -0.3586 -0.0139  0.4340
 5404SOL    HW127671   3.312   2.254   2.647  2.1097 -1.4088  1.3279
 5404SOL    HW227672   3.315   2.176   2.522 -1.1586  1.0900 -1.4112
 5405SOL     OW27673   2.804   0.999   7.943  0.4927  0.0105  0.2880
 5405SOL    HW127674   2.883   0.949   7.963  0.1883 -0.3841  0.4895
 5405SOL    HW227675   2.758   0.982   8.025 -0.3746  0.0325 -0.1989
 5406SOL     OW27676   2.670   0.868   4.028  0.2454 -0.0334  0.4671
 5406SOL    HW127677   2.618   0.948   4.035 -2.2556 -1.2753 -3.3990
 5406SOL    HW227678   2.605   0.804   3.998  0.5537 -0.2488  0.2504
 5407SOL     OW27679   2.771   1.856  12.699  0.0248 -0.0467 -0.1405
 5407SOL    HW127680   2.759   1.944  12.664  0.3592 -0.4852 -1.3298
 5407SOL    HW227681   2.685   1.852  12.741 -0.2119 -1.2282 -0.7536
 5408SOL     OW27682   3.877   3.209   0.542 -0.5873 -0.2650  0.6217
 5408SOL    HW127683   3.904   3.298   0.565 -1.6317  0.1166  0.3620
 5408SOL    HW227684   3.805   3.190   0.601 -1.4784 -2.3072 -1.1089
 5409SOL     OW27685   4.278   4.607   4.556  0.0928 -0.5699  0.3421
 5409SOL    HW127686   4.348   4.671   4.551 -0.1581 -0.2693  0.6128
 5409SOL    HW227687   4.212   4.654   4.505  0.3791 -1.0272 -0.4534
 5410SOL     OW27688   2.607   4.426   4.105 -0.4871 -0.2000  0.0875
 5410SOL    HW127689   2.679   4.380   4.063 -1.3914  0.1197 -1.8328
 5410SOL    HW227690   2.635   4.417   4.195 -0.7431 -1.8240 -0.0058
 5411SOL     OW27691   0.804   0.756   7.558 -0.3820  0.2890  0.3702
 5411SOL    HW127692   0.792   0.826   7.622  2.5722  1.6557 -0.5332
 5411SOL    HW227693   0.744   0.691   7.595  0.9271 -0.5924  0.9438
 5412SOL     OW27694   4.060   4.540  16.325  0.5588  0.0562 -0.5360
 5412SOL    HW127695   3.982   4.561  16.273  0.5746  1.3403 -0.0552
 5412SOL    HW227696   4.039   4.591  16.404 -1.0436 -0.5587 -0.5647
 5413SOL     OW27697   0.654   4.091   1.363 -0.1599 -0.0094  0.5292
 5413SOL    HW127698   0.684   4.180   1.383 -2.2406  1.0564 -1.1101
 5413SOL    HW227699   0.603   4.063   1.439 -1.5693  0.4823 -0.2481
 5414SOL     OW27700   2.959   1.520   7.628  0.0917 -0.1968 -0.3078
 5414SOL    HW127701   2.884   1.469   7.660 -0.0178 -0.9878 -1.8390
 5414SOL    HW227702   2.917   1.605   7.641 -2.8384 -1.4116 -1.6238
 5415SOL     OW27703   1.306   1.765  11.283  0.2571 -0.1449  0.8777
 5415SOL    HW127704   1.367   1.691  11.280  0.2429 -0.1064 -0.2586
 5415SOL    HW227705   1.218   1.738  11.258  0.4911 -1.3670  1.3920
 5416SOL     OW27706   0.120   0.297   6.519  0.2999 -0.0590 -0.1972
 5416SOL    HW127707   0.137   0.211   6.480 -0.3503  0.2933 -1.2327
 5416SOL    HW227708   0.033   0.285   6.555 -0.3548  0.7908 -1.4959
 5417SOL     OW27709   0.802   2.735   9.681  0.2652 -0.6398  0.2364
 5417SOL    HW127710   0.777   2.806   9.740  0.3913 -1.1409  0.8990
 5417SOL    HW227711   0.732   2.750   9.618  0.6288  1.0992  0.2331
 5418SOL     OW27712   1.847   1.053  15.059 -0.0480 -0.1466  0.1830
 5418SOL    HW127713   1.758   1.089  15.058  0.3865  0.9071  0.2461
 5418SOL    HW227714   1.830   0.970  15.013 -1.0856  0.6843 -0.9332
 5419SOL     OW27715   4.496   1.733   9.204  0.8739  0.5000  0.3766
 5419SOL    HW127716   4.479   1.813   9.154 -0.1877 -0.6747 -1.1474
 5419SOL    HW227717   4.437   1.752   9.277  0.3759 -1.6275  0.5277
 5420SOL     OW27718   4.413   0.250  10.796  0.1437  0.3240  0.5338
 5420SOL    HW127719   4.330   0.241  10.750 -0.9911  1.9790  2.2820
 5420SOL    HW227720   4.409   0.171  10.851  1.2758  0.2844  0.5715
 5421SOL     OW27721   2.578   0.168   7.705  0.3123 -0.4074  0.2259
 5421SOL    HW127722   2.597   0.166   7.799 -1.1445  0.9780  0.5317
 5421SOL    HW227723   2.496   0.119   7.697 -1.0175  1.6787  1.2849
 5422SOL     OW27724   1.256   4.473   7.092 -1.0266  0.0021  0.3064
 5422SOL    HW127725   1.254   4.488   6.997  0.6196  0.0421  0.2752
 5422SOL    HW227726   1.207   4.551   7.118 -0.1318  0.0598  1.8392
 5423SOL     OW27727   3.344   3.571  11.887  0.1355  0.3167 -0.4284
 5423SOL    HW127728   3.295   3.652  11.874 -0.9353  0.0338  1.8260
 5423SOL    HW227729   3.434   3.603  11.891  0.6223 -1.3928  2.9335
 5424SOL     OW27730   1.821   4.602   6.340  0.1407 -0.2268 -0.3315
 5424SOL    HW127731   1.834   4.537   6.271 -1.9987 -1.2129  0.2059
 5424SOL    HW227732   1.877   4.563   6.407 -0.7237  0.9376  1.0607
 5425SOL     OW27733   2.743   4.471   5.666 -0.1106 -0.0749  0.2200
 5425SOL    HW127734   2.686   4.397   5.643  1.0545 -1.1342  0.7358
 5425SOL    HW227735   2.710   4.548   5.619  1.8225  0.9583  0.5715
 5426SOL     OW27736   3.319   2.014  10.965  0.8570 -0.1449 -0.2887
 5426SOL    HW127737   3.382   1.941  10.963  0.4337 -0.5492  0.6869
 5426SOL    HW227738   3.382   2.085  10.959  0.4787  0.2300  0.1662
 5427SOL     OW27739   1.175   4.644   4.876  0.1590  0.2580  0.2442
 5427SOL    HW127740   1.096   4.649   4.930 -1.3234  1.6753 -2.0323
 5427SOL    HW227741   1.138   4.625   4.789  0.7114 -1.9813  0.4978
 5428SOL     OW27742   2.638   4.301   1.618 -0.2212  0.1270 -0.3216
 5428SOL    HW127743   2.695   4.230   1.649 -0.8570 -0.1640  0.1738
 5428SOL    HW227744   2.700   4.373   1.607 -1.0615  0.9630  0.4795
 5429SOL     OW27745   2.892   1.588  14.073  0.1821 -0.1071  0.4746
 5429SOL    HW127746   2.938   1.505  14.080 -1.0773 -0.6142  2.4482
 5429SOL    HW227747   2.938   1.636  14.003 -2.5412  0.6786 -0.7701
 5430SOL     OW27748   2.871   4.556  10.332 -0.3808  0.2071  0.7750
 5430SOL    HW127749   2.825   4.518  10.407  0.6178 -2.3514  0.0664
 5430SOL    HW227750   2.854   4.486  10.269  2.3382 -1.6965  2.1703
 5431SOL     OW27751   4.658   2.445   8.508  0.5524 -0.8508  0.3205
 5431SOL    HW127752   4.565   2.449   8.485  1.0637 -1.0634 -1.8332
 5431SOL    HW227753   4.654   2.401   8.593  2.0659  1.9648  1.8213
 5432SOL     OW27754   3.900   1.172   7.346 -0.0788 -0.1388 -0.0340
 5432SOL    HW127755   3.914   1.142   7.435 -3.0971 -0.2505  0.4081
 5432SOL    HW227756   3.988   1.161   7.311  0.1674  0.2421  0.4802
 5433SOL     OW27757   1.879   4.301   8.618 -0.1988 -0.3927 -0.3136
 5433SOL    HW127758   1.873   4.250   8.537  0.2459 -1.2077  0.1655
 5433SOL    HW227759   1.874   4.385   8.572  0.7968  0.5637  1.3452
 5434SOL     OW27760   0.865   4.007   4.903 -0.2777 -0.2020 -0.2814
 5434SOL    HW127761   0.899   4.079   4.956  1.4768  0.0032 -1.6648
 5434SOL    HW227762   0.877   4.035   4.812  2.1611 -2.1908 -0.5587
 5435SOL     OW27763   2.110   1.827   7.155 -0.6285  0.1143 -0.4615
 5435SOL    HW127764   2.031   1.827   7.210  0.3729 -1.1871  0.9518
 5435SOL    HW227765   2.094   1.744   7.111  0.4427 -0.4407  0.2167
 5436SOL     OW27766   2.378   3.093  12.937 -0.2769 -0.0950  0.3913
 5436SOL    HW127767   2.287   3.094  12.969 -0.2981  0.5066  0.3165
 5436SOL    HW227768   2.360   3.035  12.863  0.1213 -0.5342  0.6370
 5437SOL     OW27769   0.410   4.026   4.622 -0.0710 -0.3447 -0.1989
 5437SOL    HW127770   0.357   3.959   4.578  0.3211 -0.1165 -1.0239
 5437SOL    HW227771   0.345   4.047   4.689  0.5597 -1.2003  0.6788
 5438SOL     OW27772   1.310   4.722  17.544 -0.1555 -0.2973 -0.4150
 5438SOL    HW127773   1.233   0.045  17.579  0.6524 -0.8029  1.9836
 5438SOL    HW227774   1.344   4.690  17.628 -1.3853  0.2294  0.2830
 5439SOL     OW27775   0.853   0.412   2.559  0.0528 -0.0931 -0.0408
 5439SOL    HW127776   0.777   0.424   2.502  0.9421 -0.7542 -1.3634
 5439SOL    HW227777   0.901   0.491   2.537  2.2336 -1.4619 -0.1639
 5440SOL     OW27778   1.845   3.880   5.172 -0.3538  0.2693 -0.3249
 5440SOL    HW127779   1.822   3.937   5.245  0.9221  2.0000 -1.2719
 5440SOL    HW227780   1.765   3.875   5.120  0.9271  0.9420 -2.3726
 5441SOL     OW27781   3.833   2.548   2.031 -0.1198  0.7353 -0.2035
 5441SOL    HW127782   3.910   2.604   2.018  0.3962  0.1853  0.4779
 5441SOL    HW227783   3.785   2.603   2.092 -1.0335 -0.8163  0.4714
 5442SOL     OW27784   2.536   1.207  17.635 -0.4659  0.0919 -0.2615
 5442SOL    HW127785   2.519   1.248   0.029 -1.7404 -1.0182  0.0176
 5442SOL    HW227786   2.618   1.164  17.660 -1.6762 -1.6955  0.6645
 5443SOL     OW27787   0.748   4.685   5.003 -0.3222 -0.7746 -0.0375
 5443SOL    HW127788   0.723   4.717   5.090  1.6094 -1.2669  0.7006
 5443SOL    HW227789   0.665   4.665   4.961 -0.2989  1.9921 -1.4370
 5444SOL     OW27790   4.579   2.766   9.789  0.1512 -0.7677 -0.0616
 5444SOL    HW127791   4.639   2.840   9.777  0.8105 -1.4561 -1.0138
 5444SOL    HW227792   4.577   2.727   9.701  0.9320  3.0292 -1.7763
 5445SOL     OW27793   0.208   0.941  10.717  0.2841  0.0435 -0.4815
 5445SOL    HW127794   0.282   0.948  10.777 -1.1904 -0.8398  1.4078
 5445SOL    HW227795   0.236   1.000  10.646  1.8262  1.3337  1.1927
 5446SOL     OW27796   1.590   1.843   8.465  0.1568 -0.1757  0.4340
 5446SOL    HW127797   1.600   1.935   8.440  2.4638 -1.0775 -1.9840
 5446SOL    HW227798   1.499   1.836   8.494  0.4154 -0.6610  1.1476
 5447SOL     OW27799   0.603   0.382   5.138  0.7795 -0.2729  0.3348
 5447SOL    HW127800   0.627   0.301   5.092  0.8019  0.8007 -1.5457
 5447SOL    HW227801   0.636   0.453   5.082 -2.0308 -0.0891 -1.0771
 5448SOL     OW27802   0.011   1.811  11.563 -0.0242 -0.3085 -0.2349
 5448SOL    HW127803   0.072   1.868  11.517  0.7680 -1.4668 -0.6267
 5448SOL    HW227804   4.703   1.870  11.632  1.4597 -2.9338  2.6223
 5449SOL     OW27805   3.198   3.029   6.730 -0.1727  0.4016 -0.3760
 5449SOL    HW127806   3.213   3.015   6.636 -1.6084  1.0683 -0.6898
 5449SOL    HW227807   3.150   3.111   6.737 -0.7173  0.0381  0.2042
 5450SOL     OW27808   3.574   2.348   1.513 -0.3257  0.0498 -0.1905
 5450SOL    HW127809   3.564   2.405   1.589  1.7131  0.8904 -0.5602
 5450SOL    HW227810   3.538   2.268   1.550 -1.8355  1.7274  1.9341
 5451SOL     OW27811   0.663   2.322   9.103  0.5032 -0.8390 -0.4683
 5451SOL    HW127812   0.738   2.268   9.129 -0.2616 -2.2484 -1.2064
 5451SOL    HW227813   0.690   2.357   9.018  1.3249  1.2919  0.6806
 5452SOL     OW27814   1.293   4.554   5.928 -0.4500  0.1448 -0.4897
 5452SOL    HW127815   1.216   4.590   5.973  2.0192  1.4609  2.6270
 5452SOL    HW227816   1.339   4.520   6.004 -1.4233  0.0379  0.0538
 5453SOL     OW27817   2.395   1.835   4.607 -0.4746 -0.1597 -0.5272
 5453SOL    HW127818   2.483   1.873   4.602 -0.6995  0.1744 -1.8759
 5453SOL    HW227819   2.354   1.876   4.531 -0.5733  2.4702  0.9628
 5454SOL     OW27820   1.381   2.943  15.351 -0.6716  0.9726  0.2351
 5454SOL    HW127821   1.430   2.870  15.389 -0.4188 -0.3154 -2.5689
 5454SOL    HW227822   1.297   2.944  15.396 -1.3813  0.3214 -1.0548
 5455SOL     OW27823   1.554   3.283   6.823  0.3217 -0.3224 -0.1569
 5455SOL    HW127824   1.631   3.241   6.862  1.1216  1.2838 -0.0361
 5455SOL    HW227825   1.498   3.207   6.809 -0.0884  0.1664 -1.1470
 5456SOL     OW27826   0.331   0.899   4.594  0.0481  0.3765  0.9641
 5456SOL    HW127827   0.415   0.854   4.584  0.9723  2.1481  0.7098
 5456SOL    HW227828   0.289   0.871   4.513 -1.4444 -0.3197  1.9779
 5457SOL     OW27829   1.429   0.536  13.628 -0.1902 -0.2221  0.1126
 5457SOL    HW127830   1.455   0.473  13.561 -2.6377 -1.0697 -0.0321
 5457SOL    HW227831   1.502   0.599  13.625  0.6337 -1.1969 -0.2696
 5458SOL     OW27832   2.991   0.057   6.896 -0.3382  0.3040 -0.0480
 5458SOL    HW127833   3.034   0.057   6.982  0.6187 -2.0080 -0.5340
 5458SOL    HW227834   2.985   0.152   6.883  3.1150  0.5932  0.3223
 5459SOL     OW27835   4.706   3.606   6.888  0.7541  0.0176 -0.6507
 5459SOL    HW127836   0.077   3.615   6.866  0.4370 -1.8006 -2.6808
 5459SOL    HW227837   4.664   3.683   6.850 -0.9633 -1.3294 -1.4191
 5460SOL     OW27838   2.530   1.695  13.863  0.4742 -0.0739 -0.1707
 5460SOL    HW127839   2.615   1.651  13.873  1.0136  0.9657 -0.2156
 5460SOL    HW227840   2.470   1.623  13.882  0.2332  0.5413  1.4182
 5461SOL     OW27841   2.050   2.180   4.095  0.2927  0.7465  0.1392
 5461SOL    HW127842   2.054   2.235   4.017  0.2540  0.6518  0.0702
 5461SOL    HW227843   1.962   2.206   4.123  0.1284 -1.9196  2.0853
 5462SOL     OW27844   0.155   4.611   3.800  0.0983  0.0361 -0.2681
 5462SOL    HW127845   0.192   4.683   3.749  3.2862 -1.1285  0.3706
 5462SOL    HW227846   0.068   4.637   3.828  0.5848  4.0571 -2.5333
 5463SOL     OW27847   0.696   0.404   9.002 -0.3418  0.6124  0.4608
 5463SOL    HW127848   0.769   0.390   9.062  1.1212 -1.6697 -1.8522
 5463SOL    HW227849   0.732   0.451   8.927 -1.2775  0.2412 -0.2238
 5464SOL     OW27850   2.647   1.205   5.500 -0.3772 -0.2136  0.2334
 5464SOL    HW127851   2.619   1.113   5.508  1.7958 -0.8096  1.0364
 5464SOL    HW227852   2.579   1.250   5.550 -1.3307 -0.3307 -0.9529
 5465SOL     OW27853   3.771   0.323   1.769 -0.6015 -0.1492 -0.3552
 5465SOL    HW127854   3.786   0.315   1.863  0.1180 -2.2052 -0.6547
 5465SOL    HW227855   3.771   0.419   1.764 -0.8242 -0.1347 -0.1175
 5466SOL     OW27856   3.271   0.680   4.894  0.8646 -0.0266 -0.0089
 5466SOL    HW127857   3.340   0.664   4.830  0.9410  0.9518 -0.1765
 5466SOL    HW227858   3.254   0.775   4.896 -0.1953 -0.2043 -0.6648
 5467SOL     OW27859   4.140   1.626  14.425 -0.3184 -0.5747 -0.9742
 5467SOL    HW127860   4.060   1.641  14.474  0.5154  0.8511 -0.0475
 5467SOL    HW227861   4.175   1.716  14.425  1.3115 -1.2082  1.4331
 5468SOL     OW27862   4.444   4.282   1.356  0.7308 -0.2605 -0.1728
 5468SOL    HW127863   4.521   4.226   1.352  0.5902 -0.5075  0.6133
 5468SOL    HW227864   4.467   4.338   1.282  2.7183 -0.7462  0.0838
 5469SOL     OW27865   4.460   1.231   9.153 -0.1728 -0.3018  0.1753
 5469SOL    HW127866   4.492   1.186   9.075  1.8828  1.0090  0.2498
 5469SOL    HW227867   4.492   1.319   9.135 -0.1958  0.0316  1.7179
 5470SOL     OW27868   1.958   4.417  12.054  0.2389  0.3978 -0.0144
 5470SOL    HW127869   2.025   4.366  12.010  0.9396  1.9188 -0.7238
 5470SOL    HW227870   1.971   4.503  12.013 -3.0609  0.8993 -0.0023
 5471SOL     OW27871   4.167   1.343   3.509  0.2172  0.1337  0.3017
 5471SOL    HW127872   4.085   1.335   3.460  1.1336  0.4775 -1.2906
 5471SOL    HW227873   4.215   1.406   3.454  0.1040  0.4745  0.5890
 5472SOL     OW27874   1.365   1.503   8.174 -0.0367  0.2658  0.4310
 5472SOL    HW127875   1.445   1.453   8.186 -0.8871 -0.7388  1.9206
 5472SOL    HW227876   1.309   1.442   8.222 -0.5108  0.1060 -0.3315
 5473SOL     OW27877   4.058   3.008   0.826 -0.0659 -0.1714  0.4958
 5473SOL    HW127878   4.109   2.950   0.770 -1.2513  0.2391 -0.9960
 5473SOL    HW227879   4.039   2.959   0.907 -1.9197  0.9816  0.7658
 5474SOL     OW27880   2.587   3.898   8.870  0.3706 -0.3247  0.1242
 5474SOL    HW127881   2.494   3.918   8.859  0.4342 -0.1798 -0.1266
 5474SOL    HW227882   2.625   3.985   8.882 -0.6624  0.1539 -0.1370
 5475SOL     OW27883   3.214   0.307  16.554 -0.1256 -0.2223 -0.4270
 5475SOL    HW127884   3.150   0.255  16.505 -1.6510  0.5069  0.7653
 5475SOL    HW227885   3.248   0.244  16.618 -1.7522  0.5060  1.1542
 5476SOL     OW27886   4.342   4.427   7.570  0.9011 -0.3370  0.4961
 5476SOL    HW127887   4.327   4.422   7.664  2.1279  0.6720  0.7477
 5476SOL    HW227888   4.402   4.500   7.555  1.5538 -0.4546  2.5768
 5477SOL     OW27889   0.661   0.079  13.944 -0.5609 -0.1945 -0.1037
 5477SOL    HW127890   0.633   0.051  13.857  1.0936  1.2295 -1.1167
 5477SOL    HW227891   0.627   0.000  13.986  0.4174 -0.2723  0.5501
 5478SOL     OW27892   0.990   4.277   6.839  0.3684  0.2352  0.2141
 5478SOL    HW127893   0.950   4.242   6.759  0.0879  1.7992 -0.3190
 5478SOL    HW227894   1.059   4.327   6.795 -0.4128  1.4761  0.4179
 5479SOL     OW27895   3.830   1.683  12.583  0.0291  0.1071  0.6653
 5479SOL    HW127896   3.748   1.640  12.605 -0.9520  1.1900 -0.8531
 5479SOL    HW227897   3.874   1.614  12.533 -3.6448 -0.2939 -2.0592
 5480SOL     OW27898   0.434   3.450   0.427 -0.1053  0.0447 -0.6721
 5480SOL    HW127899   0.523   3.417   0.437 -0.4507 -1.3140 -2.1756
 5480SOL    HW227900   0.430   3.508   0.503  0.0057 -0.9961  0.1250
 5481SOL     OW27901   0.696   2.533   1.131  0.4354 -0.1289  0.1357
 5481SOL    HW127902   0.641   2.529   1.053  2.6879 -0.2438 -1.4678
 5481SOL    HW227903   0.663   2.461   1.184 -2.2729  1.8272  1.0922
 5482SOL     OW27904   2.197   4.675   4.430  0.1062  0.5738 -0.2924
 5482SOL    HW127905   2.108   4.645   4.446  0.2881  0.1548 -0.0533
 5482SOL    HW227906   2.219   4.708   4.518 -2.0931  0.6488  0.2280
 5483SOL     OW27907   3.633   3.055   7.161 -0.3041 -0.1238  0.6910
 5483SOL    HW127908   3.614   2.975   7.211 -0.6396 -1.4392 -1.5183
 5483SOL    HW227909   3.545   3.081   7.135 -0.0707 -2.4823 -2.4936
 5484SOL     OW27910   1.960   3.897  17.202 -0.2295 -0.8665  0.2804
 5484SOL    HW127911   1.958   3.842  17.280  0.6639  0.4048  1.1936
 5484SOL    HW227912   2.040   3.865  17.160  0.1759  0.0879  0.3238
 5485SOL     OW27913   1.863   0.138   4.641 -0.1852 -0.5924 -0.8376
 5485SOL    HW127914   1.771   0.121   4.660 -0.6050  2.0349 -0.4441
 5485SOL    HW227915   1.875   0.231   4.658  1.4062 -0.8324 -0.6524
 5486SOL     OW27916   0.212   2.868   5.680  0.0325  0.3612  0.1473
 5486SOL    HW127917   0.233   2.810   5.754 -3.3855  1.9661  2.3759
 5486SOL    HW227918   0.195   2.801   5.614 -0.0810 -1.2360  1.7997
 5487SOL     OW27919   2.062   0.997  16.775 -0.3509  0.1999  0.0604
 5487SOL    HW127920   2.049   0.975  16.682 -0.5762 -0.3979  0.2366
 5487SOL    HW227921   1.973   0.988  16.807 -0.9347  2.6118 -0.9046
 5488SOL     OW27922   3.341   3.736   8.165  0.4347  0.2836  0.6057
 5488SOL    HW127923   3.291   3.811   8.133 -1.8717 -2.3312 -1.9258
 5488SOL    HW227924   3.352   3.689   8.082  0.6736  1.5783 -0.0817
 5489SOL     OW27925   1.156   4.167   4.834  0.0224 -0.0520 -1.0403
 5489SOL    HW127926   1.110   4.093   4.795 -0.9076 -0.0465  0.0430
 5489SOL    HW227927   1.230   4.184   4.775  0.7500  0.6554  0.0700
 5490SOL     OW27928   3.590   2.825   7.416  0.1522 -0.3164 -0.3936
 5490SOL    HW127929   3.508   2.846   7.460  1.2797  1.3873  0.9165
 5490SOL    HW227930   3.571   2.734   7.396 -0.4178 -0.3410  0.2522
 5491SOL     OW27931   2.576   4.598   1.716  0.6918  0.3698 -0.3017
 5491SOL    HW127932   2.497   4.545   1.726  0.7361  0.3314 -0.1501
 5491SOL    HW227933   2.545   4.657   1.647 -3.0128 -1.6664 -0.3839
 5492SOL     OW27934   0.372   3.584   4.410  0.2921 -0.1959 -0.5476
 5492SOL    HW127935   0.405   3.658   4.360  0.5395  0.9908  1.3985
 5492SOL    HW227936   0.315   3.535   4.351 -2.6076 -1.2970  3.1292
 5493SOL     OW27937   1.563   1.792   3.487  0.0886  0.3904 -0.3161
 5493SOL    HW127938   1.474   1.795   3.454  0.4992  2.1557 -1.2337
 5493SOL    HW227939   1.605   1.717   3.445 -3.5567 -1.1976 -1.1105
 5494SOL     OW27940   4.058   1.072  13.769 -0.2288  0.5506  0.4894
 5494SOL    HW127941   3.988   1.096  13.831 -1.0896  0.3481 -0.4011
 5494SOL    HW227942   4.105   1.155  13.774  1.1746 -0.2719  0.7234
 5495SOL     OW27943   3.942   3.563  14.728  0.7487 -0.8513 -0.1453
 5495SOL    HW127944   3.864   3.597  14.684  1.6982 -0.5240 -1.5979
 5495SOL    HW227945   3.992   3.645  14.735 -0.1232 -0.6418  3.5260
 5496SOL     OW27946   1.259   0.876   8.046 -0.3028  0.3947  0.0211
 5496SOL    HW127947   1.202   0.861   8.121 -0.2052  1.2674  0.2728
 5496SOL    HW227948   1.308   0.794   8.046 -0.1040  0.5104 -1.0926
 5497SOL     OW27949   2.358   2.299  17.251 -0.1119  0.6087  0.1276
 5497SOL    HW127950   2.427   2.331  17.193  1.2078 -0.6760  0.9733
 5497SOL    HW227951   2.280   2.321  17.200  0.0215 -3.0368 -1.6209
 5498SOL     OW27952   2.240   3.799   7.694 -0.2399 -0.2183  0.4949
 5498SOL    HW127953   2.300   3.727   7.676 -1.6910 -1.2534 -0.2208
 5498SOL    HW227954   2.222   3.781   7.787  0.6076  1.2510  0.9545
 5499SOL     OW27955   0.407   0.602   7.819  0.1481 -0.1505 -0.1827
 5499SOL    HW127956   0.378   0.692   7.838 -0.4703 -0.1371 -1.1606
 5499SOL    HW227957   0.326   0.572   7.778 -0.9037  0.2891  1.5637
 5500SOL     OW27958   1.281   2.012   1.447 -0.1380  0.3558 -0.0170
 5500SOL    HW127959   1.225   2.089   1.448  1.4805  1.5427  0.3138
 5500SOL    HW227960   1.239   1.951   1.387  0.3873 -0.4049  0.3787
 5501SOL     OW27961   1.291   4.504   7.885 -0.2867 -0.3240 -0.3053
 5501SOL    HW127962   1.361   4.561   7.917 -0.2921  0.1029 -1.0484
 5501SOL    HW227963   1.230   4.567   7.846 -0.3971 -1.0690 -1.3497
 5502SOL     OW27964   3.844   4.548  12.121 -0.2260 -0.2815  0.5484
 5502SOL    HW127965   3.886   4.549  12.035 -2.1222  0.0809 -0.3973
 5502SOL    HW227966   3.881   4.630  12.153  1.2298 -0.6987 -0.0660
 5503SOL     OW27967   1.725   2.565   1.233 -0.2756  0.0491 -0.2511
 5503SOL    HW127968   1.814   2.596   1.218  0.2149 -0.8643  0.7825
 5503SOL    HW227969   1.684   2.637   1.281 -1.0174  0.5729 -1.6736
 5504SOL     OW27970   0.194   0.191   4.357 -0.6366  0.2222 -0.4529
 5504SOL    HW127971   0.173   0.130   4.428  1.0582  1.5928  1.2311
 5504SOL    HW227972   0.140   0.265   4.384  1.5105  0.4575  3.1914
 5505SOL     OW27973   4.112   1.413   7.689 -0.1235  0.1926 -0.2082
 5505SOL    HW127974   4.141   1.465   7.764 -0.2427  2.9997 -2.1079
 5505SOL    HW227975   4.029   1.378   7.722 -0.2677  1.2291  0.5050
 5506SOL     OW27976   0.650   1.211  10.533 -0.0418  0.8411 -0.3545
 5506SOL    HW127977   0.728   1.262  10.509  1.1878 -0.4952  0.7531
 5506SOL    HW227978   0.669   1.120  10.510  1.2491  0.9480  0.2565
 5507SOL     OW27979   1.722   2.058   0.758  0.0950  0.2184 -0.4052
 5507SOL    HW127980   1.763   2.008   0.829  0.0942  0.2049 -0.4143
 5507SOL    HW227981   1.689   2.132   0.810  2.1856  0.1190  1.0401
 5508SOL     OW27982   2.035   0.902   0.563  0.2182 -0.2750 -0.2010
 5508SOL    HW127983   1.988   0.905   0.647  0.5394 -0.6162 -0.0116
 5508SOL    HW227984   2.076   0.987   0.572  0.8163 -0.5845 -0.0310
 5509SOL     OW27985   2.129   2.929  12.408  0.4025  0.2140 -0.1567
 5509SOL    HW127986   2.126   3.018  12.374 -0.6327  1.2008  2.5242
 5509SOL    HW227987   2.181   2.883  12.342 -0.2430  0.8383 -1.1019
 5510SOL     OW27988   1.928   3.596   1.141 -0.2349  0.5793 -0.3033
 5510SOL    HW127989   1.900   3.587   1.050 -0.5411  1.9495 -0.3449
 5510SOL    HW227990   2.008   3.647   1.127  1.4802 -1.5663  1.6507
 5511SOL     OW27991   0.095   2.386   8.304 -0.1216  0.2746 -0.0501
 5511SOL    HW127992   0.048   2.411   8.384 -1.2996  2.3402 -1.3660
 5511SOL    HW227993   0.083   2.466   8.252  1.3315 -0.0067 -0.8100
 5512SOL     OW27994   3.831   2.696   4.417  0.5865  0.2534  0.4026
 5512SOL    HW127995   3.907   2.644   4.444  0.7895 -0.2832 -1.2485
 5512SOL    HW227996   3.811   2.652   4.335 -0.0174  1.7077 -0.2319
 5513SOL     OW27997   4.483   2.093   8.358 -0.2203 -0.4445  0.0900
 5513SOL    HW127998   4.540   2.044   8.417 -1.1778 -1.0085  0.5419
 5513SOL    HW227999   4.537   2.104   8.280 -2.9434  0.2151 -1.7091
 5514SOL     OW28000   2.246   2.263   8.200  0.6140  0.2994  0.0540
 5514SOL    HW128001   2.286   2.287   8.283 -1.5869  2.8244  0.4044
 5514SOL    HW228002   2.238   2.168   8.209  0.6062  0.0648 -2.2320
 5515SOL     OW28003   0.908   0.832  14.340  0.0044 -0.5201  0.0586
 5515SOL    HW128004   0.864   0.749  14.319 -0.2386 -0.1317 -0.9598
 5515SOL    HW228005   0.834   0.892  14.355  2.0077  1.7928  0.6289
 5516SOL     OW28006   0.959   1.777   4.062 -0.6398 -0.2084 -0.0863
 5516SOL    HW128007   0.903   1.821   4.126 -0.2901 -1.1242  0.8501
 5516SOL    HW228008   1.010   1.851   4.028 -0.7280  0.6792  1.6956
 5517SOL     OW28009   2.070   1.252   7.314  0.2165 -0.7360  0.6319
 5517SOL    HW128010   2.134   1.249   7.385  0.7625  1.8799  0.2529
 5517SOL    HW228011   2.117   1.195   7.254  0.6257  1.5474 -1.2301
 5518SOL     OW28012   3.966   0.484  17.225 -0.5799  0.4389  0.1255
 5518SOL    HW128013   4.032   0.553  17.219 -1.2364  1.0043 -0.5269
 5518SOL    HW228014   4.026   0.409  17.218 -0.9332  0.2593 -0.9875
 5519SOL     OW28015   4.078   3.699   6.472  0.1041  0.3569 -0.3681
 5519SOL    HW128016   4.147   3.648   6.428  0.2593  0.9998 -0.8737
 5519SOL    HW228017   4.001   3.690   6.415 -0.2476 -1.1742  0.3437
 5520SOL     OW28018   2.648   0.719   6.475 -0.2518  0.1676 -0.0036
 5520SOL    HW128019   2.716   0.784   6.494 -1.4342  1.2638  0.5016
 5520SOL    HW228020   2.635   0.673   6.558 -3.3944  0.9103 -0.0930
 5521SOL     OW28021   2.061   0.995   5.751 -0.3878 -0.0865  0.1574
 5521SOL    HW128022   2.053   1.089   5.735  1.8211  0.0485 -0.1923
 5521SOL    HW228023   2.038   0.976   5.842 -0.4895  1.8453  0.5393
 5522SOL     OW28024   1.491   3.417   8.172  0.0370 -0.0685 -0.6890
 5522SOL    HW128025   1.510   3.495   8.121  0.4720  0.5381  0.4146
 5522SOL    HW228026   1.564   3.427   8.233 -1.4945  0.9759  0.9890
 5523SOL     OW28027   3.251   0.487  10.193 -0.2224 -0.0928 -0.3279
 5523SOL    HW128028   3.192   0.441  10.253  0.3627  1.0367  1.1212
 5523SOL    HW228029   3.212   0.455  10.112 -0.7365 -2.0541  0.6772
 5524SOL     OW28030   1.637   2.696  17.156  0.0059  1.0870  0.0773
 5524SOL    HW128031   1.678   2.688  17.242  0.7263  0.9874 -0.2762
 5524SOL    HW228032   1.679   2.777  17.128 -1.3323  2.0931  1.0047
 5525SOL     OW28033   2.697   4.469   7.222 -0.3953 -0.1096  0.2789
 5525SOL    HW128034   2.750   4.416   7.163  0.3960  1.4651 -0.4319
 5525SOL    HW228035   2.679   4.403   7.289  1.9274 -0.0861  0.9450
 5526SOL     OW28036   4.279   4.717  10.863 -0.5319  0.2680  0.2134
 5526SOL    HW128037   4.226   0.000  10.784  1.9632  1.8705 -1.3582
 5526SOL    HW228038   4.307   4.626  10.865 -0.9333  0.1558  0.7866
 5527SOL     OW28039   3.263   1.902  16.675 -0.2762  0.4876  0.0040
 5527SOL    HW128040   3.210   1.845  16.619  0.5474  0.5313 -0.8316
 5527SOL    HW228041   3.194   1.961  16.704  0.3697  1.7867 -1.1076
 5528SOL     OW28042   0.119   2.871   8.319 -0.0606 -0.4694  0.4894
 5528SOL    HW128043   0.170   2.833   8.391 -0.9084 -1.7111  0.4365
 5528SOL    HW228044   0.195   2.891   8.265  0.5779 -2.4775  0.6293
 5529SOL     OW28045   0.759   1.762  16.294 -0.2423  0.1072  0.1552
 5529SOL    HW128046   0.822   1.704  16.337  1.2887  2.4325  1.0226
 5529SOL    HW228047   0.743   1.708  16.216 -0.4775  0.2457  0.1058
 5530SOL     OW28048   3.286   1.507   3.254 -0.2086  0.2140  0.5926
 5530SOL    HW128049   3.205   1.554   3.274 -0.6742 -0.5917  0.5733
 5530SOL    HW228050   3.267   1.432   3.310 -0.2785 -0.2517 -0.0513
 5531SOL     OW28051   0.962   2.364   4.651 -0.2429 -0.4315 -0.2765
 5531SOL    HW128052   0.913   2.409   4.719 -0.3268 -0.8575 -0.0595
 5531SOL    HW228053   0.955   2.414   4.570 -1.3621  2.9569  1.9049
 5532SOL     OW28054   4.413   1.189  17.651 -0.0876 -0.1968  0.2571
 5532SOL    HW128055   4.458   1.118   0.006 -1.3768 -0.9857  0.2943
 5532SOL    HW228056   4.321   1.165  17.664 -0.0609  0.3942  1.5899
 5533SOL     OW28057   1.384   4.396   6.859  0.1010  0.3171 -0.2114
 5533SOL    HW128058   1.417   4.485   6.858  0.8748  0.0169 -0.7887
 5533SOL    HW228059   1.444   4.353   6.920 -0.4137 -1.3052 -0.8468
 5534SOL     OW28060   1.430   2.853   6.496  0.4357  0.8917 -0.4438
 5534SOL    HW128061   1.379   2.790   6.546  0.3944 -0.1923 -1.8449
 5534SOL    HW228062   1.520   2.819   6.497 -0.0644 -0.5473 -2.9034
 5535SOL     OW28063   3.963   3.154  13.434 -0.4581  0.5428  0.0919
 5535SOL    HW128064   3.904   3.084  13.465  0.6223 -0.6871 -0.6520
 5535SOL    HW228065   3.916   3.195  13.362 -1.3686  1.6767  1.3396
 5536SOL     OW28066   0.033   1.060   1.001 -0.2971 -0.3188 -0.2762
 5536SOL    HW128067   0.083   1.021   0.929  0.1934 -0.3258  0.0727
 5536SOL    HW228068   0.056   1.152   0.984  0.4422 -0.1189  1.8886
 5537SOL     OW28069   0.216   4.514  14.864 -0.5650  0.7986  0.3109
 5537SOL    HW128070   0.125   4.534  14.889 -0.3731  2.2880 -0.1711
 5537SOL    HW228071   0.238   4.591  14.811  0.3750  0.3532  0.0658
 5538SOL     OW28072   0.299   3.158   8.243 -0.6262 -0.1270 -0.4239
 5538SOL    HW128073   0.317   3.064   8.237  0.7962  0.1588 -0.5220
 5538SOL    HW228074   0.245   3.170   8.165  0.6353 -0.0679 -1.2891
 5539SOL     OW28075   4.615   4.247   8.032  0.3965 -0.2331 -0.2032
 5539SOL    HW128076   4.561   4.303   7.975 -0.9183  0.2555  1.4973
 5539SOL    HW228077   4.571   4.164   8.014 -0.8872  0.7160 -1.4845
 5540SOL     OW28078   1.151   4.280  16.889 -0.8115  0.1220 -0.1615
 5540SOL    HW128079   1.064   4.243  16.907 -0.8126 -0.6306 -1.7176
 5540SOL    HW228080   1.219   4.236  16.941 -0.7640 -0.6897 -0.9259
 5541SOL     OW28081   3.602   0.348   5.862  0.5640  0.2875 -0.0113
 5541SOL    HW128082   3.588   0.440   5.883 -2.4097 -0.3896  1.0972
 5541SOL    HW228083   3.622   0.353   5.769 -3.0762 -1.6477 -0.9283
 5542SOL     OW28084   0.115   2.929   1.889 -0.3987 -0.0805 -0.2507
 5542SOL    HW128085   0.160   2.944   1.806  0.4295 -1.7921 -0.1330
 5542SOL    HW228086   0.023   2.914   1.866 -0.3254 -2.4113  0.8692
 5543SOL     OW28087   2.911   2.231  10.932  0.2268 -0.3558  0.1377
 5543SOL    HW128088   2.875   2.307  10.885  0.6073 -0.4998 -0.3807
 5543SOL    HW228089   2.849   2.216  11.004  2.3625  0.5603  2.1554
 5544SOL     OW28090   3.333   2.609   8.430 -0.2516 -0.5362  0.1214
 5544SOL    HW128091   3.418   2.652   8.422  0.3635 -1.6436  0.7478
 5544SOL    HW228092   3.285   2.673   8.483  0.7407  0.1573  0.1840
 5545SOL     OW28093   2.411   1.837   7.146 -0.0663 -0.2942 -0.1268
 5545SOL    HW128094   2.491   1.808   7.101  0.1865  0.6447 -0.2885
 5545SOL    HW228095   2.333   1.813   7.096  0.3413 -1.1104 -0.3695
 5546SOL     OW28096   1.449   1.555  13.184  0.3322 -0.5531  0.1259
 5546SOL    HW128097   1.448   1.651  13.189 -0.3357 -0.7145  2.8614
 5546SOL    HW228098   1.527   1.539  13.130  0.3826  0.7059 -0.1809
 5547SOL     OW28099   4.014   0.763   3.471  0.3980 -0.1185  0.5194
 5547SOL    HW128100   4.017   0.767   3.567 -2.8606 -0.4618  0.6255
 5547SOL    HW228101   4.024   0.853   3.442 -1.3962 -0.5615 -1.5050
 5548SOL     OW28102   0.664   0.352   1.588  0.3689  0.0617 -0.5111
 5548SOL    HW128103   0.648   0.304   1.507 -3.0290 -1.7995  1.2533
 5548SOL    HW228104   0.733   0.414   1.564 -0.7783  0.6483 -2.3255
 5549SOL     OW28105   1.715   2.456   6.131 -0.2284 -0.6482 -0.0522
 5549SOL    HW128106   1.795   2.413   6.101  0.5346 -0.2418  1.3918
 5549SOL    HW228107   1.738   2.549   6.128  2.4907 -1.2674  1.4813
 5550SOL     OW28108   3.300   2.732  14.607 -0.1105  0.2834  0.0837
 5550SOL    HW128109   3.307   2.724  14.702 -2.9428  0.6640  0.3328
 5550SOL    HW228110   3.331   2.822  14.598 -1.5778  0.8031  0.2015
 5551SOL     OW28111   4.191   3.429   3.377 -0.2863  0.1381  0.4700
 5551SOL    HW128112   4.187   3.450   3.283 -1.0233  0.7058  0.6280
 5551SOL    HW228113   4.141   3.347   3.375  1.5588 -0.9185 -3.2358
 5552SOL     OW28114   0.002   0.688  13.289  0.3623  0.6030  0.8870
 5552SOL    HW128115   0.013   0.600  13.253 -0.4825  0.0566  1.9789
 5552SOL    HW228116   0.007   0.738  13.207 -0.7354 -0.3309  0.2520
 5553SOL     OW28117   4.492   0.084   4.262  0.5671  0.0672  0.7047
 5553SOL    HW128118   4.539   0.026   4.201 -1.9789  0.5905 -1.7704
 5553SOL    HW228119   4.405   0.094   4.222  0.5723  0.3729  0.7742
 5554SOL     OW28120   0.068   4.681  17.360  0.1179  0.0385  0.4517
 5554SOL    HW128121   0.065   4.607  17.299 -4.6855  1.0084 -0.5177
 5554SOL    HW228122   0.159   4.710  17.350  0.1354  0.0086  0.5215
 5555SOL     OW28123   1.817   2.178   5.607  0.0325 -0.7184 -0.0154
 5555SOL    HW128124   1.779   2.228   5.679  0.7316  1.4177 -1.1266
 5555SOL    HW228125   1.889   2.138   5.655  0.2557  0.1258  0.3534
 5556SOL     OW28126   0.970   3.334  14.409 -0.1957  0.9208 -0.0671
 5556SOL    HW128127   1.016   3.290  14.338  0.9462  2.1559 -0.0873
 5556SOL    HW228128   1.020   3.305  14.485  2.9047  0.3889 -2.3054
 5557SOL     OW28129   0.465   1.599   5.766 -0.2728 -0.1862 -0.4629
 5557SOL    HW128130   0.546   1.549   5.773 -0.6216 -0.4035  2.0371
 5557SOL    HW228131   0.451   1.623   5.857  0.5520 -2.2745  0.2189
 5558SOL     OW28132   2.610   3.200   7.519  0.4268  0.0707 -0.5104
 5558SOL    HW128133   2.557   3.142   7.573 -0.4101 -1.0778 -2.5485
 5558SOL    HW228134   2.647   3.259   7.584  0.9828  0.9478 -1.6098
 5559SOL     OW28135   3.140   1.501   0.536  0.0686  0.4071  0.2354
 5559SOL    HW128136   3.107   1.590   0.548 -1.2488 -0.0344 -0.1618
 5559SOL    HW228137   3.151   1.459   0.621  0.7848 -1.8966 -1.0148
 5560SOL     OW28138   3.153   2.206   6.484  0.0561  0.1752 -0.1670
 5560SOL    HW128139   3.101   2.226   6.407 -0.5536  1.4423  0.5911
 5560SOL    HW228140   3.186   2.117   6.472  0.8478  0.5735 -0.9655
 5561SOL     OW28141   4.339   0.818   3.659 -0.4532  0.4481 -0.3975
 5561SOL    HW128142   4.286   0.897   3.653 -0.1587  0.3321 -4.9858
 5561SOL    HW228143   4.406   0.853   3.717 -1.1948 -0.6253  1.0950
 5562SOL     OW28144   4.260   0.515  15.881  0.0066  0.8459  0.3044
 5562SOL    HW128145   4.290   0.590  15.829  1.2142 -0.0752 -0.3374
 5562SOL    HW228146   4.340   0.463  15.888 -0.7756 -0.6118 -1.3145
 5563SOL     OW28147   1.159   2.402   1.259 -0.2421 -0.4191  0.5773
 5563SOL    HW128148   1.204   2.332   1.213 -2.1012 -1.8458  0.9433
 5563SOL    HW228149   1.218   2.475   1.244  2.2269 -2.2753  1.3146
 5564SOL     OW28150   1.293   3.830   0.330 -0.4702  0.1934 -0.1477
 5564SOL    HW128151   1.331   3.743   0.345 -1.8344 -0.7724 -2.3503
 5564SOL    HW228152   1.277   3.821   0.236  1.9761 -1.2390 -0.4426
 5565SOL     OW28153   3.245   2.350  16.704  0.6248  0.3178  0.3900
 5565SOL    HW128154   3.212   2.303  16.780  0.4558 -0.3052 -0.0646
 5565SOL    HW228155   3.295   2.289  16.650 -1.3708 -0.8943 -0.1018
 5566SOL     OW28156   3.666   0.450   8.634  0.5698  0.2076  0.7539
 5566SOL    HW128157   3.758   0.467   8.614  0.0167  2.0788 -0.1296
 5566SOL    HW228158   3.612   0.509   8.582  1.2272 -0.8451 -1.1381
 5567SOL     OW28159   3.788   2.627   5.928 -0.3268 -0.2191  0.5140
 5567SOL    HW128160   3.737   2.588   5.999  0.2200 -3.4134 -0.8309
 5567SOL    HW228161   3.875   2.594   5.954 -1.2131 -2.4799  0.6546
 5568SOL     OW28162   4.532   4.332   0.832 -0.1410 -0.1750 -0.2875
 5568SOL    HW128163   4.468   4.375   0.775 -0.6715  0.3545  0.6980
 5568SOL    HW228164   4.607   4.344   0.773 -1.2072 -0.4132 -1.6968
 5569SOL     OW28165   4.479   2.085  12.685 -0.0375  0.0093 -0.2545
 5569SOL    HW128166   4.532   2.096  12.764 -0.6347 -0.0574  0.1587
 5569SOL    HW228167   4.408   2.032  12.722  1.1467 -0.8747  0.7189
 5570SOL     OW28168   2.487   1.768   3.812 -0.6860  0.2631 -0.0149
 5570SOL    HW128169   2.557   1.723   3.858  0.4634  1.2012 -0.8522
 5570SOL    HW228170   2.482   1.858   3.845  0.1049  0.6826 -1.0217
 5571SOL     OW28171   1.581   2.873   7.427  0.0726  0.8738 -0.0715
 5571SOL    HW128172   1.586   2.779   7.443  0.4325  0.5412 -2.2221
 5571SOL    HW228173   1.504   2.894   7.480  0.2603 -3.7404  1.9754
 5572SOL     OW28174   0.691   1.595   3.321 -0.2169  0.4174 -0.6264
 5572SOL    HW128175   0.696   1.646   3.240 -0.3118 -0.2306 -1.0443
 5572SOL    HW228176   0.654   1.661   3.379 -0.6275 -1.3817  1.1682
 5573SOL     OW28177   1.057   1.765   5.427  0.0903 -0.1465 -0.9022
 5573SOL    HW128178   1.037   1.819   5.503  1.2357 -0.1710 -0.5887
 5573SOL    HW228179   1.084   1.678   5.455 -0.6108  0.0560  0.3802
 5574SOL     OW28180   1.196   0.786   7.468 -0.9303  0.4014  0.0617
 5574SOL    HW128181   1.261   0.738   7.416 -0.4201 -0.8812  1.8787
 5574SOL    HW228182   1.122   0.732   7.441 -1.0749  0.6262  0.0137
 5575SOL     OW28183   0.920   0.943   3.167  0.0405  0.1219  0.3314
 5575SOL    HW128184   0.991   0.882   3.146 -1.6051 -2.0929  1.2024
 5575SOL    HW228185   0.848   0.882   3.186  1.0503 -1.5163 -1.0777
 5576SOL     OW28186   4.417   2.910   4.431 -0.2891  0.1151 -0.1132
 5576SOL    HW128187   4.369   2.993   4.440 -0.5963  0.1765 -2.4325
 5576SOL    HW228188   4.478   2.918   4.358  0.3421 -1.5549  0.2424
 5577SOL     OW28189   1.499   1.247   5.101  0.1200 -0.4173 -0.8166
 5577SOL    HW128190   1.517   1.193   5.024  2.4865  0.1931 -0.6967
 5577SOL    HW228191   1.492   1.182   5.172 -2.9557  0.1260 -0.6459
 5578SOL     OW28192   1.761   1.482   6.368 -0.1808 -0.0221  0.1416
 5578SOL    HW128193   1.771   1.554   6.431  0.7395  1.0242 -1.1997
 5578SOL    HW228194   1.687   1.510   6.315 -0.2431 -0.6135 -0.0828
 5579SOL     OW28195   1.366   0.230  14.550  0.7440  0.4803 -0.1547
 5579SOL    HW128196   1.286   0.275  14.524 -0.9481 -1.9454  0.7947
 5579SOL    HW228197   1.407   0.311  14.580 -1.5556  1.3101  0.7462
 5580SOL     OW28198   2.197   3.743   3.458 -0.6099  0.4226  0.0513
 5580SOL    HW128199   2.125   3.764   3.399 -0.3576 -0.3701 -0.5417
 5580SOL    HW228200   2.203   3.825   3.507 -0.6264  2.3816 -3.2134
 5581SOL     OW28201   3.806   1.802   4.670 -0.0163  0.6890  0.0254
 5581SOL    HW128202   3.882   1.746   4.684 -0.6594 -0.3078 -0.3861
 5581SOL    HW228203   3.816   1.872   4.734  1.2996 -0.2521  0.8416
 5582SOL     OW28204   0.806   2.656  10.806 -0.1236  0.1600  0.0983
 5582SOL    HW128205   0.870   2.701  10.750  0.2813 -0.7587 -0.1750
 5582SOL    HW228206   0.841   2.679  10.893  2.8155 -2.8945 -0.2692
 5583SOL     OW28207   2.868   2.701   2.331 -0.3253 -0.2118 -0.1459
 5583SOL    HW128208   2.961   2.717   2.349 -0.9694  0.8134  2.3250
 5583SOL    HW228209   2.824   2.717   2.414  1.2042  2.3588  0.1684
 5584SOL     OW28210   2.129   2.233   8.631 -0.4356  0.0618 -0.0107
 5584SOL    HW128211   2.203   2.186   8.592  1.5672  1.5534  1.9826
 5584SOL    HW228212   2.168   2.279   8.705 -0.1006  2.8922 -1.9363
 5585SOL     OW28213   2.108   3.826   2.572  0.0085  0.1491  0.0669
 5585SOL    HW128214   2.146   3.751   2.526 -0.6970 -0.9027  1.2007
 5585SOL    HW228215   2.158   3.820   2.653  0.8645  1.3746 -0.3577
 5586SOL     OW28216   0.869   2.547   6.012  0.2743 -0.6750  0.3159
 5586SOL    HW128217   0.929   2.616   6.042 -1.0612 -0.1047  1.7091
 5586SOL    HW228218   0.931   2.520   5.945  0.8110  2.5978 -0.5328
 5587SOL     OW28219   1.077   3.915   4.627 -0.2439 -0.5264 -0.5539
 5587SOL    HW128220   1.022   3.991   4.606 -0.5689 -0.7839 -0.6334
 5587SOL    HW228221   1.050   3.869   4.548  3.7483 -0.7738 -1.7586
 5588SOL     OW28222   1.768   0.531   5.824  0.3055 -0.0857 -0.0163
 5588SOL    HW128223   1.763   0.447   5.868  0.4495  0.5970  1.3102
 5588SOL    HW228224   1.749   0.592   5.896 -0.4884  1.3640 -1.4313
 5589SOL     OW28225   4.596   2.179   6.911  0.2396 -0.2158  0.2086
 5589SOL    HW128226   4.596   2.234   6.833 -0.0132  0.2436  0.5302
 5589SOL    HW228227   4.506   2.149   6.912 -0.0930  0.8271  2.7062
 5590SOL     OW28228   3.979   1.652   8.894 -0.2285 -0.4852  0.1641
 5590SOL    HW128229   3.956   1.726   8.837  2.6572 -0.2507 -0.6640
 5590SOL    HW228230   4.068   1.672   8.922 -0.1135 -0.7304 -0.0403
 5591SOL     OW28231   2.230   2.557   3.652  0.1504  0.2351  0.1959
 5591SOL    HW128232   2.256   2.619   3.721  1.6902  0.6158 -0.7096
 5591SOL    HW228233   2.186   2.614   3.589 -1.1606 -1.8278 -0.7242
 5592SOL     OW28234   4.101   2.298   4.903  0.3907  0.1132  0.3103
 5592SOL    HW128235   4.139   2.235   4.843 -0.3385  0.3434 -0.3910
 5592SOL    HW228236   4.018   2.321   4.861 -0.1032  2.7315  2.6983
 5593SOL     OW28237   1.659   3.795   7.790 -0.0199  0.1074  0.3220
 5593SOL    HW128238   1.634   3.870   7.843  0.9820  1.0397 -0.5442
 5593SOL    HW228239   1.579   3.778   7.740 -0.2474 -2.2829  1.4465
 5594SOL     OW28240   0.844   1.633   3.016  0.3165 -0.1088 -0.1805
 5594SOL    HW128241   0.905   1.561   3.000 -0.1261 -0.4206 -0.4655
 5594SOL    HW228242   0.880   1.669   3.097  1.4013  0.8504 -1.1004
 5595SOL     OW28243   1.717   3.326   3.628 -0.5724 -0.2634 -0.4769
 5595SOL    HW128244   1.627   3.310   3.598 -0.8492 -0.4714  0.4540
 5595SOL    HW228245   1.753   3.392   3.570 -2.3365  1.4026  0.3207
 5596SOL     OW28246   2.225   3.665   4.549 -0.2862 -0.1132 -0.2198
 5596SOL    HW128247   2.248   3.756   4.532 -1.2628  0.0670 -0.5896
 5596SOL    HW228248   2.155   3.660   4.614  0.9054  0.6275  1.0995
 5597SOL     OW28249   2.880   0.627   5.173  0.0376 -0.3204  0.3621
 5597SOL    HW128250   2.846   0.562   5.235 -1.3488 -2.1246 -2.2520
 5597SOL    HW228251   2.913   0.576   5.099  1.7134 -0.2163  1.0550
 5598SOL     OW28252   1.372   4.024  14.735 -0.3829 -0.3670 -0.3177
 5598SOL    HW128253   1.363   4.100  14.792  0.6934 -0.2840 -0.2509
 5598SOL    HW228254   1.420   3.960  14.788 -1.1336  0.0007  0.8167
 5599SOL     OW28255   4.515   3.929   2.885  0.5359  0.2324  0.4604
 5599SOL    HW128256   4.457   3.984   2.938 -0.9732 -1.2908  0.3874
 5599SOL    HW228257   4.450   3.907   2.818 -2.0481  0.7601  2.8102
 5600SOL     OW28258   1.973   1.998   9.645  0.1029  0.3549  0.2680
 5600SOL    HW128259   2.056   1.967   9.609  2.1659  2.7831  2.9407
 5600SOL    HW228260   1.914   1.923   9.635 -0.1019  0.8235 -2.0958
 5601SOL     OW28261   3.774   2.216   3.050  0.3072 -0.6518 -0.1736
 5601SOL    HW128262   3.768   2.182   3.139 -0.9573  1.4645  0.5260
 5601SOL    HW228263   3.866   2.244   3.044  0.4127 -0.9163  0.1887
 5602SOL     OW28264   3.315   1.523   6.983  0.8210 -0.4353 -0.2765
 5602SOL    HW128265   3.332   1.617   6.970 -1.4027  0.1057  0.6641
 5602SOL    HW228266   3.332   1.517   7.077  0.0776  2.2685  0.0392
 5603SOL     OW28267   0.245   0.216  10.071 -0.3629 -0.3295 -0.2054
 5603SOL    HW128268   0.259   0.121  10.069  0.8596 -0.1655  0.4251
 5603SOL    HW228269   0.193   0.240  10.147 -0.6546 -0.0409 -0.4946
 5604SOL     OW28270   2.257   2.822   1.182  0.1515 -0.0618  0.1528
 5604SOL    HW128271   2.162   2.833   1.179  0.4308  2.3436  0.7983
 5604SOL    HW228272   2.282   2.903   1.139  1.2811  0.5139  1.9252
 5605SOL     OW28273   4.610   3.321   5.457  0.0792 -0.3186 -0.0711
 5605SOL    HW128274   4.673   3.280   5.516 -1.4623  0.0250  1.8392
 5605SOL    HW228275   4.647   3.410   5.461  0.3858 -0.4383 -0.2373
 5606SOL     OW28276   2.723   2.179  11.120 -0.2740  0.0594  0.3983
 5606SOL    HW128277   2.640   2.131  11.126 -0.5014  0.5317  1.0114
 5606SOL    HW228278   2.763   2.125  11.188  0.4607  0.1573  0.0439
 5607SOL     OW28279   3.378   3.272   4.242  0.1588 -0.2062 -0.2140
 5607SOL    HW128280   3.434   3.240   4.312  2.2761  3.2323 -0.3600
 5607SOL    HW228281   3.437   3.276   4.167  1.4984 -2.9513  0.6913
 5608SOL     OW28282   0.837   1.466   5.621 -0.6679 -0.0584 -0.4303
 5608SOL    HW128283   0.789   1.445   5.702 -2.2475  2.0964 -0.7849
 5608SOL    HW228284   0.797   1.552   5.609  1.1193  1.0030  1.0724
 5609SOL     OW28285   2.767   0.843   5.485  0.2349 -0.3742  0.3138
 5609SOL    HW128286   2.699   0.781   5.514 -1.1049  1.5162  1.1690
 5609SOL    HW228287   2.718   0.888   5.416  1.9312 -0.6931 -1.1061
 5610SOL     OW28288   0.170   0.106  15.865 -0.0973 -0.1743 -0.1299
 5610SOL    HW128289   0.118   0.090  15.945  0.8279  1.2055  0.7410
 5610SOL    HW228290   0.144   0.034  15.807 -1.8294  0.0857  0.3149
 5611SOL     OW28291   2.138   2.436   2.732  0.5725  0.1347  0.7065
 5611SOL    HW128292   2.194   2.368   2.695  0.5650  0.3948  0.2079
 5611SOL    HW228293   2.092   2.454   2.649 -0.5390  1.3279  1.5772
 5612SOL     OW28294   0.091   1.754   5.919  0.0295 -0.3636  0.9973
 5612SOL    HW128295   0.017   1.810   5.895  1.3555  0.5370 -0.9393
 5612SOL    HW228296   0.045   1.673   5.940 -1.2464  0.1676  0.2377
 5613SOL     OW28297   1.977   2.873  14.867 -0.3602  0.1057 -0.1809
 5613SOL    HW128298   1.947   2.819  14.794  0.1836 -0.9662  0.3763
 5613SOL    HW228299   1.892   2.916  14.872 -0.4589 -0.2920  1.6625
 5614SOL     OW28300   1.610   3.343   4.837  0.1577  0.6827  0.4975
 5614SOL    HW128301   1.605   3.253   4.804 -4.0870  0.7244  1.0981
 5614SOL    HW228302   1.698   3.346   4.876 -0.4717 -2.4157  2.1356
 5615SOL     OW28303   3.656   0.431   9.393  0.1707 -0.0138  0.0525
 5615SOL    HW128304   3.598   0.459   9.322  0.0717 -0.3580 -0.0055
 5615SOL    HW228305   3.684   0.517   9.423  1.1678 -0.0446 -0.7872
 5616SOL     OW28306   1.792   3.782   7.057 -0.1158 -0.2421  0.2168
 5616SOL    HW128307   1.749   3.697   7.053  0.7375 -0.6358 -0.7083
 5616SOL    HW228308   1.728   3.838   7.102  1.6149  3.4173 -1.8755
 5617SOL     OW28309   2.603   3.541  13.829  0.5596  0.6365  0.1273
 5617SOL    HW128310   2.602   3.522  13.735  0.2695 -1.5133  0.5554
 5617SOL    HW228311   2.512   3.559  13.854  0.5037  1.3954 -0.6247
 5618SOL     OW28312   3.712   1.979   8.220 -0.0698  0.0826  0.0743
 5618SOL    HW128313   3.770   2.055   8.218 -1.2187  0.9901  1.1355
 5618SOL    HW228314   3.667   1.994   8.137 -1.7997  0.6168  1.1060
 5619SOL     OW28315   4.581   3.316   4.277 -0.8548 -0.2438  0.2930
 5619SOL    HW128316   4.610   3.385   4.217  0.9593 -0.5905  0.7644
 5619SOL    HW228317   4.502   3.285   4.232  0.1676  0.8704 -2.2935
 5620SOL     OW28318   2.637   1.530   8.007 -0.3768 -0.2370 -0.2017
 5620SOL    HW128319   2.685   1.541   8.089 -3.6290 -0.9521  1.8156
 5620SOL    HW228320   2.555   1.500   8.046 -1.9793  1.6493 -2.1419
 5621SOL     OW28321   0.604   3.366   2.016 -0.1834  1.1595 -0.1298
 5621SOL    HW128322   0.654   3.288   2.039 -0.9017  0.6556 -0.2604
 5621SOL    HW228323   0.519   3.326   1.998  1.7726 -1.9949 -2.3384
 5622SOL     OW28324   4.512   4.662   6.783  0.5345 -0.1675  0.5082
 5622SOL    HW128325   4.476   4.574   6.784 -1.0336  0.4708 -0.7042
 5622SOL    HW228326   4.589   4.648   6.839 -0.6852 -1.0858  1.9503
 5623SOL     OW28327   4.326   1.200   4.623 -0.4371  0.2442  0.6805
 5623SOL    HW128328   4.354   1.291   4.630  1.4614 -0.4101  1.5406
 5623SOL    HW228329   4.399   1.166   4.571 -0.5001  1.6152 -0.3105
 5624SOL     OW28330   0.881   0.783   4.304 -0.0064 -0.4736  0.0323
 5624SOL    HW128331   0.839   0.757   4.222 -0.4269 -0.5672  0.2747
 5624SOL    HW228332   0.841   0.868   4.323  1.8961 -0.0475  2.1774
 5625SOL     OW28333   0.670   1.444   8.037  0.1543  0.0995  0.6038
 5625SOL    HW128334   0.758   1.415   8.062  0.2147 -0.3677 -0.1544
 5625SOL    HW228335   0.694   1.492   7.958 -2.0636  0.9460  0.4670
 5626SOL     OW28336   0.648   2.281   7.363  0.3436  0.3027 -0.7412
 5626SOL    HW128337   0.618   2.322   7.445 -2.3735 -0.1018 -1.5470
 5626SOL    HW228338   0.612   2.193   7.368  0.5973  0.1724 -1.2711
 5627SOL     OW28339   3.335   2.858   7.462  0.2437  0.1551  0.0073
 5627SOL    HW128340   3.295   2.779   7.427  0.7490  0.1511 -0.5703
 5627SOL    HW228341   3.272   2.925   7.436  1.3307  1.5329  0.9269
 5628SOL     OW28342   4.211   0.386   4.316  0.4539 -0.3605  0.3141
 5628SOL    HW128343   4.276   0.332   4.271  0.6067 -0.0699  0.1875
 5628SOL    HW228344   4.218   0.460   4.257 -1.6293  0.2262  0.8147
 5629SOL     OW28345   2.071   2.136   9.164  0.2436 -0.8261  0.3141
 5629SOL    HW128346   2.001   2.124   9.228  3.0617 -0.4172  3.5014
 5629SOL    HW228347   2.029   2.121   9.080 -0.1779 -0.1164  0.4026
 5630SOL     OW28348   2.156   0.229   5.796 -0.1160  0.5444  0.0339
 5630SOL    HW128349   2.143   0.322   5.811  2.2323  1.2669 -2.4878
 5630SOL    HW228350   2.224   0.208   5.860  0.7051 -1.7934 -1.6099
 5631SOL     OW28351   3.173   3.742   8.448 -0.0819  0.1426 -0.1024
 5631SOL    HW128352   3.112   3.671   8.467  0.4759 -0.3190 -0.0427
 5631SOL    HW228353   3.117   3.800   8.397 -1.9408 -1.6257 -0.0517
 5632SOL     OW28354   1.990   3.049   4.016 -0.0179  0.2633  0.2560
 5632SOL    HW128355   2.050   3.083   3.949 -0.6408  0.9448  0.0592
 5632SOL    HW228356   1.906   3.090   4.001  0.6429  1.5569  0.1382
 5633SOL     OW28357   0.713   1.424   0.330  0.0783 -0.4565 -0.3029
 5633SOL    HW128358   0.638   1.365   0.330 -0.6283  0.4307  2.5579
 5633SOL    HW228359   0.780   1.357   0.344 -1.3375 -1.9398 -0.7611
 5634SOL     OW28360   3.139   3.739   3.303  0.5536  0.3545  0.0912
 5634SOL    HW128361   3.087   3.671   3.260  3.2738  0.6961 -3.7468
 5634SOL    HW228362   3.171   3.786   3.226 -0.5920  2.9291  1.1874
 5635SOL     OW28363   0.158   2.150   4.960  0.0656  0.4985 -0.4820
 5635SOL    HW128364   0.150   2.100   5.041 -0.1436 -0.4092 -1.0595
 5635SOL    HW228365   0.232   2.113   4.913 -0.0837  0.9431 -1.0645
 5636SOL     OW28366   3.892   2.064   4.052 -0.1147  0.4861 -0.1027
 5636SOL    HW128367   3.908   2.086   4.143 -1.8036  2.5872 -0.3320
 5636SOL    HW228368   3.800   2.040   4.054 -0.1379  0.6629  0.9958
 5637SOL     OW28369   4.398   2.539   7.713 -0.4069 -0.0497  0.1620
 5637SOL    HW128370   4.312   2.535   7.671  0.7404  0.1326 -2.2226
 5637SOL    HW228371   4.434   2.602   7.651 -0.6984 -0.6477 -0.6311
 5638SOL     OW28372   2.179   0.769  16.056  0.8785 -0.7284  0.4593
 5638SOL    HW128373   2.179   0.731  15.968  0.1896 -0.9295  0.5518
 5638SOL    HW228374   2.272   0.786  16.071  1.0804  0.8848 -2.4984
 5639SOL     OW28375   2.191   1.363  11.757  0.1510  0.0369  0.1339
 5639SOL    HW128376   2.177   1.457  11.769  0.8830  0.1300  0.2427
 5639SOL    HW228377   2.285   1.362  11.776  0.5852  3.9546 -1.9520
 5640SOL     OW28378   2.983   4.721  17.124  0.2187  0.4508  0.2300
 5640SOL    HW128379   3.073   4.706  17.154 -0.6405  1.0991  3.1930
 5640SOL    HW228380   2.970   0.094  17.127 -0.1439  0.4205 -0.6689
 5641SOL     OW28381   3.820   2.119  15.867  0.6891  0.4906  0.3737
 5641SOL    HW128382   3.801   2.027  15.882  0.1221  0.6008  0.3230
 5641SOL    HW228383   3.914   2.111  15.849  0.2225 -1.7055 -1.0410
 5642SOL     OW28384   3.040   4.349   7.615  0.3851  0.1341  0.1061
 5642SOL    HW128385   3.032   4.396   7.532  0.1930  0.6402  0.4093
 5642SOL    HW228386   3.030   4.258   7.586 -0.3579  0.2410  0.0092
 5643SOL     OW28387   2.550   1.181  15.691  0.7979 -0.6021 -0.1878
 5643SOL    HW128388   2.487   1.232  15.741 -2.1101 -2.9042 -1.5216
 5643SOL    HW228389   2.539   1.096  15.733  0.8655 -0.7467 -0.4630
 5644SOL     OW28390   2.343   3.419   4.962 -0.1158  0.1832  0.2989
 5644SOL    HW128391   2.404   3.412   4.888 -0.2737  1.8085  0.0171
 5644SOL    HW228392   2.313   3.510   4.952 -1.8379 -0.5328 -0.9414
 5645SOL     OW28393   0.669   1.393   5.826  0.0010  0.3503 -0.1928
 5645SOL    HW128394   0.645   1.303   5.801 -0.8980  0.9033 -1.2784
 5645SOL    HW228395   0.697   1.372   5.916 -1.2719  1.4537  0.4535
 5646SOL     OW28396   3.663   3.128   2.133 -0.0306  0.0434  0.5321
 5646SOL    HW128397   3.669   3.210   2.183  0.1986  0.4024 -0.0818
 5646SOL    HW228398   3.718   3.141   2.056 -0.6666  0.3663  0.1238
 5647SOL     OW28399   0.761   2.715   8.840  0.4661  0.5729 -0.2010
 5647SOL    HW128400   0.803   2.679   8.918  2.2919  1.5388 -0.7535
 5647SOL    HW228401   0.704   2.644   8.810  0.8827 -0.7763  2.1374
 5648SOL     OW28402   0.010   1.874   8.947  0.5786  0.1339 -0.5794
 5648SOL    HW128403   4.674   1.836   8.881  0.3698 -1.4881  0.5367
 5648SOL    HW228404   0.078   1.916   8.895  1.5897 -0.9343 -0.1064
 5649SOL     OW28405   4.078   3.323  15.128 -0.1317  0.4397  0.0281
 5649SOL    HW128406   4.104   3.313  15.220 -0.5921 -2.0683 -0.1101
 5649SOL    HW228407   4.028   3.404  15.131 -2.1473 -0.8828  1.9224
 5650SOL     OW28408   2.687   3.204  11.813  0.1738  0.3664  0.9482
 5650SOL    HW128409   2.701   3.122  11.766 -1.1850  0.8614 -0.3041
 5650SOL    HW228410   2.777   3.231  11.833 -0.0142 -0.3500  2.7218
 5651SOL     OW28411   0.231   2.613   1.465  0.0253  0.6931  0.0079
 5651SOL    HW128412   0.244   2.554   1.390 -2.0258 -0.1382  0.3169
 5651SOL    HW228413   0.177   2.686   1.434 -0.0103 -0.3298 -2.3382
 5652SOL     OW28414   1.853   0.218   3.869 -0.0726 -0.4163 -0.0105
 5652SOL    HW128415   1.899   0.192   3.949  1.0407 -0.2942 -0.6019
 5652SOL    HW228416   1.877   0.144   3.814  0.3290 -1.8222  2.0466
 5653SOL     OW28417   1.590   3.878   6.254  0.4638  0.2686  0.3423
 5653SOL    HW128418   1.615   3.787   6.268  0.5092  0.3322  0.6625
 5653SOL    HW228419   1.569   3.908   6.342 -0.7465 -0.7654  0.3940
 5654SOL     OW28420   4.043   2.546   4.550 -0.6678  0.3783 -0.0181
 5654SOL    HW128421   4.073   2.535   4.641 -0.2311  2.1166  0.0628
 5654SOL    HW228422   4.113   2.604   4.518 -1.3713  0.7214 -0.9360
 5655SOL     OW28423   0.345   0.592   8.555 -0.5255  0.3316  0.0623
 5655SOL    HW128424   0.381   0.587   8.644  3.0263 -0.6753 -1.4336
 5655SOL    HW228425   0.420   0.614   8.500 -0.5535 -1.3242 -0.6350
 5656SOL     OW28426   0.644   2.380   7.082 -0.0498  0.5390  0.1051
 5656SOL    HW128427   0.652   2.355   7.174 -1.9449 -0.4810 -0.0033
 5656SOL    HW228428   0.567   2.436   7.090  1.7223  3.1198 -1.1360
 5657SOL     OW28429   3.547   4.202   5.315 -0.0674  0.3371 -0.1975
 5657SOL    HW128430   3.623   4.158   5.277 -1.0424  0.7234 -2.5816
 5657SOL    HW228431   3.564   4.291   5.283  0.5327 -0.0630 -1.0025
 5658SOL     OW28432   2.712   0.409   5.893  0.7288 -0.1164 -0.5668
 5658SOL    HW128433   2.753   0.491   5.865  2.2781 -0.6455  0.0981
 5658SOL    HW228434   2.703   0.433   5.985 -1.2894 -1.3589 -0.4396
 5659SOL     OW28435   0.364   0.176   6.095  0.3176 -0.4467 -0.3231
 5659SOL    HW128436   0.376   0.266   6.063  0.8130 -0.0346  1.0152
 5659SOL    HW228437   0.452   0.141   6.084 -0.6999 -3.1325  0.0585
 5660SOL     OW28438   1.614   2.220  15.233 -0.2384 -0.2798  0.8657
 5660SOL    HW128439   1.623   2.145  15.291 -1.1682 -0.5952  0.6018
 5660SOL    HW228440   1.607   2.289  15.299 -0.3389  1.5162 -1.0269
 5661SOL     OW28441   1.628   1.979   4.552  0.1456  0.3952 -0.0289
 5661SOL    HW128442   1.648   2.010   4.641 -1.6582 -1.9083  1.1971
 5661SOL    HW228443   1.685   1.903   4.541 -1.2857 -0.6747 -0.0534
 5662SOL     OW28444   0.349   4.634   8.995  0.0109  0.5745  0.2792
 5662SOL    HW128445   0.408   4.632   8.920 -0.1735 -0.6053  0.1685
 5662SOL    HW228446   0.287   4.565   8.970 -0.2539  1.0627 -0.3973
 5663SOL     OW28447   2.323   0.850   5.271  0.4028 -0.0750 -0.6745
 5663SOL    HW128448   2.310   0.914   5.201 -1.1409 -0.2691 -0.5617
 5663SOL    HW228449   2.373   0.780   5.229  0.2795 -0.6211  0.0939
 5664SOL     OW28450   2.021   0.541   9.844 -0.2722  0.0917 -0.0868
 5664SOL    HW128451   1.955   0.526   9.912 -0.7371  0.1051 -0.5350
 5664SOL    HW228452   1.974   0.608   9.795 -1.8864 -2.2264 -1.6685
 5665SOL     OW28453   0.411   4.555   5.555 -0.0166  0.4481  0.8678
 5665SOL    HW128454   0.498   4.521   5.533 -0.0421  0.4584  0.7515
 5665SOL    HW228455   0.435   4.642   5.589  0.9846  0.2990  0.5626
 5666SOL     OW28456   1.664   3.864  13.924  0.0753  0.3410 -0.2913
 5666SOL    HW128457   1.682   3.926  13.853  1.2046 -1.2048 -1.3393
 5666SOL    HW228458   1.718   3.907  13.990  0.6351  0.1297 -0.6114
 5667SOL     OW28459   1.456   4.199  14.129 -0.1319 -0.0585 -0.4192
 5667SOL    HW128460   1.537   4.250  14.133 -0.6965  0.6214  2.2434
 5667SOL    HW228461   1.480   4.112  14.162  0.2068  0.9026  1.8821
 5668SOL     OW28462   0.675   3.794  11.852  0.1978  0.4063  0.3796
 5668SOL    HW128463   0.665   3.699  11.860 -0.6302  0.4235 -0.4216
 5668SOL    HW228464   0.714   3.805  11.938  1.8068  0.7827 -0.3958
 5669SOL     OW28465   0.521   2.892   2.040 -0.0912 -0.4043 -0.1958
 5669SOL    HW128466   0.482   2.975   2.067  0.5922 -0.0566 -0.3050
 5669SOL    HW228467   0.446   2.836   2.020 -0.8805  1.0648 -1.2775
 5670SOL     OW28468   3.598   4.625   8.015  0.3655  0.3079 -0.1221
 5670SOL    HW128469   3.571   4.715   8.035 -0.4563  0.2455 -0.9425
 5670SOL    HW228470   3.661   4.643   7.946  0.1319 -0.6985 -0.5999
 5671SOL     OW28471   4.179   1.795   9.636 -0.0273 -0.2987  0.2056
 5671SOL    HW128472   4.117   1.794   9.564 -1.8295  0.0197  1.7470
 5671SOL    HW228473   4.213   1.883   9.617 -1.7869  0.6845  1.5795
 5672SOL     OW28474   2.850   4.690  14.182  0.1806 -0.3303 -0.0654
 5672SOL    HW128475   2.818   0.052  14.148  0.9741  0.4417  1.0965
 5672SOL    HW228476   2.932   4.712  14.227 -0.5762  2.5567 -0.0813
 5673SOL     OW28477   4.258   1.802   1.775  0.1209  0.3347  0.8228
 5673SOL    HW128478   4.353   1.809   1.785  0.2092  1.5227 -0.7418
 5673SOL    HW228479   4.220   1.767   1.855 -0.1626 -0.0145  0.5369
 5674SOL     OW28480   0.890   4.137   5.860 -0.1294 -0.9414  0.1873
 5674SOL    HW128481   0.935   4.062   5.899 -1.6022 -0.9741  1.8596
 5674SOL    HW228482   0.949   4.212   5.862 -0.2400 -0.8723  1.0640
 5675SOL     OW28483   3.245   1.204   3.417 -0.2658 -0.1547 -0.2879
 5675SOL    HW128484   3.284   1.136   3.472 -0.9198  1.8647  2.7250
 5675SOL    HW228485   3.261   1.178   3.327 -0.5070 -1.3767  0.0253
 5676SOL     OW28486   1.744   4.490   1.347 -0.0299 -0.1979 -0.3962
 5676SOL    HW128487   1.679   4.429   1.310 -2.6265  1.9430  0.6133
 5676SOL    HW228488   1.787   4.515   1.266 -0.0616  0.3631 -0.2348
 5677SOL     OW28489   2.832   2.994  13.140  0.1506 -0.2136  0.0684
 5677SOL    HW128490   2.920   2.963  13.162 -0.8252 -2.4334  0.8505
 5677SOL    HW228491   2.841   3.010  13.046 -1.2491 -0.2788 -0.0674
 5678SOL     OW28492   2.366   2.248   5.711  0.3855 -0.4580  0.1502
 5678SOL    HW128493   2.395   2.228   5.800 -0.0981  1.7012  0.7904
 5678SOL    HW228494   2.294   2.185   5.708 -0.3961  0.4315  0.1383
 5679SOL     OW28495   1.393   1.183  12.515 -0.5011  0.4107 -0.0658
 5679SOL    HW128496   1.389   1.268  12.471  0.0135  1.2274  1.4565
 5679SOL    HW228497   1.305   1.150  12.499  0.0592 -2.2407  2.2040
 5680SOL     OW28498   1.295   2.710  14.769 -0.3411  0.6757  0.3175
 5680SOL    HW128499   1.328   2.797  14.789  2.0063 -0.5515  1.7402
 5680SOL    HW228500   1.350   2.682  14.696 -0.9525  0.2489  0.0235
 5681SOL     OW28501   1.091   0.634   3.955 -0.2104 -0.0793  0.3462
 5681SOL    HW128502   1.158   0.687   4.000 -0.8767  0.2688  0.9225
 5681SOL    HW228503   1.067   0.575   4.026  0.1142 -1.4031 -0.6529
 5682SOL     OW28504   4.276   2.434   9.124  0.3430  0.1687  0.2485
 5682SOL    HW128505   4.262   2.416   9.217  0.5855  1.3907  0.5348
 5682SOL    HW228506   4.285   2.351   9.079  1.8917 -0.5849  1.9725
 5683SOL     OW28507   4.104   2.729  12.750 -0.1864  0.1862  0.0366
 5683SOL    HW128508   4.128   2.697  12.662 -4.1035  0.8838 -1.2828
 5683SOL    HW228509   4.044   2.662  12.782  0.5909  0.6527  2.4440
 5684SOL     OW28510   2.567   1.710  11.204 -0.3832  0.3439 -0.3754
 5684SOL    HW128511   2.646   1.764  11.211 -1.0117  1.5395 -2.5504
 5684SOL    HW228512   2.589   1.624  11.240 -0.8361  1.6352  2.9628
 5685SOL     OW28513   2.805   0.371   5.273  0.3871 -0.5576 -0.3791
 5685SOL    HW128514   2.814   0.396   5.365 -2.3692 -1.3962  0.1131
 5685SOL    HW228515   2.847   0.286   5.278 -1.0100 -1.1764  0.7478
 5686SOL     OW28516   1.349   2.389   5.015 -0.1962  0.4566  0.4108
 5686SOL    HW128517   1.398   2.352   4.941 -0.3530  2.3701 -0.6490
 5686SOL    HW228518   1.386   2.339   5.088 -0.8057 -0.8935 -0.2024
 5687SOL     OW28519   2.277   1.365  12.428 -0.2260  0.1157 -0.0040
 5687SOL    HW128520   2.372   1.382  12.426 -0.3107  0.4451 -1.1511
 5687SOL    HW228521   2.272   1.346  12.521 -1.4146 -1.2228 -0.3397
 5688SOL     OW28522   0.021   0.641   6.765 -0.0248  0.4941  0.5309
 5688SOL    HW128523   4.708   0.626   6.853  1.1156 -4.1957  0.1731
 5688SOL    HW228524   0.116   0.649   6.768 -0.0111  0.8166 -0.6649
 5689SOL     OW28525   2.270   0.609   1.416 -0.9049  0.2584  0.5060
 5689SOL    HW128526   2.195   0.665   1.399 -0.8659  0.6941  1.7572
 5689SOL    HW228527   2.288   0.552   1.341 -0.7079 -0.7403  1.3117
 5690SOL     OW28528   3.778   4.378   8.672  0.7915  0.4878  0.6690
 5690SOL    HW128529   3.718   4.445   8.638 -0.8106 -1.8633 -1.1399
 5690SOL    HW228530   3.856   4.387   8.617  0.4570  1.7216  0.3964
 5691SOL     OW28531   0.121   0.991   1.485 -0.4549  0.0356  0.3084
 5691SOL    HW128532   0.197   0.963   1.536 -0.6055  1.0544  1.0914
 5691SOL    HW228533   0.163   1.039   1.413 -0.5631  0.2377  0.3808
 5692SOL     OW28534   1.406   2.048   8.451  0.2211 -0.0049  0.6846
 5692SOL    HW128535   1.480   2.095   8.414  1.4212 -2.5895 -0.2113
 5692SOL    HW228536   1.423   2.041   8.545  1.6316 -4.1854  0.1372
 5693SOL     OW28537   0.243   0.848   7.828  0.0960 -0.5372  0.0983
 5693SOL    HW128538   0.239   0.854   7.924 -1.8111  0.2278 -0.0373
 5693SOL    HW228539   0.159   0.811   7.804 -0.3216 -0.5150  1.5194
 5694SOL     OW28540   1.667   0.574   1.960  0.2442  0.2213 -0.0330
 5694SOL    HW128541   1.582   0.601   1.993  0.3303 -0.0233  0.3886
 5694SOL    HW228542   1.650   0.494   1.910 -0.8860  0.0324  0.6592
 5695SOL     OW28543   2.575   0.612   8.719  0.4076 -0.3064 -0.3044
 5695SOL    HW128544   2.584   0.518   8.735 -1.1376 -0.6302 -1.3052
 5695SOL    HW228545   2.612   0.628   8.632  0.3150 -0.0142 -0.2880
 5696SOL     OW28546   2.076   4.610   3.299 -0.0127 -0.2629  0.3429
 5696SOL    HW128547   1.987   4.581   3.318 -0.1291 -0.8791 -1.0914
 5696SOL    HW228548   2.127   4.573   3.371 -1.3031  0.4579  1.6073
 5697SOL     OW28549   1.251   2.257  10.413  0.3219  0.7425 -0.2881
 5697SOL    HW128550   1.160   2.268  10.441 -0.0601 -2.7439 -0.2168
 5697SOL    HW228551   1.282   2.348  10.412  1.3225  0.3971 -0.9427
 5698SOL     OW28552   1.398   3.956   3.710  0.1013  0.6545  0.1622
 5698SOL    HW128553   1.337   3.903   3.660  1.3807 -0.9954  0.3362
 5698SOL    HW228554   1.369   3.948   3.801 -1.2138  2.5930 -0.0846
 5699SOL     OW28555   3.401   1.740   6.025 -0.6925 -0.1145 -0.1329
 5699SOL    HW128556   3.458   1.692   5.964  2.8545  2.0028  1.4640
 5699SOL    HW228557   3.361   1.671   6.077  0.7101  0.6389  1.9676
 5700SOL     OW28558   1.733   3.964   5.863 -1.1525  0.2721 -0.0604
 5700SOL    HW128559   1.768   3.993   5.947  0.0059  1.0644 -0.8335
 5700SOL    HW228560   1.656   3.925   5.905 -0.6650 -1.8553 -1.0955
 5701SOL     OW28561   0.545   2.456   2.551  0.4698 -0.1915 -0.2622
 5701SOL    HW128562   0.593   2.443   2.633  0.4443 -0.4628 -0.2922
 5701SOL    HW228563   0.616   2.488   2.495 -0.7878 -0.4101 -1.9709
 5702SOL     OW28564   0.304   2.227   3.969 -0.3994 -0.0069 -0.2487
 5702SOL    HW128565   0.322   2.153   4.026 -3.1294  0.7131  1.5126
 5702SOL    HW228566   0.362   2.297   4.001 -1.5835  0.6805  0.3935
 5703SOL     OW28567   1.672   2.184   3.945 -0.1641  0.3484 -0.1815
 5703SOL    HW128568   1.623   2.259   3.912 -0.4336 -0.3081 -1.2476
 5703SOL    HW228569   1.701   2.217   4.030 -0.2382  2.1467 -0.8503
 5704SOL     OW28570   4.153   3.572   4.143 -0.5811  0.8058  0.3408
 5704SOL    HW128571   4.183   3.656   4.177 -2.0440  0.6054  2.1716
 5704SOL    HW228572   4.181   3.522   4.220  1.9413  0.6369 -0.6936
 5705SOL     OW28573   0.402   1.519   0.120 -0.4486 -1.0751  0.3070
 5705SOL    HW128574   0.357   1.599   0.092 -0.5979 -1.9696 -1.9902
 5705SOL    HW228575   0.493   1.530   0.090 -1.1741  0.1046 -1.4736
 5706SOL     OW28576   2.032   3.316  12.626 -0.3725  0.1097 -0.1124
 5706SOL    HW128577   2.022   3.394  12.681  0.1861 -0.0815  0.2555
 5706SOL    HW228578   2.126   3.301  12.633 -0.5859 -0.3186  1.8618
 5707SOL     OW28579   2.811   3.715   9.979  0.9611 -0.1888  0.1095
 5707SOL    HW128580   2.773   3.657  10.046  1.5406 -1.4339 -0.6436
 5707SOL    HW228581   2.767   3.796  10.004 -0.0403 -0.5344 -0.5238
 5708SOL     OW28582   3.982   1.193   5.526  0.1452 -0.1447 -0.4115
 5708SOL    HW128583   4.019   1.115   5.486  2.4181  0.2360  0.9729
 5708SOL    HW228584   3.928   1.160   5.598 -0.5252  1.7720 -0.0350
 5709SOL     OW28585   2.490   2.264   4.464  0.0269 -0.0803  0.0622
 5709SOL    HW128586   2.557   2.243   4.399  1.4507  1.0007  1.1748
 5709SOL    HW228587   2.420   2.292   4.406 -0.5861  0.0575  0.8560
 5710SOL     OW28588   0.516   3.194   6.611  0.0477  0.2362  0.2042
 5710SOL    HW128589   0.448   3.235   6.558  1.1671  1.9757  0.1312
 5710SOL    HW228590   0.503   3.234   6.697  1.3978 -0.7183  0.8551
 5711SOL     OW28591   0.130   3.954   0.116  0.0995  0.8096  0.3316
 5711SOL    HW128592   0.142   4.029   0.057  0.0447  1.5771  1.2999
 5711SOL    HW228593   0.055   3.983   0.169 -1.8821 -2.4579 -0.6997
 5712SOL     OW28594   0.152   3.565  17.542  0.4720 -0.0672 -0.1463
 5712SOL    HW128595   0.131   3.646  17.498  4.6664  1.0117 -0.1609
 5712SOL    HW228596   0.137   3.498  17.475  1.4044 -0.5244  0.1022
 5713SOL     OW28597   2.324   3.532   7.197  0.1282 -0.5982  0.3134
 5713SOL    HW128598   2.373   3.453   7.218  0.2058 -0.8161 -0.6976
 5713SOL    HW228599   2.249   3.516   7.254 -1.2412 -0.6647 -1.4889
 5714SOL     OW28600   0.652   3.516   9.176  0.3477 -0.3094  0.1086
 5714SOL    HW128601   0.638   3.473   9.091 -1.4686  1.4594 -0.4898
 5714SOL    HW228602   0.747   3.508   9.183  0.2891  0.2850  1.4679
 5715SOL     OW28603   2.154   0.195  14.632 -0.0411  0.4444 -0.1977
 5715SOL    HW128604   2.206   0.144  14.694 -0.0182 -2.2853 -2.4562
 5715SOL    HW228605   2.067   0.166  14.659 -0.2730  1.7888  0.4780
 5716SOL     OW28606   4.197   1.921   5.022 -0.1634 -0.2938  0.0253
 5716SOL    HW128607   4.256   1.884   4.956 -1.7286 -2.7216 -0.0155
 5716SOL    HW228608   4.262   1.978   5.064 -1.4792  1.2927 -0.0889
 5717SOL     OW28609   3.616   1.257   7.145  0.3520 -0.0825 -0.0701
 5717SOL    HW128610   3.595   1.295   7.060  1.1620 -0.2019 -0.3209
 5717SOL    HW228611   3.567   1.177   7.126 -0.6856  0.7102 -0.6945
 5718SOL     OW28612   1.982   2.596   5.229 -0.6694 -0.2593 -0.0050
 5718SOL    HW128613   1.960   2.593   5.322  0.8946  1.6576  0.4394
 5718SOL    HW228614   1.922   2.657   5.187 -1.5486 -0.1393  1.4424
 5719SOL     OW28615   3.368   1.835  17.035  0.0511  0.6971 -0.0782
 5719SOL    HW128616   3.277   1.806  17.027  0.2028 -0.1543  1.2275
 5719SOL    HW228617   3.400   1.819  16.946  0.0602 -0.5509  0.1388
 5720SOL     OW28618   3.122   2.843   4.110  0.0724 -0.3112 -0.2446
 5720SOL    HW128619   3.182   2.862   4.037  0.0934  0.1965 -0.0946
 5720SOL    HW228620   3.044   2.894   4.090 -0.7838 -0.8404  1.6870
 5721SOL     OW28621   3.574   3.306   4.051  0.6437 -0.1629  0.1032
 5721SOL    HW128622   3.568   3.356   3.970 -3.0985  1.2519  1.2156
 5721SOL    HW228623   3.644   3.243   4.038  0.5864  0.2243 -2.0749
 5722SOL     OW28624   2.010   3.980  11.257 -0.0641  0.2444 -0.4669
 5722SOL    HW128625   1.984   4.049  11.197 -0.9236 -0.2148 -0.6195
 5722SOL    HW228626   1.994   3.895  11.216 -0.8541 -0.0056  0.3334
 5723SOL     OW28627   4.419   1.368   8.527  0.1901 -0.4462 -0.0763
 5723SOL    HW128628   4.420   1.443   8.468 -1.9029  0.1588  0.6763
 5723SOL    HW228629   4.511   1.359   8.553  0.1964 -0.6353 -0.1678
 5724SOL     OW28630   1.212   3.277   1.418  0.3285 -0.1147 -0.3634
 5724SOL    HW128631   1.290   3.289   1.473  0.1661  2.2192 -0.6185
 5724SOL    HW228632   1.212   3.354   1.361 -0.4618  0.2874  0.1741
 5725SOL     OW28633   0.954   3.240   4.864 -0.6735  0.7666 -0.4870
 5725SOL    HW128634   1.043   3.246   4.831 -0.0147  0.0678  1.1297
 5725SOL    HW228635   0.903   3.218   4.787  0.0585 -2.2060 -0.1248
 5726SOL     OW28636   1.363   0.056   6.582  0.1343  0.0587  0.6174
 5726SOL    HW128637   1.432   0.119   6.562 -0.0278  0.9928  3.0185
 5726SOL    HW228638   1.287   0.112   6.567 -1.2337 -2.5364 -2.0575
 5727SOL     OW28639   1.137   0.990   5.558 -0.6844 -0.3072 -0.2748
 5727SOL    HW128640   1.189   0.959   5.484 -2.7908  0.6790 -2.1778
 5727SOL    HW228641   1.060   1.027   5.516 -0.2937  1.1056  0.2393
 5728SOL     OW28642   1.660   1.092  14.576  0.3339 -0.0532  0.1772
 5728SOL    HW128643   1.679   1.178  14.541  0.7905 -0.0024  0.5528
 5728SOL    HW228644   1.574   1.115  14.613 -0.5052 -1.8619 -0.6119
 5729SOL     OW28645   0.963   3.191   3.661 -0.1669  0.1191 -0.1743
 5729SOL    HW128646   0.909   3.191   3.582 -1.5997 -0.8113  0.8119
 5729SOL    HW228647   0.896   3.194   3.728 -1.5748  3.8900 -1.7359
 5730SOL     OW28648   1.464   3.657  11.752  0.6352  0.3622 -0.0186
 5730SOL    HW128649   1.433   3.688  11.667  0.0517  0.1782  0.1257
 5730SOL    HW228650   1.421   3.572  11.760 -1.5448  1.3726 -1.0406
 5731SOL     OW28651   1.956   4.556   4.505  0.4338  0.1769 -0.1851
 5731SOL    HW128652   1.998   4.506   4.576 -0.0282  0.3236  0.1968
 5731SOL    HW228653   1.929   4.484   4.448 -0.6289  0.5152 -0.1054
 5732SOL     OW28654   1.933   2.859   5.764 -0.7599 -0.1530  0.2887
 5732SOL    HW128655   2.003   2.912   5.727 -2.8690  1.9116 -0.7263
 5732SOL    HW228656   1.962   2.861   5.855  3.3844  0.6939 -1.0634
 5733SOL     OW28657   4.713   4.271  16.819  0.7230  0.2657  0.2956
 5733SOL    HW128658   4.633   4.255  16.769  1.6519  1.9710 -1.7329
 5733SOL    HW228659   4.675   4.315  16.895  1.3888  1.7545 -0.2304
 5734SOL     OW28660   3.344   0.610   8.758  0.0619  0.5351  0.2018
 5734SOL    HW128661   3.336   0.516   8.740 -2.5307  0.3744  2.2020
 5734SOL    HW228662   3.316   0.646   8.675 -0.2873  1.0066  0.5241
 5735SOL     OW28663   2.182   3.832  12.886  0.2028  0.0878  0.3620
 5735SOL    HW128664   2.130   3.771  12.834  0.1410  0.4430  0.0056
 5735SOL    HW228665   2.211   3.889  12.814  0.3605  2.0044  1.9379
 5736SOL     OW28666   0.397   2.015  11.964  0.2297 -0.1085 -0.5548
 5736SOL    HW128667   0.325   1.955  11.941  2.2459 -2.1879 -1.4424
 5736SOL    HW228668   0.477   1.987  11.920  2.6303  0.2677  3.6257
 5737SOL     OW28669   3.920   1.328   6.490  0.3304 -0.4007 -0.1681
 5737SOL    HW128670   3.931   1.309   6.583 -0.9314 -0.6326 -0.0629
 5737SOL    HW228671   3.824   1.334   6.489  0.0759 -4.2323 -1.7732
 5738SOL     OW28672   3.482   3.523   2.432 -0.4206 -0.8955 -0.0559
 5738SOL    HW128673   3.392   3.510   2.402 -0.3129  1.9743 -1.5834
 5738SOL    HW228674   3.537   3.471   2.373 -0.5976  0.3511 -1.3098
 5739SOL     OW28675   2.432   1.351  16.557  0.0646  0.0436  0.0496
 5739SOL    HW128676   2.432   1.268  16.510  0.3138  0.7777 -1.2606
 5739SOL    HW228677   2.360   1.334  16.619  0.2517 -1.7054 -0.2268
 5740SOL     OW28678   0.313   3.166   0.415  0.2533 -0.1921  0.3443
 5740SOL    HW128679   0.329   3.260   0.423  0.3168 -0.2388  0.7550
 5740SOL    HW228680   0.295   3.143   0.506 -1.1257  0.5531  0.2614
 5741SOL     OW28681   1.071   2.432  11.948 -0.3141 -0.1603  0.2490
 5741SOL    HW128682   1.093   2.358  12.005  3.5422  1.6051  1.0711
 5741SOL    HW228683   1.086   2.497  12.017  1.8162  0.9065 -1.2008
 5742SOL     OW28684   0.523   3.503   5.308 -0.1480  0.1521 -0.5581
 5742SOL    HW128685   0.437   3.535   5.280 -1.7318 -2.0467  1.8689
 5742SOL    HW228686   0.555   3.445   5.239 -0.8588 -0.8159 -0.0726
 5743SOL     OW28687   1.861   2.796   9.804  0.1581 -0.0129 -0.3810
 5743SOL    HW128688   1.847   2.769   9.714  2.0612 -0.8658 -0.4226
 5743SOL    HW228689   1.773   2.790   9.842  0.4120 -1.7276 -0.0704
 5744SOL     OW28690   1.613   0.455   8.684  0.1898  0.1756  0.3295
 5744SOL    HW128691   1.584   0.545   8.672  0.4188  0.4477  1.7569
 5744SOL    HW228692   1.525   0.419   8.700 -0.6546  2.1891  0.3028
 5745SOL     OW28693   3.928   2.203   0.580  0.1864  0.3142  0.1382
 5745SOL    HW128694   3.862   2.141   0.613 -0.3661  1.3395  0.9724
 5745SOL    HW228695   3.961   2.251   0.656 -0.6192 -0.5527  1.0451
 5746SOL     OW28696   1.840   2.367   7.205  0.3668 -0.3895  0.6465
 5746SOL    HW128697   1.871   2.279   7.180 -0.7297 -0.9030  1.1013
 5746SOL    HW228698   1.902   2.377   7.277 -1.5637  1.4627  2.0094
 5747SOL     OW28699   1.985   0.506  11.161  0.0291 -0.1282  0.3042
 5747SOL    HW128700   2.023   0.593  11.175  1.6388 -0.9341  0.9217
 5747SOL    HW228701   1.896   0.529  11.134  0.8792  1.6902 -0.9704
 5748SOL     OW28702   0.468   3.642  17.576  0.1126 -0.0499 -0.0762
 5748SOL    HW128703   0.444   3.720  17.627 -1.7139 -1.7668  1.6996
 5748SOL    HW228704   0.448   3.572  17.637 -1.4653  0.7425  0.3146
 5749SOL     OW28705   2.504   2.364  16.130  0.0645  0.7220 -0.0416
 5749SOL    HW128706   2.462   2.324  16.206 -0.0133 -1.4822 -1.2597
 5749SOL    HW228707   2.445   2.440  16.133  0.4177  1.0527 -1.1781
 5750SOL     OW28708   0.025   0.383   9.184 -0.5450  0.2930  0.0510
 5750SOL    HW128709   4.663   0.403   9.224 -0.7956  0.5522 -0.5943
 5750SOL    HW228710   0.084   0.381   9.259 -1.5634 -0.3568  0.8398
 5751SOL     OW28711   0.421   3.522   4.050 -0.0022  0.0024  0.6646
 5751SOL    HW128712   0.435   3.474   3.968  2.3713  2.5423 -0.4100
 5751SOL    HW228713   0.373   3.460   4.105  2.9060 -2.7110  0.1203
 5752SOL     OW28714   4.347   1.145   3.528  0.3283 -0.6163 -0.1394
 5752SOL    HW128715   4.424   1.200   3.542  1.1300 -1.2483 -2.0274
 5752SOL    HW228716   4.285   1.217   3.540 -0.4367 -1.2602 -0.2332
 5753SOL     OW28717   1.314   3.016  10.341 -0.6388 -0.6304 -0.5707
 5753SOL    HW128718   1.397   3.064  10.339 -0.2236 -1.2513  3.2542
 5753SOL    HW228719   1.259   3.063  10.278 -0.8012 -0.0846 -0.0215
 5754SOL     OW28720   0.729   0.871  14.888  0.3494 -0.1461  0.4315
 5754SOL    HW128721   0.782   0.795  14.911  0.0447 -0.2860  0.6609
 5754SOL    HW228722   0.761   0.907  14.805 -1.5322 -2.6170 -1.3460
 5755SOL     OW28723   4.502   3.484   6.136  0.3000  0.6587  0.2887
 5755SOL    HW128724   4.421   3.458   6.092 -0.1673  0.4880  1.2436
 5755SOL    HW228725   4.511   3.571   6.096 -0.4592 -0.0891 -1.5028
 5756SOL     OW28726   0.986   0.015   8.728 -0.6941 -0.5672  0.2097
 5756SOL    HW128727   1.058   4.681   8.699  0.6305  0.6796  1.1136
 5756SOL    HW228728   0.960   4.695   8.811 -1.7555 -2.3931 -1.0414
 5757SOL     OW28729   0.130   0.911   9.102  0.6214  0.1158  0.3954
 5757SOL    HW128730   0.205   0.968   9.083 -0.2650  0.9154 -0.7380
 5757SOL    HW228731   0.164   0.825   9.079 -2.2311 -0.9862  0.3156
 5758SOL     OW28732   0.223   2.873   0.191 -0.3272 -0.1504 -0.1209
 5758SOL    HW128733   0.302   2.835   0.230 -0.8657 -0.8582  0.2764
 5758SOL    HW228734   0.224   2.834   0.103 -0.9620 -1.8422  0.6083
 5759SOL     OW28735   2.948   0.855   4.777 -0.5034 -0.8508  0.1444
 5759SOL    HW128736   3.024   0.903   4.810 -0.1631 -1.2599 -0.0387
 5759SOL    HW228737   2.988   0.794   4.715 -0.1700 -0.8291  0.3365
 5760SOL     OW28738   0.417   2.799   3.653  0.0077  0.7734 -0.1246
 5760SOL    HW128739   0.354   2.840   3.712 -1.6222 -0.7665 -0.7790
 5760SOL    HW228740   0.415   2.858   3.577 -2.4668 -1.3629 -1.7369
 5761SOL     OW28741   4.559   2.814   8.350 -0.0847 -0.3433 -0.1457
 5761SOL    HW128742   4.648   2.841   8.327  0.7699 -0.7433  2.6743
 5761SOL    HW228743   4.568   2.725   8.317  0.2619 -0.7664  1.1050
 5762SOL     OW28744   2.108   0.655  12.927 -0.5080  0.5130  0.0139
 5762SOL    HW128745   2.163   0.719  12.881  0.2107  1.1679  1.7740
 5762SOL    HW228746   2.108   0.579  12.868  0.0466  0.4506  0.0894
 5763SOL     OW28747   3.517   3.700   0.020  0.1533 -0.0374 -0.0123
 5763SOL    HW128748   3.573   3.625   0.041  1.7030  0.7511 -1.3592
 5763SOL    HW228749   3.563   3.736  17.635  1.4375 -0.0890  0.7235
 5764SOL     OW28750   1.145   2.640   5.737 -0.1670 -0.1525  0.6355
 5764SOL    HW128751   1.206   2.569   5.758  0.7235  0.2144 -0.6884
 5764SOL    HW228752   1.064   2.590   5.732  1.0842 -2.1490  0.2129
 5765SOL     OW28753   4.385   3.214   6.885 -0.1818  0.3564 -0.4440
 5765SOL    HW128754   4.457   3.276   6.887  0.9037 -0.8571 -2.2007
 5765SOL    HW228755   4.316   3.275   6.913  1.6285  2.2544 -0.1264
 5766SOL     OW28756   2.346   2.264   3.020 -0.2843  0.3044  0.0592
 5766SOL    HW128757   2.339   2.184   2.967 -2.0605  0.3937  0.1638
 5766SOL    HW228758   2.371   2.230   3.105  0.2220 -0.3492 -0.3516
 5767SOL     OW28759   1.148   0.085   7.052 -0.4269 -0.3141  0.0225
 5767SOL    HW128760   1.189   0.066   6.968 -2.4831 -2.4086 -0.5326
 5767SOL    HW228761   1.079   0.143   7.019  0.0999  0.8324  0.9437
 5768SOL     OW28762   4.498   2.675   7.505 -0.1844 -0.1180 -0.3221
 5768SOL    HW128763   4.507   2.599   7.446 -1.1448 -0.2203 -0.3484
 5768SOL    HW228764   4.451   2.732   7.444  1.1506  1.4139  0.1231
 5769SOL     OW28765   0.590   1.652  15.937  0.7707 -0.2271 -0.0156
 5769SOL    HW128766   0.535   1.615  15.868  0.2666  0.1075  0.2025
 5769SOL    HW228767   0.519   1.688  15.990 -0.8620 -0.0587 -2.3068
 5770SOL     OW28768   1.931   2.222   3.162  0.4203  0.0507  0.5076
 5770SOL    HW128769   1.856   2.179   3.204  0.5972 -2.4901 -1.7469
 5770SOL    HW228770   1.983   2.147   3.131  1.6653  1.2852 -0.3722
 5771SOL     OW28771   1.844   4.467   6.899  0.0670  0.0595 -0.1437
 5771SOL    HW128772   1.875   4.498   6.985  0.7979  2.0200 -1.1128
 5771SOL    HW228773   1.912   4.401   6.885 -1.0857 -1.0058 -0.6312
 5772SOL     OW28774   2.548   4.640   8.446  0.2468  0.3377  0.0344
 5772SOL    HW128775   2.581   4.587   8.519  2.4472  1.4465 -0.1626
 5772SOL    HW228776   2.629   4.661   8.399  0.3478  0.1112  0.1070
 5773SOL     OW28777   4.524   2.372   0.655  0.1643 -0.3512 -0.2487
 5773SOL    HW128778   4.553   2.448   0.605  0.9787 -0.5184 -0.0366
 5773SOL    HW228779   4.441   2.349   0.614  0.6861 -1.1399 -0.8635
 5774SOL     OW28780   2.171   1.865   7.856  0.3422  0.4325 -0.1364
 5774SOL    HW128781   2.169   1.880   7.761 -2.3956  0.5255 -0.0746
 5774SOL    HW228782   2.243   1.803   7.865  1.5421  1.8252 -0.0529
 5775SOL     OW28783   0.557   0.897   9.362 -0.7210  0.4640  0.7640
 5775SOL    HW128784   0.533   0.884   9.270  0.9492 -0.0333  0.3993
 5775SOL    HW228785   0.524   0.820   9.408  2.9005 -1.2149  0.5129
 5776SOL     OW28786   1.675   1.619   9.458 -0.2587 -0.4536 -0.1165
 5776SOL    HW128787   1.667   1.577   9.543  3.6251 -3.2189 -1.1258
 5776SOL    HW228788   1.585   1.653   9.457 -0.0222  0.1397 -1.7497
 5777SOL     OW28789   0.353   3.489   7.363  0.3046  0.3283  0.3500
 5777SOL    HW128790   0.277   3.502   7.420 -2.2644  1.2466 -3.3061
 5777SOL    HW228791   0.402   3.569   7.384  0.9900 -0.4797  1.8201
 5778SOL     OW28792   2.345   3.614  13.916  0.4722  0.1182 -0.0537
 5778SOL    HW128793   2.395   3.684  13.959  0.4785 -0.0653  0.2375
 5778SOL    HW228794   2.273   3.671  13.890 -0.2245  0.0176  1.6470
 5779SOL     OW28795   2.191   3.483  11.881  0.0279 -0.1240 -0.0620
 5779SOL    HW128796   2.129   3.556  11.883  0.8905  0.5765  1.6477
 5779SOL    HW228797   2.260   3.523  11.828  0.1349 -1.0907 -0.6542
 5780SOL     OW28798   3.297   2.127   1.864 -0.1418 -0.0195  0.1496
 5780SOL    HW128799   3.302   2.034   1.844 -1.8755 -0.3974  1.4677
 5780SOL    HW228800   3.355   2.135   1.940  1.3954 -1.4868 -0.8667
 5781SOL     OW28801   0.350   0.148   5.378  0.7311  0.0647 -0.6414
 5781SOL    HW128802   0.349   0.119   5.470 -1.1389  1.4052 -0.2335
 5781SOL    HW228803   0.347   0.241   5.403 -1.5915 -0.3607  0.7815
 5782SOL     OW28804   4.032   1.394  15.102  0.6121  0.1143 -0.3899
 5782SOL    HW128805   4.077   1.314  15.126  2.9566  2.0533  1.7522
 5782SOL    HW228806   3.971   1.377  15.031  0.1745  0.2091 -0.0438
 5783SOL     OW28807   4.140   1.623   8.573 -0.2070  0.1422 -0.4923
 5783SOL    HW128808   4.212   1.564   8.596 -0.3557 -0.8934 -2.6965
 5783SOL    HW228809   4.116   1.669   8.654  1.3165  0.0744 -0.0094
 5784SOL     OW28810   3.994   0.004   1.068 -0.2435  0.0287 -0.0759
 5784SOL    HW128811   3.917   0.061   1.055 -1.9750 -2.3496 -0.2357
 5784SOL    HW228812   4.038   0.011   0.983 -0.8017  0.3356 -0.3410
 5785SOL     OW28813   2.494   0.349   4.750 -0.3811 -0.3925  0.0373
 5785SOL    HW128814   2.400   0.362   4.745 -0.0929  0.5440 -2.8172
 5785SOL    HW228815   2.495   0.255   4.729  0.1262 -0.3531 -0.1234
 5786SOL     OW28816   2.964   0.227   6.566  0.0345  0.3802 -0.1943
 5786SOL    HW128817   2.871   0.220   6.545 -0.1332  0.6443  0.4728
 5786SOL    HW228818   2.963   0.253   6.658  3.1021 -1.8450  0.4954
 5787SOL     OW28819   0.628   0.796   3.097  0.0602  0.3646  0.4805
 5787SOL    HW128820   0.616   0.787   3.003  0.2457 -0.0451  0.4957
 5787SOL    HW228821   0.638   0.890   3.111  2.0574  0.4637 -1.6361
 5788SOL     OW28822   0.483   4.553   3.797  0.9439  0.1397  0.1719
 5788SOL    HW128823   0.406   4.564   3.740 -0.4574  1.9022  2.3975
 5788SOL    HW228824   0.531   4.485   3.750  2.1608  0.2325  1.2830
 5789SOL     OW28825   1.553   1.439  15.565  0.4240  0.2312  0.1497
 5789SOL    HW128826   1.623   1.466  15.624  0.7444  0.3354 -0.2748
 5789SOL    HW228827   1.538   1.528  15.533 -1.8618  0.2717  1.3478
 5790SOL     OW28828   1.059   1.509  15.725  0.1095 -0.6647 -0.7621
 5790SOL    HW128829   1.136   1.472  15.683 -0.6632 -0.8840 -1.9878
 5790SOL    HW228830   1.043   1.449  15.798 -1.5480 -0.4807 -0.9699
 5791SOL     OW28831   0.975   4.390  14.156 -0.2234 -0.2284 -0.4523
 5791SOL    HW128832   0.924   4.355  14.229 -0.4117 -1.2923 -1.0944
 5791SOL    HW228833   1.059   4.344  14.168 -0.4143 -0.7512 -1.1179
 5792SOL     OW28834   1.611   1.773   7.987  0.1858 -0.3859 -0.1769
 5792SOL    HW128835   1.607   1.705   7.920  0.2922  0.2801 -0.8635
 5792SOL    HW228836   1.659   1.729   8.057 -0.3196 -0.1579  0.3130
 5793SOL     OW28837   4.345   3.625   2.003  1.3634  0.0244  0.2066
 5793SOL    HW128838   4.431   3.617   2.043  2.3638  1.0612 -1.7401
 5793SOL    HW228839   4.356   3.619   1.908  1.4583  1.7155  0.1097
 5794SOL     OW28840   4.123   2.252  10.448 -0.5869  0.1131 -0.2718
 5794SOL    HW128841   4.143   2.213  10.534 -0.3696 -2.0497 -1.3075
 5794SOL    HW228842   4.027   2.254  10.442 -0.7741 -0.3083  2.2957
 5795SOL     OW28843   4.378   2.860   2.210 -0.2392  0.1489  0.0638
 5795SOL    HW128844   4.285   2.856   2.233 -0.4693  0.0668 -0.8996
 5795SOL    HW228845   4.394   2.766   2.220 -1.3035 -0.2483 -2.0583
 5796SOL     OW28846   0.017   4.132   7.370 -0.0401  0.3653 -0.0936
 5796SOL    HW128847   4.655   4.148   7.326 -0.2329  0.9031  0.4600
 5796SOL    HW228848   0.077   4.144   7.296 -1.0005  0.6779 -0.8294
 5797SOL     OW28849   4.547   2.252   5.966 -0.1761  0.1148 -0.4328
 5797SOL    HW128850   4.613   2.319   5.984  2.2819 -1.9996 -1.5841
 5797SOL    HW228851   4.510   2.289   5.886  0.9270 -0.9327 -1.4350
 5798SOL     OW28852   0.752   3.146  14.899  0.4210 -0.4650  0.0072
 5798SOL    HW128853   0.770   3.182  14.986  0.0559 -1.5238  0.5325
 5798SOL    HW228854   0.809   3.202  14.848 -3.1297  0.5385 -2.8281
 5799SOL     OW28855   1.667   4.155   3.010 -0.0381  0.0125 -0.5949
 5799SOL    HW128856   1.637   4.070   3.043  3.2439  0.3102  3.0689
 5799SOL    HW228857   1.730   4.129   2.943  1.6930  1.5989  0.4393
 5800SOL     OW28858   1.912   2.925   4.876 -0.0073  0.2915 -0.1129
 5800SOL    HW128859   1.901   2.857   4.811 -2.1796 -0.1303  0.7008
 5800SOL    HW228860   1.993   2.974   4.860  1.2427 -1.3835  1.1229
 5801SOL     OW28861   4.632   0.721   7.035  0.6078  0.0871 -0.1042
 5801SOL    HW128862   4.628   0.802   7.087 -0.7636  0.6201 -1.0140
 5801SOL    HW228863   4.553   0.671   7.056 -0.4118  1.1609 -1.3515
 5802SOL     OW28864   0.838   0.053   0.664  0.5786  0.1656  0.1432
 5802SOL    HW128865   0.762   0.021   0.713  0.0663  2.5178  0.8884
 5802SOL    HW228866   0.903   0.062   0.734 -0.2788 -1.0309  1.0898
 5803SOL     OW28867   4.442   0.317   3.774  0.0524 -0.4459  0.4445
 5803SOL    HW128868   4.391   0.236   3.764 -0.5179  0.3221 -3.1190
 5803SOL    HW228869   4.384   0.371   3.720  0.0086 -3.3072 -2.3834
 5804SOL     OW28870   1.199   3.302   3.734 -0.4211 -0.5096 -0.0472
 5804SOL    HW128871   1.115   3.271   3.699  0.1021 -1.5037 -0.4033
 5804SOL    HW228872   1.206   3.252   3.815  2.7113 -0.8911 -0.5507
 5805SOL     OW28873   3.017   2.626   6.281 -0.5699 -0.3440 -0.3229
 5805SOL    HW128874   3.033   2.652   6.190 -0.5650  0.4999 -0.0793
 5805SOL    HW228875   3.080   2.554   6.291  0.2480  0.6427  1.5648
 5806SOL     OW28876   3.423   4.566   9.129 -0.2327  0.1451 -0.7428
 5806SOL    HW128877   3.514   4.597   9.129 -1.0435  2.5417 -1.6940
 5806SOL    HW228878   3.428   4.486   9.076 -1.8890  0.3976 -1.2714
 5807SOL     OW28879   3.399   4.692   1.126 -0.2170 -0.3739  0.6903
 5807SOL    HW128880   3.454   4.627   1.081  1.1428  1.2799 -0.0024
 5807SOL    HW228881   3.445   4.696   1.210  1.4101  1.6569 -0.2976
 5808SOL     OW28882   4.145   1.812   3.274 -0.0370 -0.1207 -0.7959
 5808SOL    HW128883   4.196   1.731   3.276 -1.3012 -0.8559  1.6524
 5808SOL    HW228884   4.058   1.775   3.288 -0.5753  2.7619  3.5871
 5809SOL     OW28885   3.882   2.922   2.353  0.2687 -0.4313 -0.5956
 5809SOL    HW128886   3.840   3.007   2.370 -0.6884 -1.4686  2.2312
 5809SOL    HW228887   3.881   2.887   2.442  0.9919  1.8922  0.3191
 5810SOL     OW28888   2.572   1.201  14.999  0.5502 -0.2193 -0.2123
 5810SOL    HW128889   2.513   1.213  15.074  1.1977  0.0737  0.2411
 5810SOL    HW228890   2.654   1.238  15.031  0.2358  1.2767 -1.1406
 5811SOL     OW28891   1.532   4.058   7.807 -0.3610  0.2128 -0.0719
 5811SOL    HW128892   1.498   3.994   7.744  0.0630 -0.2394  0.1549
 5811SOL    HW228893   1.446   4.085   7.841 -0.0393  1.2273 -0.0524
 5812SOL     OW28894   3.330   4.445   6.117 -0.5280 -0.5628 -0.0608
 5812SOL    HW128895   3.254   4.420   6.064 -0.4301 -2.7146  0.7861
 5812SOL    HW228896   3.320   4.535   6.147 -1.3257 -0.6927  0.0648
 5813SOL     OW28897   2.813   2.931   5.106  0.3469 -0.7302 -0.1180
 5813SOL    HW128898   2.765   2.897   5.181 -0.0796  2.2197  0.9382
 5813SOL    HW228899   2.745   2.975   5.055  0.6722  0.9293  0.8786
 5814SOL     OW28900   3.093   0.080   7.164 -0.0610 -0.4447  0.2959
 5814SOL    HW128901   3.127   0.001   7.206  0.8605 -1.1425 -1.7256
 5814SOL    HW228902   3.047   0.126   7.234  0.1315 -0.4269  0.4118
 5815SOL     OW28903   2.305   1.725  11.260 -0.1820 -0.2817  0.2517
 5815SOL    HW128904   2.300   1.809  11.215 -1.6687 -1.3731 -1.6342
 5815SOL    HW228905   2.398   1.709  11.244  0.0828  0.6564  0.8598
 5816SOL     OW28906   2.244   1.178   1.513  0.6274  0.3023 -0.1706
 5816SOL    HW128907   2.234   1.084   1.528 -1.5441  0.6017  0.1827
 5816SOL    HW228908   2.155   1.201   1.537  1.2072  0.0397  2.2104
 5817SOL     OW28909   4.542   4.491   5.531 -0.1743  0.1853 -0.6875
 5817SOL    HW128910   4.602   4.561   5.505  0.6655 -0.4447 -0.4548
 5817SOL    HW228911   4.589   4.442   5.598 -0.5218  0.0283 -0.5555
 5818SOL     OW28912   1.001   2.538   7.927 -0.1667  0.1624 -0.0712
 5818SOL    HW128913   1.079   2.487   7.907  0.0372 -0.0081  1.1599
 5818SOL    HW228914   0.926   2.488   7.896 -0.5132 -0.9093  2.4636
 5819SOL     OW28915   0.877   2.054  17.584  0.5024  0.3534 -0.1580
 5819SOL    HW128916   0.929   2.115  17.637  0.2566  0.9984 -0.6648
 5819SOL    HW228917   0.845   2.119  17.521  2.3996  1.3633 -0.0894
 5820SOL     OW28918   1.420   2.098   7.878  0.2453 -0.0062 -0.4229
 5820SOL    HW128919   1.385   2.109   7.966  1.2510 -0.2843  0.0156
 5820SOL    HW228920   1.512   2.104   7.904  1.0346 -2.7718 -2.4393
 5821SOL     OW28921   0.275   0.683  17.588  0.1198  0.1931 -0.3544
 5821SOL    HW128922   0.241   0.618  17.649 -0.3749 -1.0203 -1.9247
 5821SOL    HW228923   0.334   0.625  17.540  1.0981  2.2089 -1.5569
 5822SOL     OW28924   0.161   0.362   8.232  0.0073 -0.3283 -0.1673
 5822SOL    HW128925   0.205   0.417   8.168 -2.0500  2.1968  0.6057
 5822SOL    HW228926   0.120   0.425   8.291  0.3175 -0.3210  0.0431
 5823SOL     OW28927   3.986   1.427   1.905  0.3411 -0.4438 -0.6380
 5823SOL    HW128928   4.012   1.487   1.975 -1.1363 -0.2585 -0.2586
 5823SOL    HW228929   4.074   1.414   1.870 -0.0292  0.8837 -2.0635
 5824SOL     OW28930   0.001   1.364  16.514  0.2284  0.5609 -0.4679
 5824SOL    HW128931   4.721   1.348  16.609 -1.3837 -0.1726 -0.6223
 5824SOL    HW228932   4.627   1.370  16.511  0.1630 -0.6517 -0.9327
 5825SOL     OW28933   0.715   1.551   7.785  0.5540  0.7054  0.0697
 5825SOL    HW128934   0.648   1.493   7.748  1.0398  0.6035 -0.6531
 5825SOL    HW228935   0.767   1.575   7.708 -0.6472 -0.4858 -1.1269
 5826SOL     OW28936   1.035   2.240  11.245  0.9704  0.2475 -0.0749
 5826SOL    HW128937   1.057   2.306  11.311 -0.3979 -1.9883  2.6008
 5826SOL    HW228938   1.021   2.301  11.173  1.7763  0.6442  0.1089
 5827SOL     OW28939   0.262   1.972   2.512 -0.0477 -0.4566  0.2832
 5827SOL    HW128940   0.180   2.022   2.512  0.4468  0.3554 -0.2482
 5827SOL    HW228941   0.319   2.037   2.471 -1.4834  0.4500 -0.3209
 5828SOL     OW28942   0.087   2.489   7.667 -0.4288  0.0267  0.8629
 5828SOL    HW128943   0.084   2.494   7.572  0.1874  0.7356  0.8820
 5828SOL    HW228944   0.018   2.424   7.681 -1.7999  1.8333  2.4575
 5829SOL     OW28945   2.744   0.700   5.859 -0.1192  0.4539  0.4440
 5829SOL    HW128946   2.783   0.752   5.789  0.5776  0.3824  0.7753
 5829SOL    HW228947   2.749   0.765   5.930  2.6553  0.0083  0.6674
 5830SOL     OW28948   0.393   0.007  12.466  0.6362  0.1175 -0.4385
 5830SOL    HW128949   0.363   4.672  12.395 -1.5835 -0.5593  1.0356
 5830SOL    HW228950   0.438   4.660  12.514 -1.1275  0.4707  1.7682
 5831SOL     OW28951   3.436   2.980   3.384 -0.6498 -0.6468 -0.0043
 5831SOL    HW128952   3.492   2.928   3.442 -1.5506 -2.4464 -0.7460
 5831SOL    HW228953   3.365   2.917   3.376 -1.1657  0.2153 -2.3741
 5832SOL     OW28954   3.218   2.471   6.562 -0.8179  0.3041  0.9089
 5832SOL    HW128955   3.296   2.446   6.613 -0.3104  0.9950  0.4730
 5832SOL    HW228956   3.173   2.386   6.561 -0.1514 -0.0260 -0.9530
 5833SOL     OW28957   1.636   3.397   5.172 -0.6136 -0.0673  0.4497
 5833SOL    HW128958   1.683   3.357   5.245  1.1202  0.1017 -0.5746
 5833SOL    HW228959   1.576   3.324   5.156  1.8884 -2.0223  0.0817
 5834SOL     OW28960   4.059   2.041   6.496  0.4082 -0.4072  0.0635
 5834SOL    HW128961   3.987   2.003   6.445 -0.6991  0.7488  0.7449
 5834SOL    HW228962   4.105   2.103   6.439 -0.3812  0.0578 -0.0695
 5835SOL     OW28963   4.307   0.651   5.371  0.0157  0.0657 -0.2471
 5835SOL    HW128964   4.288   0.589   5.442  0.9756  0.0712  0.0263
 5835SOL    HW228965   4.223   0.642   5.327  0.3994 -2.1603 -0.5485
 5836SOL     OW28966   3.980   1.243   9.238  0.0608  0.1206  0.3709
 5836SOL    HW128967   3.934   1.323   9.213 -3.2162 -1.4873  1.2140
 5836SOL    HW228968   4.002   1.194   9.159  2.4118  1.0920  0.4337
 5837SOL     OW28969   1.896   2.605   0.363 -0.4313  0.7024 -0.2568
 5837SOL    HW128970   1.801   2.609   0.356 -0.5373 -1.3946  0.1155
 5837SOL    HW228971   1.917   2.514   0.341  0.5262  0.9914 -0.5349
 5838SOL     OW28972   3.112   3.107   4.928  0.1229 -0.1340 -0.3840
 5838SOL    HW128973   3.131   3.025   4.881 -0.4712 -1.7137  2.0976
 5838SOL    HW228974   3.181   3.097   4.995 -1.4256 -2.7730  0.8235
 5839SOL     OW28975   2.322   0.479   5.146  0.0814  0.4850  0.2511
 5839SOL    HW128976   2.399   0.432   5.115 -0.7390  0.1074 -1.2140
 5839SOL    HW228977   2.331   0.560   5.097  0.3406  0.5060  0.3353
 5840SOL     OW28978   4.540   0.523   5.305  0.2310  0.2129  0.5201
 5840SOL    HW128979   4.464   0.574   5.334  0.2531 -1.1401  2.9412
 5840SOL    HW228980   4.564   0.477   5.386  1.1651  2.9917  1.8243
 5841SOL     OW28981   2.088   4.400  13.448 -0.1326 -0.0946  0.2642
 5841SOL    HW128982   2.119   4.351  13.371 -3.0796 -2.6716  0.7001
 5841SOL    HW228983   2.110   4.335  13.515 -0.6573  0.0656  0.5857
 5842SOL     OW28984   0.610   1.807   3.473 -0.3730 -0.4918 -0.0239
 5842SOL    HW128985   0.542   1.765   3.525  0.2941 -1.1403  0.3242
 5842SOL    HW228986   0.553   1.845   3.406 -0.2121 -0.8145 -0.3417
 5843SOL     OW28987   4.000   1.668  11.554 -0.6330 -0.0583 -0.3062
 5843SOL    HW128988   3.922   1.714  11.585 -0.3848  0.3212 -0.2448
 5843SOL    HW228989   3.975   1.649  11.463  0.0713 -0.4594 -0.4176
 5844SOL     OW28990   2.595   0.108   7.971  0.1473  0.6847 -0.3454
 5844SOL    HW128991   2.634   0.141   8.052 -1.9035  2.0700  0.0592
 5844SOL    HW228992   2.616   0.015   7.973 -0.9924  0.4450  0.0664
 5845SOL     OW28993   3.767   1.073   8.772 -0.7100 -0.0103  0.1585
 5845SOL    HW128994   3.748   1.150   8.827 -0.3875 -0.5768  1.0694
 5845SOL    HW228995   3.778   1.112   8.685 -0.3623  0.2957  0.3383
 5846SOL     OW28996   0.043   1.208   9.341  0.0987 -0.4830  0.3393
 5846SOL    HW128997   0.089   1.291   9.326 -1.5611  0.6896  1.7818
 5846SOL    HW228998   4.706   1.201   9.266  0.8398 -0.2698 -0.2667
 5847SOL     OW28999   2.754   2.113   9.195 -0.5682 -0.5222 -0.3387
 5847SOL    HW129000   2.761   2.207   9.185 -0.2207 -0.3718  1.2457
 5847SOL    HW229001   2.842   2.086   9.168  0.0922  2.8074 -1.5234
 5848SOL     OW29002   2.776   2.606  16.101 -0.4343 -0.0004  0.1764
 5848SOL    HW129003   2.748   2.690  16.065 -0.5872  0.4390  1.3513
 5848SOL    HW229004   2.797   2.630  16.191 -0.1171  2.6783 -0.6113
 5849SOL     OW29005   4.257   4.592   2.924  0.0571 -0.2968  0.1048
 5849SOL    HW129006   4.245   4.685   2.908  1.9302 -0.2424 -1.0471
 5849SOL    HW229007   4.242   4.568   3.015 -1.0359  0.9504  0.2546
 5850SOL     OW29008   2.103   1.584  16.095 -0.5672 -0.6240 -0.5676
 5850SOL    HW129009   2.074   1.631  16.174  0.2313 -2.2575  0.6982
 5850SOL    HW229010   2.177   1.635  16.063 -1.3819  1.7075  1.2593
 5851SOL     OW29011   0.166   1.817   3.998 -0.2777 -0.1482 -0.7540
 5851SOL    HW129012   0.101   1.843   3.933  0.2153 -2.1892 -2.0601
 5851SOL    HW229013   0.112   1.783   4.069 -0.3635 -0.8371 -1.1577
 5852SOL     OW29014   0.038   0.949   6.377  0.1131  0.0474  0.5718
 5852SOL    HW129015   0.002   1.006   6.309  0.9694 -0.6710 -0.4806
 5852SOL    HW229016   0.059   1.008   6.450 -2.6607 -0.0622  1.4654
 5853SOL     OW29017   3.927   1.605   7.224  0.7996  0.1859 -0.4276
 5853SOL    HW129018   4.019   1.613   7.198  0.7202 -1.0636 -1.0863
 5853SOL    HW229019   3.906   1.528   7.170 -0.6958  0.7282 -0.6092
 5854SOL     OW29020   1.232   1.345  14.613  0.5804 -0.0054 -0.1005
 5854SOL    HW129021   1.149   1.379  14.580  0.6827  0.4621  0.1233
 5854SOL    HW229022   1.284   1.419  14.644 -0.3207  1.1871 -1.5011
 5855SOL     OW29023   3.291   0.991   2.948  0.5095  0.5673 -0.4665
 5855SOL    HW129024   3.377   0.949   2.953  0.0467 -0.6620 -2.7042
 5855SOL    HW229025   3.259   0.938   2.875  0.4902 -1.5411  1.0706
 5856SOL     OW29026   0.162   2.821  10.784  0.4554 -0.2417  0.4533
 5856SOL    HW129027   0.170   2.916  10.775  0.1368 -0.3069 -0.4841
 5856SOL    HW229028   0.100   2.804  10.713  0.5234 -0.6160  0.4875
 5857SOL     OW29029   4.415   2.021   3.982 -0.4170  0.2244  0.1522
 5857SOL    HW129030   4.343   1.976   3.939 -1.0387  0.5623  0.8503
 5857SOL    HW229031   4.394   2.113   3.967 -0.4893  0.1765 -0.0436
 5858SOL     OW29032   1.559   2.441   7.891 -0.5289  0.0890  0.9677
 5858SOL    HW129033   1.480   2.393   7.870 -1.1935  2.0363 -1.0467
 5858SOL    HW229034   1.616   2.384   7.839  0.2508 -0.1097  2.0524
 5859SOL     OW29035   0.947   0.093   9.472  0.4705  0.1323 -0.3389
 5859SOL    HW129036   0.953   0.017   9.529 -0.6887 -0.8163 -1.4812
 5859SOL    HW229037   1.004   0.059   9.403  2.2285  0.0874  1.1188
 5860SOL     OW29038   0.180   0.833   2.997  0.7264  1.0020  0.0048
 5860SOL    HW129039   0.086   0.849   2.993  0.4213 -1.2032 -1.8726
 5860SOL    HW229040   0.216   0.921   3.006  1.4767  0.8168 -1.2281
 5861SOL     OW29041   0.403   4.204   7.964  0.5566 -0.2875  0.7407
 5861SOL    HW129042   0.402   4.169   8.053  3.2201 -1.6230  0.2441
 5861SOL    HW229043   0.323   4.162   7.931  0.1313  0.3499  0.9446
 5862SOL     OW29044   4.100   1.197   2.942 -0.5479 -0.0106  0.3826
 5862SOL    HW129045   4.157   1.271   2.922 -2.6234  1.1390 -1.3660
 5862SOL    HW229046   4.129   1.180   3.031  1.4546 -0.8318 -0.4220
 5863SOL     OW29047   1.786   4.019   7.471  0.1344 -0.2846  0.2942
 5863SOL    HW129048   1.708   3.984   7.428 -0.4499 -0.4254  1.4615
 5863SOL    HW229049   1.822   3.943   7.517 -0.6853 -0.6633  0.3054
 5864SOL     OW29050   4.054   0.314   2.170  0.2158  0.4629  0.0471
 5864SOL    HW129051   4.037   0.225   2.200  2.4835  0.2452  0.6701
 5864SOL    HW229052   4.003   0.311   2.089 -1.7038 -2.2623  1.3651
 5865SOL     OW29053   0.038   3.369   5.051 -0.1020  0.3876 -0.0394
 5865SOL    HW129054   0.053   3.463   5.044 -4.3420  1.0670  0.3078
 5865SOL    HW229055   0.118   3.335   5.010 -0.1103  1.2649 -0.7887
 5866SOL     OW29056   0.535   2.279  16.761 -0.1133 -1.2125 -0.3688
 5866SOL    HW129057   0.474   2.319  16.823 -0.0081  1.0363 -1.7376
 5866SOL    HW229058   0.476   2.235  16.699 -0.9879  0.1323 -0.4943
 5867SOL     OW29059   3.956   3.687   9.521  0.2219  0.1933  0.1396
 5867SOL    HW129060   3.868   3.720   9.502 -0.0571  0.1149  1.3006
 5867SOL    HW229061   3.976   3.613   9.464 -0.8955  0.5977 -0.7710
 5868SOL     OW29062   3.971   2.986  14.687 -0.0302  0.2231  0.0787
 5868SOL    HW129063   3.906   3.033  14.635 -0.4222  0.2350  0.5758
 5868SOL    HW229064   4.000   3.051  14.750  0.6030 -1.9997  2.0991
 5869SOL     OW29065   1.508   3.086   3.940 -0.0347  0.0885 -0.6906
 5869SOL    HW129066   1.495   3.054   4.029 -1.6516  1.0019 -0.5995
 5869SOL    HW229067   1.599   3.112   3.935 -0.2189  0.8865  0.1551
 5870SOL     OW29068   4.382   0.190   1.880 -0.1674 -0.7244  0.4325
 5870SOL    HW129069   4.338   0.270   1.908  0.9860  0.2057 -0.3899
 5870SOL    HW229070   4.415   0.233   1.801 -1.5924 -2.0809 -0.9098
 5871SOL     OW29071   3.116   0.971   3.231 -0.2335 -0.1647 -0.2158
 5871SOL    HW129072   3.162   1.042   3.187  0.5164 -0.4470  0.1166
 5871SOL    HW229073   3.180   0.937   3.293 -0.7406  0.8590  0.8744
 5872SOL     OW29074   2.630   0.303  11.836  0.2241  0.0169 -0.3977
 5872SOL    HW129075   2.692   0.307  11.908 -0.0731  0.0956 -0.1447
 5872SOL    HW229076   2.664   0.375  11.782 -1.4364 -0.3842 -1.9771
 5873SOL     OW29077   4.007   0.923  13.554  0.5521  0.3246 -0.2074
 5873SOL    HW129078   4.034   0.990  13.617  0.1207 -0.5185  0.8611
 5873SOL    HW229079   4.052   0.953  13.475  0.1392 -0.9822 -0.9359
 5874SOL     OW29080   1.178   1.988  17.123  0.0348 -0.4336 -0.1277
 5874SOL    HW129081   1.153   1.976  17.031  0.5013 -0.6974 -0.2214
 5874SOL    HW229082   1.270   2.009  17.105  0.1384  0.0638  0.9646
 5875SOL     OW29083   3.300   4.641  16.043 -0.4399 -0.5793  0.0835
 5875SOL    HW129084   3.303   4.545  16.044  0.7673 -0.5455  0.7866
 5875SOL    HW229085   3.268   4.654  16.132 -0.6968 -1.8621  0.1750
 5876SOL     OW29086   1.827   1.863   0.558  0.0379 -0.3354  0.4499
 5876SOL    HW129087   1.786   1.785   0.595 -2.2244  1.1246  1.0478
 5876SOL    HW229088   1.817   1.936   0.620  2.4409  1.2925 -1.1222
 5877SOL     OW29089   0.806   1.951   2.467  0.6383  0.2862  0.3872
 5877SOL    HW129090   0.847   2.012   2.528 -0.5627 -2.1895  3.7074
 5877SOL    HW229091   0.744   2.010   2.425  0.6368 -1.0385 -1.4398
 5878SOL     OW29092   1.716   0.977  13.292 -0.2241 -0.0611  0.0425
 5878SOL    HW129093   1.768   0.902  13.263 -1.7567 -1.6943  1.5378
 5878SOL    HW229094   1.779   1.050  13.292 -2.0039  1.4865  0.7516
 5879SOL     OW29095   0.954   1.454  12.300  0.1654  0.5782  0.3360
 5879SOL    HW129096   0.949   1.523  12.366 -1.5610 -0.4520  1.2546
 5879SOL    HW229097   0.920   1.500  12.224 -1.0647  0.4162  0.7993
 5880SOL     OW29098   3.457   2.263   1.035 -0.0050  0.0302 -0.2226
 5880SOL    HW129099   3.396   2.199   1.073 -0.1228  0.8980  1.0392
 5880SOL    HW229100   3.496   2.299   1.115  0.0835 -1.2420  0.3101
 5881SOL     OW29101   0.045   2.649   7.869  0.5338 -0.3774 -0.0902
 5881SOL    HW129102   0.054   2.582   7.801  1.4203 -1.5331  1.1815
 5881SOL    HW229103   0.000   2.719   7.821 -0.0920 -0.8126 -0.1447
 5882SOL     OW29104   0.097   4.168  12.865 -0.3714 -1.1364  0.1635
 5882SOL    HW129105   0.004   4.165  12.840 -0.3700  0.3692 -0.0266
 5882SOL    HW229106   0.101   4.237  12.931  2.7725  0.2851 -1.4991
 5883SOL     OW29107   4.174   0.989   3.768  0.7882 -0.1786 -0.1046
 5883SOL    HW129108   4.166   1.078   3.803 -1.9559 -1.1692  1.8339
 5883SOL    HW229109   4.115   0.998   3.693  0.4921 -2.7170 -0.1563
 5884SOL     OW29110   2.183   1.267   3.277  1.0310 -0.3520 -0.1642
 5884SOL    HW129111   2.207   1.359   3.276  1.3432 -0.4352 -0.2281
 5884SOL    HW229112   2.259   1.217   3.309  0.2159 -1.1982  0.4522
 5885SOL     OW29113   1.267   2.666   1.217 -0.0570 -0.1872  0.1260
 5885SOL    HW129114   1.262   2.668   1.121 -4.5810 -0.2332  0.3799
 5885SOL    HW229115   1.239   2.757   1.228  1.2281  0.6451 -3.3572
 5886SOL     OW29116   1.887   0.972   3.048  0.0729 -0.4554 -0.0594
 5886SOL    HW129117   1.969   0.931   3.075  0.5089 -0.3822 -1.2885
 5886SOL    HW229118   1.818   0.929   3.098 -0.2212 -1.6338 -1.4678
 5887SOL     OW29119   1.472   1.689  15.520  0.1871  0.2431 -0.1575
 5887SOL    HW129120   1.496   1.749  15.591 -2.5267 -0.5045  1.4142
 5887SOL    HW229121   1.534   1.723  15.456 -0.1111  1.7387  0.3436
 5888SOL     OW29122   1.718   1.110   3.526 -0.0813 -0.1307 -0.1272
 5888SOL    HW129123   1.749   1.172   3.460  0.5627  2.7190  2.8572
 5888SOL    HW229124   1.677   1.043   3.471  0.4824 -1.2627  0.8106
 5889SOL     OW29125   1.869   0.879   0.123 -0.6039  0.0547 -0.1480
 5889SOL    HW129126   1.834   0.909   0.040 -0.5317  3.2563  0.9654
 5889SOL    HW229127   1.812   0.804   0.141  2.4595 -2.4727 -1.0712
 5890SOL     OW29128   0.652   2.029   7.148  0.5967  0.2403 -0.0465
 5890SOL    HW129129   0.563   2.048   7.178  0.3825 -3.6286  1.7654
 5890SOL    HW229130   0.644   2.054   7.056 -0.8972 -0.2201 -0.0343
 5891SOL     OW29131   0.399   1.308   9.336 -0.4966 -0.0596  0.0979
 5891SOL    HW129132   0.337   1.380   9.349 -0.3356 -0.1091  1.1402
 5891SOL    HW229133   0.478   1.346   9.374  0.3962  0.7889 -2.5954
 5892SOL     OW29134   2.483   4.602   4.464 -0.0191 -0.2388 -0.1754
 5892SOL    HW129135   2.430   4.522   4.464 -1.5294  0.7717  2.3509
 5892SOL    HW229136   2.419   4.662   4.427 -1.8099 -2.3268 -0.4604
 5893SOL     OW29137   2.904   0.568   8.296  0.0358 -0.2366  0.3275
 5893SOL    HW129138   2.992   0.571   8.259  0.9470  0.1607  2.5034
 5893SOL    HW229139   2.905   0.501   8.365  1.6592 -0.1350  0.4121
 5894SOL     OW29140   3.127   1.645  12.744 -0.0490  0.2221 -0.9993
 5894SOL    HW129141   3.115   1.565  12.692  0.1739  0.9346 -2.1579
 5894SOL    HW229142   3.216   1.650  12.778  0.1487 -2.0444 -1.1496
 5895SOL     OW29143   1.151   2.637   5.415  1.0961  0.0083  0.2054
 5895SOL    HW129144   1.148   2.677   5.328 -0.1794  2.0595  1.1919
 5895SOL    HW229145   1.057   2.626   5.434  0.5098  1.6323 -1.7099
 5896SOL     OW29146   2.788   2.748   6.982  0.0667  0.1887 -0.5010
 5896SOL    HW129147   2.785   2.844   6.989  2.8625  0.3058 -0.5394
 5896SOL    HW229148   2.810   2.738   6.889  1.5012 -0.8469 -0.0537
 5897SOL     OW29149   3.862   3.969  13.707 -0.3708  0.4786 -0.6417
 5897SOL    HW129150   3.869   3.971  13.612 -0.2826 -0.2143 -0.6479
 5897SOL    HW229151   3.773   3.935  13.716 -0.2208  0.2820  0.1078
 5898SOL     OW29152   1.201   0.644   8.543  0.3290 -0.5355  0.3425
 5898SOL    HW129153   1.269   0.578   8.551  1.8855  1.0225  0.0672
 5898SOL    HW229154   1.120   0.594   8.530  0.0253 -0.0424  0.3214
 5899SOL     OW29155   2.626   1.691   6.303 -0.3935  0.0322  0.8300
 5899SOL    HW129156   2.694   1.654   6.359  2.1405 -0.3252 -2.5326
 5899SOL    HW229157   2.680   1.715   6.228  0.3152  0.0157  1.3434
 5900SOL     OW29158   4.325   1.611   3.576  0.0701  0.3661  0.4962
 5900SOL    HW129159   4.329   1.616   3.481 -0.9622 -0.9056  0.3791
 5900SOL    HW229160   4.232   1.598   3.595  0.3637  0.9596  2.4344
 5901SOL     OW29161   2.075   4.574   8.857  0.6217  0.3410 -0.5669
 5901SOL    HW129162   2.125   4.615   8.787  3.6369 -1.8495  0.2890
 5901SOL    HW229163   1.985   4.588   8.827  0.3810 -0.1366 -0.0635
 5902SOL     OW29164   2.057   2.778   5.981  0.0229 -0.5563 -0.3336
 5902SOL    HW129165   2.110   2.824   6.046  1.5473  0.3465 -2.1854
 5902SOL    HW229166   2.049   2.690   6.019 -1.5570 -1.0884 -1.8985
 5903SOL     OW29167   3.048   2.344  12.197 -0.0228  0.0785  0.2971
 5903SOL    HW129168   2.989   2.326  12.124  1.3698  0.3233 -0.8748
 5903SOL    HW229169   3.135   2.329  12.160  0.0837 -0.4042  0.7403
 5904SOL     OW29170   2.953   0.765   8.010 -0.4879 -0.0635 -0.1516
 5904SOL    HW129171   3.041   0.786   8.043  0.7777 -2.1483 -2.1435
 5904SOL    HW229172   2.965   0.673   7.985 -1.3389 -0.6625  1.6303
 5905SOL     OW29173   2.330   2.814  12.951 -0.2584  0.1235 -0.2910
 5905SOL    HW129174   2.352   2.721  12.955  1.0443  0.4342 -0.0731
 5905SOL    HW229175   2.416   2.856  12.959 -0.1289 -0.2892  0.5093
 5906SOL     OW29176   2.516   1.755   6.850 -0.7995  0.4271  0.1391
 5906SOL    HW129177   2.429   1.718   6.864 -1.5116  2.0674  0.1636
 5906SOL    HW229178   2.510   1.778   6.757 -1.7710  1.5362  0.4686
 5907SOL     OW29179   4.077   0.167  17.656 -0.0672 -0.4674  0.6555
 5907SOL    HW129180   4.091   0.202   0.053  0.8011 -2.8612  1.4596
 5907SOL    HW229181   4.037   0.083  17.676 -1.9668  0.4080  0.4966
 5908SOL     OW29182   0.204   0.505   7.685 -0.4763 -0.0181 -0.3536
 5908SOL    HW129183   0.150   0.584   7.678  0.4580  0.5355 -1.3605
 5908SOL    HW229184   0.140   0.450   7.729  0.8498 -0.8400  0.5300
 5909SOL     OW29185   4.286   4.052   6.588  0.1083  0.5379  0.0154
 5909SOL    HW129186   4.311   3.971   6.633 -0.9586  1.2998  1.9518
 5909SOL    HW229187   4.276   4.015   6.500  1.8240  2.3225 -0.9288
 5910SOL     OW29188   3.764   3.380  12.192  0.2188 -0.0817 -0.0412
 5910SOL    HW129189   3.768   3.453  12.253 -0.1793  0.7123 -0.9751
 5910SOL    HW229190   3.822   3.317  12.235  0.3091  0.2772  0.3626
 5911SOL     OW29191   2.258   2.723   3.080 -1.0480 -0.2031 -0.0796
 5911SOL    HW129192   2.174   2.685   3.105 -1.3242  0.7309  0.3839
 5911SOL    HW229193   2.269   2.677   2.996  0.7030 -1.4632  0.8425
 5912SOL     OW29194   1.884   2.295   1.140 -0.5051 -0.6123  0.3322
 5912SOL    HW129195   1.964   2.242   1.139 -0.9048 -1.2498  2.2071
 5912SOL    HW229196   1.910   2.387   1.140 -0.7581 -0.5351 -0.7506
 5913SOL     OW29197   1.564   2.962   8.721  1.2487 -0.0531  0.0958
 5913SOL    HW129198   1.519   2.987   8.802  0.6062 -0.9097  0.0070
 5913SOL    HW229199   1.531   2.872   8.717 -0.7328  0.6920 -0.2732
 5914SOL     OW29200   0.745   2.221  17.386  0.1646 -0.0994 -0.3271
 5914SOL    HW129201   0.753   2.222  17.290 -4.7860  2.9500 -0.7050
 5914SOL    HW229202   0.681   2.293  17.391  0.9940  0.5130  1.5946
 5915SOL     OW29203   1.230   2.000   5.716 -0.0271 -0.0562  0.1310
 5915SOL    HW129204   1.276   1.994   5.633  1.9976 -1.0091  1.3173
 5915SOL    HW229205   1.184   2.082   5.698 -2.3646 -1.7872 -1.7166
 5916SOL     OW29206   3.458   2.613   0.532  0.1721  0.3656 -0.1220
 5916SOL    HW129207   3.417   2.700   0.530 -0.6105 -0.0456 -1.9470
 5916SOL    HW229208   3.544   2.633   0.567 -0.8125  2.8291  0.8731
 5917SOL     OW29209   3.998   1.299   4.645  0.2025 -1.0063  0.1817
 5917SOL    HW129210   3.978   1.253   4.726  3.3723 -0.1776  1.4464
 5917SOL    HW229211   3.907   1.312   4.618  1.0299  5.4206  0.3897
 5918SOL     OW29212   2.266   1.678   5.458  0.0910  0.1947 -0.0793
 5918SOL    HW129213   2.275   1.755   5.402  0.6849 -1.5398 -2.3852
 5918SOL    HW229214   2.308   1.614   5.401 -0.3001  0.5974 -0.8211
 5919SOL     OW29215   3.340   4.329   3.012  0.0427 -0.0549 -0.2426
 5919SOL    HW129216   3.365   4.261   3.074  0.5099  1.3525  1.1270
 5919SOL    HW229217   3.367   4.298   2.926  1.2397  0.3425 -0.0077
 5920SOL     OW29218   4.245   4.567   4.981 -0.2511  0.5324  0.2955
 5920SOL    HW129219   4.302   4.541   4.909 -0.9081  1.5616 -0.6155
 5920SOL    HW229220   4.290   4.534   5.058  0.0852  0.7916  0.2082
 5921SOL     OW29221   3.681   2.599  15.676  0.8359  0.1896  0.3529
 5921SOL    HW129222   3.651   2.582  15.586 -0.0895  1.0844  0.4952
 5921SOL    HW229223   3.727   2.518  15.699  0.7923 -0.2888 -1.2171
 5922SOL     OW29224   1.318   3.695   6.327 -0.0332 -0.3912  0.1163
 5922SOL    HW129225   1.250   3.723   6.266 -1.1544 -1.0742  1.0359
 5922SOL    HW229226   1.296   3.734   6.411  1.4975 -0.3569  0.5045
 5923SOL     OW29227   0.683   3.749   3.251 -0.0331 -0.6968  0.0370
 5923SOL    HW129228   0.588   3.746   3.243 -0.0119  1.2404 -0.9735
 5923SOL    HW229229   0.719   3.748   3.163 -0.5244 -0.0179 -0.1723
 5924SOL     OW29230   3.802   2.835   2.632 -0.0118  0.0963  0.1117
 5924SOL    HW129231   3.847   2.751   2.627 -0.2639 -0.0100 -0.3606
 5924SOL    HW229232   3.710   2.809   2.624  0.6430 -2.0244 -0.3558
 5925SOL     OW29233   1.505   3.663   3.102  0.1525 -0.4113 -0.2121
 5925SOL    HW129234   1.529   3.593   3.041  2.7488  1.0082 -0.8031
 5925SOL    HW229235   1.444   3.708   3.044 -0.7658 -2.1788 -0.6283
 5926SOL     OW29236   3.235   1.877   8.821  0.5445 -0.0781 -0.1554
 5926SOL    HW129237   3.227   1.878   8.916  0.9780 -0.5692 -0.1117
 5926SOL    HW229238   3.224   1.967   8.790  0.1495 -1.5910 -4.5061
 5927SOL     OW29239   2.143   0.119  13.026 -0.6566  0.2289 -0.4738
 5927SOL    HW129240   2.194   0.051  13.069 -0.5822  2.2527  2.5858
 5927SOL    HW229241   2.118   0.171  13.102 -2.0027 -0.8608 -0.1754
 5928SOL     OW29242   0.585   2.966  10.461 -0.1882  0.1181  0.5812
 5928SOL    HW129243   0.674   2.999  10.449  0.2970 -0.9534  1.2576
 5928SOL    HW229244   0.597   2.884  10.509 -0.1994 -1.4700 -2.0790
 5929SOL     OW29245   1.227   3.807   1.459  0.7067 -0.5103  0.2651
 5929SOL    HW129246   1.168   3.792   1.385 -0.1626  1.9553  0.4648
 5929SOL    HW229247   1.315   3.804   1.420  0.6945 -0.2616  0.2157
 5930SOL     OW29248   4.638   0.461   1.672  0.1023  0.1268  0.3114
 5930SOL    HW129249   4.576   0.534   1.675 -0.4116 -0.3563  1.4552
 5930SOL    HW229250   4.683   0.482   1.754  2.4891  1.7539 -1.4216
 5931SOL     OW29251   2.900   1.971   1.610  0.1342  0.3582  0.6193
 5931SOL    HW129252   2.976   2.027   1.594  1.3581 -1.5794 -0.4484
 5931SOL    HW229253   2.921   1.927   1.528  1.0928 -0.8144  1.4652
 5932SOL     OW29254   3.453   4.610  10.155  0.4451  0.1649 -0.2455
 5932SOL    HW129255   3.482   4.541  10.096 -1.7920 -1.8078  0.9920
 5932SOL    HW229256   3.372   4.636  10.111  0.3238  2.2174  1.1817
 5933SOL     OW29257   1.155   1.704   3.083  0.0581 -0.2416  0.1892
 5933SOL    HW129258   1.152   1.744   2.996 -5.0519  0.8663  0.8265
 5933SOL    HW229259   1.083   1.745   3.132 -0.9055 -2.3195  0.5088
 5934SOL     OW29260   1.137   1.794   2.777  0.2153 -0.6047  0.2963
 5934SOL    HW129261   1.136   1.878   2.822 -1.5591  1.3447 -3.4396
 5934SOL    HW229262   1.049   1.784   2.739  0.4997 -2.0665  0.0345
 5935SOL     OW29263   3.967   0.106   6.215  1.0566  0.1176 -0.0254
 5935SOL    HW129264   3.929   0.101   6.127  2.0939 -2.8208 -0.3291
 5935SOL    HW229265   3.896   0.140   6.269 -0.6409 -0.5189 -1.8797
 5936SOL     OW29266   2.317   2.016  17.189 -0.4617  0.3290 -0.3809
 5936SOL    HW129267   2.362   2.040  17.270 -0.8089  0.8718 -0.3506
 5936SOL    HW229268   2.242   2.075  17.201 -0.6533 -0.4233  2.3157
 5937SOL     OW29269   1.224   4.391  13.972 -0.0132 -0.2553  0.2826
 5937SOL    HW129270   1.156   4.353  13.916 -0.4390  1.3866 -0.2900
 5937SOL    HW229271   1.205   4.364  14.062  1.0472 -2.7340 -0.2429
 5938SOL     OW29272   3.572   3.905  10.716  0.1782  0.1057  0.2605
 5938SOL    HW129273   3.608   3.897  10.627  0.9454  2.5028  0.3594
 5938SOL    HW229274   3.580   3.999  10.736 -1.1632  0.2513  0.0867
 5939SOL     OW29275   3.196   2.314   6.110  0.1135  0.0235  0.7522
 5939SOL    HW129276   3.137   2.316   6.035 -0.8752 -0.3972  1.5297
 5939SOL    HW229277   3.156   2.249   6.168 -1.3334  1.2643  1.1138
 5940SOL     OW29278   1.494   3.074   1.361  0.1877  0.5723 -0.1336
 5940SOL    HW129279   1.413   3.077   1.310  0.5440 -1.3079 -0.8129
 5940SOL    HW229280   1.555   3.102   1.292  0.2434  1.1068  0.1290
 5941SOL     OW29281   4.511   3.463   4.509  0.3999  0.2483  0.9607
 5941SOL    HW129282   4.539   3.402   4.441  1.2097  2.0267 -0.2976
 5941SOL    HW229283   4.471   3.409   4.577  0.1749 -1.1383 -0.2660
 5942SOL     OW29284   3.871   0.611   8.341 -0.2665 -0.0593 -0.0056
 5942SOL    HW129285   3.809   0.683   8.350 -1.1621 -0.9574  0.9586
 5942SOL    HW229286   3.948   0.669   8.334 -0.5486  0.3279  0.0744
 5943SOL     OW29287   2.667   2.982   7.068  0.4815 -0.0032  0.1971
 5943SOL    HW129288   2.674   3.073   7.038 -2.0159 -0.4364 -1.7016
 5943SOL    HW229289   2.681   2.996   7.162  0.7679 -3.9212  0.7616
 5944SOL     OW29290   1.424   1.964   5.516  0.2661 -0.1517  0.0010
 5944SOL    HW129291   1.390   1.924   5.436 -0.9949 -1.3584  1.1258
 5944SOL    HW229292   1.459   2.049   5.490 -1.4124 -0.0087 -1.7646
 5945SOL     OW29293   0.588   3.749   0.915  0.0261  0.3273  0.6653
 5945SOL    HW129294   0.572   3.656   0.900 -0.3085  0.5404 -0.2665
 5945SOL    HW229295   0.550   3.788   0.836  0.2938 -1.5407 -0.3826
 5946SOL     OW29296   3.252   1.180  15.691 -0.3274  0.0068  0.0553
 5946SOL    HW129297   3.217   1.100  15.731  1.7226 -0.6770  0.5266
 5946SOL    HW229298   3.181   1.201  15.631  1.7534 -0.1052 -2.4058
 5947SOL     OW29299   3.796   4.265   4.633 -0.4078  0.1283 -0.7067
 5947SOL    HW129300   3.708   4.231   4.651 -0.1894  0.1949  0.4822
 5947SOL    HW229301   3.809   4.308   4.717 -0.3388 -0.9715 -0.1478
 5948SOL     OW29302   4.246   1.181   8.731  0.1003 -0.9361  0.1890
 5948SOL    HW129303   4.181   1.251   8.731 -0.2933 -1.3157 -1.2758
 5948SOL    HW229304   4.303   1.208   8.660  0.6044 -1.2227  0.4790
 5949SOL     OW29305   2.453   3.005   6.856  0.0060 -0.0906  0.7863
 5949SOL    HW129306   2.521   3.011   6.924  0.3790  0.7993  0.3382
 5949SOL    HW229307   2.399   2.950   6.912  0.0867 -0.9771 -0.0145
 5950SOL     OW29308   4.266   1.675   7.836 -0.6717  0.4334 -0.5515
 5950SOL    HW129309   4.229   1.670   7.924  1.2468  1.2249  0.3092
 5950SOL    HW229310   4.193   1.702   7.781 -1.4006  1.1804  0.8086
 5951SOL     OW29311   0.616   0.873   5.953  0.0715 -0.1822 -0.2109
 5951SOL    HW129312   0.706   0.893   5.929 -1.1430  3.2340 -1.9419
 5951SOL    HW229313   0.582   0.845   5.868  0.4537  1.4543 -0.8810
 5952SOL     OW29314   4.138   1.106  17.647  0.5192  0.2656 -0.5385
 5952SOL    HW129315   4.171   1.050  17.577  2.5277 -0.3863  0.9205
 5952SOL    HW229316   4.074   1.041  17.678  0.5589  1.0415  1.2112
 5953SOL     OW29317   0.636   4.077   2.940  0.5202  0.2747  0.2198
 5953SOL    HW129318   0.625   4.023   2.862  0.3891 -0.3044  0.6332
 5953SOL    HW229319   0.565   4.046   2.996 -0.5210 -0.6250 -1.5889
 5954SOL     OW29320   3.622   0.043   7.144 -0.7558 -0.0072  0.4825
 5954SOL    HW129321   3.647   0.040   7.236  1.3193  1.9637 -0.0080
 5954SOL    HW229322   3.550   4.702   7.143 -0.1788 -0.6036 -3.0638
 5955SOL     OW29323   3.701   4.313   3.411 -0.5758  0.0447 -0.3345
 5955SOL    HW129324   3.606   4.321   3.409 -0.6762 -1.4361 -1.2981
 5955SOL    HW229325   3.699   4.222   3.380  2.3150  0.7242 -2.5416
 5956SOL     OW29326   0.281   0.113  14.400 -0.1648 -0.1377 -0.0258
 5956SOL    HW129327   0.303   0.135  14.309  0.3904 -0.4171  0.0395
 5956SOL    HW229328   0.304   0.200  14.432  1.3925 -0.0463 -1.3896
 5957SOL     OW29329   2.822   0.293  10.866  0.2265 -0.7204  0.8201
 5957SOL    HW129330   2.777   0.301  10.951 -0.2675  0.5189  0.4461
 5957SOL    HW229331   2.875   0.373  10.869  0.0002 -0.4882 -1.1471
 5958SOL     OW29332   1.798   3.531   6.262  0.6558  0.4794 -0.3995
 5958SOL    HW129333   1.709   3.520   6.293  1.1375  0.6224  1.0442
 5958SOL    HW229334   1.788   3.485   6.179 -0.4035  1.4991 -0.8253
 5959SOL     OW29335   2.252   0.150   2.914 -0.1915 -0.1890 -0.7179
 5959SOL    HW129336   2.223   0.126   3.002  0.7552  0.8080 -0.1244
 5959SOL    HW229337   2.244   0.245   2.918  1.3880 -0.0797  0.0908
 5960SOL     OW29338   1.660   0.247   3.425  0.3714  0.0654  0.3440
 5960SOL    HW129339   1.752   0.262   3.447  0.7930 -1.5324 -0.3269
 5960SOL    HW229340   1.643   0.163   3.467 -0.2288 -1.6616 -3.3262
 5961SOL     OW29341   2.273   1.066   7.898 -0.3922  0.2489 -0.1636
 5961SOL    HW129342   2.216   1.084   7.972 -1.4484  3.8256 -1.8539
 5961SOL    HW229343   2.339   1.123   7.938 -0.0537 -1.4595  1.7038
 5962SOL     OW29344   0.817   2.526   4.874  0.0514 -0.1337  0.7977
 5962SOL    HW129345   0.723   2.508   4.871  0.3731 -1.1444 -2.7902
 5962SOL    HW229346   0.809   2.603   4.930 -0.1847  0.4340 -0.0071
 5963SOL     OW29347   4.716   4.484   7.087  0.1775  0.5074  0.1712
 5963SOL    HW129348   4.674   4.434   7.157 -0.1381 -0.2483 -0.5632
 5963SOL    HW229349   4.683   4.572   7.109 -1.1292  0.0656 -0.0232
 5964SOL     OW29350   3.615   2.556   4.859 -0.2896  0.1538 -0.2216
 5964SOL    HW129351   3.542   2.604   4.897  0.6821  0.4864  1.1974
 5964SOL    HW229352   3.627   2.489   4.926 -2.0625 -0.3801 -0.4275
 5965SOL     OW29353   0.102   4.355   1.465 -0.3072  0.4615  0.2698
 5965SOL    HW129354   0.184   4.345   1.513  0.1357  0.1564 -0.5454
 5965SOL    HW229355   0.050   4.394   1.535 -1.2692  1.0439 -0.7608
 5966SOL     OW29356   4.694   4.480  10.000 -0.2331  0.1341  0.1532
 5966SOL    HW129357   0.040   4.413  10.012  0.4183  1.0439  1.5205
 5966SOL    HW229358   4.639   4.484  10.078 -0.1330 -1.1072  0.2888
 5967SOL     OW29359   2.175   0.018  12.208 -0.0355 -0.3321  0.7932
 5967SOL    HW129360   2.133   0.064  12.135  0.4248 -1.0908  0.0399
 5967SOL    HW229361   2.266   0.005  12.181 -0.8722 -0.9443 -1.7999
 5968SOL     OW29362   1.465   2.691   8.698  0.0829 -0.3779 -0.5324
 5968SOL    HW129363   1.531   2.632   8.662  0.7655 -0.4358  0.8022
 5968SOL    HW229364   1.405   2.625   8.732  3.0509 -1.9663  1.6740
 5969SOL     OW29365   3.245   1.039   4.243 -0.2754 -0.2343  0.4170
 5969SOL    HW129366   3.312   1.091   4.199 -1.5282 -1.7535 -3.2966
 5969SOL    HW229367   3.293   0.961   4.271  1.2418 -0.0180 -1.5753
 5970SOL     OW29368   4.351   2.506   1.496  0.1678 -0.2048 -0.0839
 5970SOL    HW129369   4.440   2.541   1.495  0.4910 -1.0211  2.1435
 5970SOL    HW229370   4.308   2.558   1.564  1.1844 -0.9300  1.1053
 5971SOL     OW29371   1.004   1.431   2.979  0.5284  0.3067  0.9467
 5971SOL    HW129372   1.004   1.360   2.914 -1.6372  1.1266  0.0356
 5971SOL    HW229373   1.054   1.397   3.053 -0.3004 -1.0452  0.8792
 5972SOL     OW29374   3.940   0.127  11.972  0.7673 -0.1775 -0.1312
 5972SOL    HW129375   3.954   0.032  11.969  0.1927 -0.3124  1.3664
 5972SOL    HW229376   4.029   0.141  11.940  1.1473 -1.5309  0.2989
 5973SOL     OW29377   3.140   3.298   9.659 -0.0355 -0.2804 -0.0831
 5973SOL    HW129378   3.082   3.369   9.686 -0.1429  0.1002 -1.3061
 5973SOL    HW229379   3.165   3.334   9.574  0.1269 -0.1415  0.0217
 5974SOL     OW29380   2.637   0.589   1.423 -1.1137 -0.3904 -0.0292
 5974SOL    HW129381   2.596   0.504   1.441  1.2632 -1.2267  1.6106
 5974SOL    HW229382   2.724   0.572   1.386 -0.6121  1.6874  0.1791
 5975SOL     OW29383   4.279   1.203   9.923 -0.6024  0.1146  0.2584
 5975SOL    HW129384   4.210   1.184   9.987  0.7765 -1.5236  1.2601
 5975SOL    HW229385   4.227   1.185   9.845 -0.6281 -0.9738  0.5333
 5976SOL     OW29386   3.771   1.809  11.618  0.0397  0.0498  0.0492
 5976SOL    HW129387   3.711   1.834  11.547 -0.9809 -1.9545  0.2205
 5976SOL    HW229388   3.805   1.895  11.641  1.1279 -1.1740  2.9784
 5977SOL     OW29389   0.461   3.041   2.295 -0.1078  0.7294  0.0248
 5977SOL    HW129390   0.452   3.063   2.388  1.3789  0.4665  0.2344
 5977SOL    HW229391   0.424   2.953   2.285  2.6435 -0.7000  2.5222
 5978SOL     OW29392   0.913   3.379  14.852 -0.0467  0.0733 -0.1658
 5978SOL    HW129393   0.965   3.384  14.771  0.9595 -0.9404  0.4195
 5978SOL    HW229394   0.985   3.395  14.913 -0.0549 -1.9665  0.3900
 5979SOL     OW29395   0.089   0.019   1.227 -0.1863 -0.4510  0.5810
 5979SOL    HW129396   0.113   4.650   1.212  2.4278  0.5424 -1.4000
 5979SOL    HW229397   0.008   0.008   1.277 -0.9019 -0.3057 -0.5356
 5980SOL     OW29398   4.415   1.540   5.705  0.7730 -0.2303  0.3403
 5980SOL    HW129399   4.356   1.475   5.668  1.1641 -0.1384 -0.4395
 5980SOL    HW229400   4.343   1.587   5.746  0.9253 -0.3453  0.7395
 5981SOL     OW29401   2.306   0.174  10.219 -0.2239 -0.2996  0.2978
 5981SOL    HW129402   2.318   0.132  10.134 -0.4929  2.0047 -0.9021
 5981SOL    HW229403   2.342   0.258  10.189 -0.2105 -0.0248  1.0875
 5982SOL     OW29404   0.189   0.469  12.363  0.0944 -0.3681 -0.2068
 5982SOL    HW129405   0.140   0.399  12.319 -0.1963 -0.2084 -0.1392
 5982SOL    HW229406   0.276   0.431  12.369  0.6366  0.8825 -0.1759
 5983SOL     OW29407   2.776   0.153   2.734 -0.2861 -0.7475  0.2640
 5983SOL    HW129408   2.805   0.096   2.663 -1.5513 -0.2611 -0.6532
 5983SOL    HW229409   2.770   0.104   2.816  0.6349  0.9327  1.3153
 5984SOL     OW29410   2.242   1.549  14.950  0.5357 -0.2914 -0.3921
 5984SOL    HW129411   2.259   1.643  14.948  2.2510 -0.5549  1.7498
 5984SOL    HW229412   2.261   1.540  15.043  0.9981 -0.5795 -0.5138
 5985SOL     OW29413   1.289   3.966   7.973 -0.6997 -0.5237  0.0044
 5985SOL    HW129414   1.321   3.876   7.970 -0.0309 -0.3168  0.9983
 5985SOL    HW229415   1.196   3.950   7.958 -1.6870  2.4886  3.0539
 5986SOL     OW29416   0.662   3.732   5.833  0.1111 -0.4826 -0.5668
 5986SOL    HW129417   0.701   3.774   5.757  0.6918  1.6589  0.9290
 5986SOL    HW229418   0.574   3.725   5.796 -0.3376  0.4875  0.3244
 5987SOL     OW29419   4.617   3.142   2.793  0.2116 -0.3473  0.0075
 5987SOL    HW129420   4.570   3.065   2.761 -0.0193 -0.1963 -0.0142
 5987SOL    HW229421   4.696   3.114   2.841 -1.9776 -1.0794  3.1691
 5988SOL     OW29422   2.392   3.912  10.179 -0.3765  0.2902 -0.4274
 5988SOL    HW129423   2.466   3.867  10.220 -0.3332  0.5292 -0.2432
 5988SOL    HW229424   2.440   3.979  10.130 -1.7428  0.4623 -1.5413
 5989SOL     OW29425   1.009   1.042   7.268  0.1602  0.7499 -0.2361
 5989SOL    HW129426   1.030   1.087   7.349 -0.8958  1.6439 -0.4577
 5989SOL    HW229427   0.925   1.003   7.293  1.4908 -1.2226  1.1199
 5990SOL     OW29428   0.592   2.077   3.778  0.1118 -0.3524 -0.1190
 5990SOL    HW129429   0.503   2.076   3.741  0.5936 -0.9056 -1.2713
 5990SOL    HW229430   0.596   2.006   3.841  0.4431 -0.0658  0.1843
 5991SOL     OW29431   2.242   1.262  16.720 -0.4398 -0.3154 -0.6319
 5991SOL    HW129432   2.182   1.316  16.771 -1.2294  0.1187 -2.0206
 5991SOL    HW229433   2.191   1.190  16.684 -0.2790  0.2484 -2.0191
 5992SOL     OW29434   2.831   3.430   0.713 -0.0607  0.3704  0.5598
 5992SOL    HW129435   2.743   3.393   0.711 -0.4136  1.2944 -0.6047
 5992SOL    HW229436   2.885   3.352   0.732  0.3342  0.8236  1.3171
 5993SOL     OW29437   2.702   2.618  10.026  0.5848  0.1251 -0.7530
 5993SOL    HW129438   2.703   2.693  10.087 -1.1393 -0.6845  0.2557
 5993SOL    HW229439   2.691   2.662   9.942  0.1296  1.2715 -0.1085
 5994SOL     OW29440   1.381   1.032   5.703  0.1256  0.4188 -0.1956
 5994SOL    HW129441   1.422   0.945   5.697 -0.5670  0.0270  0.6251
 5994SOL    HW229442   1.300   1.013   5.655  1.3712  0.2811 -2.2372
 5995SOL     OW29443   0.387   4.127   1.147 -0.1688 -0.4616 -0.7116
 5995SOL    HW129444   0.395   4.045   1.099 -1.0852 -0.7387 -0.3833
 5995SOL    HW229445   0.478   4.155   1.141  0.2673 -1.6978  0.0042
 5996SOL     OW29446   2.051   3.479   9.066  0.0772 -0.2549  0.3135
 5996SOL    HW129447   2.015   3.556   9.110 -0.0703 -0.4111  0.4622
 5996SOL    HW229448   2.123   3.456   9.124  0.8319 -0.1812 -0.5997
 5997SOL     OW29449   0.011   2.233  10.946  0.4524 -0.0616 -0.0278
 5997SOL    HW129450   0.062   2.251  10.867  1.8752  0.2168  0.9413
 5997SOL    HW229451   0.081   2.204  11.006 -0.1827  0.6091  1.0435
 5998SOL     OW29452   4.186   4.604   0.199  0.1734  0.2013  0.3909
 5998SOL    HW129453   4.250   4.654   0.147 -1.4673  1.4920 -0.3837
 5998SOL    HW229454   4.108   4.598   0.145  0.8601 -0.1144 -0.5677
 5999SOL     OW29455   3.299   0.241   9.131  0.3165  0.1907  0.1874
 5999SOL    HW129456   3.247   0.172   9.172  0.9624 -0.1333  0.4559
 5999SOL    HW229457   3.297   0.310   9.197  1.8740 -0.6272  1.0857
 6000SOL     OW29458   1.060   2.907  16.905 -0.0643  0.0336  0.6192
 6000SOL    HW129459   0.998   2.958  16.852 -0.7948 -0.2594  1.1923
 6000SOL    HW229460   1.125   2.871  16.844  0.2099 -1.4675  1.7836
 6001SOL     OW29461   4.184   0.031   1.574  0.3049  1.0162 -0.0949
 6001SOL    HW129462   4.159   0.041   1.666  1.2893  1.5770  0.1101
 6001SOL    HW229463   4.254   4.689   1.567 -1.7607 -1.2669  0.2565
 6002SOL     OW29464   2.953   2.176   3.538 -0.3626  0.0370 -0.2841
 6002SOL    HW129465   2.889   2.246   3.526  0.2990  0.8501  0.8843
 6002SOL    HW229466   3.037   2.223   3.536  0.9335 -2.2778 -0.4620
 6003SOL     OW29467   1.114   3.237   2.180 -0.5632 -0.0571  0.3399
 6003SOL    HW129468   1.129   3.201   2.093  0.9352 -1.5654  1.2189
 6003SOL    HW229469   1.049   3.306   2.165 -1.0094 -0.9834 -1.8780
 6004SOL     OW29470   1.802   2.947  10.930  0.6110 -0.6043 -0.0129
 6004SOL    HW129471   1.799   2.971  10.837 -3.5696  2.6136  0.9803
 6004SOL    HW229472   1.758   3.016  10.979  0.4636  0.3733 -1.5342
 6005SOL     OW29473   2.715   4.406   5.974  0.8741  0.0240 -0.2675
 6005SOL    HW129474   2.628   4.375   5.951  0.8089  1.0397 -1.3948
 6005SOL    HW229475   2.740   4.459   5.898 -0.2997  0.1112 -0.5887
 6006SOL     OW29476   3.406   0.104   6.428 -0.4118 -1.3500  0.3173
 6006SOL    HW129477   3.458   0.183   6.441  0.6211 -2.1883  1.2978
 6006SOL    HW229478   3.323   0.130   6.469  0.4250  0.9289  0.5363
 6007SOL     OW29479   1.126   1.829   6.741 -0.4072 -0.7041  0.4376
 6007SOL    HW129480   1.093   1.841   6.830 -0.2009 -1.0855  0.5651
 6007SOL    HW229481   1.208   1.879   6.749 -0.6140 -0.3443  0.3299
 6008SOL     OW29482   3.997   0.417   5.032 -0.4328 -0.3153  0.4165
 6008SOL    HW129483   4.015   0.483   4.965 -3.1877 -0.0751 -0.1196
 6008SOL    HW229484   4.004   0.475   5.108 -0.2018 -1.6215  1.3972
 6009SOL     OW29485   1.782   3.778   8.226  0.4160 -0.2344 -0.6282
 6009SOL    HW129486   1.690   3.763   8.251  1.3284 -3.2657  0.9623
 6009SOL    HW229487   1.806   3.846   8.289  2.3718  0.4390 -2.1076
 6010SOL     OW29488   4.298   0.331   9.041 -0.4742 -0.4467  0.6029
 6010SOL    HW129489   4.255   0.385   9.107 -1.0674 -1.0542  0.7232
 6010SOL    HW229490   4.238   0.257   9.056 -0.2012 -0.8991 -0.5551
 6011SOL     OW29491   1.021   3.228   5.303 -0.7003 -0.0268  0.3177
 6011SOL    HW129492   1.061   3.310   5.273 -0.3476 -0.2394  0.1998
 6011SOL    HW229493   0.961   3.212   5.231  0.6720 -1.8606 -0.4156
 6012SOL     OW29494   2.309   0.768   2.700  0.0028 -0.4134 -0.0627
 6012SOL    HW129495   2.308   0.862   2.716  1.1211 -0.4941  0.4400
 6012SOL    HW229496   2.264   0.765   2.615  1.5415 -1.2435 -0.8543
 6013SOL     OW29497   1.999   3.770  14.800 -0.3846 -0.0986 -0.4006
 6013SOL    HW129498   1.970   3.688  14.840  2.0520 -1.8755 -2.2605
 6013SOL    HW229499   2.050   3.749  14.722 -0.2348 -1.8985  0.1779
 6014SOL     OW29500   4.199   3.703   2.837  0.4755 -0.4755 -0.4474
 6014SOL    HW129501   4.198   3.653   2.755  0.7571 -1.1427 -0.0359
 6014SOL    HW229502   4.187   3.790   2.798  1.1010 -1.3535 -2.6019
 6015SOL     OW29503   0.837   2.291   0.121 -0.0307  0.2796 -0.2885
 6015SOL    HW129504   0.759   2.235   0.120  1.2015 -1.4163 -0.4920
 6015SOL    HW229505   0.798   2.378   0.130 -1.1072 -0.2228 -0.0414
 6016SOL     OW29506   3.660   4.339  15.928 -0.7376 -0.6555  0.3594
 6016SOL    HW129507   3.665   4.254  15.883 -1.3287 -0.1178 -0.7087
 6016SOL    HW229508   3.635   4.310  16.016 -0.9299  2.3880  1.2991
 6017SOL     OW29509   3.200   4.083  14.603 -0.3905 -0.1131 -0.1433
 6017SOL    HW129510   3.126   4.143  14.604  0.6326  1.1818 -1.3595
 6017SOL    HW229511   3.203   4.064  14.509 -4.1059  0.0290 -0.2702
 6018SOL     OW29512   0.182   1.466   9.336  0.1796  0.3385  0.0555
 6018SOL    HW129513   0.146   1.527   9.272 -0.4576 -0.5710 -0.4467
 6018SOL    HW229514   0.191   1.502   9.425 -0.6638  0.0484  0.2514
 6019SOL     OW29515   3.938   1.534   5.893 -0.0440  0.5190  0.0706
 6019SOL    HW129516   3.918   1.497   5.979  1.1934  1.0757  0.5985
 6019SOL    HW229517   3.906   1.463   5.838 -1.7937  1.0735  0.3946
 6020SOL     OW29518   4.399   4.244   4.556  0.3295 -0.1567 -1.0604
 6020SOL    HW129519   4.369   4.207   4.639  2.4314 -1.0323 -0.7012
 6020SOL    HW229520   4.368   4.179   4.493  2.2236 -1.9215 -0.1829
 6021SOL     OW29521   2.941   0.358   3.893  0.5132 -0.0360 -0.5494
 6021SOL    HW129522   2.879   0.430   3.879 -1.0561 -0.7274  2.6843
 6021SOL    HW229523   2.908   0.328   3.978  0.8082 -1.5052 -0.9564
 6022SOL     OW29524   3.446   1.489   6.657 -0.2016 -0.0986  1.0039
 6022SOL    HW129525   3.395   1.566   6.681  0.8415  0.2052  2.2458
 6022SOL    HW229526   3.384   1.417   6.669  0.3081 -0.7409 -0.1619
 6023SOL     OW29527   0.126   1.937  17.684  0.4118  0.4292  0.5115
 6023SOL    HW129528   0.068   1.970   0.062  0.6458  2.7779 -0.4079
 6023SOL    HW229529   0.085   1.960  17.601  1.1844  0.5633  0.1668
 6024SOL     OW29530   4.611   4.674  16.903 -0.0388 -0.0850 -1.0805
 6024SOL    HW129531   4.652   0.031  16.868  1.3577 -0.0655  0.6328
 6024SOL    HW229532   4.529   4.664  16.853 -0.1198  1.3037 -1.2122
 6025SOL     OW29533   0.969   0.142   2.824  0.4108  0.0357 -0.2948
 6025SOL    HW129534   0.988   0.195   2.902 -2.9487  0.1778  0.4216
 6025SOL    HW229535   1.058   0.121   2.796  0.4847 -0.1866  0.1074
 6026SOL     OW29536   3.469   0.950   8.360  0.1441  0.7952  0.2853
 6026SOL    HW129537   3.416   0.898   8.421 -1.1459  0.9445 -0.7127
 6026SOL    HW229538   3.406   0.973   8.292 -1.0334  0.9955  1.4182
 6027SOL     OW29539   1.068   3.576   0.846 -0.2958 -0.5373 -0.0761
 6027SOL    HW129540   1.072   3.526   0.927  2.3260  1.2362  0.8832
 6027SOL    HW229541   1.038   3.665   0.867 -0.4764 -0.5282 -0.3771
 6028SOL     OW29542   1.534   1.089   7.705 -0.3668  0.2933  0.1331
 6028SOL    HW129543   1.521   1.172   7.659 -1.7906 -0.1780 -0.3250
 6028SOL    HW229544   1.461   1.035   7.677  0.9298 -1.6191  0.4902
 6029SOL     OW29545   4.531   2.365   5.710 -0.0635 -0.5521 -0.4604
 6029SOL    HW129546   4.493   2.450   5.686 -0.3275 -0.5726 -0.1280
 6029SOL    HW229547   4.507   2.310   5.636 -2.8515  1.1591 -0.8436
 6030SOL     OW29548   4.420   1.822  12.154  0.1506  0.0413  0.2885
 6030SOL    HW129549   4.395   1.894  12.095 -0.1752 -0.8511 -0.6727
 6030SOL    HW229550   4.347   1.811  12.215 -1.2033 -0.9688 -1.5040
 6031SOL     OW29551   4.660   3.014   4.117 -0.6864  0.3830 -0.2614
 6031SOL    HW129552   4.683   3.057   4.034  3.1695  1.3671  1.3031
 6031SOL    HW229553   4.567   3.037   4.126 -0.8825 -0.6296  0.2159
 6032SOL     OW29554   1.150   1.667   3.693  0.2711 -0.1689  0.4900
 6032SOL    HW129555   1.089   1.629   3.757  0.2084  0.2912  0.7129
 6032SOL    HW229556   1.176   1.748   3.738 -0.3071  0.7752 -0.8658
 6033SOL     OW29557   1.575   2.480  14.121  0.0154  0.5575  0.1470
 6033SOL    HW129558   1.538   2.481  14.209 -1.3500 -0.0292 -0.4185
 6033SOL    HW229559   1.520   2.413  14.079  4.1965 -2.0994 -1.0660
 6034SOL     OW29560   1.949   1.128   9.450 -0.1838  0.3128  0.8968
 6034SOL    HW129561   1.939   1.195   9.518  0.3307  0.2312  1.0542
 6034SOL    HW229562   1.868   1.142   9.402  0.8478  2.3515 -0.2108
 6035SOL     OW29563   2.271   4.492   5.968 -0.3472  0.1808  0.4360
 6035SOL    HW129564   2.190   4.543   5.962 -1.9530 -2.4529 -0.1892
 6035SOL    HW229565   2.330   4.545   5.914 -1.1539  1.5888  0.9327
 6036SOL     OW29566   2.832   4.488  13.086  0.2797 -0.5751  0.2232
 6036SOL    HW129567   2.789   4.573  13.101 -0.4062 -0.6154 -1.5465
 6036SOL    HW229568   2.880   4.520  13.010  0.5979 -1.3754  0.0948
 6037SOL     OW29569   2.796   2.845  11.367  0.0477  0.4829 -0.1929
 6037SOL    HW129570   2.883   2.809  11.386  0.3710  1.9181  1.0818
 6037SOL    HW229571   2.819   2.931  11.332  1.4343 -0.3843 -1.4316
 6038SOL     OW29572   0.168   2.110   1.900  0.4580 -0.0962  0.0537
 6038SOL    HW129573   0.206   2.041   1.846  1.4630  0.9589 -0.5979
 6038SOL    HW229574   0.078   2.124   1.871 -1.0711 -1.1215  4.3012
 6039SOL     OW29575   4.004   2.947   3.265  0.2149 -0.2272 -0.0334
 6039SOL    HW129576   4.080   2.924   3.211 -0.0170  0.1057 -0.5021
 6039SOL    HW229577   4.051   2.980   3.342  0.5907 -0.4331 -0.1759
 6040SOL     OW29578   2.161   1.491  15.537  0.2498  0.1511  0.4818
 6040SOL    HW129579   2.122   1.574  15.564  1.8099  1.4710 -1.3158
 6040SOL    HW229580   2.087   1.447  15.495  1.9530 -1.4083 -0.9275
 6041SOL     OW29581   3.554   0.156  15.647  0.1953 -0.0986  0.0682
 6041SOL    HW129582   3.498   0.119  15.716  0.2157 -0.8775 -0.3298
 6041SOL    HW229583   3.504   0.133  15.569  1.3303  1.4205 -1.0966
 6042SOL     OW29584   3.055   3.984   4.917  1.0797  0.3543  0.4703
 6042SOL    HW129585   3.004   4.012   4.840  0.1227  2.0061  1.6961
 6042SOL    HW229586   3.096   3.903   4.887 -1.8876 -0.0608 -2.5787
 6043SOL     OW29587   2.853   3.796   0.721  0.2015 -0.2356  0.3338
 6043SOL    HW129588   2.942   3.828   0.730  0.7451 -1.6016 -0.2325
 6043SOL    HW229589   2.796   3.871   0.740 -0.2349 -0.1117 -1.4352
 6044SOL     OW29590   4.630   0.034   8.746  0.2451 -0.4519  0.0942
 6044SOL    HW129591   4.628   4.691   8.676 -0.1002  2.1163 -2.2771
 6044SOL    HW229592   4.571   4.720   8.812 -0.8729  3.2475  1.1014
 6045SOL     OW29593   1.449   1.394  17.052 -0.3784  0.4237  0.3836
 6045SOL    HW129594   1.393   1.317  17.042 -0.9690  1.1665 -1.9266
 6045SOL    HW229595   1.532   1.349  17.070 -0.6887 -1.1317 -2.0260
 6046SOL     OW29596   3.697   4.712   2.007 -0.5949 -0.0402 -0.2689
 6046SOL    HW129597   3.602   4.709   2.019 -0.6665  0.4497 -0.6737
 6046SOL    HW229598   3.718   4.619   2.016  2.2980  0.6039 -0.3308
 6047SOL     OW29599   0.336   3.865   1.027  0.2469 -0.0100  0.4221
 6047SOL    HW129600   0.406   3.800   1.030 -0.4024 -0.6719  1.0389
 6047SOL    HW229601   0.277   3.823   0.965  0.1931  0.0431  0.4371
 6048SOL     OW29602   1.503   2.802   1.646  0.3649  0.1677  0.1999
 6048SOL    HW129603   1.561   2.826   1.718 -0.6734  1.3394  0.6517
 6048SOL    HW229604   1.459   2.887   1.635  2.6430  1.3090 -0.0967
 6049SOL     OW29605   0.362   3.882  17.678 -0.4595 -0.2440 -0.1665
 6049SOL    HW129606   0.346   3.905  17.587  0.6737 -2.0660 -0.8371
 6049SOL    HW229607   0.274   3.878   0.024 -2.0477  2.3553 -3.7219
 6050SOL     OW29608   1.993   0.766   2.643 -0.0942 -0.5092 -0.6593
 6050SOL    HW129609   1.902   0.778   2.616 -0.2373 -2.2208 -0.9321
 6050SOL    HW229610   2.031   0.843   2.601 -0.5604 -0.4977 -1.0676
 6051SOL     OW29611   2.830   0.386   0.904 -0.9487 -0.1812 -0.2171
 6051SOL    HW129612   2.901   0.430   0.858  1.1012  0.2215  3.2845
 6051SOL    HW229613   2.791   0.467   0.937 -0.1986 -0.1479  0.6030
 6052SOL     OW29614   3.468   2.275   8.904 -0.7425 -0.3878 -0.1549
 6052SOL    HW129615   3.523   2.272   8.826  0.9622 -0.3754  1.0460
 6052SOL    HW229616   3.383   2.238   8.880 -0.1336 -0.3870 -2.2424
 6053SOL     OW29617   1.955   2.217   3.496  0.2569 -0.4163  0.4222
 6053SOL    HW129618   1.886   2.255   3.442 -0.4821 -3.7028 -0.9202
 6053SOL    HW229619   1.909   2.169   3.564  1.7954 -1.8137  0.4636
 6054SOL     OW29620   1.907   2.970   7.076 -0.3958 -0.0335  0.0969
 6054SOL    HW129621   1.936   3.014   7.156  1.6970 -0.9223 -0.1661
 6054SOL    HW229622   1.966   2.895   7.071 -1.6437 -0.8815 -1.7412
 6055SOL     OW29623   0.918   3.419   0.694  0.1379 -0.8397  0.1598
 6055SOL    HW129624   0.950   3.493   0.746 -0.0489 -0.5688 -0.1076
 6055SOL    HW229625   0.883   3.361   0.762  0.6979 -0.4076  0.8207
 6056SOL     OW29626   2.519   0.321   4.184  0.2044 -0.2641  0.0052
 6056SOL    HW129627   2.564   0.404   4.194  1.7771 -1.1968  0.7118
 6056SOL    HW229628   2.545   0.297   4.095 -1.2689  0.9355 -0.7529
 6057SOL     OW29629   4.460   2.679   0.783 -0.3452  0.0021 -0.5044
 6057SOL    HW129630   4.387   2.739   0.771  0.9194  1.4679 -0.8359
 6057SOL    HW229631   4.505   2.703   0.702  1.3681  0.9478  0.7341
 6058SOL     OW29632   2.537   4.529   3.805 -0.1735  0.6251 -0.1854
 6058SOL    HW129633   2.606   4.524   3.871 -1.1705 -1.3452  0.7206
 6058SOL    HW229634   2.498   4.616   3.813  0.4786  0.9673 -0.7871
 6059SOL     OW29635   0.721   0.031   7.837 -0.0120 -0.1088  0.1452
 6059SOL    HW129636   0.736   0.030   7.932 -0.0910 -0.1530  0.1568
 6059SOL    HW229637   0.657   4.684   7.823 -0.9903  1.0964 -1.3440
 6060SOL     OW29638   4.040   0.254   9.042  0.4541 -0.0380  0.7253
 6060SOL    HW129639   3.989   0.200   8.981  0.3171  1.7109 -0.7337
 6060SOL    HW229640   3.975   0.262   9.111  1.1156  1.2937  1.1895
 6061SOL     OW29641   3.434   0.270   3.183  0.1819  0.0822 -0.2403
 6061SOL    HW129642   3.387   0.354   3.180 -2.1621 -1.1477  1.9550
 6061SOL    HW229643   3.384   0.214   3.124  3.6234 -1.3784 -1.7449
 6062SOL     OW29644   0.895   4.249  14.409 -0.2610 -0.0427  0.2006
 6062SOL    HW129645   0.960   4.181  14.389 -0.8291 -0.2941 -0.7880
 6062SOL    HW229646   0.868   4.230  14.499  0.4832 -0.6288  0.3041
 6063SOL     OW29647   1.498   4.310   7.289 -0.1867 -0.2667  0.2029
 6063SOL    HW129648   1.511   4.363   7.368  4.0729  2.1643 -2.1090
 6063SOL    HW229649   1.405   4.312   7.269  0.2735 -3.2585 -2.1922
 6064SOL     OW29650   0.839   2.994   0.197 -0.2971 -0.1533  0.0437
 6064SOL    HW129651   0.848   2.900   0.179 -0.3124  0.1654 -1.6047
 6064SOL    HW229652   0.784   2.974   0.274 -0.9214  0.6673 -0.1891
 6065SOL     OW29653   0.304   3.762   2.088 -0.0721 -0.0886  0.0368
 6065SOL    HW129654   0.266   3.786   2.003 -0.0865 -2.0822 -0.5266
 6065SOL    HW229655   0.229   3.792   2.140 -1.1429 -3.8922  0.7044
 6066SOL     OW29656   1.489   2.849   3.130 -0.6951 -0.0079  0.1851
 6066SOL    HW129657   1.452   2.925   3.175  1.5393 -0.3718  2.6320
 6066SOL    HW229658   1.500   2.887   3.043 -2.1749  2.5629  1.1298
 6067SOL     OW29659   1.595   0.522   4.925  0.1364 -0.3852 -0.5385
 6067SOL    HW129660   1.537   0.447   4.917  1.7148 -1.6533 -0.0735
 6067SOL    HW229661   1.589   0.562   4.838  0.5656  1.8882  0.4789
 6068SOL     OW29662   0.631   0.067   5.271  0.1650  0.7386  0.4016
 6068SOL    HW129663   0.634   0.071   5.366 -0.6455  0.0410  0.4538
 6068SOL    HW229664   0.556   0.124   5.257 -1.6047 -1.9756 -1.1470
 6069SOL     OW29665   2.978   3.628   9.105  0.3738 -0.1697  0.4483
 6069SOL    HW129666   2.984   3.716   9.141  3.1719 -0.5790  0.9876
 6069SOL    HW229667   2.956   3.652   9.015  0.6833 -0.8062  0.2016
 6070SOL     OW29668   2.154   1.874   7.597 -0.5776  0.2919 -0.2111
 6070SOL    HW129669   2.213   1.903   7.527  0.8524  0.5365  1.1123
 6070SOL    HW229670   2.116   1.791   7.567 -2.0974  0.7345  0.4587
 6071SOL     OW29671   3.241   4.641  16.922  0.4882  0.1649 -0.5287
 6071SOL    HW129672   3.154   4.634  16.882 -0.2651 -0.6569  1.2544
 6071SOL    HW229673   3.255   4.547  16.932  2.4051  0.4570 -0.4232
 6072SOL     OW29674   4.247   4.366   5.647 -0.3068  0.6967  0.0134
 6072SOL    HW129675   4.168   4.332   5.689 -1.2021  1.0097 -1.4247
 6072SOL    HW229676   4.251   4.336   5.556 -0.3179 -0.7965  0.4931
 6073SOL     OW29677   0.950   2.656  16.628 -0.0709 -0.0505 -0.1644
 6073SOL    HW129678   0.862   2.621  16.645  0.3090 -0.9928 -0.1892
 6073SOL    HW229679   0.983   2.602  16.557 -0.7385 -3.0270  1.7603
 6074SOL     OW29680   1.742   2.225   0.189  0.0292  0.3112 -0.3170
 6074SOL    HW129681   1.756   2.157   0.122 -2.3053  0.9129 -1.4259
 6074SOL    HW229682   1.649   2.221   0.209  0.4055 -1.4821  1.1027
 6075SOL     OW29683   0.900   1.428  11.169  0.3163 -0.2358 -0.0467
 6075SOL    HW129684   0.839   1.371  11.122  0.2656 -2.0111  2.1450
 6075SOL    HW229685   0.848   1.439  11.249 -0.7124  4.8817 -1.4110
 6076SOL     OW29686   1.002   3.754   4.384  0.8631  0.3582 -0.4139
 6076SOL    HW129687   0.915   3.793   4.393  1.0658  0.9216 -0.9289
 6076SOL    HW229688   0.974   3.671   4.424 -1.2342  0.7459 -1.0508
 6077SOL     OW29689   2.798   3.609   7.060 -0.5365 -0.0046  0.2170
 6077SOL    HW129690   2.875   3.649   7.020  0.0792 -0.5512  0.8553
 6077SOL    HW229691   2.728   3.674   7.050 -0.5667 -0.2040 -0.8452
 6078SOL     OW29692   0.811   4.377   6.987  0.5835  0.1205 -0.1833
 6078SOL    HW129693   0.829   4.468   6.962 -2.1264  0.0220 -2.4408
 6078SOL    HW229694   0.884   4.335   6.942 -0.2257 -0.4477 -0.9394
 6079SOL     OW29695   2.566   4.085   0.502  0.0446  0.2541 -0.1179
 6079SOL    HW129696   2.545   4.178   0.511 -1.1319 -0.0809  0.5705
 6079SOL    HW229697   2.622   4.064   0.577  0.4821  0.7014 -0.3172
 6080SOL     OW29698   4.426   0.125   5.349 -0.1547 -0.3140 -0.1790
 6080SOL    HW129699   4.336   0.158   5.342  0.4826  1.7775  1.5613
 6080SOL    HW229700   4.412   0.053   5.409 -1.0690  0.8030  0.9521
 6081SOL     OW29701   4.046   4.118   5.568  0.8322  0.2240 -0.3770
 6081SOL    HW129702   4.089   4.033   5.570 -0.0637 -0.1713  1.7392
 6081SOL    HW229703   3.989   4.117   5.645  0.5532  1.2631 -0.5717
 6082SOL     OW29704   1.662   2.922   1.831 -0.9121  0.2944  0.2491
 6082SOL    HW129705   1.708   2.936   1.913 -0.3252  0.9160 -0.1790
 6082SOL    HW229706   1.627   3.010   1.815  0.9424  1.0389  0.2269
 6083SOL     OW29707   1.471   0.935  12.640 -0.3877 -0.5414 -0.3757
 6083SOL    HW129708   1.443   0.997  12.574  1.5300  0.1526 -0.5417
 6083SOL    HW229709   1.408   0.948  12.711  0.6651 -0.0091  0.4658
 6084SOL     OW29710   0.935   1.070   8.821  0.0553 -0.1809 -0.5679
 6084SOL    HW129711   0.844   1.083   8.846 -0.1147 -2.1710 -0.1971
 6084SOL    HW229712   0.969   1.098   8.906 -0.3498 -1.6155  0.0633
 6085SOL     OW29713   1.146   3.627   5.393  0.2583 -0.0639  0.5594
 6085SOL    HW129714   1.206   3.693   5.361  1.4448 -0.8771  1.0963
 6085SOL    HW229715   1.154   3.562   5.323  2.3361  1.9551 -1.0554
 6086SOL     OW29716   3.313   1.010   2.375  0.4946 -0.0523  0.0649
 6086SOL    HW129717   3.385   0.958   2.341  0.8573  0.3882  0.1702
 6086SOL    HW229718   3.270   1.053   2.301  1.6281 -3.1396 -2.3766
 6087SOL     OW29719   2.766   4.007  11.987  0.0605  0.2494 -0.2563
 6087SOL    HW129720   2.715   3.927  11.976  0.6587 -0.2810  0.9132
 6087SOL    HW229721   2.832   4.003  11.917  0.3661 -0.3625  0.0691
 6088SOL     OW29722   3.114   3.773   5.614 -0.3518  0.3018  0.3866
 6088SOL    HW129723   3.025   3.739   5.600 -0.7226  0.8714  1.3770
 6088SOL    HW229724   3.107   3.858   5.570 -0.2523 -0.1028 -0.4239
 6089SOL     OW29725   0.896   2.513  13.191  0.3011 -0.2988  0.2992
 6089SOL    HW129726   0.991   2.505  13.204  0.5336  1.3833 -0.2950
 6089SOL    HW229727   0.863   2.431  13.228  1.6831 -1.1185 -0.2840
 6090SOL     OW29728   1.875   2.528   7.503  0.9245 -0.1242 -0.5687
 6090SOL    HW129729   1.967   2.528   7.476  1.1758  0.5063  0.3110
 6090SOL    HW229730   1.875   2.533   7.598  0.5182 -0.9095 -0.5290
 6091SOL     OW29731   2.204   1.653   6.629 -0.1691  0.2441  0.1127
 6091SOL    HW129732   2.124   1.700   6.605 -1.0124  0.0765  2.5834
 6091SOL    HW229733   2.260   1.687   6.559  0.8553 -0.1186  0.7519
 6092SOL     OW29734   2.820   3.622   5.145 -0.2510 -0.0784 -0.0571
 6092SOL    HW129735   2.897   3.585   5.099 -0.0321  1.6206 -1.0467
 6092SOL    HW229736   2.751   3.570   5.104  0.3111 -0.3853 -0.6219
 6093SOL     OW29737   2.772   0.734  14.659  0.1501  0.0711 -0.0039
 6093SOL    HW129738   2.837   0.681  14.614 -1.0919 -1.3880 -0.1055
 6093SOL    HW229739   2.706   0.665  14.654  1.3887 -1.1535  0.5058
 6094SOL     OW29740   0.244   1.835  16.306 -0.1359  0.6731 -0.1289
 6094SOL    HW129741   0.222   1.856  16.397  0.7043  2.3590 -0.3092
 6094SOL    HW229742   0.322   1.888  16.289  0.8086 -0.6206  0.1611
 6095SOL     OW29743   1.627   1.879   6.971 -0.1307  0.2531  0.7286
 6095SOL    HW129744   1.667   1.955   6.927  1.1645 -0.8917 -0.0743
 6095SOL    HW229745   1.644   1.910   7.060  2.4690 -2.1812  1.0745
 6096SOL     OW29746   2.941   3.110  15.244 -0.2447  0.3105 -0.4887
 6096SOL    HW129747   3.018   3.092  15.190 -1.5594 -1.7602 -1.6611
 6096SOL    HW229748   2.896   3.029  15.220 -0.6795 -0.1945  2.1080
 6097SOL     OW29749   4.133   2.413  15.176 -0.5848 -0.3040 -0.2615
 6097SOL    HW129750   4.141   2.318  15.180 -1.8748 -0.3176  2.8272
 6097SOL    HW229751   4.043   2.424  15.146 -0.3614  2.0661 -0.0720
 6098SOL     OW29752   2.730   1.158  11.482 -0.7316 -0.1542 -0.2049
 6098SOL    HW129753   2.693   1.083  11.435 -1.0369 -1.0801  1.5048
 6098SOL    HW229754   2.732   1.124  11.571 -0.0509 -0.2050 -0.2399
 6099SOL     OW29755   1.362   4.106   4.392  0.1523  0.5745  0.9937
 6099SOL    HW129756   1.391   4.171   4.456 -0.0050  2.4055 -0.7901
 6099SOL    HW229757   1.276   4.133   4.360  0.2565  2.5804  2.3887
 6100SOL     OW29758   2.720   0.566  11.982 -0.0825  0.1091 -0.0760
 6100SOL    HW129759   2.734   0.480  12.022  1.6297  0.1458 -0.6126
 6100SOL    HW229760   2.690   0.623  12.054  0.8475  2.5459 -1.6130
 6101SOL     OW29761   0.451   1.808   8.831 -0.2345 -0.3845  0.2226
 6101SOL    HW129762   0.494   1.729   8.798  0.5552  0.7055 -1.3367
 6101SOL    HW229763   0.361   1.777   8.835  0.0505 -1.0318  1.5650
 6102SOL     OW29764   4.315   2.139  15.954  0.4563  0.3792  0.1575
 6102SOL    HW129765   4.353   2.220  15.987 -0.3689  0.7645  0.1682
 6102SOL    HW229766   4.394   2.113  15.908  1.4195  1.1219  1.3801
 6103SOL     OW29767   2.934   2.313   5.676 -0.3238  0.7014 -0.8393
 6103SOL    HW129768   2.923   2.347   5.587 -1.5643 -0.2545 -1.0537
 6103SOL    HW229769   2.845   2.278   5.688 -0.8135  2.7195  1.5039
 6104SOL     OW29770   1.497   1.805   0.292  0.4573 -0.0740  0.0857
 6104SOL    HW129771   1.504   1.857   0.372  1.3983  3.5236 -2.3324
 6104SOL    HW229772   1.588   1.814   0.262  0.1213 -3.2236 -1.9417
 6105SOL     OW29773   0.109   3.400   0.090 -0.3705  0.2456 -0.1834
 6105SOL    HW129774   0.146   3.316   0.062 -0.4305 -0.3583  1.5372
 6105SOL    HW229775   0.132   3.447   0.010 -1.0694 -1.2028 -1.2433
 6106SOL     OW29776   3.427   0.315   4.044  0.7743 -0.3964  0.6240
 6106SOL    HW129777   3.477   0.278   4.117 -0.5548  2.4607  2.9694
 6106SOL    HW229778   3.486   0.292   3.972 -0.7005  0.8670 -0.9735
 6107SOL     OW29779   3.329   0.325   4.398  0.8607  0.3217  0.2586
 6107SOL    HW129780   3.265   0.289   4.337 -1.1782  0.7565  2.1276
 6107SOL    HW229781   3.371   0.241   4.415 -2.9779 -1.8215 -0.8710
 6108SOL     OW29782   0.886   0.997   9.195  0.2208  0.3750  0.3366
 6108SOL    HW129783   0.966   0.961   9.157 -0.3757 -1.4526  0.8467
 6108SOL    HW229784   0.902   1.088   9.169  1.9106  0.1255  0.5141
 6109SOL     OW29785   4.420   1.348   7.785  0.4083 -0.9171  0.1409
 6109SOL    HW129786   4.327   1.347   7.764  0.9637 -2.1303 -2.3211
 6109SOL    HW229787   4.425   1.351   7.880  0.8675 -0.2808  0.0919
 6110SOL     OW29788   0.850   3.749   4.920 -0.2879 -0.5202  1.0365
 6110SOL    HW129789   0.769   3.732   4.873  0.0272  0.2436  0.2388
 6110SOL    HW229790   0.857   3.843   4.903 -2.8222 -0.7718 -1.2247
 6111SOL     OW29791   2.569   0.096   5.062 -0.2002 -0.4935 -0.4998
 6111SOL    HW129792   2.545   0.188   5.052 -1.0330 -0.8760 -2.0680
 6111SOL    HW229793   2.480   0.063   5.077  0.3069 -0.8927  1.6188
 6112SOL     OW29794   4.272   4.226   6.230  0.4459 -0.6748  0.4418
 6112SOL    HW129795   4.210   4.153   6.222  1.3027 -1.1521 -1.9242
 6112SOL    HW229796   4.219   4.304   6.215 -0.1019 -1.2035 -0.3901
 6113SOL     OW29797   2.779   3.892  13.167 -0.2686  0.7392  0.0525
 6113SOL    HW129798   2.707   3.949  13.140 -0.7007 -1.3259 -3.1262
 6113SOL    HW229799   2.795   3.834  13.092 -0.0818  0.6945  0.1257
 6114SOL     OW29800   0.627   2.088   2.680  0.1345  0.4050 -0.1902
 6114SOL    HW129801   0.627   2.102   2.774 -3.4705  0.6608 -0.2126
 6114SOL    HW229802   0.722   2.090   2.666 -0.2991  2.2434 -2.9091
 6115SOL     OW29803   3.621   2.870   1.631 -0.4107 -0.1771  0.1131
 6115SOL    HW129804   3.634   2.808   1.559  0.5179 -0.8030  0.8222
 6115SOL    HW229805   3.704   2.851   1.674  0.5046 -1.0806 -2.0645
 6116SOL     OW29806   1.246   1.905   6.258 -0.6877 -0.2179 -0.3622
 6116SOL    HW129807   1.280   1.924   6.345 -2.1604 -1.5201  0.5154
 6116SOL    HW229808   1.262   1.987   6.212  0.6200  0.4659  1.3005
 6117SOL     OW29809   2.426   2.347   5.153  0.2753  0.6207  0.4840
 6117SOL    HW129810   2.331   2.341   5.156  0.6249 -3.5577  2.9515
 6117SOL    HW229811   2.444   2.292   5.077 -1.4701 -1.4726  1.6007
 6118SOL     OW29812   2.683   3.360   3.275  0.3917  0.4698 -0.4520
 6118SOL    HW129813   2.643   3.442   3.244  0.4375  0.8419  0.4881
 6118SOL    HW229814   2.637   3.298   3.218 -0.8918 -1.0886  2.3167
 6119SOL     OW29815   2.475   3.793  13.722 -0.1297 -0.1371 -0.2619
 6119SOL    HW129816   2.533   3.860  13.684  1.8296 -0.0349  2.9055
 6119SOL    HW229817   2.491   3.815  13.813  0.3404 -2.4294  0.2064
 6120SOL     OW29818   1.831   2.966   2.080 -0.1433  0.4216 -0.0139
 6120SOL    HW129819   1.897   2.934   2.141  0.8032  2.1033 -0.1434
 6120SOL    HW229820   1.830   3.054   2.118  0.9091 -0.2859  1.6428
 6121SOL     OW29821   3.828   1.329   5.778 -0.1224 -0.4371  0.3223
 6121SOL    HW129822   3.791   1.374   5.702  1.7225  0.7116  0.0950
 6121SOL    HW229823   3.757   1.267   5.796  0.0684 -1.5161 -2.6554
 6122SOL     OW29824   3.464   3.642  11.001  0.3513  0.4775 -0.4597
 6122SOL    HW129825   3.507   3.601  11.076 -1.0972  0.3242  0.2975
 6122SOL    HW229826   3.462   3.731  11.037  0.4653 -0.0824  0.9252
 6123SOL     OW29827   1.386   0.477  15.475 -0.4497  0.2933 -0.4321
 6123SOL    HW129828   1.337   0.502  15.553  0.3552  2.7805 -0.7071
 6123SOL    HW229829   1.464   0.533  15.472 -2.0232  2.4234 -1.3451
 6124SOL     OW29830   3.103   1.023  15.887 -0.2342  0.5525  0.9901
 6124SOL    HW129831   3.108   1.062  15.975 -2.1661  1.2613  0.7945
 6124SOL    HW229832   3.110   0.931  15.910 -1.3850  0.4288  0.8257
 6125SOL     OW29833   0.656   1.363   5.433 -0.3794 -0.2333  0.1050
 6125SOL    HW129834   0.731   1.360   5.492 -1.7375 -1.3825  1.7677
 6125SOL    HW229835   0.641   1.455   5.412  0.7152 -0.1131 -0.1017
 6126SOL     OW29836   2.511   0.109   6.778  0.0757  0.2928  0.2850
 6126SOL    HW129837   2.595   0.066   6.791 -0.1061  0.4062  1.8293
 6126SOL    HW229838   2.488   0.129   6.869 -0.5633 -1.6789  0.5663
 6127SOL     OW29839   1.147   4.528   8.669  0.2046  0.0645  0.1198
 6127SOL    HW129840   1.231   4.549   8.628  1.3141  0.2916  2.4845
 6127SOL    HW229841   1.137   4.433   8.662 -0.3581  0.0770  0.7486
 6128SOL     OW29842   1.928   2.355  11.779  0.0520  0.4476  0.3783
 6128SOL    HW129843   1.835   2.349  11.759 -0.1174 -1.0916  1.6623
 6128SOL    HW229844   1.973   2.355  11.695 -2.7237 -0.4577 -1.0634
 6129SOL     OW29845   0.982   1.396   6.050 -0.0197 -0.1078  0.1222
 6129SOL    HW129846   0.997   1.452   5.974  1.8300 -1.7589 -0.7265
 6129SOL    HW229847   0.921   1.447   6.104  0.1797  0.9444 -0.6436
 6130SOL     OW29848   3.282   4.384   1.341  0.1917 -0.4998 -0.2881
 6130SOL    HW129849   3.374   4.393   1.315  0.3203  0.2429  0.4129
 6130SOL    HW229850   3.259   4.472   1.369 -1.4331 -1.2697  0.8144
 6131SOL     OW29851   0.531   1.244   3.500  0.1220  0.4123  0.1164
 6131SOL    HW129852   0.591   1.264   3.429 -1.0388 -2.9989 -1.8555
 6131SOL    HW229853   0.516   1.151   3.483 -1.1510  0.3246  1.6694
 6132SOL     OW29854   0.077   4.614   6.779  0.3175 -0.0239 -0.1492
 6132SOL    HW129855   0.051   4.523   6.765  1.6673 -0.6231  1.2685
 6132SOL    HW229856   0.095   4.643   6.689 -0.7334  0.4737 -0.1980
 6133SOL     OW29857   2.387   0.484   5.650 -0.1760  0.0311 -0.0753
 6133SOL    HW129858   2.337   0.405   5.631 -0.0008  0.3402 -1.8455
 6133SOL    HW229859   2.346   0.501   5.735 -1.2752 -0.2415 -0.5586
 6134SOL     OW29860   3.196   4.406   7.056 -0.1654 -0.0772 -0.1269
 6134SOL    HW129861   3.175   4.387   7.147 -1.6161  0.8607 -0.2658
 6134SOL    HW229862   3.291   4.423   7.056 -0.2395  0.2802  0.9940
 6135SOL     OW29863   0.691   1.312   3.293 -0.2142 -0.3595 -0.2353
 6135SOL    HW129864   0.783   1.290   3.304  0.3053  1.7523 -0.3579
 6135SOL    HW229865   0.696   1.402   3.325  0.0275 -0.5316  0.2064
 6136SOL     OW29866   1.510   2.306  17.005  0.0579  0.0197 -0.0586
 6136SOL    HW129867   1.417   2.307  17.025 -0.4759  1.8661 -2.5838
 6136SOL    HW229868   1.542   2.343  17.088 -0.3816  1.6654 -0.6109
 6137SOL     OW29869   0.517   1.013   6.461 -0.5246  0.2961 -0.1532
 6137SOL    HW129870   0.548   1.098   6.430  2.5890 -1.4418 -1.8508
 6137SOL    HW229871   0.429   1.000   6.426 -0.4058 -0.5078 -0.1644
 6138SOL     OW29872   0.574   3.602   7.634 -0.0081  0.0019 -0.0067
 6138SOL    HW129873   0.634   3.640   7.570 -0.7459  2.3698  0.7423
 6138SOL    HW229874   0.502   3.568   7.579  2.0254 -0.8438 -2.1540
 6139SOL     OW29875   2.060   3.952   0.928 -0.2555  0.1944 -0.0402
 6139SOL    HW129876   1.971   3.974   0.955  0.4040  1.8841  0.7485
 6139SOL    HW229877   2.045   3.861   0.903  0.3287 -0.2200  1.1328
 6140SOL     OW29878   1.684   1.572   4.146  0.4169  0.2215 -0.0723
 6140SOL    HW129879   1.657   1.577   4.238 -1.1089 -2.5458 -0.3619
 6140SOL    HW229880   1.651   1.483   4.133  0.6078 -0.0273  1.1302
 6141SOL     OW29881   4.329   1.809   2.996 -0.1777 -0.3113  0.0195
 6141SOL    HW129882   4.403   1.748   2.997  1.6447  1.8920 -1.1480
 6141SOL    HW229883   4.264   1.754   2.952 -1.4128  1.0849  0.1224
 6142SOL     OW29884   3.305   2.007   5.136 -0.4180  0.0483  0.4208
 6142SOL    HW129885   3.387   1.964   5.109  0.2153  1.0293  0.8126
 6142SOL    HW229886   3.303   1.987   5.229 -1.3334 -2.4508 -0.1217
 6143SOL     OW29887   0.280   2.402   8.703  0.3040  1.0917  0.0007
 6143SOL    HW129888   0.293   2.319   8.657  0.9337 -0.1323  2.3936
 6143SOL    HW229889   0.339   2.392   8.778  1.6222 -0.2490 -1.2024
 6144SOL     OW29890   3.515   1.679   5.623  0.5180  0.4143  0.2850
 6144SOL    HW129891   3.428   1.709   5.650 -0.5683 -2.5489  0.1319
 6144SOL    HW229892   3.544   1.745   5.560  0.0811  0.0716 -0.2817
 6145SOL     OW29893   0.128   1.045  11.338 -0.0880 -0.1151  0.4617
 6145SOL    HW129894   0.078   1.106  11.283 -1.0820 -0.1262  1.3503
 6145SOL    HW229895   0.129   0.975  11.273 -0.7239  1.2415 -1.0109
 6146SOL     OW29896   4.397   1.523   9.557  0.0950  0.1716 -0.3130
 6146SOL    HW129897   4.364   1.462   9.491  1.4806 -1.5501  0.5841
 6146SOL    HW229898   4.481   1.547   9.517 -0.6450  0.0460 -1.9425
 6147SOL     OW29899   3.856   1.538   0.719 -0.2723  0.1500  0.1070
 6147SOL    HW129900   3.846   1.473   0.650  1.0431  1.8158 -1.6600
 6147SOL    HW229901   3.931   1.588   0.685  0.0616 -0.2481  0.2529
 6148SOL     OW29902   3.215   3.711   1.258 -0.0538  0.3086 -0.4185
 6148SOL    HW129903   3.226   3.720   1.164  0.2355 -0.2036 -0.4326
 6148SOL    HW229904   3.271   3.783   1.287  0.4575 -0.5380  0.7357
 6149SOL     OW29905   1.643   3.911   3.562 -0.2740  0.0868 -0.0753
 6149SOL    HW129906   1.691   3.839   3.603 -0.2410  0.0452 -0.1896
 6149SOL    HW229907   1.562   3.917   3.612  0.7253  1.0746  1.4392
 6150SOL     OW29908   2.905   1.150   6.057 -0.1540  0.6316 -0.8085
 6150SOL    HW129909   2.887   1.243   6.045 -1.5344  0.4937  0.1782
 6150SOL    HW229910   3.001   1.146   6.061 -0.1446  2.2118  0.5327
 6151SOL     OW29911   3.498   3.292  16.538 -0.3270  0.0533  0.0741
 6151SOL    HW129912   3.524   3.210  16.580  1.9942 -0.4998 -2.3971
 6151SOL    HW229913   3.453   3.343  16.605 -1.7342  0.0653 -0.8991
 6152SOL     OW29914   1.683   1.377   3.292 -0.2550 -0.2720 -0.4453
 6152SOL    HW129915   1.767   1.338   3.316 -2.0434 -2.6756  1.8333
 6152SOL    HW229916   1.647   1.315   3.229  0.4836 -3.2793  2.1359
 6153SOL     OW29917   4.444   1.544   6.791  0.1388 -0.1091 -0.0818
 6153SOL    HW129918   4.514   1.509   6.846  0.7823  1.3240 -0.0000
 6153SOL    HW229919   4.485   1.568   6.709  0.5987 -0.2867  0.0980
 6154SOL     OW29920   2.355   1.445   6.079 -0.7513 -0.4708  0.4463
 6154SOL    HW129921   2.305   1.382   6.026 -1.5740  1.7986 -1.4840
 6154SOL    HW229922   2.441   1.435   6.039  0.2702  0.6698  2.3989
 6155SOL     OW29923   4.682   0.362   6.985 -0.3175 -0.0359  0.3115
 6155SOL    HW129924   4.622   0.396   6.919  0.0170 -0.9328 -0.4479
 6155SOL    HW229925   4.711   0.282   6.943  0.2462  0.2363  0.1841
 6156SOL     OW29926   0.032   2.864   0.389 -0.7018 -0.4729  0.4794
 6156SOL    HW129927   0.114   2.834   0.348 -1.0223 -0.1161 -0.4308
 6156SOL    HW229928   0.028   2.956   0.361  1.1166 -1.4245 -2.9302
 6157SOL     OW29929   2.955   0.291   3.063  0.2583 -0.4941  0.0675
 6157SOL    HW129930   2.897   0.254   3.129 -0.0212  0.6717  0.4724
 6157SOL    HW229931   2.894   0.328   2.999  2.1441  0.5020 -1.1679
 6158SOL     OW29932   0.711   0.282   3.066  0.4077  0.4180 -0.5790
 6158SOL    HW129933   0.707   0.359   3.009  2.0555  0.2439 -0.9438
 6158SOL    HW229934   0.695   0.316   3.153  0.5629 -0.0918 -0.3477
 6159SOL     OW29935   3.369   2.631   6.402 -0.0262 -0.3966 -0.2038
 6159SOL    HW129936   3.322   2.573   6.461  0.1959 -1.9148 -1.5121
 6159SOL    HW229937   3.333   2.597   6.320 -0.3268 -2.3577  0.7499
 6160SOL     OW29938   2.828   4.565   3.379 -0.2723 -0.8999  0.4626
 6160SOL    HW129939   2.751   4.509   3.368 -1.4586  0.8154  0.0768
 6160SOL    HW229940   2.856   4.536   3.466  2.3207 -1.6234 -0.5851
 6161SOL     OW29941   4.680   0.269   3.605 -0.2211  0.5722  0.4458
 6161SOL    HW129942   4.593   0.265   3.644 -0.0034 -0.2939  0.8343
 6161SOL    HW229943   0.006   0.282   3.687  1.0629 -0.2533 -0.1806
 6162SOL     OW29944   2.060   1.562   4.309 -0.0027 -0.2519 -0.6278
 6162SOL    HW129945   2.116   1.493   4.273  0.7694 -0.2954  0.6474
 6162SOL    HW229946   1.985   1.542   4.252  0.0884 -0.7759 -0.5648
 6163SOL     OW29947   2.279   2.705   3.904 -0.2846  0.0859 -0.5144
 6163SOL    HW129948   2.323   2.646   3.965  1.2082  4.1375  2.3192
 6163SOL    HW229949   2.325   2.788   3.915 -1.9329  0.3947  4.1368
 6164SOL     OW29950   2.392   0.590   7.630  0.2321  0.0721 -0.4986
 6164SOL    HW129951   2.359   0.624   7.713 -0.7103 -2.1524  0.0502
 6164SOL    HW229952   2.464   0.532   7.655  0.1506  0.2522  0.1314
 6165SOL     OW29953   2.091   3.007  16.468 -0.4309  0.4913 -0.1300
 6165SOL    HW129954   2.059   3.080  16.521  0.7112  1.8134 -1.2609
 6165SOL    HW229955   2.084   3.043  16.379 -2.3345  0.3176 -0.0548
 6166SOL     OW29956   0.263   0.446  16.160  0.1567  0.1717  0.1844
 6166SOL    HW129957   0.197   0.447  16.230 -0.1247  0.4724 -0.0930
 6166SOL    HW229958   0.207   0.425  16.086  0.6472  0.6336 -0.3085
 6167SOL     OW29959   1.456   4.124  17.501  0.7405  0.5039 -0.1066
 6167SOL    HW129960   1.542   4.152  17.469  0.4640 -0.0448 -1.3496
 6167SOL    HW229961   1.442   4.177  17.579 -0.5228  0.7420 -0.4988
 6168SOL     OW29962   1.769   2.431  17.151 -0.1185  0.2629 -0.8464
 6168SOL    HW129963   1.758   2.526  17.142  0.1100  0.5035  1.3446
 6168SOL    HW229964   1.698   2.424  17.215  1.0694  2.4469  0.7436
 6169SOL     OW29965   3.301   1.728  12.439 -0.4748  0.3402 -0.3399
 6169SOL    HW129966   3.345   1.810  12.460 -0.2015  0.0804  0.1035
 6169SOL    HW229967   3.218   1.745  12.485  0.2028  0.5762  0.7876
 6170SOL     OW29968   0.617   3.059  17.423  0.1708  0.0657  0.3187
 6170SOL    HW129969   0.633   3.083  17.515 -1.4375 -0.2171  0.6691
 6170SOL    HW229970   0.599   3.148  17.393  0.4520  0.3894  1.1037
 6171SOL     OW29971   0.569   1.643  17.357  0.5682  0.3920 -0.6069
 6171SOL    HW129972   0.560   1.644  17.262  1.0456  1.2943 -0.6468
 6171SOL    HW229973   0.639   1.708  17.369  0.8079  0.1518 -0.7159
 6172SOL     OW29974   2.545   2.050   8.533 -0.2393  0.5887  0.0078
 6172SOL    HW129975   2.489   1.974   8.545 -0.0093  0.5153  0.6556
 6172SOL    HW229976   2.591   2.053   8.618 -0.6374 -1.2634  0.2919
 6173SOL     OW29977   3.815   3.100   7.611 -0.5762  0.6347 -0.1012
 6173SOL    HW129978   3.845   3.027   7.558 -1.2024 -1.1081  1.9197
 6173SOL    HW229979   3.898   3.120   7.656  0.2065  0.0384 -1.2947
 6174SOL     OW29980   4.023   1.050   7.921  0.0510  0.1413  0.5281
 6174SOL    HW129981   3.943   1.088   7.958 -0.3763 -0.0032 -0.2427
 6174SOL    HW229982   4.072   1.126   7.890  1.6600 -0.9932  0.3137
 6175SOL     OW29983   4.513   4.264   5.378  0.4839 -0.5150 -0.5134
 6175SOL    HW129984   4.491   4.339   5.434  1.5215  0.3441 -1.2469
 6175SOL    HW229985   4.557   4.203   5.437 -0.6919  0.3949  1.3085
 6176SOL     OW29986   2.960   2.945   2.913  0.4169 -0.9214 -0.3252
 6176SOL    HW129987   3.028   2.989   2.964  0.1943 -2.1234  1.0375
 6176SOL    HW229988   2.887   2.958   2.972  0.1211  1.4522 -1.2305
 6177SOL     OW29989   3.720   1.532   2.037 -0.0473  0.6034  0.0095
 6177SOL    HW129990   3.754   1.621   2.023 -0.3775  0.8210  0.5950
 6177SOL    HW229991   3.639   1.548   2.084 -2.1316  0.7447 -3.6402
 6178SOL     OW29992   3.471   0.476   8.188 -0.1035 -0.1036 -0.5046
 6178SOL    HW129993   3.497   0.385   8.205 -0.9898 -0.4674 -1.1272
 6178SOL    HW229994   3.556   0.514   8.166 -0.9159  1.6049 -0.6283
 6179SOL     OW29995   3.311   3.509   7.344  0.1057  0.6565 -0.3294
 6179SOL    HW129996   3.317   3.438   7.408 -1.3423  0.3618 -0.5289
 6179SOL    HW229997   3.404   3.521   7.328  0.3437 -0.6871  0.0357
 6180SOL     OW29998   4.428   3.217  14.142 -0.1712  0.1075 -0.4008
 6180SOL    HW129999   4.340   3.250  14.128 -0.0686  1.0481  1.2013
 6180SOL    HW230000   4.474   3.233  14.059 -1.0320  1.8266 -0.5469
 6181SOL     OW30001   3.458   0.629   4.165  0.4002  0.6513 -0.8831
 6181SOL    HW130002   3.512   0.583   4.229 -1.6848 -2.0249 -1.0518
 6181SOL    HW230003   3.510   0.704   4.137  3.6094 -0.6419  1.6991
 6182SOL     OW30004   2.790   4.166   8.286 -0.0904  0.2049  0.5633
 6182SOL    HW130005   2.789   4.113   8.365  0.1534  1.4982  1.4366
 6182SOL    HW230006   2.738   4.111   8.228  1.7568 -2.5742  1.5414
 6183SOL     OW30007   4.169   0.128   4.455 -0.0902 -0.3429 -0.4275
 6183SOL    HW130008   4.176   0.210   4.406  3.9868 -0.2512  0.2448
 6183SOL    HW230009   4.086   0.091   4.424 -0.0732 -0.3059 -0.5188
 6184SOL     OW30010   3.931   3.326   2.301  0.5629 -0.2712 -0.4606
 6184SOL    HW130011   4.008   3.309   2.247  1.8726 -0.4259  1.4328
 6184SOL    HW230012   3.959   3.286   2.384  0.9836  0.0697 -0.4377
 6185SOL     OW30013   1.169   2.153   7.677 -0.2503 -0.1979  0.3235
 6185SOL    HW130014   1.098   2.214   7.655  1.3596  1.8341  0.7381
 6185SOL    HW230015   1.133   2.124   7.761 -2.0550  1.0721 -0.0174
 6186SOL     OW30016   2.217   2.922   3.642 -0.6117 -0.0106 -0.3232
 6186SOL    HW130017   2.265   2.996   3.606 -1.1272  0.4033 -0.1494
 6186SOL    HW230018   2.266   2.920   3.725  0.8458 -0.4251 -1.1960
 6187SOL     OW30019   1.659   3.183   6.537  0.5981 -0.9044  0.3076
 6187SOL    HW130020   1.744   3.163   6.576  0.7542 -1.3288 -0.2438
 6187SOL    HW230021   1.615   3.106   6.570  1.7124 -1.7949 -0.2715
 6188SOL     OW30022   3.551   2.107   1.636 -0.0694  0.0569  0.2807
 6188SOL    HW130023   3.494   2.119   1.712  0.8318 -1.8923  1.2868
 6188SOL    HW230024   3.629   2.065   1.674 -0.5737 -0.8128  0.3507
 6189SOL     OW30025   0.360   1.618   4.066 -0.1627  0.5542  0.0372
 6189SOL    HW130026   0.391   1.653   4.149  0.4053  1.7098 -0.6634
 6189SOL    HW230027   0.310   1.693   4.033  2.0091  2.5063  1.2321
 6190SOL     OW30028   0.617   1.226   2.898 -0.2438  0.3389  0.4346
 6190SOL    HW130029   0.546   1.187   2.847 -0.4206 -0.1625  1.0734
 6190SOL    HW230030   0.647   1.156   2.955  0.8943  0.8674  0.4770
 6191SOL     OW30031   3.839   1.306  10.117 -0.3269  0.7407  0.0673
 6191SOL    HW130032   3.754   1.270  10.139 -1.4402  2.2423 -1.7798
 6191SOL    HW230033   3.814   1.394  10.088 -0.2924  1.7697  3.1735
 6192SOL     OW30034   4.014   2.640   4.099  0.5218 -0.2702  0.4522
 6192SOL    HW130035   4.035   2.572   4.163 -1.1654 -0.7610  0.4853
 6192SOL    HW230036   3.922   2.648   4.123  0.5363 -1.4414  0.8601
 6193SOL     OW30037   1.070   3.935   2.410  0.1009  0.3047  0.3858
 6193SOL    HW130038   1.089   4.020   2.372  1.4158  1.0031  2.6692
 6193SOL    HW230039   0.994   3.961   2.461 -1.3167 -0.1066 -1.5026
 6194SOL     OW30040   1.018   3.863   7.347  0.7873  0.3315 -0.2145
 6194SOL    HW130041   1.110   3.836   7.348  0.3569 -1.0481  1.0526
 6194SOL    HW230042   0.992   3.892   7.434 -0.2531 -2.0393  0.2837
 6195SOL     OW30043   3.181   2.181   7.868 -0.8524  0.5434 -0.1391
 6195SOL    HW130044   3.195   2.093   7.902  0.1856  0.8404  0.1975
 6195SOL    HW230045   3.130   2.164   7.789 -0.6256 -0.3982 -0.0819
 6196SOL     OW30046   2.499   1.458   4.798  0.1364  0.4685 -0.1500
 6196SOL    HW130047   2.479   1.508   4.877 -1.1147  1.2183 -0.9397
 6196SOL    HW230048   2.489   1.527   4.732 -0.7147  0.3002 -0.2025
 6197SOL     OW30049   1.420   0.596   3.008  1.1066 -0.1399 -0.0087
 6197SOL    HW130050   1.501   0.590   2.958  1.0394  0.2096 -0.1610
 6197SOL    HW230051   1.371   0.626   2.932  0.1647  0.8803  0.9960
 6198SOL     OW30052   3.859   1.744   5.559  0.4011 -0.3747  0.2392
 6198SOL    HW130053   3.906   1.823   5.586 -1.0264  0.8232 -0.8251
 6198SOL    HW230054   3.793   1.783   5.502 -0.1548 -2.4642 -0.5632
 6199SOL     OW30055   0.078   0.375   3.399 -0.5804 -0.1472  0.3155
 6199SOL    HW130056   0.027   0.331   3.467 -0.6660 -2.1176 -1.0148
 6199SOL    HW230057   0.124   0.451   3.435  0.8530 -0.0848 -1.6245
 6200SOL     OW30058   1.242   1.631   7.474 -0.1782 -0.1411 -0.0583
 6200SOL    HW130059   1.297   1.605   7.400 -0.4994  0.2958 -0.4546
 6200SOL    HW230060   1.222   1.553   7.526  1.4062 -0.8692 -0.5496
 6201SOL     OW30061   3.852   3.781   3.052  0.9389  0.0149 -0.6889
 6201SOL    HW130062   3.896   3.793   3.136  0.5631 -0.4924 -0.4189
 6201SOL    HW230063   3.777   3.736   3.090  0.0943  1.5849 -0.5053
 6202SOL     OW30064   0.736   1.448   2.783  0.1073 -0.2486  0.7028
 6202SOL    HW130065   0.753   1.401   2.701 -1.9804  0.3343 -0.0676
 6202SOL    HW230066   0.717   1.373   2.839  0.5256 -1.2286 -0.4625
 6203SOL     OW30067   1.748   4.339   7.977 -0.3866 -0.1911  0.8526
 6203SOL    HW130068   1.689   4.376   8.043  0.0911  0.2060  1.0600
 6203SOL    HW230069   1.765   4.249   8.004  0.8976  0.0542  0.8711
 6204SOL     OW30070   0.905   4.376   4.635  0.0679  0.2356 -0.2982
 6204SOL    HW130071   0.849   4.449   4.608 -2.1452 -0.0542  3.4713
 6204SOL    HW230072   0.914   4.393   4.729 -1.6887 -0.9886  0.0846
 6205SOL     OW30073   4.453   0.860   8.612  0.0423  0.4370 -0.3370
 6205SOL    HW130074   4.519   0.912   8.657  0.2233 -0.0230 -0.0724
 6205SOL    HW230075   4.447   0.778   8.661 -1.7458  1.0899  0.5283
 6206SOL     OW30076   4.087   0.044  11.096 -0.5758  0.0789  0.5277
 6206SOL    HW130077   4.109   4.704  11.165  1.9650 -3.7662 -3.7775
 6206SOL    HW230078   4.155   0.027  11.030 -1.0644 -1.1524  0.3421
 6207SOL     OW30079   0.755   1.527  11.695  0.0921  0.0929 -0.3153
 6207SOL    HW130080   0.803   1.522  11.777 -0.4458 -0.4104 -0.0248
 6207SOL    HW230081   0.750   1.619  11.671  1.3643  0.9040  2.5980
 6208SOL     OW30082   4.186   1.534   2.149 -0.1162 -0.3788  0.0121
 6208SOL    HW130083   4.133   1.605   2.185 -1.6438 -1.1684 -0.6715
 6208SOL    HW230084   4.140   1.458   2.185 -2.0784  1.5162  1.4766
 6209SOL     OW30085   2.898   4.543  12.301  0.2986 -0.1504  0.0934
 6209SOL    HW130086   2.822   4.512  12.253  1.2011  1.6288 -2.4559
 6209SOL    HW230087   2.972   4.499  12.260 -1.7221 -1.2257 -2.3494
 6210SOL     OW30088   1.896   1.813  15.016 -0.2393 -0.3946 -0.3556
 6210SOL    HW130089   1.837   1.884  15.042 -0.3367 -0.3418 -0.7307
 6210SOL    HW230090   1.895   1.831  14.923 -2.0792  0.0694 -0.2478
 6211SOL     OW30091   2.665   3.211  17.030  0.0266  0.1579 -0.3203
 6211SOL    HW130092   2.584   3.175  17.067  0.0692 -0.2940 -0.6695
 6211SOL    HW230093   2.716   3.130  17.033  1.7377  1.2516  0.3670
 6212SOL     OW30094   4.358   1.574   3.297 -0.1692  0.0553  0.2042
 6212SOL    HW130095   4.443   1.617   3.299 -0.3840  0.4949 -0.1488
 6212SOL    HW230096   4.386   1.492   3.257  1.6155  0.1974  1.1598
 6213SOL     OW30097   1.101   0.188   1.106  0.3666 -0.1461 -0.3421
 6213SOL    HW130098   1.181   0.176   1.157  0.8159 -0.1101 -1.0463
 6213SOL    HW230099   1.057   0.237   1.176  1.4570  2.3260 -1.4132
 6214SOL     OW30100   3.745   4.156   0.626 -0.2593 -0.2085 -0.3276
 6214SOL    HW130101   3.734   4.211   0.548  1.8330 -0.5672 -0.8521
 6214SOL    HW230102   3.766   4.070   0.592 -0.1416 -0.1719 -0.3466
 6215SOL     OW30103   2.407   1.975   5.618 -0.1144 -0.9760  0.3676
 6215SOL    HW130104   2.497   1.952   5.640 -0.2105 -1.6837  0.0099
 6215SOL    HW230105   2.432   2.016   5.535 -0.7934 -0.4510  0.4244
 6216SOL     OW30106   3.516   4.028   5.900  0.5660  0.0229  0.1252
 6216SOL    HW130107   3.467   4.111   5.900  0.0838 -0.2618 -0.0533
 6216SOL    HW230108   3.596   4.064   5.863 -1.1659  1.6129 -2.1155
 6217SOL     OW30109   0.641   2.850   4.692 -0.6781  0.3434  0.1421
 6217SOL    HW130110   0.581   2.811   4.629  0.2444 -1.5694  0.4360
 6217SOL    HW230111   0.719   2.809   4.654  0.6659  1.3271  1.8592
 6218SOL     OW30112   0.829   1.019   4.790 -0.1934  0.0299  0.3642
 6218SOL    HW130113   0.892   0.947   4.783  0.1943  0.4003  0.0611
 6218SOL    HW230114   0.879   1.077   4.732  0.2227  0.1076  0.7920
 6219SOL     OW30115   4.505   3.681  17.520 -0.1039  0.1671 -0.2502
 6219SOL    HW130116   4.427   3.638  17.556  0.2016  0.9629  1.3761
 6219SOL    HW230117   4.559   3.686  17.599 -0.1685 -1.6449 -0.0777
 6220SOL     OW30118   3.773   2.048  17.615 -0.1141 -0.2065 -0.1200
 6220SOL    HW130119   3.683   2.017  17.626 -0.0738  0.8389  3.1335
 6220SOL    HW230120   3.780   2.104   0.002  2.0663  0.4344 -0.7694
 6221SOL     OW30121   4.432   1.675  13.540 -0.5649  0.0223  0.0876
 6221SOL    HW130122   4.460   1.588  13.571  1.2481  0.1823 -1.0716
 6221SOL    HW230123   4.354   1.659  13.487 -0.4703  2.1016 -0.6610
 6222SOL     OW30124   3.385   1.213   7.384 -0.3022 -0.6481  0.3729
 6222SOL    HW130125   3.466   1.168   7.358 -2.2952 -3.0380 -1.7209
 6222SOL    HW230126   3.332   1.134   7.376 -1.0972 -0.3120  2.2703
 6223SOL     OW30127   2.687   3.700   8.012 -0.6368  0.2389 -0.3413
 6223SOL    HW130128   2.740   3.621   8.024  0.4679  1.1402  0.7237
 6223SOL    HW230129   2.689   3.715   7.918  1.1244  0.7593 -0.2175
 6224SOL     OW30130   4.455   0.266   1.624 -0.3775  0.5372  0.2553
 6224SOL    HW130131   4.456   0.241   1.531  0.5030  2.8082 -0.3380
 6224SOL    HW230132   4.531   0.322   1.636 -0.8936  0.9253  1.6083
 6225SOL     OW30133   2.700   4.007   4.896  0.2373  0.2964 -0.0877
 6225SOL    HW130134   2.623   4.063   4.910 -0.7950 -0.5388 -2.3668
 6225SOL    HW230135   2.657   3.925   4.921  4.2213 -1.7724 -0.0772
 6226SOL     OW30136   4.394   2.956   1.941  0.1488 -0.0483 -0.1480
 6226SOL    HW130137   4.387   2.934   2.034 -0.1552  1.7572  0.2579
 6226SOL    HW230138   4.467   2.901   1.912 -0.0583 -0.9892  1.1548
 6227SOL     OW30139   3.065   2.629   6.735  0.7666 -0.1133  0.1336
 6227SOL    HW130140   2.993   2.569   6.719  1.8110 -1.3752  0.1861
 6227SOL    HW230141   3.130   2.580   6.685 -0.4114 -0.7058 -0.8309
 6228SOL     OW30142   2.127   0.584   8.145 -0.0491 -0.4699 -0.0464
 6228SOL    HW130143   2.087   0.667   8.172 -1.6146 -2.0717  2.5495
 6228SOL    HW230144   2.056   0.520   8.136  1.3006 -1.6522 -2.1620
 6229SOL     OW30145   2.602   1.952  17.476  0.3876 -0.1648  0.0142
 6229SOL    HW130146   2.575   1.914  17.560  2.0494  1.2041  1.1822
 6229SOL    HW230147   2.539   2.022  17.459  1.0426  0.6539  0.9431
 6230SOL     OW30148   2.351   1.192   9.185 -0.5522  0.2163 -0.1446
 6230SOL    HW130149   2.399   1.222   9.108  1.2544  0.1945  0.9712
 6230SOL    HW230150   2.420   1.215   9.247  1.4168  0.2976 -2.3756
 6231SOL     OW30151   1.179   1.505  13.190  0.4030  0.7830  0.3315
 6231SOL    HW130152   1.183   1.503  13.286 -0.6981 -1.4588  0.3281
 6231SOL    HW230153   1.273   1.508  13.174  0.1248 -0.4323 -1.4235
 6232SOL     OW30154   0.738   3.720   0.591 -0.5383 -0.0146 -0.2057
 6232SOL    HW130155   0.799   3.759   0.528  0.4796 -0.9171  0.2159
 6232SOL    HW230156   0.789   3.719   0.672 -0.9811  1.2239  0.0901
 6233SOL     OW30157   1.841   4.048   4.564  0.1261  0.0093 -0.0790
 6233SOL    HW130158   1.813   3.957   4.574 -0.6810  0.2651 -0.0415
 6233SOL    HW230159   1.808   4.086   4.645  0.6386  2.1654 -0.8857
 6234SOL     OW30160   3.936   1.940   4.874  1.3675  0.0797  0.8527
 6234SOL    HW130161   3.993   1.866   4.895  1.5566 -0.2318 -0.7592
 6234SOL    HW230162   3.983   2.024   4.876  1.1506  0.1498  3.2398
 6235SOL     OW30163   1.781   0.471   2.347  0.7326  0.3159  0.1535
 6235SOL    HW130164   1.818   0.427   2.270  0.7498 -0.3237  0.5223
 6235SOL    HW230165   1.827   0.555   2.351 -1.8913  1.8305 -1.0560
 6236SOL     OW30166   0.784   0.312  14.371 -0.1257  0.6535 -0.6803
 6236SOL    HW130167   0.833   0.232  14.355 -2.9607 -1.4999  1.5360
 6236SOL    HW230168   0.806   0.338  14.461  2.7308 -0.1351 -1.1761
 6237SOL     OW30169   1.261   4.623   7.461 -0.6763 -0.1754 -0.2636
 6237SOL    HW130170   1.172   4.637   7.428 -1.4455 -1.7423  1.1832
 6237SOL    HW230171   1.316   4.641   7.385 -0.4677  0.8648  0.1385
 6238SOL     OW30172   4.377   2.500   9.400 -0.7858  0.0384  0.6756
 6238SOL    HW130173   4.458   2.486   9.350 -1.5359 -1.2296 -0.1749
 6238SOL    HW230174   4.387   2.594   9.414 -1.5251  0.0013  1.4327
 6239SOL     OW30175   3.993   2.507   6.029 -0.2812 -0.0932 -0.3377
 6239SOL    HW130176   4.018   2.452   6.104 -0.4341 -1.0075 -0.9533
 6239SOL    HW230177   4.071   2.561   6.023  0.2209 -0.5415  1.9228
 6240SOL     OW30178   0.225   4.431   5.392  0.1700 -0.4464  0.2065
 6240SOL    HW130179   0.159   4.499   5.379  0.5075 -0.0718  0.4537
 6240SOL    HW230180   0.289   4.476   5.446  1.3560 -1.7098 -0.1345
 6241SOL     OW30181   4.329   4.339   7.858 -0.1626  0.1222  0.5434
 6241SOL    HW130182   4.298   4.262   7.907  0.4993  0.6720  1.8237
 6241SOL    HW230183   4.292   4.404   7.917 -0.0753  0.0413  0.6877
 6242SOL     OW30184   3.783   0.620   1.732 -0.4353  0.3237  0.2447
 6242SOL    HW130185   3.803   0.684   1.663 -1.0820  3.0899  2.6278
 6242SOL    HW230186   3.762   0.681   1.803 -0.2885  0.0843  0.4926
 6243SOL     OW30187   3.947   2.019  11.575 -0.5558 -0.0643  0.5407
 6243SOL    HW130188   3.994   2.043  11.495 -0.1810  0.4204  0.9140
 6243SOL    HW230189   3.900   2.099  11.600 -1.8282  0.1886 -2.5290
 6244SOL     OW30190   3.594   2.502   5.314  0.1949 -0.1911 -0.1395
 6244SOL    HW130191   3.592   2.436   5.384  1.7954  2.3112  2.2756
 6244SOL    HW230192   3.573   2.582   5.363 -2.6323 -0.5889 -0.6900
 6245SOL     OW30193   3.154   3.743   4.854  0.2191 -0.7453 -0.0702
 6245SOL    HW130194   3.078   3.686   4.846  2.2603 -3.4392 -0.1120
 6245SOL    HW230195   3.207   3.693   4.916  0.9345 -0.3481 -0.3570
 6246SOL     OW30196   3.513   0.528   4.406 -0.0162  0.3402  0.0750
 6246SOL    HW130197   3.457   0.451   4.393  1.9012 -0.9045 -0.8614
 6246SOL    HW230198   3.586   0.478   4.443  0.2555 -0.7652 -1.9939
 6247SOL     OW30199   1.228   2.410  14.238  0.1792 -0.4798  0.0372
 6247SOL    HW130200   1.295   2.441  14.299 -0.4213 -2.6318  1.7835
 6247SOL    HW230201   1.150   2.427  14.291 -0.0574  0.4067 -0.6006
 6248SOL     OW30202   1.637   1.080  10.349 -0.5178  0.1900  0.2396
 6248SOL    HW130203   1.585   1.010  10.311 -0.4199  0.7412 -0.9234
 6248SOL    HW230204   1.727   1.049  10.340 -0.7503 -0.3612 -0.1887
 6249SOL     OW30205   3.311   0.025   3.591  0.6323 -0.0351  0.1489
 6249SOL    HW130206   3.358   4.688   3.649  0.1640  0.1766  0.7525
 6249SOL    HW230207   3.276   0.086   3.656  0.1022 -0.3762  0.1866
 6250SOL     OW30208   3.590   1.971  14.222 -0.4330 -0.5539 -0.1521
 6250SOL    HW130209   3.684   1.951  14.225 -0.1547  0.7405  0.0527
 6250SOL    HW230210   3.578   1.987  14.129  1.3164 -0.7079 -0.4159
 6251SOL     OW30211   3.172   3.609   1.810  0.0939 -0.1789  0.5545
 6251SOL    HW130212   3.194   3.618   1.718 -0.2703 -0.7361  0.4117
 6251SOL    HW230213   3.165   3.702   1.832  1.7358  0.1497 -0.4024
 6252SOL     OW30214   0.768   4.222  11.233  0.0415  0.3428  0.3155
 6252SOL    HW130215   0.747   4.310  11.263 -1.9433 -0.2615  0.7225
 6252SOL    HW230216   0.829   4.199  11.303 -0.1986  0.6237  0.6195
 6253SOL     OW30217   1.690   2.449   9.155  0.0244  0.6125 -0.0910
 6253SOL    HW130218   1.691   2.357   9.181 -0.5045  0.4672 -0.5819
 6253SOL    HW230219   1.611   2.451   9.102 -0.6594 -2.2289  0.8168
 6254SOL     OW30220   3.003   2.418   1.725 -0.6840 -0.1551 -0.4413
 6254SOL    HW130221   2.959   2.428   1.641  1.1223 -3.5214 -1.8007
 6254SOL    HW230222   2.987   2.504   1.763 -1.3178 -1.0986  1.4156
 6255SOL     OW30223   3.211   3.273   5.245 -0.0115  0.2145 -0.6860
 6255SOL    HW130224   3.134   3.217   5.260 -0.7388  1.5005  0.4411
 6255SOL    HW230225   3.183   3.365   5.239 -3.6932 -0.9611 -1.9428
 6256SOL     OW30226   0.828   1.516   6.596 -0.2406 -0.3309 -0.3055
 6256SOL    HW130227   0.923   1.515   6.583  0.0954 -1.3683  2.2993
 6256SOL    HW230228   0.844   1.576   6.669 -4.2795  0.5454 -0.1735
 6257SOL     OW30229   2.831   0.122  16.218 -0.7475 -0.7801  0.1255
 6257SOL    HW130230   2.824   0.040  16.171 -1.0774  0.9344 -2.7910
 6257SOL    HW230231   2.817   0.188  16.150 -0.2602  1.5998  2.3343
 6258SOL     OW30232   1.591   3.410  13.091  0.0286 -0.0948  0.2668
 6258SOL    HW130233   1.671   3.359  13.099 -0.6794 -1.2221  0.1487
 6258SOL    HW230234   1.612   3.464  13.015  0.3898  0.2675  0.6271
 6259SOL     OW30235   0.905   1.218   4.586  0.0783  0.0402 -0.1877
 6259SOL    HW130236   0.896   1.292   4.646  0.2001  0.0325 -0.1598
 6259SOL    HW230237   1.000   1.202   4.586  0.1121  0.2380  0.1304
 6260SOL     OW30238   3.155   3.290   8.352  0.4388  0.2082 -0.1900
 6260SOL    HW130239   3.193   3.216   8.304  0.4056 -0.0652  0.2062
 6260SOL    HW230240   3.145   3.342   8.273  1.7272  0.7635  0.0135
 6261SOL     OW30241   0.513   0.636   4.302 -0.2114 -0.1188  0.2383
 6261SOL    HW130242   0.500   0.666   4.391 -1.8398  0.8379 -0.3255
 6261SOL    HW230243   0.527   0.716   4.251 -2.8831  0.1295 -0.0743
 6262SOL     OW30244   4.219   1.090   8.184  0.0173 -0.3505 -0.0532
 6262SOL    HW130245   4.256   1.031   8.250 -1.0038 -0.0668  0.7720
 6262SOL    HW230246   4.220   1.023   8.115 -0.5239 -0.3909 -0.0200
 6263SOL     OW30247   3.003   3.703  12.696 -0.2366 -0.3697  0.4493
 6263SOL    HW130248   2.939   3.687  12.626  1.6223 -1.9725 -0.8531
 6263SOL    HW230249   3.009   3.618  12.740  0.1698  0.0707  1.2475
 6264SOL     OW30250   1.730   0.525   6.399  0.9695  0.5790  0.4395
 6264SOL    HW130251   1.638   0.532   6.371  0.8356  1.9123  1.2164
 6264SOL    HW230252   1.727   0.587   6.472 -0.4433  1.5161 -0.3952
 6265SOL     OW30253   1.198   2.004   2.973 -0.1520  0.1456  0.3198
 6265SOL    HW130254   1.281   2.036   3.010 -0.4441  0.2003  0.9363
 6265SOL    HW230255   1.154   2.088   2.961  0.7338  0.3171 -1.7071
 6266SOL     OW30256   1.565   3.970   7.110 -1.2216 -0.1743 -0.1876
 6266SOL    HW130257   1.600   4.053   7.142 -1.8619 -0.1531  0.4622
 6266SOL    HW230258   1.504   4.000   7.042 -1.0952  0.6479  0.0719
 6267SOL     OW30259   3.912   2.635   5.436 -0.4974  0.3228  0.4639
 6267SOL    HW130260   3.971   2.673   5.500  0.0916  0.2488 -0.0339
 6267SOL    HW230261   3.860   2.714   5.420 -0.1118  0.4951  0.0721
 6268SOL     OW30262   3.959   2.935   2.842  0.3785  0.6787 -0.3618
 6268SOL    HW130263   3.916   2.989   2.908 -0.5811 -0.0239 -0.4133
 6268SOL    HW230264   3.885   2.918   2.784 -0.1289 -0.0740  0.5053
 6269SOL     OW30265   0.251   0.977  14.721 -0.1238  0.2946 -0.3721
 6269SOL    HW130266   0.338   1.011  14.740 -0.3806  0.5806  0.2788
 6269SOL    HW230267   0.267   0.902  14.664  2.7105  0.9524 -0.4566
 6270SOL     OW30268   4.599   3.894   3.912  0.0447  0.2757 -0.1588
 6270SOL    HW130269   4.515   3.852   3.893 -0.2111  0.6208  0.2114
 6270SOL    HW230270   4.597   3.985   3.881  1.3176  0.6843  0.9177
 6271SOL     OW30271   3.187   2.902   5.732 -0.2962 -0.6514  0.1274
 6271SOL    HW130272   3.144   2.945   5.806 -1.4331 -1.7297  0.0835
 6271SOL    HW230273   3.109   2.881   5.682 -0.9538  0.6464  0.6201
 6272SOL     OW30274   2.054   4.015   4.097  0.0054  0.0581 -0.3020
 6272SOL    HW130275   2.049   4.050   4.186  0.9621  0.4531 -0.4006
 6272SOL    HW230276   2.082   3.926   4.117 -1.2969 -0.1371  0.6275
 6273SOL     OW30277   0.137   3.567   4.732  0.6263  0.0900  0.3244
 6273SOL    HW130278   0.120   3.473   4.728  0.1674  0.2408 -1.7410
 6273SOL    HW230279   0.124   3.586   4.824 -0.9434 -1.6566  0.4696
 6274SOL     OW30280   0.414   3.329   6.392  0.1954 -0.6636  0.0193
 6274SOL    HW130281   0.494   3.382   6.402 -1.1503  1.2385  0.7955
 6274SOL    HW230282   0.423   3.306   6.299  2.2742 -1.0991  0.3389
 6275SOL     OW30283   2.243   3.620  13.605  0.3638  0.2828  0.0335
 6275SOL    HW130284   2.317   3.635  13.664 -0.2277  3.3513 -0.0104
 6275SOL    HW230285   2.173   3.638  13.668  1.7005  1.5094  1.1918
 6276SOL     OW30286   1.532   1.929   9.641 -0.1095 -0.2830 -0.5883
 6276SOL    HW130287   1.521   1.870   9.715 -0.5162  2.0380  1.2295
 6276SOL    HW230288   1.611   1.973   9.674 -1.0017 -0.1744  1.4253
 6277SOL     OW30289   3.952   0.656   1.048  0.0138  0.1501  0.1451
 6277SOL    HW130290   3.985   0.744   1.069 -1.3170  0.6939 -0.0082
 6277SOL    HW230291   3.863   0.682   1.024  0.6474  1.4046 -0.8815
 6278SOL     OW30292   3.267   0.522   4.022 -0.0307 -0.0333  0.2582
 6278SOL    HW130293   3.307   0.577   4.090  0.0355 -0.4035  0.5180
 6278SOL    HW230294   3.336   0.457   4.014  0.3971  0.3434  0.8937
 6279SOL     OW30295   0.918   2.382   2.515 -0.0109 -0.3248 -0.1979
 6279SOL    HW130296   0.850   2.436   2.476 -1.6744 -2.0624  0.2684
 6279SOL    HW230297   0.979   2.399   2.444 -0.9625  0.1402 -0.8941
 6280SOL     OW30298   0.828   0.598  10.663 -0.5039 -0.0620  0.0860
 6280SOL    HW130299   0.841   0.553  10.580 -2.4504 -1.3749  0.4862
 6280SOL    HW230300   0.787   0.530  10.716 -1.5411 -0.5124 -1.2825
 6281SOL     OW30301   4.560   4.621   5.086  0.3406  0.1589 -0.1575
 6281SOL    HW130302   4.495   4.554   5.106 -0.2928  0.3608 -1.5040
 6281SOL    HW230303   4.512   4.673   5.021 -0.7906  0.7899  1.1608
 6282SOL     OW30304   1.636   1.144  11.503  0.3181 -0.3113  0.5518
 6282SOL    HW130305   1.680   1.199  11.567  0.8164  1.3750 -1.2555
 6282SOL    HW230306   1.635   1.068  11.561  0.2570 -0.3332  0.5224
 6283SOL     OW30307   4.294   0.140   2.432  0.4341  0.1712 -0.2198
 6283SOL    HW130308   4.330   0.104   2.351  0.7933 -0.2033  0.1071
 6283SOL    HW230309   4.214   0.089   2.443  0.7847 -0.2126  0.5428
 6284SOL     OW30310   2.853   0.485   3.629 -0.2830 -0.4099 -0.1668
 6284SOL    HW130311   2.843   0.511   3.537  1.6674  2.1958  0.3678
 6284SOL    HW230312   2.944   0.502   3.652 -0.8829 -1.4953  2.9818
 6285SOL     OW30313   0.754   3.156   2.875 -0.5056 -0.3305  0.7403
 6285SOL    HW130314   0.817   3.228   2.886  0.9270 -1.3661 -0.6962
 6285SOL    HW230315   0.779   3.110   2.795 -1.3529  3.0154 -1.4779
 6286SOL     OW30316   1.278   0.561   3.252 -0.1086 -0.4934  0.0180
 6286SOL    HW130317   1.323   0.551   3.168 -0.2262 -0.7446 -0.0155
 6286SOL    HW230318   1.330   0.506   3.310  0.3686  0.2879  0.3439
 6287SOL     OW30319   0.758   1.257   4.340 -0.0888 -0.4709 -0.7059
 6287SOL    HW130320   0.702   1.334   4.351  0.6167  0.2547 -2.2148
 6287SOL    HW230321   0.827   1.273   4.404 -0.8356  2.2192 -0.5498
 6288SOL     OW30322   2.362   0.095   2.049  0.2105 -0.2452  0.2451
 6288SOL    HW130323   2.432   0.031   2.032 -0.2285 -0.4140 -0.9517
 6288SOL    HW230324   2.382   0.128   2.137  0.5722 -0.1409  0.1243
 6289SOL     OW30325   2.919   4.284   4.901 -0.8898  0.4923 -0.0686
 6289SOL    HW130326   3.014   4.287   4.913 -1.1016  1.2826  1.3302
 6289SOL    HW230327   2.899   4.235   4.821  0.5989 -0.1275 -0.0590
 6290SOL     OW30328   1.969   4.508  12.321 -0.0315 -0.8259 -0.1391
 6290SOL    HW130329   1.944   4.457  12.244 -2.1355  0.2630 -0.1904
 6290SOL    HW230330   2.022   4.576  12.281 -1.7511  0.1410 -0.7678
 6291SOL     OW30331   4.279   3.231   8.901 -0.0723  0.2315  0.4341
 6291SOL    HW130332   4.299   3.324   8.899  3.7260 -0.6289 -0.5394
 6291SOL    HW230333   4.366   3.192   8.894 -1.1817 -1.7985 -1.7778
 6292SOL     OW30334   1.563   1.172   7.939 -0.6335  0.4117  0.9079
 6292SOL    HW130335   1.544   1.126   7.857 -0.8221  1.0911  0.5755
 6292SOL    HW230336   1.656   1.182   7.921 -0.6395 -1.0146  0.0252
 6293SOL     OW30337   4.175   0.398   6.746  0.2661  0.3503 -0.1036
 6293SOL    HW130338   4.166   0.302   6.743 -1.7118  0.5591 -0.6916
 6293SOL    HW230339   4.166   0.426   6.655  0.8485  0.3647 -0.1611
 6294SOL     OW30340   4.691   0.189  15.607  0.2726 -0.4821  0.5311
 6294SOL    HW130341   0.007   0.101  15.599 -1.6201 -1.2155 -0.5290
 6294SOL    HW230342   4.670   0.191  15.700  1.6517  1.0743  0.8003
 6295SOL     OW30343   1.088   0.156   9.807  0.0532 -0.0180  0.3003
 6295SOL    HW130344   1.122   0.079   9.853  1.5279 -0.1136 -0.9173
 6295SOL    HW230345   1.037   0.111   9.740  1.5424  1.0636 -1.5830
 6296SOL     OW30346   4.163   3.386   4.386 -0.1577  0.4941 -0.0026
 6296SOL    HW130347   4.072   3.357   4.379 -0.0982  0.5455 -0.9411
 6296SOL    HW230348   4.191   3.296   4.401 -0.5062 -0.0826 -2.8907
 6297SOL     OW30349   3.299   0.647   7.264  0.2213  0.3757 -0.0565
 6297SOL    HW130350   3.354   0.621   7.337 -0.2559 -0.4512  0.0066
 6297SOL    HW230351   3.214   0.639   7.309  0.8567 -0.0974  1.0617
 6298SOL     OW30352   3.718   1.081   6.586 -0.3618 -0.0157 -0.1902
 6298SOL    HW130353   3.737   1.128   6.668 -1.0008  0.7109 -0.4605
 6298SOL    HW230354   3.674   1.155   6.544 -0.9109 -0.3008 -0.1194
 6299SOL     OW30355   0.803   2.679   7.779 -0.1822  0.6502 -0.2591
 6299SOL    HW130356   0.846   2.638   7.704 -0.9130  0.7313 -0.7243
 6299SOL    HW230357   0.871   2.734   7.819 -0.3480  0.1639  0.6973
 6300SOL     OW30358   0.106   0.375  13.923 -0.2193  0.3120 -0.3043
 6300SOL    HW130359   0.042   0.315  13.961  0.3577 -1.1031 -1.5620
 6300SOL    HW230360   0.172   0.312  13.892 -0.3315 -0.5160  1.1079
 6301SOL     OW30361   0.486   0.710  11.035 -0.1139 -0.4583 -0.3126
 6301SOL    HW130362   0.497   0.636  10.976  2.5915  1.2553 -1.9744
 6301SOL    HW230363   0.572   0.746  11.017 -0.7929  1.9031  1.1272
 6302SOL     OW30364   4.529   0.566   3.135  1.0155  0.3271  0.0751
 6302SOL    HW130365   4.614   0.541   3.099  0.9325 -0.6122  0.5159
 6302SOL    HW230366   4.516   0.506   3.209 -1.4176  0.5024 -0.2147
 6303SOL     OW30367   2.388   2.005   3.942  0.0890 -0.3053  0.4307
 6303SOL    HW130368   2.404   1.982   4.034 -0.6966  1.5628  1.0412
 6303SOL    HW230369   2.309   1.952   3.935  1.6289 -2.5272 -0.0759
 6304SOL     OW30370   1.593   0.239  11.339 -0.6049 -0.4729 -0.1437
 6304SOL    HW130371   1.604   0.286  11.421 -0.5555  0.1753 -0.5201
 6304SOL    HW230372   1.500   0.217  11.337 -1.1552  1.8922  0.1422
 6305SOL     OW30373   3.211   1.507   5.585 -0.2462  0.4545 -0.2082
 6305SOL    HW130374   3.137   1.552   5.545  0.4155  0.6541 -1.1878
 6305SOL    HW230375   3.188   1.537   5.673 -2.5520  0.4622 -0.8053
 6306SOL     OW30376   3.381   2.629   3.406 -0.1389  0.2089  0.3768
 6306SOL    HW130377   3.286   2.616   3.400 -0.3343  1.7334  0.2101
 6306SOL    HW230378   3.417   2.541   3.415  0.9217  0.6637  0.5494
 6307SOL     OW30379   2.443   3.693   9.262  0.0357 -0.1002  0.2857
 6307SOL    HW130380   2.493   3.617   9.290  2.3551  0.4900 -2.3466
 6307SOL    HW230381   2.410   3.668   9.175  0.1500  0.3306  0.1186
 6308SOL     OW30382   4.400   2.451   4.267  0.0702  0.5545 -0.1906
 6308SOL    HW130383   4.485   2.449   4.223  0.8309 -2.7965  1.4831
 6308SOL    HW230384   4.359   2.514   4.208  1.0634 -0.3551 -1.8537
 6309SOL     OW30385   4.427   2.491   8.771  0.1950  0.2275  0.4526
 6309SOL    HW130386   4.454   2.559   8.709  2.8643  0.4518  1.8391
 6309SOL    HW230387   4.333   2.510   8.774  0.5405  2.0500 -0.5699
 6310SOL     OW30388   1.315   1.869   7.802  0.1097  0.4050  0.4707
 6310SOL    HW130389   1.336   1.957   7.832 -0.3673  0.9040 -0.6364
 6310SOL    HW230390   1.338   1.822   7.882 -1.4384  2.2610  2.0051
 6311SOL     OW30391   0.294   3.648  13.891 -0.3388  0.1744  0.7754
 6311SOL    HW130392   0.280   3.620  13.801  3.5766 -2.6057  1.0366
 6311SOL    HW230393   0.384   3.618  13.904 -0.1526  0.3557 -0.0704
 6312SOL     OW30394   3.343   2.161   3.022  0.9888 -0.3136  0.3039
 6312SOL    HW130395   3.437   2.168   3.004  0.9322  1.1794  0.6297
 6312SOL    HW230396   3.304   2.141   2.936 -0.6516 -0.0937  0.9920
 6313SOL     OW30397   1.833   4.646  12.656 -0.1251 -0.3676  0.1003
 6313SOL    HW130398   1.814   4.605  12.740  0.5891 -4.2888 -1.6742
 6313SOL    HW230399   1.893   4.716  12.682 -0.8171 -0.1551  1.1193
 6314SOL     OW30400   0.929   2.953   1.634  0.6817  0.5881 -0.8200
 6314SOL    HW130401   0.843   2.917   1.655 -0.0273  0.7597 -3.3510
 6314SOL    HW230402   0.916   2.976   1.542 -3.0472 -0.6951 -0.6353
 6315SOL     OW30403   0.373   2.534  14.229  0.4066 -0.1188  0.0522
 6315SOL    HW130404   0.442   2.599  14.218 -1.6274  1.7179 -2.1157
 6315SOL    HW230405   0.328   2.530  14.144  0.8984 -1.5784 -0.1277
 6316SOL     OW30406   0.343   3.135   9.755 -0.5728 -0.0609 -0.6014
 6316SOL    HW130407   0.253   3.166   9.763 -0.9943 -1.8494  1.4944
 6316SOL    HW230408   0.339   3.083   9.675 -1.1998  0.3649 -0.8419
 6317SOL     OW30409   2.531   2.160   3.548 -0.1548  0.0696  0.4733
 6317SOL    HW130410   2.469   2.187   3.615  0.8236  1.7980  0.6605
 6317SOL    HW230411   2.585   2.093   3.591  2.3901  3.0181  1.8990
 6318SOL     OW30412   4.589   3.002   4.650  0.1730 -0.3886 -0.5109
 6318SOL    HW130413   4.513   3.021   4.594 -0.0865 -0.2731 -0.1201
 6318SOL    HW230414   4.552   2.944   4.717 -0.2058 -1.6199 -1.7910
 6319SOL     OW30415   0.638   0.972   9.964 -0.2230  0.3596  0.4522
 6319SOL    HW130416   0.696   1.014   9.901 -2.8409 -0.9608 -2.8139
 6319SOL    HW230417   0.619   0.886   9.928  1.6213 -0.2165  0.8795
 6320SOL     OW30418   2.041   2.356  10.778  0.7779  0.2122  0.4116
 6320SOL    HW130419   1.946   2.360  10.779  0.7031 -1.4949 -0.9069
 6320SOL    HW230420   2.051   2.375  10.685 -1.3912 -1.9662 -0.2504
 6321SOL     OW30421   1.748   0.930   4.780  0.4865 -0.3380 -0.2090
 6321SOL    HW130422   1.835   0.951   4.816 -0.5795  1.0523  1.5438
 6321SOL    HW230423   1.747   0.839   4.807  1.4564 -0.5227 -0.7964
 6322SOL     OW30424   0.452   0.246   7.391  0.2667 -0.1800 -0.4961
 6322SOL    HW130425   0.543   0.276   7.388  0.0428  0.8853  3.0148
 6322SOL    HW230426   0.464   0.151   7.387 -1.0578 -0.2681 -2.2081
 6323SOL     OW30427   2.787   1.383   0.621  0.2075  0.0653  0.8769
 6323SOL    HW130428   2.800   1.465   0.572 -0.6385 -0.1478  0.3050
 6323SOL    HW230429   2.822   1.410   0.705 -0.3377  2.3049  0.3928
 6324SOL     OW30430   0.102   3.260   9.670  0.3149 -0.2138  0.0995
 6324SOL    HW130431   0.048   3.269   9.592 -1.3401 -2.2803  1.0204
 6324SOL    HW230432   0.055   3.311   9.736  0.4279 -1.7350  1.3658
 6325SOL     OW30433   2.106   1.469   3.561 -0.3785 -0.1695 -0.1169
 6325SOL    HW130434   2.051   1.400   3.599  1.5913 -0.3711  2.3553
 6325SOL    HW230435   2.190   1.426   3.575  0.9798  2.5572 -0.0064
 6326SOL     OW30436   2.947   0.265   6.106 -0.4333 -0.5756  0.7788
 6326SOL    HW130437   3.034   0.304   6.115 -1.8643  2.8954 -0.4148
 6326SOL    HW230438   2.899   0.335   6.150  2.4295 -0.1560  3.2056
 6327SOL     OW30439   1.793   1.481   8.026  0.0314  0.2748  0.4213
 6327SOL    HW130440   1.792   1.404   7.969 -0.6714  0.0537  0.7286
 6327SOL    HW230441   1.854   1.541   7.984 -0.1895  0.9307  1.0426
 6328SOL     OW30442   3.642   2.180  16.453 -0.2802 -0.3518 -0.1774
 6328SOL    HW130443   3.660   2.165  16.361  0.3102  2.2385 -0.4961
 6328SOL    HW230444   3.687   2.105  16.491 -1.3258 -0.2402  1.3164
 6329SOL     OW30445   2.166   1.559   3.326 -0.0412  0.2584 -0.5903
 6329SOL    HW130446   2.131   1.541   3.413  0.1312  1.0303 -0.3622
 6329SOL    HW230447   2.102   1.612   3.279 -1.9735 -1.5321  0.0336
 6330SOL     OW30448   4.495   2.458   3.185  0.3960 -0.3300  0.4050
 6330SOL    HW130449   4.498   2.436   3.278  0.7542  0.3106  0.5396
 6330SOL    HW230450   4.543   2.538   3.204  1.6370 -0.1568 -3.6187
 6331SOL     OW30451   0.150   3.381   5.731  0.6923 -0.0799  0.2006
 6331SOL    HW130452   0.154   3.390   5.636 -0.6212  1.1049  0.2628
 6331SOL    HW230453   0.121   3.290   5.734 -1.2449  0.5178 -0.2312
 6332SOL     OW30454   4.300   3.937  13.934 -0.5486 -0.2974 -0.0982
 6332SOL    HW130455   4.349   4.018  13.951  1.8344 -1.6755 -0.4131
 6332SOL    HW230456   4.215   3.980  13.943 -0.4569 -0.2385  0.4923
 6333SOL     OW30457   0.285   3.817   9.949  0.6619  0.4767  0.4414
 6333SOL    HW130458   0.357   3.875   9.977  0.5837  0.5532  0.4862
 6333SOL    HW230459   0.294   3.811   9.854  3.3831 -0.9229  0.7786
 6334SOL     OW30460   3.914   0.384   3.644 -0.0747  0.0328  0.1028
 6334SOL    HW130461   3.976   0.403   3.573  1.5305 -1.2586  1.1523
 6334SOL    HW230462   3.827   0.400   3.607  0.0111 -0.9986 -0.5570
 6335SOL     OW30463   2.612   3.596   9.605 -0.2034  0.5748 -0.6782
 6335SOL    HW130464   2.705   3.612   9.619  0.2536 -1.8507 -0.9959
 6335SOL    HW230465   2.620   3.548   9.523  0.1776 -1.9137  0.8400
 6336SOL     OW30466   0.963   0.523   1.455  0.5024  0.1588 -0.0407
 6336SOL    HW130467   1.005   0.480   1.529 -1.0855 -1.3433 -0.0221
 6336SOL    HW230468   1.025   0.500   1.386 -1.5054 -0.2540 -1.7100
 6337SOL     OW30469   0.300   4.022   0.485 -0.4719  0.4187 -0.2523
 6337SOL    HW130470   0.242   4.085   0.442  1.2404  1.2783 -1.3265
 6337SOL    HW230471   0.309   3.956   0.417 -1.6571  1.8207 -1.7724
 6338SOL     OW30472   0.706   3.295  17.266  0.3466  0.0377 -0.5033
 6338SOL    HW130473   0.747   3.378  17.240 -1.6520  0.6261 -1.8214
 6338SOL    HW230474   0.636   3.288  17.201 -1.5208 -2.5003  1.8307
 6339SOL     OW30475   4.170   4.249   5.154  0.0561  0.5315 -0.6342
 6339SOL    HW130476   4.105   4.262   5.222 -1.6248  0.2649 -2.1913
 6339SOL    HW230477   4.123   4.279   5.076 -0.5246 -0.3771 -0.6252
 6340SOL     OW30478   3.067   0.034  11.738 -0.1013  0.0288  0.2799
 6340SOL    HW130479   3.159   0.059  11.729 -0.3761  0.0691 -2.3177
 6340SOL    HW230480   3.027   0.115  11.705  0.4473  0.4605  0.6669
 6341SOL     OW30481   1.617   1.530   9.708  0.9350 -0.1314 -0.1094
 6341SOL    HW130482   1.566   1.525   9.789  1.4559 -0.6555  0.1845
 6341SOL    HW230483   1.620   1.442   9.672 -2.9463 -0.4455  0.3827
 6342SOL     OW30484   2.538   0.369   1.548 -0.3207 -0.2797 -1.1123
 6342SOL    HW130485   2.596   0.296   1.529 -0.4772 -0.3460 -1.3387
 6342SOL    HW230486   2.543   0.381   1.643 -1.5624  0.1633 -1.0938
 6343SOL     OW30487   2.497   3.637  17.136  0.1867  0.5146 -0.1410
 6343SOL    HW130488   2.530   3.560  17.182  2.5875 -0.4203 -3.4347
 6343SOL    HW230489   2.430   3.590  17.086  2.4826 -0.5410 -2.2347
 6344SOL     OW30490   1.863   0.901  11.171  0.1451  0.0239  0.1236
 6344SOL    HW130491   1.928   0.855  11.224 -1.7388 -1.4627  1.1207
 6344SOL    HW230492   1.812   0.828  11.136  0.7451 -0.1884 -0.3135
 6345SOL     OW30493   3.807   3.937  11.778  0.5587  0.8465  0.7933
 6345SOL    HW130494   3.742   4.005  11.796 -0.3974 -0.1044  0.8965
 6345SOL    HW230495   3.789   3.873  11.846  0.5312 -2.2038 -2.0806
 6346SOL     OW30496   2.276   4.408  16.072  0.0188 -0.1369 -0.6797
 6346SOL    HW130497   2.225   4.444  15.999 -0.3754  0.8334  0.0823
 6346SOL    HW230498   2.246   4.318  16.059 -2.0644  0.4242  0.2783
 6347SOL     OW30499   2.354   2.433   9.348  0.3883 -0.3733  0.4623
 6347SOL    HW130500   2.342   2.384   9.266  3.4010  0.1317 -0.2796
 6347SOL    HW230501   2.299   2.396   9.417  0.9929 -1.8947  0.1299
 6348SOL     OW30502   3.375   4.428   4.731  0.3177 -0.6919  0.2116
 6348SOL    HW130503   3.330   4.355   4.773 -0.5663  0.7913  1.7989
 6348SOL    HW230504   3.454   4.377   4.712  1.8233  2.1062 -1.1232
 6349SOL     OW30505   1.759   2.696   0.672 -0.3699  0.2264  0.3977
 6349SOL    HW130506   1.809   2.657   0.743 -0.0157 -0.1959 -0.0823
 6349SOL    HW230507   1.688   2.633   0.663  0.9103 -1.1887  0.1936
 6350SOL     OW30508   0.437   2.075  13.338 -0.3451 -0.3188  0.0888
 6350SOL    HW130509   0.475   2.162  13.337  3.3824 -1.9449  0.3588
 6350SOL    HW230510   0.476   2.055  13.423 -0.5490 -3.5745 -0.5770
 6351SOL     OW30511   4.342   2.767  14.303 -0.0753  0.9533  0.7364
 6351SOL    HW130512   4.406   2.741  14.236 -0.0168  2.1407  0.3250
 6351SOL    HW230513   4.295   2.685  14.314 -0.5175  0.7848 -2.2778
 6352SOL     OW30514   2.153   3.130   4.871 -0.0200 -0.4453  0.5068
 6352SOL    HW130515   2.151   3.111   4.965  2.5215 -1.0630  0.4438
 6352SOL    HW230516   2.236   3.085   4.853  0.3803  0.7195 -0.5391
 6353SOL     OW30517   1.274   2.426   6.649  0.2554  0.3784  0.3588
 6353SOL    HW130518   1.292   2.519   6.651 -0.2499  0.5044 -0.6697
 6353SOL    HW230519   1.367   2.404   6.640  0.1916  0.2160  0.0902
 6354SOL     OW30520   0.766   4.234  10.766 -0.4954  0.1727  0.0863
 6354SOL    HW130521   0.671   4.240  10.779 -0.2499 -1.1799  2.4970
 6354SOL    HW230522   0.800   4.282  10.842  2.0288 -0.2092 -0.8407
 6355SOL     OW30523   2.988   0.330   6.803  0.3560  0.0527  0.9780
 6355SOL    HW130524   3.041   0.408   6.786 -1.4984  0.6613 -2.0082
 6355SOL    HW230525   2.927   0.361   6.869  2.2822  0.8238  2.3897
 6356SOL     OW30526   3.008   1.973   9.103 -0.4056  0.2141  0.2814
 6356SOL    HW130527   2.963   1.916   9.042 -0.0980  0.9843 -0.6682
 6356SOL    HW230528   3.096   1.937   9.091 -0.7055  0.1857 -1.8169
 6357SOL     OW30529   2.316   0.098  11.597  0.1958 -0.4498  0.7355
 6357SOL    HW130530   2.273   0.160  11.538  0.7528 -3.0168 -2.3331
 6357SOL    HW230531   2.330   0.143  11.681 -2.5169 -0.6326  1.2865
 6358SOL     OW30532   2.397   3.188   6.663  0.1786  0.1710 -0.0310
 6358SOL    HW130533   2.476   3.237   6.640  0.7015  0.5270  2.4776
 6358SOL    HW230534   2.422   3.142   6.744 -0.0065  0.1703  0.0247
 6359SOL     OW30535   4.396   0.202   5.088  0.0010  0.0821 -0.3510
 6359SOL    HW130536   4.447   0.281   5.069 -0.2437 -0.1676 -2.0015
 6359SOL    HW230537   4.426   0.175   5.176  3.0786 -4.5197 -2.8104
 6360SOL     OW30538   4.628   1.865   2.464 -0.2847 -0.6818 -0.9657
 6360SOL    HW130539   4.638   1.808   2.540 -1.8240 -1.9599 -1.7118
 6360SOL    HW230540   4.551   1.916   2.492  1.4424  2.0537 -1.2378
 6361SOL     OW30541   2.968   1.373   4.380  0.4531 -0.0172  0.3561
 6361SOL    HW130542   3.030   1.421   4.325  0.4881 -0.6479 -0.1607
 6361SOL    HW230543   3.019   1.295   4.402 -0.2641 -1.1195 -1.9499
 6362SOL     OW30544   1.484   1.940  16.805 -0.2428  0.1872 -0.1052
 6362SOL    HW130545   1.534   2.009  16.849 -0.7365  1.0552 -0.9088
 6362SOL    HW230546   1.557   1.887  16.772 -0.1679  0.6333 -0.6698
 6363SOL     OW30547   3.216   2.901   4.574  0.4991 -0.0137  0.8232
 6363SOL    HW130548   3.259   2.913   4.659  1.8843 -1.4495  0.3300
 6363SOL    HW230549   3.294   2.899   4.519  0.8749  1.8661  1.2847
 6364SOL     OW30550   1.394   0.630   8.086 -0.1182 -0.5474 -0.4912
 6364SOL    HW130551   1.465   0.688   8.060 -0.5845  0.8336  1.3679
 6364SOL    HW230552   1.431   0.610   8.172  0.9476 -0.5619 -0.9547
 6365SOL     OW30553   0.723   4.472  11.379  0.1518  0.3314 -0.5521
 6365SOL    HW130554   0.730   4.564  11.407 -0.7984  0.4035 -0.5609
 6365SOL    HW230555   0.817   4.462  11.395 -0.2393 -0.7719  1.0561
 6366SOL     OW30556   4.075   4.372   3.722  0.0617  0.0676  0.0633
 6366SOL    HW130557   4.080   4.307   3.652 -3.0093 -0.1953  0.0726
 6366SOL    HW230558   3.989   4.352   3.760  0.9382 -1.2674  1.3123
 6367SOL     OW30559   4.361   0.000   7.868  0.0541  0.0787 -0.0812
 6367SOL    HW130560   4.338   4.667   7.942 -1.6731  3.2067  1.7416
 6367SOL    HW230561   4.436   4.676   7.831 -0.0697  0.0608 -0.3080
 6368SOL     OW30562   3.759   3.130   5.295  0.0643 -0.4117  0.1983
 6368SOL    HW130563   3.757   3.192   5.369  0.9999 -1.3991  1.0544
 6368SOL    HW230564   3.678   3.085   5.318 -0.1794  0.8400  1.8434
 6369SOL     OW30565   2.567   2.826  14.831  0.3890 -0.1528  0.1635
 6369SOL    HW130566   2.559   2.917  14.861  1.2203 -0.5943  1.7052
 6369SOL    HW230567   2.473   2.807  14.822  0.5523 -0.3063 -1.3320
 6370SOL     OW30568   3.680   4.157   7.605  0.6825 -0.1152 -0.0662
 6370SOL    HW130569   3.666   4.152   7.700 -0.2474 -0.6654 -0.2264
 6370SOL    HW230570   3.653   4.068   7.583 -1.8601  0.3025  1.2546
 6371SOL     OW30571   3.881   3.269   5.932  0.3144  0.7412  0.4291
 6371SOL    HW130572   3.940   3.253   6.005 -0.8217  0.6224  1.3301
 6371SOL    HW230573   3.881   3.182   5.892  2.2606  1.0876 -0.3246
 6372SOL     OW30574   4.614   0.940   9.570  0.0770 -0.2769 -0.4532
 6372SOL    HW130575   4.588   0.994   9.495 -0.6447  1.7395  1.2343
 6372SOL    HW230576   4.701   0.916   9.537  0.6759  0.1500  0.7884
 6373SOL     OW30577   0.965   4.247   1.678  0.0212  0.9049  0.1828
 6373SOL    HW130578   0.896   4.202   1.726 -0.8952  1.3713 -0.6897
 6373SOL    HW230579   0.900   4.284   1.618  1.2935  1.8934 -0.6069
 6374SOL     OW30580   0.643   1.022   4.557  0.2017 -0.1530 -0.7604
 6374SOL    HW130581   0.707   1.020   4.486  0.8434  1.2493 -0.2189
 6374SOL    HW230582   0.695   1.023   4.637  1.2256 -1.4212 -1.4079
 6375SOL     OW30583   0.134   1.455  10.759 -0.2072 -0.4066 -0.1719
 6375SOL    HW130584   0.070   1.517  10.724  1.7152  1.2287 -0.7767
 6375SOL    HW230585   0.178   1.434  10.676 -2.2400 -0.8625 -1.1395
 6376SOL     OW30586   1.640   3.643  14.055  0.2333 -0.1781 -0.4046
 6376SOL    HW130587   1.718   3.669  14.104  0.1503 -1.8923  0.6027
 6376SOL    HW230588   1.646   3.703  13.980  0.5569  0.3564  0.0468
 6377SOL     OW30589   3.380   3.136   1.949  0.0132 -0.0105 -0.5560
 6377SOL    HW130590   3.412   3.226   1.958 -0.6480  0.4223 -2.5164
 6377SOL    HW230591   3.453   3.098   1.899 -0.4157 -0.6920 -0.6618
 6378SOL     OW30592   2.932   1.290   2.102  0.5135  0.4788 -0.1509
 6378SOL    HW130593   2.910   1.383   2.111  1.0254  0.3658  2.3370
 6378SOL    HW230594   2.978   1.296   2.018 -1.3640 -2.4863 -1.3741
 6379SOL     OW30595   3.335   3.856   8.821 -0.0837 -0.2658  0.1850
 6379SOL    HW130596   3.408   3.895   8.773  0.3702 -2.4655 -0.9357
 6379SOL    HW230597   3.281   3.934   8.832  0.9553  0.5220 -0.3042
 6380SOL     OW30598   2.195   2.180   7.209 -0.0668  0.0232 -0.1585
 6380SOL    HW130599   2.209   2.146   7.121  0.5861  1.0676 -0.4618
 6380SOL    HW230600   2.123   2.124   7.234 -0.8515  0.1920 -2.0187
 6381SOL     OW30601   2.215   4.277   9.206  0.3009  0.0806  0.0532
 6381SOL    HW130602   2.231   4.338   9.134 -1.7416  2.3674  1.5444
 6381SOL    HW230603   2.306   4.282   9.236 -0.0959 -1.0350  1.4490
 6382SOL     OW30604   2.138   0.110   7.815  0.6278 -0.3549 -0.0055
 6382SOL    HW130605   2.168   0.146   7.899  2.0332 -1.1185 -0.1974
 6382SOL    HW230606   2.054   0.156   7.807  0.1054 -1.1414  1.0696
 6383SOL     OW30607   3.734   3.513  11.725  0.0083  0.2950 -0.3920
 6383SOL    HW130608   3.715   3.461  11.803  0.1022  0.3866 -0.3078
 6383SOL    HW230609   3.667   3.581  11.726 -2.0389 -1.7140 -0.6700
 6384SOL     OW30610   4.106   3.453   9.356  0.7184 -0.6589 -0.2181
 6384SOL    HW130611   4.108   3.437   9.451  1.2439  0.6236 -0.0138
 6384SOL    HW230612   4.119   3.368   9.314  1.1434 -2.1096  2.7687
 6385SOL     OW30613   3.738   4.480   3.655 -0.1427 -0.1222  0.3354
 6385SOL    HW130614   3.737   4.419   3.581  0.5723 -0.7122  0.8131
 6385SOL    HW230615   3.762   4.429   3.732 -0.9717  1.0336  1.3759
 6386SOL     OW30616   2.288   1.480   3.071  0.9125 -0.2435  0.0286
 6386SOL    HW130617   2.235   1.495   3.150  2.1640  0.2831  0.7848
 6386SOL    HW230618   2.371   1.521   3.094 -0.0166  0.9486  1.2799
 6387SOL     OW30619   1.563   2.438   8.184 -0.0779 -0.6470 -0.9441
 6387SOL    HW130620   1.547   2.457   8.091  0.7541 -0.8274 -1.1226
 6387SOL    HW230621   1.595   2.523   8.217 -2.3496  0.5043 -1.7093
 6388SOL     OW30622   3.674   0.445   5.099  0.3303  0.3852  0.4295
 6388SOL    HW130623   3.691   0.476   5.010  0.4270 -0.6491  0.0878
 6388SOL    HW230624   3.694   0.353   5.087  0.1415  0.5691 -1.2114
 6389SOL     OW30625   1.268   2.014  10.631  0.4502 -0.4508  0.6523
 6389SOL    HW130626   1.340   2.073  10.607  1.0069 -1.2277  0.4136
 6389SOL    HW230627   1.201   2.083  10.632  1.5604  0.6522 -0.9222
 6390SOL     OW30628   0.504   1.744   6.296 -0.4076  0.2405 -0.2479
 6390SOL    HW130629   0.435   1.788   6.346 -1.0646 -2.1258  0.9375
 6390SOL    HW230630   0.517   1.805   6.224 -0.2630 -0.5070 -0.8499
 6391SOL     OW30631   0.455   0.714   9.528 -0.5555 -0.5019 -0.2953
 6391SOL    HW130632   0.362   0.692   9.525  0.0899 -3.1016 -1.8135
 6391SOL    HW230633   0.512   0.642   9.499 -3.2691 -2.5539 -0.4977
 6392SOL     OW30634   3.270   0.322   7.625 -0.6622  0.1063 -1.0994
 6392SOL    HW130635   3.200   0.267   7.662 -0.4330 -1.5414 -3.1107
 6392SOL    HW230636   3.341   0.259   7.613 -1.9641 -1.9385  1.9636
 6393SOL     OW30637   2.946   2.506  14.727 -0.2975 -0.9286 -0.2466
 6393SOL    HW130638   2.862   2.551  14.720 -0.3021 -0.7422  1.0320
 6393SOL    HW230639   2.965   2.515  14.820 -0.5935 -1.5988 -0.1232
 6394SOL     OW30640   1.701   3.597   1.790 -0.4141  0.5713  0.2781
 6394SOL    HW130641   1.777   3.561   1.745 -1.8123 -1.5598 -0.3946
 6394SOL    HW230642   1.702   3.682   1.746 -1.1818  0.3976 -0.0897
 6395SOL     OW30643   2.135   3.161   6.034 -0.3836 -0.4258  0.7580
 6395SOL    HW130644   2.084   3.196   5.961  3.3183  3.3747 -0.0495
 6395SOL    HW230645   2.203   3.228   6.045 -1.4518  0.5403  1.4369
 6396SOL     OW30646   2.500   4.220  13.336  0.2751 -0.0853 -0.0547
 6396SOL    HW130647   2.574   4.238  13.395  1.3639 -1.1935 -1.0999
 6396SOL    HW230648   2.504   4.125  13.333 -1.1327 -0.1186 -0.9652
 6397SOL     OW30649   1.228   1.059   6.031 -0.2251  0.6643 -0.0894
 6397SOL    HW130650   1.168   0.985   6.021  0.9925 -0.5219  1.5351
 6397SOL    HW230651   1.306   1.016   5.995 -0.3934  0.2398  0.0516
 6398SOL     OW30652   4.687   2.101   7.278  0.0321 -0.2836 -0.0995
 6398SOL    HW130653   0.011   2.017   7.287 -0.3649 -0.6213 -1.2405
 6398SOL    HW230654   4.599   2.064   7.283  1.0479 -3.1090 -3.3966
 6399SOL     OW30655   0.212   0.531   4.318  0.3462 -0.2847  0.4459
 6399SOL    HW130656   0.279   0.490   4.373  0.1592 -1.4566 -0.2078
 6399SOL    HW230657   0.251   0.538   4.231 -1.3117  1.3722 -0.1547
 6400SOL     OW30658   0.215   2.537   5.014 -0.4541  0.2621 -0.5717
 6400SOL    HW130659   0.269   2.613   4.991  0.0019  0.3731  0.8322
 6400SOL    HW230660   0.193   2.493   4.932  1.9153  1.3084 -1.7712
 6401SOL     OW30661   0.732   2.510   2.037  0.6374  0.1231 -0.4629
 6401SOL    HW130662   0.750   2.496   1.944  1.4703  0.6254 -0.3804
 6401SOL    HW230663   0.785   2.586   2.063  1.9982 -1.0321  0.1114
 6402SOL     OW30664   4.467   2.242   4.524 -0.5485 -0.4980 -0.5184
 6402SOL    HW130665   4.425   2.283   4.600  0.4096  0.6701 -0.6338
 6402SOL    HW230666   4.419   2.276   4.449  0.0355 -2.6578 -1.8569
 6403SOL     OW30667   3.119   1.184   8.318 -0.1490 -0.1190 -0.0803
 6403SOL    HW130668   3.126   1.259   8.258  1.5808  0.3082  0.6392
 6403SOL    HW230669   3.141   1.229   8.400 -1.2716  0.8393 -0.3073
 6404SOL     OW30670   2.725   0.735   2.306  0.3037  0.3023  0.2798
 6404SOL    HW130671   2.634   0.710   2.324  0.2007  0.5510  0.1050
 6404SOL    HW230672   2.703   0.803   2.242  1.6211  0.4763  0.0100
 6405SOL     OW30673   0.139   3.679   1.369 -0.5375 -0.6565  0.2881
 6405SOL    HW130674   0.096   3.609   1.419  0.3280 -2.1133 -0.9925
 6405SOL    HW230675   0.135   3.648   1.278 -0.6101  2.3178 -0.7058
 6406SOL     OW30676   4.350   3.340   7.184 -0.2771 -0.0393  0.3370
 6406SOL    HW130677   4.341   3.245   7.172  0.7686 -0.0513 -0.3764
 6406SOL    HW230678   4.442   3.354   7.161  0.0289 -3.6443 -0.7550
 6407SOL     OW30679   0.401   1.959  10.929 -0.3452  0.0901 -0.7025
 6407SOL    HW130680   0.411   1.872  10.968 -0.9132 -0.1267 -1.0531
 6407SOL    HW230681   0.345   1.952  10.852  1.9170  1.4246 -2.4676
 6408SOL     OW30682   2.550   2.016   8.095 -0.9808 -0.1442 -0.2392
 6408SOL    HW130683   2.518   1.926   8.092  0.7500 -0.7405 -0.6842
 6408SOL    HW230684   2.586   2.001   8.183  0.2230 -1.8717 -1.0303
 6409SOL     OW30685   1.593   1.355   8.176 -0.2319  0.5593  0.3523
 6409SOL    HW130686   1.592   1.289   8.106  0.5668  0.3144  0.5749
 6409SOL    HW230687   1.652   1.417   8.133  1.0024 -1.7552 -1.3258
 6410SOL     OW30688   3.429   3.003   5.944  0.2209  0.0529 -0.0233
 6410SOL    HW130689   3.504   2.972   5.993  1.3374 -0.7297 -2.2229
 6410SOL    HW230690   3.377   2.923   5.946 -0.1328  0.2520 -0.9604
 6411SOL     OW30691   3.504   2.268   2.241  0.4181 -0.0512 -0.3472
 6411SOL    HW130692   3.547   2.304   2.319 -1.1781  0.3888  0.3376
 6411SOL    HW230693   3.424   2.320   2.241 -0.1177 -0.8745 -0.4018
 6412SOL     OW30694   2.715   2.745   2.557  0.5211 -0.3354 -0.1268
 6412SOL    HW130695   2.651   2.805   2.595  0.5053 -0.1277 -0.4887
 6412SOL    HW230696   2.746   2.712   2.642  0.6464 -1.5255 -0.6215
 6413SOL     OW30697   0.094   0.691  10.650 -0.1584 -0.0667 -0.4117
 6413SOL    HW130698   0.179   0.647  10.654  1.0164  2.3169  0.9008
 6413SOL    HW230699   0.128   0.779  10.634  0.9379 -0.0564  1.9241
 6414SOL     OW30700   2.141   2.461   3.343  0.0196 -0.3362  0.0469
 6414SOL    HW130701   2.190   2.391   3.386 -1.7812 -0.8425  1.2561
 6414SOL    HW230702   2.183   2.541   3.376 -0.1050 -0.7174  1.1139
 6415SOL     OW30703   4.009   0.299  13.687 -0.8820 -0.2777  0.3992
 6415SOL    HW130704   3.925   0.344  13.674  0.1487  1.8916  1.2231
 6415SOL    HW230705   4.021   0.265  13.598 -0.0120 -1.1375  0.8464
 6416SOL     OW30706   0.543   4.481   3.093  0.2707 -0.1533  0.1959
 6416SOL    HW130707   0.514   4.457   3.181 -0.4657  0.4472  0.1232
 6416SOL    HW230708   0.600   4.406   3.076  0.8689  0.2181  0.5569
 6417SOL     OW30709   0.473   1.149   5.794 -0.0433  0.0090 -0.2198
 6417SOL    HW130710   0.525   1.069   5.787  1.1057  0.7064  0.2906
 6417SOL    HW230711   0.385   1.114   5.779  0.4692 -0.9606 -0.9684
 6418SOL     OW30712   2.046   0.410   3.822 -0.1751  0.2511 -0.2117
 6418SOL    HW130713   2.116   0.345   3.830 -1.1632 -0.8756 -0.6523
 6418SOL    HW230714   1.977   0.343   3.828  2.1772 -2.1746 -0.3545
 6419SOL     OW30715   2.139   0.033   6.224  0.0494  0.2169 -0.0223
 6419SOL    HW130716   2.108   4.689   6.286  1.8285  1.4866  2.2312
 6419SOL    HW230717   2.165   0.093   6.293 -1.3387 -1.7654  2.2228
 6420SOL     OW30718   0.034   0.027   3.513 -0.7104 -0.1693  0.1179
 6420SOL    HW130719   4.708   0.074   3.446 -1.2775 -0.7148  0.1441
 6420SOL    HW230720   0.033   0.092   3.583  3.7501 -0.8949  0.8441
 6421SOL     OW30721   2.697   0.809   4.415 -0.1300  0.2580 -0.5156
 6421SOL    HW130722   2.745   0.876   4.462 -2.8826  1.3521  0.7534
 6421SOL    HW230723   2.768   0.753   4.382  0.4935  0.5059  0.4001
 6422SOL     OW30724   1.593   1.317   2.622 -0.0398  0.2337 -0.1074
 6422SOL    HW130725   1.537   1.247   2.588 -1.2097  0.5924  1.0892
 6422SOL    HW230726   1.672   1.265   2.634 -1.4693 -2.0059 -0.5393
 6423SOL     OW30727   2.137   3.519   7.570  0.0138 -0.3256 -0.1717
 6423SOL    HW130728   2.220   3.527   7.617 -0.3042  0.8478  0.1917
 6423SOL    HW230729   2.081   3.545   7.642  0.5681 -0.8030  0.4381
 6424SOL     OW30730   1.687   2.250   0.962  0.1642  0.1000 -0.1958
 6424SOL    HW130731   1.769   2.250   1.011  0.3210 -2.8045 -0.4295
 6424SOL    HW230732   1.634   2.270   1.040  0.4150 -2.3019  0.6022
 6425SOL     OW30733   2.155   3.784   9.259 -0.1159 -0.4937  0.5644
 6425SOL    HW130734   2.241   3.744   9.271  1.0088  0.9646 -2.8033
 6425SOL    HW230735   2.168   3.878   9.245 -1.1861 -0.2063  1.5161
 6426SOL     OW30736   3.615   2.351   2.524 -0.0162  0.5980 -0.2432
 6426SOL    HW130737   3.631   2.356   2.618  0.6398 -1.4689 -0.2338
 6426SOL    HW230738   3.527   2.314   2.518 -0.3945  1.7384 -1.6149
 6427SOL     OW30739   2.374   2.077   5.942  0.2478 -0.2078  0.1819
 6427SOL    HW130740   2.428   2.072   6.021  0.3004 -0.6775  0.1116
 6427SOL    HW230741   2.394   1.995   5.898 -0.7502 -1.6141  2.3544
 6428SOL     OW30742   2.946   4.165   8.957  0.1445  0.1989  0.4056
 6428SOL    HW130743   2.851   4.155   8.951  0.4165 -1.6322 -0.8098
 6428SOL    HW230744   2.948   4.238   9.019 -0.1880  1.3488 -0.9345
 6429SOL     OW30745   3.343   3.476   5.802 -0.1239  0.3275  0.5058
 6429SOL    HW130746   3.313   3.499   5.714 -2.0639  0.8283  1.3041
 6429SOL    HW230747   3.347   3.565   5.837  1.4550  0.0608  0.9826
 6430SOL     OW30748   2.200   1.177  15.243 -0.0534  0.0187  0.5215
 6430SOL    HW130749   2.164   1.222  15.320  1.3656 -0.5720  1.5469
 6430SOL    HW230750   2.150   1.209  15.168  0.3218 -0.4633  0.0620
 6431SOL     OW30751   0.281   0.752   5.125 -0.3082  0.0634  0.0434
 6431SOL    HW130752   0.279   0.845   5.100  1.9859 -0.8178 -3.5488
 6431SOL    HW230753   0.190   0.730   5.140 -0.5026  0.3054 -0.7664
 6432SOL     OW30754   2.504   3.386   6.303  0.0777  0.6944 -0.0222
 6432SOL    HW130755   2.493   3.469   6.349  1.2889 -0.5444  2.5316
 6432SOL    HW230756   2.594   3.407   6.277  0.5812  0.4664  1.5015
 6433SOL     OW30757   3.410   1.309   9.164 -0.1906  0.5464 -0.0693
 6433SOL    HW130758   3.458   1.236   9.124  1.3063  2.5446 -1.9001
 6433SOL    HW230759   3.419   1.294   9.259  0.6276 -2.2290 -0.5754
 6434SOL     OW30760   0.313   4.095  14.577  0.5974  0.1053 -0.5673
 6434SOL    HW130761   0.240   4.041  14.546 -0.2694  0.5992  0.6534
 6434SOL    HW230762   0.266   4.152  14.637 -1.4435 -2.8639  0.6697
 6435SOL     OW30763   3.386   2.633   4.987  0.2977  0.0347  0.4671
 6435SOL    HW130764   3.315   2.644   5.049 -0.7910 -0.6401 -0.6709
 6435SOL    HW230765   3.327   2.613   4.915 -1.1200 -0.0055  1.6600
 6436SOL     OW30766   0.361   1.310   2.614 -0.4528  0.5177 -0.4326
 6436SOL    HW130767   0.426   1.378   2.631 -1.7828  1.9587 -1.0079
 6436SOL    HW230768   0.380   1.296   2.521 -0.2585  0.1107 -0.3308
 6437SOL     OW30769   0.710   4.694   5.562 -0.2735  0.6551  0.3485
 6437SOL    HW130770   0.759   4.678   5.643 -1.7902  1.3369  1.4020
 6437SOL    HW230771   0.690   4.602   5.544  1.4731  0.2781  0.3920
 6438SOL     OW30772   2.525   3.401   4.777 -0.3863 -0.4026 -0.9008
 6438SOL    HW130773   2.554   3.466   4.713 -1.4550  0.4131 -0.5643
 6438SOL    HW230774   2.580   3.325   4.757  0.4558  0.0097 -0.1563
 6439SOL     OW30775   0.152   2.418   6.727 -0.3176  0.2404 -0.2003
 6439SOL    HW130776   0.148   2.505   6.767 -2.1830 -0.0352  0.2115
 6439SOL    HW230777   0.213   2.369   6.782 -1.8784 -0.7073  0.7004
 6440SOL     OW30778   0.542   3.265   3.581  0.1383  0.3061  0.0208
 6440SOL    HW130779   0.605   3.288   3.513  3.8742 -0.3252  3.3489
 6440SOL    HW230780   0.477   3.329   3.551  1.5347  0.0483 -3.5961
 6441SOL     OW30781   3.113   0.613   3.474  0.1440 -0.0616 -0.4920
 6441SOL    HW130782   3.127   0.522   3.446  1.0174  0.2921 -1.1985
 6441SOL    HW230783   3.196   0.656   3.458 -1.2001  2.3950 -0.8646
 6442SOL     OW30784   2.550   3.472   1.221  0.4254  0.2018  0.6365
 6442SOL    HW130785   2.456   3.475   1.201  0.1189 -0.9285  1.9011
 6442SOL    HW230786   2.539   3.425   1.304  0.1700  0.5255  0.7852
 6443SOL     OW30787   1.501   2.858  15.781 -0.3072  0.1877 -0.5655
 6443SOL    HW130788   1.566   2.914  15.823  0.4402 -0.8056 -0.4042
 6443SOL    HW230789   1.425   2.893  15.827 -1.3754 -1.8629 -0.7825
 6444SOL     OW30790   4.218   2.230   6.335  0.3192 -0.0836  0.3902
 6444SOL    HW130791   4.289   2.209   6.396 -1.0485  0.0512  2.0540
 6444SOL    HW230792   4.268   2.223   6.254  1.5670  0.0938  1.1482
 6445SOL     OW30793   3.014   0.537  17.105 -0.4840 -0.2380  0.1094
 6445SOL    HW130794   3.055   0.567  17.024 -3.8415  0.1400 -1.4657
 6445SOL    HW230795   2.991   0.450  17.073 -0.3479 -0.0636 -0.4551
 6446SOL     OW30796   3.815   1.298   0.587  0.1496 -0.0809  0.2250
 6446SOL    HW130797   3.825   1.288   0.492 -0.8655  1.9452 -0.0876
 6446SOL    HW230798   3.843   1.208   0.606 -1.3162 -0.0931  2.2911
 6447SOL     OW30799   2.569   3.353  14.861 -0.1206 -0.3181  0.0445
 6447SOL    HW130800   2.619   3.337  14.941 -0.5641  0.9881  0.5835
 6447SOL    HW230801   2.631   3.390  14.799 -3.1528  0.0581 -2.7666
 6448SOL     OW30802   3.681   0.026   3.315 -0.5203  0.9363 -0.0661
 6448SOL    HW130803   3.739   0.046   3.389  0.3024  1.8362 -0.9426
 6448SOL    HW230804   3.703   0.096   3.253  2.5565 -2.1941 -2.5073
 6449SOL     OW30805   0.286   3.405  11.884 -0.7014 -0.5345 -0.1829
 6449SOL    HW130806   0.324   3.374  11.802  0.2021 -0.6915  0.3058
 6449SOL    HW230807   0.227   3.332  11.906 -0.1989 -1.0678 -0.6002
 6450SOL     OW30808   2.037   4.431  14.697 -0.1648 -0.7928 -0.2964
 6450SOL    HW130809   1.978   4.357  14.691 -0.0116 -1.2061  3.6069
 6450SOL    HW230810   2.095   4.412  14.623 -0.8242  0.3467 -1.1123
 6451SOL     OW30811   1.022   2.030   5.148  0.2554 -0.2593  0.5571
 6451SOL    HW130812   0.967   2.030   5.070  1.2031 -0.5414 -0.1062
 6451SOL    HW230813   1.107   2.026   5.104 -1.2244 -0.1762 -2.3358
 6452SOL     OW30814   1.915   0.641  13.407 -0.0534  0.2894  0.3351
 6452SOL    HW130815   1.931   0.654  13.500 -0.2804 -0.3309  0.4636
 6452SOL    HW230816   2.006   0.638  13.377  0.7197 -2.1792  2.8803
 6453SOL     OW30817   1.713   0.653   5.600  0.1093 -0.0359  0.3974
 6453SOL    HW130818   1.731   0.600   5.678 -0.7707  0.5608  1.0070
 6453SOL    HW230819   1.786   0.714   5.596  0.5243 -0.6613 -1.5433
 6454SOL     OW30820   3.272   3.048   9.549  0.7999 -0.6727 -0.1466
 6454SOL    HW130821   3.342   3.039   9.485  1.5039  0.6589  0.4439
 6454SOL    HW230822   3.295   3.122   9.606  1.7002 -1.4720  0.5168
 6455SOL     OW30823   1.556   2.432   6.620  0.7821  0.0103  0.7070
 6455SOL    HW130824   1.602   2.461   6.542 -1.1304  2.5850  0.5261
 6455SOL    HW230825   1.589   2.506   6.672  1.3701  1.7300 -2.1265
 6456SOL     OW30826   1.975   2.879   7.500  0.1409 -0.0007 -0.1448
 6456SOL    HW130827   2.012   2.957   7.543 -1.6647  1.3985 -1.1206
 6456SOL    HW230828   1.905   2.854   7.560 -0.8588 -0.2247 -1.4131
 6457SOL     OW30829   4.665   0.756   8.417  0.2218 -0.3505  0.0776
 6457SOL    HW130830   4.607   0.815   8.463 -1.2779 -2.0183  0.3199
 6457SOL    HW230831   4.664   0.801   8.333  1.4689 -1.1003 -0.3499
 6458SOL     OW30832   0.350   0.641   7.436  0.4920 -0.4527  0.3868
 6458SOL    HW130833   0.264   0.670   7.406  0.8703  0.6002  0.3207
 6458SOL    HW230834   0.317   0.592   7.512 -2.7850  2.7063  1.0005
 6459SOL     OW30835   1.292   0.580   9.387  0.3973  0.6499  0.0617
 6459SOL    HW130836   1.376   0.559   9.428 -0.1985 -0.3816  0.7519
 6459SOL    HW230837   1.265   0.496   9.350 -1.8324  1.5904 -0.4341
 6460SOL     OW30838   2.317   1.217   5.314  0.3229  0.2128  0.5966
 6460SOL    HW130839   2.242   1.182   5.267 -1.5251  2.0751  2.1404
 6460SOL    HW230840   2.378   1.143   5.313 -0.7668 -0.6270 -2.2960
 6461SOL     OW30841   3.980   2.017  16.569 -0.0716  0.0667  0.2615
 6461SOL    HW130842   3.892   2.030  16.606 -0.0430 -2.5915  1.3072
 6461SOL    HW230843   4.031   1.995  16.647  2.3331 -1.0741 -1.6330
 6462SOL     OW30844   3.425   4.121   2.821 -0.3836 -0.6762  0.4293
 6462SOL    HW130845   3.479   4.054   2.863  1.7159  0.4621 -0.4382
 6462SOL    HW230846   3.377   4.069   2.756  0.0473  0.6789 -0.9687
 6463SOL     OW30847   0.768   4.711   6.327 -0.5921  0.8056  0.1689
 6463SOL    HW130848   0.849   4.711   6.378 -1.7280 -0.1992  1.9826
 6463SOL    HW230849   0.714   4.645   6.371  1.9264 -1.0271  0.5297
 6464SOL     OW30850   1.120   4.085   7.076  0.5942  0.2477  0.6008
 6464SOL    HW130851   1.130   4.118   6.987  1.2762 -0.3222  0.4657
 6464SOL    HW230852   1.065   4.011   7.051  0.1318  0.4673  0.9580
 6465SOL     OW30853   2.361   4.716   8.177 -0.3816  0.6948 -0.3980
 6465SOL    HW130854   2.450   0.011   8.147 -0.0815 -1.0698 -0.5272
 6465SOL    HW230855   2.359   4.622   8.158 -2.2642  0.3682  1.3842
 6466SOL     OW30856   1.305   2.658   5.064 -0.6954 -0.4210  0.4576
 6466SOL    HW130857   1.246   2.650   4.989  0.2756  0.6602 -0.4229
 6466SOL    HW230858   1.334   2.567   5.073  0.9471 -0.0999 -1.5527
 6467SOL     OW30859   4.658   2.674   2.904  0.0517 -0.1648 -0.2935
 6467SOL    HW130860   4.715   2.603   2.933 -0.5031 -0.1454  0.8158
 6467SOL    HW230861   4.614   2.687   2.988  1.1880 -1.0677  0.4388
 6468SOL     OW30862   3.013   1.722   8.178  0.4910 -0.4460  0.2800
 6468SOL    HW130863   2.974   1.702   8.263  2.4830 -1.2892  1.0016
 6468SOL    HW230864   3.103   1.695   8.196  0.3246  0.3667  2.2828
 6469SOL     OW30865   4.453   4.192   2.458 -0.4800 -0.3212  1.0587
 6469SOL    HW130866   4.400   4.220   2.532 -0.7318 -0.6464  0.9985
 6469SOL    HW230867   4.383   4.178   2.394 -0.1608  2.4449  0.1072
 6470SOL     OW30868   4.706   1.214   4.966 -0.2742  0.4942 -0.1622
 6470SOL    HW130869   0.008   1.267   5.042 -2.2567  1.7259 -0.3690
 6470SOL    HW230870   4.614   1.239   4.966 -0.2715  0.4941  0.1629
 6471SOL     OW30871   4.605   0.031   1.395  0.4518 -0.5000 -0.2622
 6471SOL    HW130872   4.532   0.079   1.356 -1.1053 -0.8757  2.1661
 6471SOL    HW230873   4.658   0.107   1.422 -0.7825  0.0235  0.6681
 6472SOL     OW30874   3.401   3.234  10.507 -0.6427  0.0791 -0.3571
 6472SOL    HW130875   3.473   3.285  10.470  0.5603  0.0243  1.9028
 6472SOL    HW230876   3.438   3.147  10.522  0.3389  0.5366 -0.1056
 6473SOL     OW30877   0.113   3.099   2.961 -0.3130  0.0476 -0.3472
 6473SOL    HW130878   0.176   3.050   2.908 -0.3202  0.8065 -1.0624
 6473SOL    HW230879   0.122   3.059   3.047 -3.6355  0.6609  0.2797
 6474SOL     OW30880   3.907   2.544   9.120  0.0575  0.2160 -0.1812
 6474SOL    HW130881   3.904   2.457   9.159  0.4135 -0.0672 -0.7728
 6474SOL    HW230882   3.999   2.554   9.096 -0.2823  0.3731 -1.4197
 6475SOL     OW30883   1.418   3.913   2.031  0.0390 -0.2155  0.4501
 6475SOL    HW130884   1.453   3.830   2.063 -1.2114 -0.2293  1.7734
 6475SOL    HW230885   1.438   3.970   2.105 -3.8363 -0.9879  2.1047
 6476SOL     OW30886   0.317   4.391   5.772  1.1552 -0.1591 -0.0400
 6476SOL    HW130887   0.339   4.440   5.692 -0.1362 -0.2245 -0.4261
 6476SOL    HW230888   0.367   4.312   5.753  1.4893  0.4415 -1.6256
 6477SOL     OW30889   0.981   0.578   5.942 -0.1192 -0.2877  0.3218
 6477SOL    HW130890   0.987   0.483   5.935  0.7643 -0.1384 -0.8586
 6477SOL    HW230891   1.029   0.614   5.867 -2.6152 -0.8862 -1.5691
 6478SOL     OW30892   0.992   4.562   7.385 -0.9612 -0.7910 -0.4712
 6478SOL    HW130893   0.927   4.631   7.400 -2.2914 -2.2655  0.5515
 6478SOL    HW230894   0.950   4.506   7.320  0.9299 -2.1577 -0.4901
 6479SOL     OW30895   3.731   0.684   3.471 -0.4508 -0.6344 -0.1624
 6479SOL    HW130896   3.825   0.702   3.462 -0.4214 -0.6589  0.0943
 6479SOL    HW230897   3.716   0.603   3.422 -1.2601 -0.3454 -0.3860
 6480SOL     OW30898   3.766   1.269   5.102  0.2824  0.4381  0.2719
 6480SOL    HW130899   3.750   1.194   5.045  0.0399  0.7873 -0.1228
 6480SOL    HW230900   3.732   1.242   5.187 -0.2083 -1.0777 -0.4083
 6481SOL     OW30901   1.154   0.983  17.075 -0.2032 -0.2361  0.5469
 6481SOL    HW130902   1.110   1.007  16.993  2.0237  2.9335  0.2930
 6481SOL    HW230903   1.093   1.020  17.140 -1.9445  0.0420 -1.2443
 6482SOL     OW30904   4.564   4.301  10.753  0.1839  0.1251 -0.0604
 6482SOL    HW130905   4.512   4.280  10.830 -0.0795 -2.0827 -0.8241
 6482SOL    HW230906   4.646   4.265  10.788 -1.4521 -1.7262  1.8538
 6483SOL     OW30907   2.907   4.297   7.165 -0.0168  0.4259  0.7397
 6483SOL    HW130908   2.844   4.242   7.119 -0.3950  1.7510 -0.3203
 6483SOL    HW230909   2.985   4.279   7.112 -0.5836  0.3688 -0.0827
 6484SOL     OW30910   2.631   2.690   7.197 -0.7123 -0.4893  0.0884
 6484SOL    HW130911   2.678   2.739   7.130 -1.0686  0.2102  0.3363
 6484SOL    HW230912   2.680   2.609   7.183 -1.4675 -1.0688  0.8096
 6485SOL     OW30913   4.395   0.693  12.053 -0.3390 -0.7082 -0.3871
 6485SOL    HW130914   4.395   0.788  12.064  2.3432 -0.7684  0.0773
 6485SOL    HW230915   4.481   0.684  12.011  0.8095  0.1647  1.7847
 6486SOL     OW30916   2.289   3.244   5.172 -0.2934 -0.5190 -0.9467
 6486SOL    HW130917   2.193   3.241   5.173 -0.3269  2.3259  1.2359
 6486SOL    HW230918   2.308   3.316   5.112 -0.0988  1.5355  1.6170
 6487SOL     OW30919   2.226   0.318   9.238 -0.3273 -0.0808  0.0544
 6487SOL    HW130920   2.288   0.252   9.268  0.6911  0.4888 -0.7988
 6487SOL    HW230921   2.153   0.255   9.237 -1.8119  1.6666 -2.6997
 6488SOL     OW30922   2.906   3.590   8.832 -0.0426 -0.6264 -0.0243
 6488SOL    HW130923   2.820   3.592   8.790  1.3956 -0.0026 -2.8968
 6488SOL    HW230924   2.963   3.653   8.788  0.9400 -0.9212  0.8384
 6489SOL     OW30925   0.514   0.787   2.806 -0.0143 -0.1757 -0.7969
 6489SOL    HW130926   0.431   0.797   2.853  1.2502 -0.2261  1.4267
 6489SOL    HW230927   0.490   0.731   2.732 -2.5547  1.4754 -1.2166
 6490SOL     OW30928   2.203   3.553   5.778 -0.4215 -0.4300  0.7985
 6490SOL    HW130929   2.113   3.577   5.756 -0.6220 -1.7584  0.1827
 6490SOL    HW230930   2.236   3.637   5.810  2.8543 -1.0691 -0.8426
 6491SOL     OW30931   1.937   2.351  12.056  0.3488  0.7173  0.1188
 6491SOL    HW130932   2.030   2.331  12.071  0.1349 -1.0174 -0.8631
 6491SOL    HW230933   1.942   2.354  11.961  0.2439  0.6048  0.1093
 6492SOL     OW30934   4.713   1.741   7.624 -0.4404  0.0054  0.7051
 6492SOL    HW130935   0.006   1.701   7.538  1.3804  1.7120  0.2345
 6492SOL    HW230936   4.632   1.698   7.652  0.0334 -0.7396  0.9236
 6493SOL     OW30937   2.533   3.966   9.282  0.0998  0.1753  0.8771
 6493SOL    HW130938   2.617   3.935   9.246  0.8347  2.5419  0.5747
 6493SOL    HW230939   2.477   3.890   9.266  0.7960 -0.1904  0.1442
 6494SOL     OW30940   3.598   1.454  12.379 -0.2452 -0.0657  0.2359
 6494SOL    HW130941   3.615   1.548  12.392 -0.0193  0.0210 -0.6889
 6494SOL    HW230942   3.585   1.452  12.284 -0.8367  0.4507  0.3067
 6495SOL     OW30943   1.375   3.354   5.448  0.1203 -0.5055  0.1819
 6495SOL    HW130944   1.443   3.308   5.497  0.3097 -0.2042  0.1969
 6495SOL    HW230945   1.302   3.344   5.510 -1.3344  0.1651 -1.4253
 6496SOL     OW30946   3.954   1.630  15.337  0.0601  0.0281 -0.4160
 6496SOL    HW130947   3.914   1.688  15.402 -1.3607 -1.6075  0.1708
 6496SOL    HW230948   4.028   1.594  15.385 -0.5374  0.9387  1.1956
 6497SOL     OW30949   3.659   4.437   7.597 -0.2618 -0.1899  0.0486
 6497SOL    HW130950   3.610   4.429   7.679  0.3216  0.8250  0.4971
 6497SOL    HW230951   3.672   4.343   7.588  1.0279 -0.1761  1.8542
 6498SOL     OW30952   0.132   0.217   9.638 -0.4682  0.4620  0.0620
 6498SOL    HW130953   0.048   0.263   9.636 -0.9064 -0.3243  0.8832
 6498SOL    HW230954   0.165   0.246   9.552  1.3294  3.6094  1.8095
 6499SOL     OW30955   3.681   2.375   5.067 -0.4621  0.5958  0.1729
 6499SOL    HW130956   3.671   2.413   5.154  2.2337  0.6870  0.4565
 6499SOL    HW230957   3.701   2.283   5.081 -0.4973  0.5308 -0.2020
 6500SOL     OW30958   0.241   1.200   3.353 -0.8877  0.8378 -0.2355
 6500SOL    HW130959   0.284   1.285   3.346 -1.3443  0.9858 -1.1920
 6500SOL    HW230960   0.149   1.222   3.368 -1.1214 -1.3660  1.6523
 6501SOL     OW30961   3.630   2.835  14.437 -0.8909  0.5455  0.1124
 6501SOL    HW130962   3.658   2.767  14.499 -1.9083  0.4777  0.4999
 6501SOL    HW230963   3.572   2.897  14.481 -1.4803 -0.9229  1.3980
 6502SOL     OW30964   2.604   0.326   8.774 -0.3142 -0.3116  0.4440
 6502SOL    HW130965   2.519   0.362   8.749  1.2212  1.5509 -2.0895
 6502SOL    HW230966   2.580   0.238   8.803  1.0492 -0.6952  0.4006
 6503SOL     OW30967   3.751   2.320   5.861 -0.2110  0.1091  0.5697
 6503SOL    HW130968   3.775   2.369   5.783 -0.5831 -0.7822 -0.0988
 6503SOL    HW230969   3.840   2.296   5.888  0.0899  1.0530  0.4011
 6504SOL     OW30970   4.418   4.540   3.277  0.7203 -0.1739  0.2837
 6504SOL    HW130971   4.489   4.534   3.341  1.1090  0.4539 -0.0818
 6504SOL    HW230972   4.450   4.612   3.222  0.6460  0.2801  0.8419
 6505SOL     OW30973   2.092   3.031   1.514 -0.2226 -0.1377 -0.4071
 6505SOL    HW130974   2.005   3.047   1.477  0.3922  1.4303 -1.1379
 6505SOL    HW230975   2.086   2.936   1.523  1.7674 -0.0111  2.1284
 6506SOL     OW30976   1.917   1.786   1.088  0.2784 -0.4904 -0.8943
 6506SOL    HW130977   1.968   1.745   1.158 -1.1789  2.8322  2.1291
 6506SOL    HW230978   1.832   1.750   1.115  0.3027  0.1377  0.0254
 6507SOL     OW30979   1.944   2.322   6.034  0.0632  0.0936  0.5190
 6507SOL    HW130980   1.886   2.317   5.958  0.8566 -0.4893 -0.0461
 6507SOL    HW230981   2.006   2.383   5.995  1.4928 -0.3049  2.1476
 6508SOL     OW30982   2.984   2.401  16.019 -0.0977 -0.4010  0.0339
 6508SOL    HW130983   2.996   2.443  16.105  0.4247  1.8176 -1.1388
 6508SOL    HW230984   3.057   2.440  15.972  0.7053 -0.5374  1.1764
 6509SOL     OW30985   0.031   1.105   7.912 -0.7231  0.0478  0.0079
 6509SOL    HW130986   4.680   1.082   7.970 -0.6564 -2.0504 -0.7268
 6509SOL    HW230987   0.009   1.198   7.908 -2.7054 -0.4028  0.3282
 6510SOL     OW30988   2.092   2.968   3.258  0.7952  0.9999 -0.1010
 6510SOL    HW130989   2.033   3.039   3.285 -0.4208  0.0075 -0.1295
 6510SOL    HW230990   2.036   2.930   3.190  0.8700 -0.3932  0.6154
 6511SOL     OW30991   1.923   4.309   3.624  0.4683  0.3823 -0.0112
 6511SOL    HW130992   1.843   4.266   3.595 -0.5092  1.4174  1.1696
 6511SOL    HW230993   1.987   4.267   3.566  0.7055  2.0249 -0.9545
 6512SOL     OW30994   3.747   2.558   6.223  0.0686 -0.2431 -0.1364
 6512SOL    HW130995   3.835   2.593   6.238  0.8760 -1.9268 -0.8650
 6512SOL    HW230996   3.692   2.626   6.260  0.0882 -1.4926  2.1959
 6513SOL     OW30997   3.030   0.698   6.092  0.3316  0.9191  0.6637
 6513SOL    HW130998   2.942   0.736   6.100 -0.5944 -1.1513  0.4466
 6513SOL    HW230999   3.088   0.757   6.139 -1.0904  2.3099  0.6795
 6514SOL     OW31000   2.775   0.063  11.542 -0.0818 -0.6153  0.1756
 6514SOL    HW131001   2.723   0.033  11.617 -1.7057 -0.2051 -0.7780
 6514SOL    HW231002   2.841   0.115  11.587 -1.8787  0.0434  2.0275
 6515SOL     OW31003   0.648   0.120   6.122  0.0554  0.2751 -0.1559
 6515SOL    HW131004   0.673   0.051   6.184 -0.1304  0.7149  0.4089
 6515SOL    HW231005   0.658   0.192   6.185  1.7451  1.2540 -1.5604
 6516SOL     OW31006   4.444   3.798   5.220 -0.4400 -0.2358  0.6708
 6516SOL    HW131007   4.366   3.850   5.203 -0.6192 -0.3731  1.0863
 6516SOL    HW231008   4.496   3.816   5.142 -0.0013 -1.7419  0.6100
 6517SOL     OW31009   3.280   3.093   3.688  0.2545 -0.0656  0.0523
 6517SOL    HW131010   3.200   3.144   3.700 -0.0549 -0.9493  1.8030
 6517SOL    HW231011   3.244   3.008   3.662  0.4272 -0.4366  0.9920
 6518SOL     OW31012   4.670   3.186   5.229  0.0043  0.5812  0.3917
 6518SOL    HW131013   4.628   3.246   5.291  0.4399  1.2190  0.0701
 6518SOL    HW231014   4.695   3.248   5.160 -2.6417  1.9333  0.6255
 6519SOL     OW31015   4.079   0.692   3.183  0.2376 -0.1534 -0.6258
 6519SOL    HW131016   4.171   0.685   3.156 -0.1388  0.9255 -2.2342
 6519SOL    HW231017   4.082   0.668   3.275 -0.6432  0.5664 -0.4174
 6520SOL     OW31018   1.960   3.580  14.114 -0.3740 -0.1544 -0.3828
 6520SOL    HW131019   1.922   3.622  14.192  1.5610  2.0656 -0.6244
 6520SOL    HW231020   2.002   3.501  14.147 -2.1794 -0.4461  1.2281
 6521SOL     OW31021   0.545   1.550  13.944 -0.7839  0.0995 -0.9134
 6521SOL    HW131022   0.498   1.531  13.863 -1.9225  0.4601 -0.3416
 6521SOL    HW231023   0.499   1.487  14.000 -2.2328  0.5707 -1.5592
 6522SOL     OW31024   3.699   4.706   7.383 -0.1162 -0.4573 -0.1073
 6522SOL    HW131025   3.694   0.008   7.476  0.5221 -1.5486  0.2052
 6522SOL    HW231026   3.734   4.617   7.375 -0.2432 -0.5909  0.8575
 6523SOL     OW31027   0.742   3.832   4.472  0.5856  0.0387 -0.2444
 6523SOL    HW131028   0.674   3.820   4.538  1.3009  0.5171  0.5814
 6523SOL    HW231029   0.723   3.923   4.452  2.5032  0.0541 -1.9920
 6524SOL     OW31030   1.694   3.096  11.181  0.5290 -0.0584 -0.5347
 6524SOL    HW131031   1.617   3.070  11.232  0.8353 -1.5979 -0.8565
 6524SOL    HW231032   1.766   3.068  11.237  1.2394 -2.3356 -2.5785
 6525SOL     OW31033   1.905   2.198   8.189  0.4360  0.0421 -0.3865
 6525SOL    HW131034   1.919   2.103   8.188  3.4850  0.5017  0.3802
 6525SOL    HW231035   1.959   2.221   8.264  1.0856 -2.0852 -0.2102
 6526SOL     OW31036   4.157   2.714   8.348  0.5767 -0.1792  1.0172
 6526SOL    HW131037   4.141   2.808   8.343  1.7947 -0.0375 -0.1283
 6526SOL    HW231038   4.198   2.724   8.433  0.4579 -0.5067  1.1161
 6527SOL     OW31039   4.130   2.282   7.026 -0.1640  0.1474 -0.3859
 6527SOL    HW131040   4.143   2.227   7.103 -2.9880 -2.5672 -1.8732
 6527SOL    HW231041   4.035   2.286   7.021 -0.2671  3.5360  4.2302
 6528SOL     OW31042   2.723   4.623   8.959 -0.0911  0.8571  0.1918
 6528SOL    HW131043   2.666   4.552   8.989  1.0094 -0.2243 -0.2831
 6528SOL    HW231044   2.689   4.699   9.008 -0.3726  1.2428 -0.6115
 6529SOL     OW31045   1.981   1.463   4.974 -0.1046  0.2548  0.1562
 6529SOL    HW131046   1.946   1.523   5.040 -2.3046 -0.9752  0.1246
 6529SOL    HW231047   1.894   1.446   4.937  0.1186 -1.9127  0.6626
 6530SOL     OW31048   1.066   2.319   9.098  0.8528  0.1816 -0.1837
 6530SOL    HW131049   1.049   2.328   9.192 -0.1272  0.9805 -0.4256
 6530SOL    HW231050   0.980   2.335   9.058  0.5776 -1.4117 -0.2207
 6531SOL     OW31051   2.979   3.939   7.187  0.3726 -0.1971  0.0665
 6531SOL    HW131052   2.987   3.844   7.197  1.7884 -0.0671  0.2612
 6531SOL    HW231053   3.071   3.964   7.193  0.4459 -0.7692  1.4482
 6532SOL     OW31054   2.679   3.353   3.814  0.4537  0.1505 -0.2621
 6532SOL    HW131055   2.715   3.440   3.831  0.3467  0.5365 -2.0488
 6532SOL    HW231056   2.648   3.363   3.725 -3.3954 -1.2893  0.9276
 6533SOL     OW31057   3.812   2.460   5.616 -0.6942  0.1856 -0.0359
 6533SOL    HW131058   3.819   2.540   5.565  1.7459  0.8732  1.3886
 6533SOL    HW231059   3.864   2.396   5.566 -1.3970  0.6108 -1.3318
 6534SOL     OW31060   0.855   2.794   8.299 -0.4028  0.0174  0.4155
 6534SOL    HW131061   0.837   2.886   8.314  0.8607  0.2275  0.5590
 6534SOL    HW231062   0.841   2.769   8.391  0.8306  0.7739  0.8011
 6535SOL     OW31063   2.218   1.372   4.237  0.1623  0.1975  0.6394
 6535SOL    HW131064   2.187   1.291   4.197 -0.4285 -0.0045  1.5036
 6535SOL    HW231065   2.308   1.344   4.252  0.3432 -0.5557 -1.8940
 6536SOL     OW31066   2.409   2.056  13.803  0.0790  0.4545  0.6912
 6536SOL    HW131067   2.431   2.140  13.842  1.8514  1.2168 -1.9252
 6536SOL    HW231068   2.496   2.029  13.772 -0.0511 -0.1213  0.8225
 6537SOL     OW31069   2.660   2.676   4.828  0.0516  0.4206  0.3521
 6537SOL    HW131070   2.643   2.597   4.777  1.4132 -0.3277  1.0584
 6537SOL    HW231071   2.724   2.716   4.769  0.5508 -0.7282  0.1114
 6538SOL     OW31072   3.255   3.297   3.165  0.2437 -0.1121  0.5425
 6538SOL    HW131073   3.212   3.247   3.095  1.3046 -0.9364  0.4757
 6538SOL    HW231074   3.294   3.363   3.108 -1.2550  1.2669  1.1117
 6539SOL     OW31075   4.406   1.461  16.066  0.9551  0.2711 -0.0656
 6539SOL    HW131076   4.333   1.520  16.050 -0.1759 -1.8093 -2.6332
 6539SOL    HW231077   4.473   1.498  16.010  0.6503  0.8113 -0.0693
 6540SOL     OW31078   1.347   0.789   9.582 -0.7266  0.0087  0.2827
 6540SOL    HW131079   1.423   0.845   9.595 -0.9047  0.5988 -1.2042
 6540SOL    HW231080   1.389   0.708   9.557 -1.2585 -0.8782  2.2673
 6541SOL     OW31081   4.610   4.496   3.477 -0.0205  0.5167 -0.4833
 6541SOL    HW131082   4.655   4.577   3.502 -0.8321  1.0654 -0.7710
 6541SOL    HW231083   4.630   4.436   3.549 -0.9136  0.8169  0.0195
 6542SOL     OW31084   1.968   0.232   6.075 -0.3078  0.4073 -0.3645
 6542SOL    HW131085   2.013   0.314   6.094  1.6727 -0.6333 -0.5745
 6542SOL    HW231086   2.018   0.178   6.136 -2.0123 -1.4506 -0.6108
 6543SOL     OW31087   0.889   1.652   6.844  0.1844 -0.1828 -0.1404
 6543SOL    HW131088   0.870   1.598   6.920 -1.3428  1.6329  0.7847
 6543SOL    HW231089   0.829   1.727   6.855  0.1237 -0.5288  1.8440
 6544SOL     OW31090   3.502   1.766  10.973 -0.7572 -0.1092 -0.3510
 6544SOL    HW131091   3.503   1.680  10.930 -2.5516  0.2019 -1.0455
 6544SOL    HW231092   3.578   1.808  10.933  0.7495  0.6480  3.3979
 6545SOL     OW31093   0.226   3.965  12.737  0.4739  0.4502 -0.0441
 6545SOL    HW131094   0.191   4.041  12.782  2.1418  0.8463  0.5970
 6545SOL    HW231095   0.154   3.921  12.692 -0.8251  0.4096  2.0634
 6546SOL     OW31096   1.335   1.603   2.809  0.2750  0.0074  0.0742
 6546SOL    HW131097   1.272   1.543   2.770  0.8293 -0.4958 -0.0554
 6546SOL    HW231098   1.293   1.686   2.788 -3.7355 -1.7399  1.1359
 6547SOL     OW31099   0.405   0.223  16.310  0.4048  0.5935 -0.3546
 6547SOL    HW131100   0.351   0.294  16.278 -0.7205  0.3248  0.9669
 6547SOL    HW231101   0.494   0.258  16.306  0.3147  0.9735  0.9169
 6548SOL     OW31102   2.035   1.095   3.864  0.0915 -0.3018 -0.0332
 6548SOL    HW131103   1.959   1.038   3.867  0.9464 -1.5374 -1.4768
 6548SOL    HW231104   2.099   1.061   3.801 -0.4184  0.2002 -0.8204
 6549SOL     OW31105   0.800   4.065   0.469  0.6120 -0.1667 -0.2885
 6549SOL    HW131106   0.722   4.016   0.495  0.3844  0.9509  1.1348
 6549SOL    HW231107   0.776   4.079   0.378  3.1265  1.6311 -0.6959
 6550SOL     OW31108   3.262   3.322   0.014 -0.3292  0.0623  0.1314
 6550SOL    HW131109   3.302   3.239  17.678 -0.9791 -0.4386  0.7254
 6550SOL    HW231110   3.264   3.313   0.109  1.2079 -0.3207  0.0530
 6551SOL     OW31111   2.361   3.461  14.660 -0.2279  0.2589 -0.0947
 6551SOL    HW131112   2.343   3.368  14.660  0.2055  0.1761 -0.1811
 6551SOL    HW231113   2.449   3.475  14.696 -1.0482 -0.9753  2.3735
 6552SOL     OW31114   2.951   3.323   7.279 -0.5093  0.0484 -0.1455
 6552SOL    HW131115   2.897   3.246   7.260  0.5369 -0.7925  0.3127
 6552SOL    HW231116   2.931   3.346   7.370 -1.9925 -2.2047  0.1104
 6553SOL     OW31117   3.561   1.913  12.686  0.1723 -0.1312 -0.1681
 6553SOL    HW131118   3.560   2.004  12.713 -1.1453 -0.2643  0.2310
 6553SOL    HW231119   3.553   1.860  12.766 -3.6423  0.9940  0.1761
 6554SOL     OW31120   1.114   0.948  12.468 -0.3518  0.1583 -0.5573
 6554SOL    HW131121   1.026   0.911  12.470 -1.0721  1.8428 -1.5362
 6554SOL    HW231122   1.089   1.038  12.451 -1.8735 -0.3211 -0.8628
 6555SOL     OW31123   1.648   2.316  13.807  0.3726  0.3342 -0.2154
 6555SOL    HW131124   1.662   2.371  13.730  0.2652 -0.1902 -0.6049
 6555SOL    HW231125   1.582   2.255  13.775  1.7983 -1.7818  0.8291
 6556SOL     OW31126   1.540   1.050   7.396 -0.0155 -0.3424  0.1809
 6556SOL    HW131127   1.469   1.017   7.452 -0.6003  1.6051  0.5791
 6556SOL    HW231128   1.619   1.025   7.445  0.0735  0.0948  0.2575
 6557SOL     OW31129   2.474   1.843   3.308  0.8426  0.0784  0.3676
 6557SOL    HW131130   2.427   1.811   3.385  1.2356  2.5956  1.6517
 6557SOL    HW231131   2.543   1.898   3.347  0.7031  0.1153  0.5658
 6558SOL     OW31132   3.405   4.598   2.988  0.8087 -0.1214 -0.1162
 6558SOL    HW131133   3.360   4.514   2.988 -1.3361  1.0318 -0.6497
 6558SOL    HW231134   3.330   4.651   2.960  0.1574 -0.6619  0.6099
 6559SOL     OW31135   2.317   4.308   9.557 -0.3080  0.2475 -0.3861
 6559SOL    HW131136   2.347   4.218   9.544 -0.1538 -0.0134  1.8050
 6559SOL    HW231137   2.361   4.321   9.641  0.2389  0.6401 -0.7317
 6560SOL     OW31138   1.179   0.779   3.064 -0.1130 -0.9839 -0.3170
 6560SOL    HW131139   1.262   0.733   3.076  0.0021 -0.8166 -0.4604
 6560SOL    HW231140   1.125   0.710   3.026 -0.4117 -0.7038 -0.4068
 6561SOL     OW31141   4.660   2.062   6.451  0.4165 -0.2371 -0.3308
 6561SOL    HW131142   4.658   2.112   6.369  0.3265  1.5175  0.7219
 6561SOL    HW231143   4.572   2.025   6.451 -0.3783  1.6531 -1.1151
 6562SOL     OW31144   1.945   4.175   5.137 -0.0885 -0.0886 -0.2432
 6562SOL    HW131145   1.938   4.268   5.157  1.1075 -0.1858  0.6530
 6562SOL    HW231146   1.926   4.129   5.219 -0.8511  0.6935  0.0269
 6563SOL     OW31147   2.522   3.514   9.883 -0.0872  0.0517 -0.1506
 6563SOL    HW131148   2.565   3.523   9.798  1.4610  1.3217  0.7748
 6563SOL    HW231149   2.447   3.461   9.855  1.0759 -1.7690  0.1801
 6564SOL     OW31150   1.417   2.189  16.623 -0.1260  0.0216  0.5321
 6564SOL    HW131151   1.499   2.188  16.574 -2.6064 -1.9981 -3.5564
 6564SOL    HW231152   1.423   2.111  16.677  2.3248 -1.9576 -2.5629
 6565SOL     OW31153   2.292   1.125   1.233 -0.1278  0.5754 -0.0042
 6565SOL    HW131154   2.342   1.144   1.313  0.1638 -3.4899  0.8054
 6565SOL    HW231155   2.293   1.215   1.202  1.4992 -0.7049 -3.6264
 6566SOL     OW31156   2.113   0.838   3.132  0.1563 -0.1028 -0.6079
 6566SOL    HW131157   2.109   0.770   3.065 -0.5079 -0.6866  0.0196
 6566SOL    HW231158   2.208   0.852   3.132 -0.0185  1.0591 -2.3505
 6567SOL     OW31159   2.444   4.247   7.559  0.1840 -0.4390  0.0883
 6567SOL    HW131160   2.408   4.176   7.612 -0.5935 -0.1405 -0.0429
 6567SOL    HW231161   2.452   4.317   7.623 -1.3972  0.7759 -1.0534
 6568SOL     OW31162   1.693   3.625  14.990  0.2837  0.1511 -0.0227
 6568SOL    HW131163   1.729   3.711  15.011  1.0736 -0.3739  0.8224
 6568SOL    HW231164   1.764   3.593  14.935  0.7419 -1.7878  1.7044
 6569SOL     OW31165   4.370   4.546   7.081  0.2666  0.1946 -0.5409
 6569SOL    HW131166   4.286   4.557   7.036 -0.1674 -0.8090  0.0125
 6569SOL    HW231167   4.397   4.456   7.059  0.0871 -0.1071  0.4923
 6570SOL     OW31168   2.610   4.113   7.920 -0.4173  0.2524  0.0649
 6570SOL    HW131169   2.642   4.086   7.834  0.9330 -1.7977  1.2101
 6570SOL    HW231170   2.551   4.041   7.940 -0.1756  0.2733  0.8555
 6571SOL     OW31171   1.612   0.843  14.468 -0.0852 -0.6161  0.3427
 6571SOL    HW131172   1.558   0.815  14.542 -1.3901  2.4205  0.5506
 6571SOL    HW231173   1.632   0.935  14.485  1.5134 -1.0514  0.7428
 6572SOL     OW31174   3.246   4.646   2.315  0.1454 -0.1793 -0.2193
 6572SOL    HW131175   3.293   4.644   2.398  1.2598 -0.5674 -0.8670
 6572SOL    HW231176   3.212   4.557   2.316 -0.6023  0.1009 -0.5375
 6573SOL     OW31177   0.480   1.537   2.710 -0.0827  0.3017 -0.1938
 6573SOL    HW131178   0.501   1.630   2.701  0.6159  0.1195 -0.3951
 6573SOL    HW231179   0.567   1.507   2.733 -1.3699 -1.7300  1.9846
 6574SOL     OW31180   0.356   3.760  11.876  0.1495  0.0225  0.0014
 6574SOL    HW131181   0.443   3.797  11.894  0.6401 -0.2178 -1.8945
 6574SOL    HW231182   0.349   3.790  11.786  0.7764  0.2541  0.0312
 6575SOL     OW31183   0.685   2.809   1.705  0.1013 -0.6128  0.2725
 6575SOL    HW131184   0.604   2.761   1.690 -0.5617 -0.1115  2.2516
 6575SOL    HW231185   0.751   2.742   1.692  1.0086  0.4150 -0.3698
 6576SOL     OW31186   3.099   2.610   3.521  0.4263 -0.1627 -0.1017
 6576SOL    HW131187   3.138   2.529   3.554 -0.0264 -0.8404 -1.2330
 6576SOL    HW231188   3.007   2.590   3.504  0.4597 -3.0391  3.0721
 6577SOL     OW31189   4.101   0.065   5.446 -0.4872 -0.4374 -0.4227
 6577SOL    HW131190   4.103   0.133   5.379  3.0032  2.8289  2.9989
 6577SOL    HW231191   4.044   0.107   5.510 -0.1183  1.1933 -1.1668
 6578SOL     OW31192   2.778   4.413  10.126  0.5711 -0.6896 -0.3049
 6578SOL    HW131193   2.832   4.334  10.127 -0.1164 -1.1458  1.2398
 6578SOL    HW231194   2.784   4.433  10.033  2.8053  2.3931  0.4938
 6579SOL     OW31195   3.867   0.248   5.362 -0.7943  0.2367  0.2671
 6579SOL    HW131196   3.886   0.236   5.268  0.5395 -1.4389  0.7440
 6579SOL    HW231197   3.911   0.329   5.385  1.7994 -1.0746 -0.0525
 6580SOL     OW31198   3.814   3.757  10.067  0.2894  0.3859 -0.3609
 6580SOL    HW131199   3.903   3.724  10.056 -0.6525 -1.8454 -1.0803
 6580SOL    HW231200   3.829   3.850  10.050 -3.8290  1.3728  1.2424
 6581SOL     OW31201   3.913   1.461   4.982  0.2251 -0.5697  0.2237
 6581SOL    HW131202   3.943   1.492   5.068 -2.0602  1.2291  0.3602
 6581SOL    HW231203   3.883   1.374   5.008 -1.6552 -0.0101 -0.1121
 6582SOL     OW31204   4.333   4.114   1.086 -0.3737  0.0744 -0.0421
 6582SOL    HW131205   4.324   4.061   1.166 -0.1293  1.0079  0.6049
 6582SOL    HW231206   4.321   4.202   1.122 -0.5755  0.2347 -0.5070
 6583SOL     OW31207   1.946   0.388   4.678  0.6431  0.0518 -0.2869
 6583SOL    HW131208   1.936   0.438   4.597 -0.0669 -1.5820 -1.2062
 6583SOL    HW231209   1.916   0.446   4.748 -1.1220  0.2850 -1.2504
 6584SOL     OW31210   4.148   0.341   3.128  0.0749  0.1192 -0.0456
 6584SOL    HW131211   4.197   0.412   3.087  0.5676  0.7834  1.7236
 6584SOL    HW231212   4.135   0.281   3.055 -1.4412 -0.0743  0.3877
 6585SOL     OW31213   1.424   1.499  14.671  0.6635 -0.6552 -0.6498
 6585SOL    HW131214   1.455   1.578  14.716 -1.4902 -1.2360  1.8618
 6585SOL    HW231215   1.468   1.516  14.588 -0.8286 -0.8148 -1.4673
 6586SOL     OW31216   1.832   2.299   0.440  0.3882 -0.0638 -0.7733
 6586SOL    HW131217   1.804   2.273   0.352  0.0531 -1.5856 -0.2115
 6586SOL    HW231218   1.750   2.302   0.488  1.1334 -2.0376  0.5970
 6587SOL     OW31219   1.776   2.855   3.542  0.1746 -0.1248  0.2841
 6587SOL    HW131220   1.864   2.864   3.577  0.0027 -1.1353  0.9829
 6587SOL    HW231221   1.785   2.859   3.447 -0.3476  0.2387  0.2450
 6588SOL     OW31222   1.015   4.123   2.168  0.7821 -0.5888  0.0341
 6588SOL    HW131223   0.937   4.071   2.148 -0.1263  0.8701 -0.2209
 6588SOL    HW231224   1.069   4.102   2.092  0.4600  1.8736 -0.8726
 6589SOL     OW31225   4.198   2.282   6.700 -0.3791 -0.0816 -0.2266
 6589SOL    HW131226   4.182   2.244   6.786  0.3806 -0.8973 -0.4557
 6589SOL    HW231227   4.108   2.312   6.686 -0.7547 -0.6381  0.9854
 6590SOL     OW31228   0.385   1.695  11.037  0.2618  0.6094 -1.1076
 6590SOL    HW131229   0.417   1.615  10.995  0.1808 -0.3794  0.7059
 6590SOL    HW231230   0.315   1.665  11.095  0.7949 -0.0378 -0.7958
 6591SOL     OW31231   2.123   1.635  11.758  0.0638  0.3379 -0.0653
 6591SOL    HW131232   2.190   1.699  11.731  0.5779  0.2972  1.0880
 6591SOL    HW231233   2.103   1.672  11.844 -0.3359 -0.3218  0.1231
 6592SOL     OW31234   1.005   4.467  11.412  0.4783 -0.5688  0.3259
 6592SOL    HW131235   1.040   4.393  11.361  3.0231 -1.2464  3.0835
 6592SOL    HW231236   1.008   4.430  11.500 -0.2553 -2.1211 -0.2991
 6593SOL     OW31237   0.669   4.153   9.403  0.7420 -0.3021 -0.1159
 6593SOL    HW131238   0.577   4.148   9.430  0.8392  1.8203  0.5622
 6593SOL    HW231239   0.664   4.200   9.319  0.4775  0.0975  0.1258
 6594SOL     OW31240   1.675   2.796  16.038  0.1368 -0.4192 -0.3572
 6594SOL    HW131241   1.673   2.878  15.989 -1.1240 -1.4201 -1.9466
 6594SOL    HW231242   1.770   2.787  16.025  0.0596 -1.8834  0.1106
 6595SOL     OW31243   0.518   2.479   6.652 -0.2229  0.4249 -0.7684
 6595SOL    HW131244   0.498   2.433   6.571 -1.1135 -0.2655 -0.1518
 6595SOL    HW231245   0.541   2.408   6.711  0.2795  0.9488 -0.3357
 6596SOL     OW31246   4.118   2.750   5.591  0.0473  0.4036  0.5878
 6596SOL    HW131247   4.211   2.742   5.572 -0.1154  1.5084 -0.6935
 6596SOL    HW231248   4.101   2.840   5.563 -1.7404  0.1919  0.9420
 6597SOL     OW31249   0.665   4.215   6.539 -0.1897 -0.0023  0.3617
 6597SOL    HW131250   0.676   4.175   6.626  2.9061 -1.9051 -0.9138
 6597SOL    HW231251   0.577   4.182   6.524 -0.9593  0.9803  2.6538
 6598SOL     OW31252   0.235   3.342   6.925 -0.1557 -0.5885 -0.0663
 6598SOL    HW131253   0.323   3.321   6.894  0.7165  1.3663  1.0629
 6598SOL    HW231254   0.197   3.385   6.848 -0.7211  1.2894  1.2674
 6599SOL     OW31255   3.398   3.488  13.006 -0.6137  0.3019  0.0561
 6599SOL    HW131256   3.401   3.401  13.046  0.3788  0.9464  1.3711
 6599SOL    HW231257   3.490   3.511  12.995 -0.2110 -0.1764  2.5330
 6600SOL     OW31258   3.646   0.615  11.746 -0.1163 -0.5574  0.0832
 6600SOL    HW131259   3.729   0.663  11.742 -0.2866 -0.2095  0.7147
 6600SOL    HW231260   3.581   0.686  11.748 -0.2872 -0.6976 -0.3673
 6601SOL     OW31261   3.551   2.955  13.403 -0.1461 -0.1197 -0.4525
 6601SOL    HW131262   3.532   3.047  13.385  0.7530 -0.0729 -1.1178
 6601SOL    HW231263   3.460   2.926  13.415 -0.0699 -0.2036 -0.0923
 6602SOL     OW31264   2.099   1.219   8.635 -0.4301  0.0072 -0.6501
 6602SOL    HW131265   2.191   1.227   8.610  0.3382 -0.8555  1.9355
 6602SOL    HW231266   2.045   1.213   8.556 -0.2257 -0.5913 -0.7435
 6603SOL     OW31267   3.943   3.700   3.790  0.2181  0.2217 -0.4562
 6603SOL    HW131268   3.998   3.667   3.719 -0.9140 -2.4341 -0.0995
 6603SOL    HW231269   3.861   3.661   3.759  1.4979 -1.3591 -1.8489
 6604SOL     OW31270   0.906   2.623   3.892  0.4301 -0.4506 -0.5335
 6604SOL    HW131271   0.824   2.658   3.857 -0.1056  0.0406  1.2122
 6604SOL    HW231272   0.939   2.689   3.954 -1.3876  0.0718 -0.1390
 6605SOL     OW31273   0.417   2.687  14.827 -0.3136  0.2165  0.2534
 6605SOL    HW131274   0.359   2.762  14.827  0.8658  1.1193  1.8933
 6605SOL    HW231275   0.440   2.665  14.917  0.2246  0.3907  0.1616
 6606SOL     OW31276   1.680   0.348  13.867  0.0904  0.1507  0.6527
 6606SOL    HW131277   1.754   0.398  13.833 -1.0335  0.3565 -1.4896
 6606SOL    HW231278   1.626   0.331  13.790  0.8979  2.9288 -0.5182
 6607SOL     OW31279   4.394   3.649   5.587 -0.1939 -0.4552 -0.0215
 6607SOL    HW131280   4.339   3.662   5.510 -0.4510  0.6800  0.3430
 6607SOL    HW231281   4.405   3.741   5.611  0.8073 -0.5419 -0.1698
 6608SOL     OW31282   0.638   0.479   2.419 -0.5922  0.0065  0.4931
 6608SOL    HW131283   0.630   0.394   2.374 -0.8926  0.1417  0.2890
 6608SOL    HW231284   0.648   0.532   2.339 -0.3036  1.9996  1.8608
 6609SOL     OW31285   2.497   3.626   7.000 -0.2508 -0.1130  0.2973
 6609SOL    HW131286   2.432   3.615   7.069 -0.1486 -2.3129  0.0485
 6609SOL    HW231287   2.456   3.575   6.929  3.5038 -2.2898 -0.3260
 6610SOL     OW31288   3.304   0.506   3.123 -0.3576 -0.6155  0.2122
 6610SOL    HW131289   3.334   0.487   3.034 -1.9657 -1.5437 -0.1302
 6610SOL    HW231290   3.220   0.551   3.116 -0.3159 -0.7020 -0.8985
 6611SOL     OW31291   0.691   1.153  10.145  0.4948 -0.0553  0.1391
 6611SOL    HW131292   0.682   1.079  10.085 -4.4326  0.5652  0.1036
 6611SOL    HW231293   0.749   1.127  10.216  0.0380  0.1014  0.5745
 6612SOL     OW31294   1.066   0.433   7.076 -0.2805  0.2278 -0.1013
 6612SOL    HW131295   1.095   0.438   7.167 -1.8199  0.3662  0.3849
 6612SOL    HW231296   0.991   0.493   7.077  0.1224  0.7438 -0.8277
 6613SOL     OW31297   3.526   0.336   6.459 -0.5585  0.2478 -0.1599
 6613SOL    HW131298   3.600   0.397   6.463 -2.1007  2.1003  0.5559
 6613SOL    HW231299   3.532   0.296   6.372  1.3529 -0.1508  0.1697
 6614SOL     OW31300   0.203   1.101   5.696 -0.0686  0.3490  0.2196
 6614SOL    HW131301   0.194   1.130   5.605 -0.9097  1.9312  0.8136
 6614SOL    HW231302   0.185   1.007   5.689 -0.3204  0.4442 -0.3950
 6615SOL     OW31303   0.595   3.824   4.006  0.2135  0.1644 -0.3955
 6615SOL    HW131304   0.606   3.750   3.946 -1.9735 -0.9921  0.6497
 6615SOL    HW231305   0.613   3.895   3.944  0.6912  0.8679  0.5618
 6616SOL     OW31306   3.737   4.698  17.078 -0.2132  0.5409  0.1174
 6616SOL    HW131307   3.649   4.702  17.040 -0.2779  0.9295  0.3081
 6616SOL    HW231308   3.760   0.069  17.074  3.4521 -0.3606  0.1093
 6617SOL     OW31309   0.229   4.554   3.448  0.2016 -0.0544 -0.0823
 6617SOL    HW131310   0.161   4.621   3.452  0.7743  0.4585  1.2667
 6617SOL    HW231311   0.295   4.603   3.498  0.5595  0.2652 -0.8746
 6618SOL     OW31312   1.898   3.487   5.836 -0.4635 -0.8192  0.5935
 6618SOL    HW131313   1.881   3.438   5.916  0.7329 -0.3194  1.1535
 6618SOL    HW231314   1.882   3.580   5.855  0.6616 -0.7732  1.2757
 6619SOL     OW31315   0.223   4.064   4.826  0.2023  0.0528  0.0360
 6619SOL    HW131316   0.133   4.049   4.799 -0.2728  0.5265  1.3925
 6619SOL    HW231317   0.243   3.980   4.868 -0.1980 -0.2018 -0.2933
 6620SOL     OW31318   0.570   0.421   7.923  0.5814 -0.0629 -0.2648
 6620SOL    HW131319   0.504   0.460   7.866 -0.3314 -0.5778  0.4303
 6620SOL    HW231320   0.520   0.352   7.967 -0.8942  0.4750 -1.0852
 6621SOL     OW31321   2.570   1.216   2.493  0.0023 -0.3753  0.1094
 6621SOL    HW131322   2.514   1.142   2.468 -1.0958  0.8024 -0.8934
 6621SOL    HW231323   2.656   1.187   2.461  1.3241  2.8779  0.7373
 6622SOL     OW31324   2.455   0.955  15.789  0.0622  0.4751  0.1084
 6622SOL    HW131325   2.425   0.892  15.854 -1.5218  2.9969  1.8274
 6622SOL    HW231326   2.415   0.913  15.712 -2.0356 -0.2454  1.5805
 6623SOL     OW31327   1.735   4.283  15.291  0.1906 -0.3696 -0.7486
 6623SOL    HW131328   1.754   4.339  15.217  1.4735  0.4558  0.1971
 6623SOL    HW231329   1.640   4.275  15.286  0.4468 -3.2663 -1.1919
 6624SOL     OW31330   0.579   1.336  16.938  0.1922  0.1660 -0.4876
 6624SOL    HW131331   0.630   1.286  16.875 -1.5142 -1.8478 -0.2588
 6624SOL    HW231332   0.509   1.272  16.948  0.1008  0.3891  0.2903
 6625SOL     OW31333   0.705   1.633   7.380  0.2107 -0.2197 -0.6179
 6625SOL    HW131334   0.614   1.664   7.373 -0.0637 -0.3399  2.2089
 6625SOL    HW231335   0.690   1.549   7.337  0.6339 -0.8084  0.3868
 6626SOL     OW31336   4.169   0.268   5.245 -0.4988  0.0022  0.6417
 6626SOL    HW131337   4.149   0.362   5.250  0.2168  0.1019  1.6993
 6626SOL    HW231338   4.216   0.261   5.161 -0.6662 -1.3332  0.6723
 6627SOL     OW31339   4.287   2.215   4.263  0.3834 -0.0943  0.1459
 6627SOL    HW131340   4.241   2.214   4.179 -0.5779 -2.0631  0.7062
 6627SOL    HW231341   4.334   2.298   4.254 -1.8823  0.9420 -2.0945
 6628SOL     OW31342   4.048   3.634   6.784  0.3041 -0.6257  0.4012
 6628SOL    HW131343   3.992   3.710   6.767 -0.0871 -1.1447 -0.6118
 6628SOL    HW231344   3.990   3.561   6.763 -0.9131 -0.0584  1.7214
 6629SOL     OW31345   2.958   3.625   6.418  0.1545  0.5217 -0.4948
 6629SOL    HW131346   2.930   3.689   6.483 -2.4082  0.0308 -1.1019
 6629SOL    HW231347   3.029   3.587   6.469  1.0535  1.6329 -0.9383
 6630SOL     OW31348   3.412   3.910   1.860 -0.2010  0.2897  0.7233
 6630SOL    HW131349   3.351   3.969   1.904 -0.4699  0.3080  0.3286
 6630SOL    HW231350   3.372   3.918   1.774 -1.1728 -0.0807  1.1477
 6631SOL     OW31351   0.189   4.475  14.497  0.1179 -0.2513  0.1514
 6631SOL    HW131352   0.129   4.400  14.494  0.8820 -0.8798  0.5367
 6631SOL    HW231353   0.270   4.424  14.504  0.0322 -0.3565  0.3615
 6632SOL     OW31354   2.811   4.098  15.135  0.1025 -0.2017  0.0209
 6632SOL    HW131355   2.899   4.078  15.166  0.4681 -0.8775 -1.4805
 6632SOL    HW231356   2.789   4.007  15.115 -0.3876  0.2079 -1.3530
 6633SOL     OW31357   0.271   4.429   2.492  0.1339 -0.3378 -0.3670
 6633SOL    HW131358   0.294   4.441   2.400 -0.3849  0.5011 -0.3910
 6633SOL    HW231359   0.284   4.519   2.521 -0.6363 -0.2583 -0.2595
 6634SOL     OW31360   2.577   0.038   3.159 -0.0324  0.2927 -0.0812
 6634SOL    HW131361   2.572   0.112   3.219  3.2127  0.1987  0.2998
 6634SOL    HW231362   2.560   4.694   3.226 -1.9638  2.2314  1.3865
 6635SOL     OW31363   3.328   1.698   4.247  0.0274  0.1730 -0.4560
 6635SOL    HW131364   3.313   1.776   4.194 -1.0252  0.7609  0.6980
 6635SOL    HW231365   3.375   1.744   4.317  0.0815 -0.1422 -0.2829
 6636SOL     OW31366   4.441   4.616   1.555 -0.0402  0.4709 -0.0054
 6636SOL    HW131367   4.493   4.677   1.503 -1.0540  0.8417 -0.5721
 6636SOL    HW231368   4.455   4.538   1.502  2.2407 -0.7983  2.3967
 6637SOL     OW31369   0.145   4.269   2.121 -0.1839 -0.1917 -0.0689
 6637SOL    HW131370   0.214   4.205   2.139  0.4539  0.4111 -0.4117
 6637SOL    HW231371   0.185   4.353   2.139  0.9766 -0.0583 -3.1473
 6638SOL     OW31372   2.054   1.826   4.367  0.2179 -0.2700 -0.2109
 6638SOL    HW131373   1.961   1.829   4.391 -0.2999  1.5718 -2.4637
 6638SOL    HW231374   2.071   1.732   4.364 -1.0945 -0.5758  2.0321
 6639SOL     OW31375   2.804   2.113   2.464 -0.7256 -0.3955  0.1288
 6639SOL    HW131376   2.739   2.166   2.512 -0.0106 -1.0738  1.8583
 6639SOL    HW231377   2.747   2.039   2.444  2.6015 -2.6715 -0.8002
 6640SOL     OW31378   0.246   0.698  12.550 -0.1844 -0.0058  0.1638
 6640SOL    HW131379   0.296   0.754  12.490  2.2047 -2.5296 -0.2161
 6640SOL    HW231380   0.204   0.643  12.484  0.5909 -1.5140  0.9420
 6641SOL     OW31381   2.180   3.592   2.388 -0.9422  0.6807 -0.1577
 6641SOL    HW131382   2.269   3.627   2.390 -0.2797 -1.0251  0.0131
 6641SOL    HW231383   2.188   3.538   2.467  0.2398 -0.3278 -0.9797
 6642SOL     OW31384   3.626   1.020   2.649  0.5575  0.1738 -0.2103
 6642SOL    HW131385   3.703   1.052   2.697  0.9193 -3.9747  1.9499
 6642SOL    HW231386   3.666   1.002   2.564 -0.7488 -1.0655 -0.5544
 6643SOL     OW31387   0.200   3.364   8.609 -0.2905 -0.7202 -0.0201
 6643SOL    HW131388   0.190   3.272   8.582  1.2347 -1.2982  1.3553
 6643SOL    HW231389   0.116   3.374   8.653 -0.7510  0.6234 -1.2241
 6644SOL     OW31390   0.375   4.214   9.180  0.6573  0.0193  0.5104
 6644SOL    HW131391   0.381   4.217   9.275 -2.9960 -0.3914  0.7797
 6644SOL    HW231392   0.430   4.139   9.159 -1.2653 -1.1709 -0.3600
 6645SOL     OW31393   3.140   2.627   4.263  0.1238 -0.0795 -0.3066
 6645SOL    HW131394   3.106   2.646   4.350 -1.2583 -0.3214 -0.7864
 6645SOL    HW231395   3.131   2.710   4.215 -0.6836 -0.3286 -0.5932
 6646SOL     OW31396   2.260   2.005   3.631 -0.4967 -0.0448  0.5146
 6646SOL    HW131397   2.209   1.990   3.710  1.2189 -1.2345  1.4080
 6646SOL    HW231398   2.265   2.101   3.635  0.8841 -0.0382 -1.2217
 6647SOL     OW31399   0.703   3.753   1.676 -0.2334  0.4176  0.1378
 6647SOL    HW131400   0.689   3.727   1.767  2.2384 -0.7225  0.1984
 6647SOL    HW231401   0.652   3.834   1.677 -1.1555 -0.1670 -0.2028
 6648SOL     OW31402   3.021   1.274   7.081  0.4747  0.6035 -0.7999
 6648SOL    HW131403   3.033   1.236   7.168 -0.1436  0.6150 -0.7053
 6648SOL    HW231404   2.946   1.223   7.050 -0.7883  1.9072  0.0786
 6649SOL     OW31405   2.965   3.443  11.339  0.2736 -0.0914 -0.3555
 6649SOL    HW131406   2.933   3.373  11.282  0.6858  0.8660 -1.7607
 6649SOL    HW231407   3.027   3.481  11.277 -0.8227  1.3365 -0.5795
 6650SOL     OW31408   1.621   0.276   4.002 -0.0156 -0.4340  0.1515
 6650SOL    HW131409   1.627   0.243   4.092 -2.3978  0.2985  0.5698
 6650SOL    HW231410   1.710   0.263   3.970 -0.4755  0.9236 -1.7046
 6651SOL     OW31411   0.595   1.879   5.831  0.2933 -0.2877 -0.3007
 6651SOL    HW131412   0.558   1.961   5.864 -0.1501 -0.9148  0.7663
 6651SOL    HW231413   0.579   1.826   5.909  2.2613  0.4853  0.6125
 6652SOL     OW31414   0.976   0.927   6.134 -0.4536  0.0828 -0.4280
 6652SOL    HW131415   0.924   0.988   6.185  0.5417  0.1666  0.4924
 6652SOL    HW231416   0.928   0.849   6.163 -0.0931  0.7915  2.0548
 6653SOL     OW31417   0.755   2.893  14.740 -0.1239 -0.0324 -0.7137
 6653SOL    HW131418   0.737   2.973  14.790  0.6158 -2.0648  2.7970
 6653SOL    HW231419   0.785   2.836  14.811 -0.8161  1.2702  0.6307
 6654SOL     OW31420   2.970   4.160   4.282  1.3385 -0.2038  0.1224
 6654SOL    HW131421   2.933   4.105   4.214  1.1373 -0.6221  0.5746
 6654SOL    HW231422   3.024   4.225   4.236 -0.3432  2.2760  1.6399
 6655SOL     OW31423   0.083   1.796   2.248  0.1997  0.1548 -0.6164
 6655SOL    HW131424   0.136   1.876   2.241 -0.1282  0.4611  0.4346
 6655SOL    HW231425   0.012   1.824   2.305 -0.7057 -1.0648 -1.1479
 6656SOL     OW31426   2.769   3.541   1.086 -0.4256  0.1409 -0.1267
 6656SOL    HW131427   2.832   3.531   1.156 -2.5250  3.8105  2.2883
 6656SOL    HW231428   2.692   3.529   1.142  1.5586  0.1091  2.5487
 6657SOL     OW31429   2.064   4.192   0.644  0.4216 -0.3116  0.3287
 6657SOL    HW131430   2.158   4.180   0.659  1.1234  1.1069 -2.8706
 6657SOL    HW231431   2.063   4.278   0.602 -1.8350 -0.4402  0.0960
 6658SOL     OW31432   4.168   4.091  11.341 -0.1692  0.1373 -0.0604
 6658SOL    HW131433   4.211   4.006  11.332  1.5708  0.7821  2.2560
 6658SOL    HW231434   4.225   4.132  11.275  0.6994  1.1233  1.3158
 6659SOL     OW31435   4.114   0.146   0.238 -0.0509  0.0067 -0.7863
 6659SOL    HW131436   4.131   0.150   0.332  0.0839 -3.3383 -0.6712
 6659SOL    HW231437   4.124   0.056   0.205 -0.5175 -1.2067  2.3942
 6660SOL     OW31438   2.656   1.813  14.128 -0.0791  0.2577  0.0943
 6660SOL    HW131439   2.723   1.873  14.160  0.5629  0.7153 -2.0811
 6660SOL    HW231440   2.717   1.739  14.121 -0.0819  0.1585  1.1796
 6661SOL     OW31441   1.974   0.190   4.112  0.1915 -0.7128  0.7044
 6661SOL    HW131442   1.942   0.193   4.202 -1.3819 -3.5521  0.2317
 6661SOL    HW231443   2.067   0.177   4.128  0.5177 -2.1060 -2.2696
 6662SOL     OW31444   2.214   1.150   3.021 -0.0404  0.5487 -0.2731
 6662SOL    HW131445   2.173   1.166   3.106  1.1970 -0.1474  0.4556
 6662SOL    HW231446   2.170   1.218   2.970 -1.3798  1.2670  1.8411
 6663SOL     OW31447   1.999   4.274   1.327  0.5067 -0.1602 -0.8186
 6663SOL    HW131448   1.904   4.283   1.330  0.4925 -0.2323 -1.0980
 6663SOL    HW231449   2.022   4.347   1.270  3.3955 -2.7838 -3.0350
 6664SOL     OW31450   0.347   3.163   6.165  0.5701  0.1217 -0.4502
 6664SOL    HW131451   0.403   3.098   6.207  0.5181  1.0679  1.0983
 6664SOL    HW231452   0.317   3.110   6.092 -0.6440 -1.0238  0.8671
 6665SOL     OW31453   1.210   0.828   4.290 -0.3776  0.1768  0.3384
 6665SOL    HW131454   1.116   0.838   4.304 -0.4489  0.0377 -0.0393
 6665SOL    HW231455   1.240   0.918   4.280  2.1612 -0.4552  2.2011
 6666SOL     OW31456   2.388   1.688   7.742  0.4713  0.0321 -0.5615
 6666SOL    HW131457   2.385   1.601   7.780 -1.8275  0.6527  0.7048
 6666SOL    HW231458   2.452   1.679   7.671  1.6409  1.2347  0.3546
 6667SOL     OW31459   2.199   0.637   9.287  0.3105  0.6168  0.0449
 6667SOL    HW131460   2.162   0.624   9.374  0.5494  1.6479  0.2926
 6667SOL    HW231461   2.216   0.547   9.258  0.8848  0.8067 -0.2118
 6668SOL     OW31462   0.570   4.275  14.327 -0.0194 -0.3876  0.0260
 6668SOL    HW131463   0.556   4.234  14.242 -1.0022 -0.6104  0.2927
 6668SOL    HW231464   0.654   4.318  14.312 -0.6988  0.3044 -1.7449
 6669SOL     OW31465   4.151   4.707   9.371 -0.4509  0.4373 -0.0610
 6669SOL    HW131466   4.087   4.710   9.443  0.0973  1.6844  0.3634
 6669SOL    HW231467   4.176   0.077   9.371  1.8363 -0.1854  1.0076
 6670SOL     OW31468   1.353   0.884   4.549  0.0569 -0.0591  0.1515
 6670SOL    HW131469   1.442   0.910   4.527  0.4685 -1.4867  0.1251
 6670SOL    HW231470   1.297   0.960   4.534  1.0218  0.9424  1.6359
 6671SOL     OW31471   0.297   3.846   0.304  0.8473 -0.4605  0.1190
 6671SOL    HW131472   0.325   3.762   0.268 -2.5385 -2.4799  2.2469
 6671SOL    HW231473   0.223   3.871   0.247  1.7235  0.8554 -0.4453
 6672SOL     OW31474   1.548   2.357   1.164  0.0525 -0.1658 -0.0468
 6672SOL    HW131475   1.623   2.412   1.186  0.5989 -0.8588 -0.2069
 6672SOL    HW231476   1.553   2.295   1.236 -0.8084  0.5710  0.6554
 6673SOL     OW31477   0.787   1.496   4.078 -0.1336 -0.4060 -0.1798
 6673SOL    HW131478   0.809   1.565   4.140 -0.1998 -1.4706  1.0323
 6673SOL    HW231479   0.708   1.458   4.116 -0.3753  1.3317  1.0437
 6674SOL     OW31480   0.970   1.056   8.099  0.2120 -0.2234  0.7152
 6674SOL    HW131481   0.964   1.137   8.149 -1.5639  0.5366 -0.7464
 6674SOL    HW231482   1.017   1.005   8.165  1.4868  1.0798  0.8336
 6675SOL     OW31483   4.094   3.679   8.432  0.1981  0.4954 -0.4359
 6675SOL    HW131484   4.133   3.592   8.444 -1.7785 -0.2778  0.3907
 6675SOL    HW231485   4.086   3.678   8.336 -2.1101  2.2627 -0.2608
 6676SOL     OW31486   3.215   3.589  17.573  0.3202  0.3163 -0.1428
 6676SOL    HW131487   3.211   3.633  17.658 -0.8567  3.0046 -1.5812
 6676SOL    HW231488   3.223   3.497  17.596  2.9296  0.6360  0.1596
 6677SOL     OW31489   2.947   3.882   8.351 -0.1372  0.2885 -0.4764
 6677SOL    HW131490   2.941   3.975   8.374 -0.7894  0.2538 -0.4997
 6677SOL    HW231491   2.868   3.869   8.298 -0.4410 -0.9657  0.2925
 6678SOL     OW31492   0.044   2.668  11.007 -0.4636  0.1858  0.2803
 6678SOL    HW131493   0.100   2.665  11.085  1.7729  2.0211 -1.2420
 6678SOL    HW231494   0.101   2.712  10.943 -0.3136  0.4462  0.5906
 6679SOL     OW31495   3.738   0.444   4.548 -0.1419 -0.6168 -0.2991
 6679SOL    HW131496   3.723   0.385   4.622 -1.6442  0.0083 -0.1057
 6679SOL    HW231497   3.826   0.413   4.524 -0.1175 -1.7627  1.2930
 6680SOL     OW31498   2.083   4.545   8.402  0.5243 -0.2067 -0.3275
 6680SOL    HW131499   2.031   4.488   8.458 -0.3633  0.0472 -0.8937
 6680SOL    HW231500   2.066   4.632   8.439  1.1956 -0.5768  0.8428
 6681SOL     OW31501   3.385   2.309  10.995  0.3358  0.0943 -0.1469
 6681SOL    HW131502   3.305   2.271  11.030 -0.1095  0.0216 -1.2398
 6681SOL    HW231503   3.341   2.393  10.979 -0.4080 -0.4792 -1.0398
 6682SOL     OW31504   1.713   4.125   8.800  0.1426 -0.3728 -0.1822
 6682SOL    HW131505   1.772   4.180   8.749 -1.0709 -0.7376 -1.9523
 6682SOL    HW231506   1.663   4.088   8.728 -0.0051  1.7814 -1.1799
 6683SOL     OW31507   0.221   1.424  14.708 -0.5492 -0.2365 -0.5288
 6683SOL    HW131508   0.240   1.364  14.780 -0.0768  1.1785  0.5326
 6683SOL    HW231509   0.296   1.415  14.649  0.1962  2.8546 -0.0776
 6684SOL     OW31510   1.173   1.657  15.483  0.4471  0.3069  0.3475
 6684SOL    HW131511   1.263   1.686  15.473  0.9135 -0.8221  1.2884
 6684SOL    HW231512   1.198   1.584  15.540  1.6178  0.0396 -0.5124
 6685SOL     OW31513   2.817   0.389   4.454 -0.6889 -0.2972  0.1138
 6685SOL    HW131514   2.764   0.464   4.480 -0.9144 -0.6033  0.5562
 6685SOL    HW231515   2.876   0.386   4.529  0.5056 -2.7156 -0.9284
 6686SOL     OW31516   2.797   2.109  14.035  0.6507  0.2607  0.2260
 6686SOL    HW131517   2.863   2.179  14.033  1.6603 -0.6601  1.1660
 6686SOL    HW231518   2.829   2.053  14.106 -0.8717 -0.7950  0.0796
 6687SOL     OW31519   1.618   4.649   7.252  0.0407  0.0466 -0.4048
 6687SOL    HW131520   1.705   4.617   7.229  0.3270 -0.6886  1.6643
 6687SOL    HW231521   1.604   4.587   7.324 -2.4782  0.7324 -0.3082
 6688SOL     OW31522   4.124   0.892   0.781  0.2481  0.2171  0.5051
 6688SOL    HW131523   4.084   0.899   0.867 -0.4107 -2.5148  0.4154
 6688SOL    HW231524   4.158   0.803   0.784 -0.6359 -0.1215  0.2758
 6689SOL     OW31525   3.296   1.788  10.230 -0.1023  0.0992 -0.4252
 6689SOL    HW131526   3.292   1.879  10.258 -0.4651  0.2834 -1.0562
 6689SOL    HW231527   3.368   1.794  10.167  0.4332  1.1621  0.2815
 6690SOL     OW31528   3.449   2.818  11.790  0.3432  0.1282 -0.7226
 6690SOL    HW131529   3.446   2.760  11.866 -0.0756  1.8567  0.6042
 6690SOL    HW231530   3.408   2.901  11.817  0.7379  0.4674 -1.1749
 6691SOL     OW31531   3.165   3.846   3.063  0.8098  0.4093  0.3029
 6691SOL    HW131532   3.122   3.809   2.987 -0.1188  1.5503  0.2678
 6691SOL    HW231533   3.146   3.933   3.027  1.1891 -0.2324 -1.4103
 6692SOL     OW31534   2.052   1.428  14.819 -0.3925  0.0470 -0.9696
 6692SOL    HW131535   2.133   1.479  14.812  1.5152 -2.3445  3.0726
 6692SOL    HW231536   2.043   1.440  14.914 -2.0148 -0.5005 -1.0656
 6693SOL     OW31537   4.304   3.968   0.244 -0.3059  0.5374  0.1004
 6693SOL    HW131538   4.306   3.881   0.284  3.0838  0.0361 -1.1341
 6693SOL    HW231539   4.357   3.954   0.165  0.0053  4.1305 -0.3352
 6694SOL     OW31540   4.564   1.803   8.721  0.0400 -0.3007 -0.1927
 6694SOL    HW131541   4.568   1.708   8.718  1.1511 -0.3097  1.4075
 6694SOL    HW231542   4.479   1.833   8.687  0.2640  2.7217  1.9119
 6695SOL     OW31543   2.076   3.351  14.224 -0.3297 -0.3251 -0.1463
 6695SOL    HW131544   2.089   3.329  14.132 -0.8760 -1.2193  0.0012
 6695SOL    HW231545   1.991   3.309  14.232 -0.3694 -0.1739  0.2340
 6696SOL     OW31546   2.256   1.674   8.194 -0.6813 -0.0394 -1.2242
 6696SOL    HW131547   2.302   1.733   8.134 -1.5883  0.1484 -1.7362
 6696SOL    HW231548   2.220   1.607   8.136  1.7139 -1.6537 -0.8648
 6697SOL     OW31549   0.972   2.847   4.071 -0.4034  0.7250  0.7303
 6697SOL    HW131550   0.934   2.916   4.125 -0.6231 -0.8643  2.6232
 6697SOL    HW231551   1.061   2.874   4.051 -0.2989  0.1299  0.4016
 6698SOL     OW31552   1.960   0.765   5.092  0.1605 -0.1023 -0.1499
 6698SOL    HW131553   1.874   0.727   5.112 -0.0270 -0.8114 -2.3174
 6698SOL    HW231554   1.944   0.791   5.001 -2.4346  0.4312  0.4438
 6699SOL     OW31555   3.583   0.225   9.115 -0.0280 -0.5590  0.4671
 6699SOL    HW131556   3.597   0.305   9.065  2.9048 -1.1365  0.3556
 6699SOL    HW231557   3.488   0.211   9.113 -0.2495  0.8032  1.3541
 6700SOL     OW31558   3.823   3.018   3.039  0.3771 -0.3209 -0.2697
 6700SOL    HW131559   3.737   3.036   3.077  0.1069 -0.0249 -1.0162
 6700SOL    HW231560   3.885   3.020   3.112  2.9004 -1.7230 -2.3632
 6701SOL     OW31561   0.463   3.153  10.282 -0.1286 -0.3939  0.2888
 6701SOL    HW131562   0.480   3.224  10.220 -0.3098  0.1969  0.9030
 6701SOL    HW231563   0.537   3.095  10.262  0.0608  0.4213 -1.3755
 6702SOL     OW31564   3.215   3.778   5.250  0.4631  0.1449 -0.4739
 6702SOL    HW131565   3.139   3.836   5.240  0.4839  0.4672  1.1870
 6702SOL    HW231566   3.273   3.836   5.299 -1.5376  2.5356 -0.8632
 6703SOL     OW31567   3.259   2.586   7.367 -0.5748 -0.9228  0.4461
 6703SOL    HW131568   3.323   2.523   7.335  1.0891  0.5347  0.8837
 6703SOL    HW231569   3.259   2.641   7.289  1.4948 -0.6173  0.6401
 6704SOL     OW31570   1.152   3.786   5.614 -0.5282 -0.3794  0.2403
 6704SOL    HW131571   1.144   3.721   5.544 -1.5323  0.0861 -0.0776
 6704SOL    HW231572   1.136   3.867   5.566  2.1561  0.0612  0.0666
 6705SOL     OW31573   4.118   3.584   4.721  0.5931 -0.1075 -0.5033
 6705SOL    HW131574   4.191   3.591   4.659  2.5266 -3.1213  1.4293
 6705SOL    HW231575   4.118   3.669   4.765  0.6562 -1.4372  2.0530
 6706SOL     OW31576   1.692   0.262   8.348  0.3359 -0.2578 -0.2269
 6706SOL    HW131577   1.752   0.335   8.362  0.3092  0.0754 -1.9299
 6706SOL    HW231578   1.663   0.273   8.258 -2.2095  2.6440  0.9644
 6707SOL     OW31579   3.634   1.331   6.492  0.5283 -0.4628  0.8119
 6707SOL    HW131580   3.587   1.355   6.412  0.7217 -2.0822  0.1938
 6707SOL    HW231581   3.603   1.397   6.554  1.7338 -0.0676  0.9945
 6708SOL     OW31582   3.843   2.403   7.485  0.2798  0.3354  0.2228
 6708SOL    HW131583   3.851   2.338   7.416  0.0020 -1.3201  1.7286
 6708SOL    HW231584   3.926   2.451   7.484  0.6334 -0.1985  2.0277
 6709SOL     OW31585   1.781   1.013   7.519  0.1929 -0.1675  0.3447
 6709SOL    HW131586   1.789   1.041   7.610  1.7337  1.8029 -0.3927
 6709SOL    HW231587   1.863   1.049   7.486 -1.1552  0.9943 -1.7657
 6710SOL     OW31588   1.610   3.606   5.344  0.5152 -0.0990  0.1373
 6710SOL    HW131589   1.545   3.659   5.298  0.0068 -1.2321 -0.4507
 6710SOL    HW231590   1.616   3.526   5.291 -0.1857  0.4682 -0.7888
 6711SOL     OW31591   0.318   1.846  10.004  0.8083 -0.3375 -0.0832
 6711SOL    HW131592   0.413   1.837  10.012  0.7284 -1.4250 -0.4103
 6711SOL    HW231593   0.300   1.803   9.921 -1.1146  0.0590  0.1123
 6712SOL     OW31594   2.512   1.305   0.170 -0.0677  0.2096 -0.4266
 6712SOL    HW131595   2.584   1.258   0.211 -0.8220  0.2449  0.9598
 6712SOL    HW231596   2.437   1.277   0.223 -1.4334 -0.7313 -2.8602
 6713SOL     OW31597   3.920   3.501  17.388 -0.0647  0.1572 -0.8458
 6713SOL    HW131598   3.905   3.409  17.411 -1.4956  0.9100  1.1426
 6713SOL    HW231599   3.832   3.528  17.363 -0.9221  0.8153  2.9634
 6714SOL     OW31600   2.659   4.554   4.647  0.0224 -0.6798 -0.5915
 6714SOL    HW131601   2.584   4.556   4.587 -0.3565 -2.8928 -0.1838
 6714SOL    HW231602   2.718   4.628   4.632 -0.9792  0.5352  1.5626
 6715SOL     OW31603   1.737   4.204   7.707 -0.7676 -1.1851  0.1243
 6715SOL    HW131604   1.773   4.138   7.648 -0.3295 -0.2003 -0.7144
 6715SOL    HW231605   1.668   4.159   7.756 -2.0258 -2.1262 -2.5488
 6716SOL     OW31606   0.747   4.516   4.308  0.1000  0.0870  0.0467
 6716SOL    HW131607   0.659   4.493   4.277 -0.7178  0.2581  2.2655
 6716SOL    HW231608   0.805   4.455   4.263  1.2071  0.8981  0.3784
 6717SOL     OW31609   4.368   4.419   5.180  0.4136  0.7741 -0.4312
 6717SOL    HW131610   4.423   4.381   5.249 -0.4433  0.2929 -0.0174
 6717SOL    HW231611   4.315   4.339   5.178  0.9617  0.4230 -1.0426
 6718SOL     OW31612   3.785   4.397  14.418  0.3684  0.1884  0.5576
 6718SOL    HW131613   3.848   4.463  14.446  2.4277 -1.4028 -0.3404
 6718SOL    HW231614   3.846   4.324  14.424 -0.4690 -0.4859  0.8731
 6719SOL     OW31615   1.276   0.638   7.696 -0.8882  0.8160 -0.2187
 6719SOL    HW131616   1.212   0.664   7.629 -1.1312  0.5875 -0.0769
 6719SOL    HW231617   1.313   0.721   7.725  0.8528  0.1351 -0.5409
 6720SOL     OW31618   3.848   3.226   6.302  0.0664 -0.0617 -0.1409
 6720SOL    HW131619   3.840   3.161   6.372  1.4181 -0.5533 -0.4427
 6720SOL    HW231620   3.929   3.200   6.257 -1.0500 -0.4932 -1.9051
 6721SOL     OW31621   3.618   2.470   1.873 -0.0606 -0.2225 -0.0037
 6721SOL    HW131622   3.674   2.527   1.926  2.7117 -2.7598 -0.2006
 6721SOL    HW231623   3.643   2.382   1.901 -2.3050 -1.0011 -0.4152
 6722SOL     OW31624   0.007   4.290   6.884  0.3593 -0.6259  0.5234
 6722SOL    HW131625   4.662   4.307   6.819  1.3497 -2.9469 -1.1048
 6722SOL    HW231626   0.005   4.377   6.926  1.4739 -0.0671 -0.5629
 6723SOL     OW31627   1.361   2.758   8.414  0.0425 -0.2101 -0.5246
 6723SOL    HW131628   1.403   2.790   8.494  0.9467 -1.0589 -0.6638
 6723SOL    HW231629   1.386   2.827   8.352 -0.3957 -0.4526 -0.9689
 6724SOL     OW31630   2.477   4.569   7.063  0.5749  0.3137 -0.4086
 6724SOL    HW131631   2.503   4.534   6.978 -1.7423 -1.4999 -0.3556
 6724SOL    HW231632   2.548   4.529   7.114 -0.0588  0.6705  0.7412
 6725SOL     OW31633   0.042   3.800   5.599  0.8660  0.2725 -0.1634
 6725SOL    HW131634   0.007   3.727   5.548  0.1200  0.1238  0.5630
 6725SOL    HW231635   0.109   3.762   5.655 -1.4763  0.5142  2.7877
 6726SOL     OW31636   0.635   4.298   7.904 -0.1602  0.2835 -0.1639
 6726SOL    HW131637   0.551   4.254   7.907 -1.6739  3.1953 -0.0332
 6726SOL    HW231638   0.681   4.255   7.832 -1.7651  2.9464 -2.7636
 6727SOL     OW31639   0.130   2.343   5.187  0.2482  0.3611 -0.4522
 6727SOL    HW131640   0.181   2.412   5.145 -0.5796  0.9856 -0.4218
 6727SOL    HW231641   0.124   2.287   5.110 -2.0713 -1.4628  1.0366
 6728SOL     OW31642   2.648   4.531  17.459  0.1536  0.5583  0.3214
 6728SOL    HW131643   2.740   4.555  17.444 -0.3750  2.8607  0.8076
 6728SOL    HW231644   2.641   4.436  17.448  0.2563  0.6991 -1.0182
 6729SOL     OW31645   3.098   2.400   7.496 -0.6970  0.2568 -0.6925
 6729SOL    HW131646   3.016   2.434   7.532 -0.1982  2.5064 -1.6628
 6729SOL    HW231647   3.132   2.477   7.449  1.4531 -1.9007 -2.7045
 6730SOL     OW31648   2.352   3.980   8.572  0.5478 -0.1516  0.0031
 6730SOL    HW131649   2.269   3.995   8.528 -0.7601  0.0765  2.5770
 6730SOL    HW231650   2.405   4.050   8.533 -1.1753  2.4192  2.3071
 6731SOL     OW31651   0.110   0.542   7.107 -0.4648 -0.0335  0.0158
 6731SOL    HW131652   0.042   0.481   7.078 -0.0892 -0.1460 -0.6139
 6731SOL    HW231653   0.047   0.590   7.161 -0.3158 -1.4192  1.4173
 6732SOL     OW31654   0.432   1.021   3.346  0.6202  0.6238  0.0109
 6732SOL    HW131655   0.371   1.095   3.351 -0.3194 -0.2018  0.7780
 6732SOL    HW231656   0.463   1.036   3.257 -1.5750 -1.0904 -1.0474
 6733SOL     OW31657   2.322   0.050   8.454 -0.3128  0.2816  0.1422
 6733SOL    HW131658   2.298   0.060   8.361 -0.2172 -2.0110 -0.1216
 6733SOL    HW231659   2.403   0.006   8.432 -0.9191 -1.0677  0.6333
 6734SOL     OW31660   4.552   2.389   2.796 -0.0926  0.4902 -0.5699
 6734SOL    HW131661   4.500   2.361   2.872 -0.5713  0.0376 -1.0635
 6734SOL    HW231662   4.628   2.424   2.843 -0.0794  0.6434 -0.7029
 6735SOL     OW31663   0.127   2.142   7.053 -0.0464 -0.3363 -0.5601
 6735SOL    HW131664   0.092   2.135   7.141 -0.5675 -1.2928 -0.8488
 6735SOL    HW231665   0.052   2.174   7.002 -0.8857 -0.6160  0.5073
 6736SOL     OW31666   3.359   3.768  10.786  0.0538 -0.1870  0.3949
 6736SOL    HW131667   3.440   3.816  10.769 -1.5067  2.1150 -0.4248
 6736SOL    HW231668   3.373   3.721  10.869 -2.7721 -2.4595 -0.4307
 6737SOL     OW31669   4.321   4.237  11.548  0.4670  0.4474  0.3826
 6737SOL    HW131670   4.319   4.201  11.637  1.8019  1.9506  1.0195
 6737SOL    HW231671   4.254   4.180  11.509  0.9237  1.3114 -1.6361
 6738SOL     OW31672   1.803   2.345   8.774 -0.1169 -0.2251  0.1184
 6738SOL    HW131673   1.814   2.250   8.783 -0.3392 -0.3458 -0.8040
 6738SOL    HW231674   1.886   2.370   8.814  0.9475 -0.0736 -2.1498
 6739SOL     OW31675   1.829   0.680  14.407  0.0825 -0.1953 -0.1020
 6739SOL    HW131676   1.815   0.648  14.318 -1.3233  0.9006 -0.2748
 6739SOL    HW231677   1.749   0.729  14.428  0.3982 -0.2463  1.2119
 6740SOL     OW31678   0.082   4.469  11.218  0.4101 -0.2097  0.4024
 6740SOL    HW131679   0.065   4.408  11.290  1.2745  0.2491  0.9998
 6740SOL    HW231680   0.000   4.474  11.169  0.4441  1.0087  0.4674
 6741SOL     OW31681   1.697   0.204   7.266  0.2924  0.2079 -0.6794
 6741SOL    HW131682   1.673   0.113   7.282  1.1793  0.1617  0.3746
 6741SOL    HW231683   1.677   0.204   7.172  0.7363  0.0672 -0.7725
 6742SOL     OW31684   2.459   1.409   3.968 -0.4526  0.6075  0.1103
 6742SOL    HW131685   2.535   1.459   3.999 -0.4859  1.8684 -1.8006
 6742SOL    HW231686   2.456   1.337   4.031  0.2355 -0.5127 -1.1106
 6743SOL     OW31687   0.058   3.851   2.250 -0.4078 -0.1771  0.2250
 6743SOL    HW131688   4.690   3.842   2.217 -0.5394  0.5885  0.3718
 6743SOL    HW231689   0.049   3.933   2.298 -1.6802 -0.4020  0.3849
 6744SOL     OW31690   2.946   0.937   4.032  0.3475  0.2925  0.3155
 6744SOL    HW131691   2.853   0.914   4.028  1.2222 -2.0797 -5.3812
 6744SOL    HW231692   2.938   1.023   4.075 -0.0399  0.8859 -0.9366
 6745SOL     OW31693   2.747   3.419   9.127 -0.3045 -0.3666 -0.4234
 6745SOL    HW131694   2.697   3.386   9.052 -0.1403 -0.0257 -0.6772
 6745SOL    HW231695   2.744   3.511   9.104 -3.5356 -0.4489 -0.3611
 6746SOL     OW31696   1.782   0.004   9.034 -0.3180 -0.1159  0.5629
 6746SOL    HW131697   1.809   4.679   8.955 -0.0211 -0.8860  1.1207
 6746SOL    HW231698   1.708   4.671   9.059 -0.4708 -1.0680 -1.9082
 6747SOL     OW31699   3.859   3.802  14.080  0.3689 -0.0457 -0.0624
 6747SOL    HW131700   3.930   3.772  14.136 -1.1128 -1.3259  1.1211
 6747SOL    HW231701   3.793   3.739  14.109  0.3551  0.4925  1.0861
 6748SOL     OW31702   3.571   2.416   4.312 -0.2444  0.1160  0.4145
 6748SOL    HW131703   3.482   2.381   4.315  0.3125 -1.5980 -2.2950
 6748SOL    HW231704   3.623   2.352   4.263 -2.3833 -0.3474 -1.2496
 6749SOL     OW31705   2.844   4.094   2.371 -0.1972  0.3132 -0.1318
 6749SOL    HW131706   2.832   4.181   2.335 -0.5367  0.0937 -0.5380
 6749SOL    HW231707   2.786   4.042   2.316 -1.7572  0.4093  1.4130
 6750SOL     OW31708   2.632   4.557  11.952  0.6951 -0.4089 -0.3080
 6750SOL    HW131709   2.661   4.514  12.032 -0.6320  1.0344  0.9432
 6750SOL    HW231710   2.716   4.582  11.912  0.6246 -2.1256 -1.5460
 6751SOL     OW31711   1.424   3.234  14.854 -0.5196  0.1844  0.0129
 6751SOL    HW131712   1.414   3.302  14.921 -1.5978  2.3470 -2.3397
 6751SOL    HW231713   1.457   3.289  14.783  4.2458 -1.4402  1.0419
 6752SOL     OW31714   4.063   2.155   0.852 -0.3059 -0.1810  0.4702
 6752SOL    HW131715   3.969   2.153   0.839 -0.1617 -2.3945 -0.2719
 6752SOL    HW231716   4.075   2.205   0.933  1.3674 -2.4019  1.6218
 6753SOL     OW31717   2.995   4.721   2.246 -0.4727 -0.0762  0.5214
 6753SOL    HW131718   3.081   4.692   2.276 -0.7682 -1.3931  0.0571
 6753SOL    HW231719   3.026   0.083   2.211 -0.2499 -0.3830 -0.0227
 6754SOL     OW31720   1.683   0.283   9.046  0.0505 -0.0131 -0.2527
 6754SOL    HW131721   1.735   0.203   9.056 -0.9632 -0.8149 -1.5122
 6754SOL    HW231722   1.638   0.264   8.964  0.7305 -1.2904 -0.3366
 6755SOL     OW31723   0.856   2.003   0.509 -0.4070  0.7159 -0.2159
 6755SOL    HW131724   0.934   1.963   0.470  0.6439  1.6131  0.9725
 6755SOL    HW231725   0.889   2.043   0.589  0.0662  2.1549 -1.1526
 6756SOL     OW31726   4.209   3.650   9.172 -0.4081 -0.0762 -0.8005
 6756SOL    HW131727   4.126   3.642   9.125 -0.2730  0.7792 -1.1963
 6756SOL    HW231728   4.185   3.593   9.244 -0.9660 -1.1642 -1.8385
 6757SOL     OW31729   0.431   4.151   5.732 -0.4551  0.2052 -0.8228
 6757SOL    HW131730   0.468   4.080   5.786 -2.2298 -0.8990 -1.0558
 6757SOL    HW231731   0.362   4.105   5.685 -1.7475  0.6912  0.5822
 6758SOL     OW31732   4.055   2.276   3.105 -0.7237 -0.1914 -0.2712
 6758SOL    HW131733   4.034   2.368   3.120  2.2235  1.1936 -4.6701
 6758SOL    HW231734   4.144   2.268   3.138 -0.3017  0.2390 -1.3143
 6759SOL     OW31735   3.851   0.101  10.726 -0.3262 -1.0788 -0.3138
 6759SOL    HW131736   3.822   0.188  10.751 -3.2488 -2.3305  0.6334
 6759SOL    HW231737   3.800   0.046  10.785 -1.0449  1.1585  1.1463
 6760SOL     OW31738   3.650   1.057   4.009 -0.4090  0.2978 -0.0559
 6760SOL    HW131739   3.741   1.088   4.006 -0.6988  1.1561  0.3497
 6760SOL    HW231740   3.631   1.044   3.916  0.5220  1.7542 -0.4629
 6761SOL     OW31741   0.733   2.895  16.560 -0.2553  0.1309  0.6796
 6761SOL    HW131742   0.826   2.910  16.573  0.3147  0.1529 -3.4927
 6761SOL    HW231743   0.698   2.981  16.539  0.5051  0.5457  1.0992
 6762SOL     OW31744   4.170   2.676   2.513  0.1660 -0.1444  0.1349
 6762SOL    HW131745   4.221   2.624   2.574 -0.6747  1.8663  2.5615
 6762SOL    HW231746   4.213   2.655   2.430 -0.6185 -2.2578  0.2746
 6763SOL     OW31747   2.402   4.113  15.106 -0.2581 -0.1038 -0.1140
 6763SOL    HW131748   2.338   4.043  15.113 -0.4792  0.2092  0.9587
 6763SOL    HW231749   2.347   4.180  15.148  0.4578  1.6405 -1.9626
 6764SOL     OW31750   0.728   1.581   8.387 -0.2874  0.4278 -0.2023
 6764SOL    HW131751   0.796   1.581   8.455 -3.5517 -0.8334  3.0726
 6764SOL    HW231752   0.713   1.489   8.367 -1.2425  0.6082 -0.3172
 6765SOL     OW31753   2.169   2.249  16.146 -0.2114 -0.6925 -0.0247
 6765SOL    HW131754   2.089   2.278  16.190 -0.9172 -0.9157 -1.1491
 6765SOL    HW231755   2.227   2.221  16.217 -0.8439 -2.1465 -0.0925
 6766SOL     OW31756   0.859   3.450   1.889 -0.0171  0.1639  0.1377
 6766SOL    HW131757   0.769   3.426   1.910 -0.6534  1.2463 -1.4348
 6766SOL    HW231758   0.889   3.398   1.815  2.1167  0.8077  0.5336
 6767SOL     OW31759   1.272   1.886   5.269 -0.4197 -0.0202 -0.2665
 6767SOL    HW131760   1.295   1.890   5.176  1.1346  0.1759  0.1270
 6767SOL    HW231761   1.215   1.810   5.280 -0.1071 -0.3907 -1.2258
 6768SOL     OW31762   0.046   3.261   1.947  0.1391 -0.3310 -0.3561
 6768SOL    HW131763   0.017   3.299   2.030  2.4189 -1.3028  0.9083
 6768SOL    HW231764   0.000   3.177   1.949 -0.5833  0.1116  2.3420
 6769SOL     OW31765   3.478   4.131   2.376 -0.9091  0.0109  0.3850
 6769SOL    HW131766   3.389   4.106   2.401 -2.1643  3.3176 -0.6927
 6769SOL    HW231767   3.475   4.094   2.288 -0.7885  0.7161  0.0836
 6770SOL     OW31768   0.703   1.787   1.098  0.7496  0.2751 -0.1430
 6770SOL    HW131769   0.784   1.820   1.138  1.1683 -1.6882  0.6208
 6770SOL    HW231770   0.678   1.722   1.164  1.7920  0.6985  0.6746
 6771SOL     OW31771   0.066   0.453  16.371  0.0942  0.0202 -0.1115
 6771SOL    HW131772   0.125   0.464  16.445  1.2556 -0.2414 -0.9941
 6771SOL    HW231773   0.047   0.544  16.348 -0.4539  0.4063  1.9111
 6772SOL     OW31774   0.383   0.343   4.491  0.1671  0.5459  0.2714
 6772SOL    HW131775   0.347   0.256   4.474 -0.6309  1.3303 -2.1014
 6772SOL    HW231776   0.405   0.334   4.583 -1.8525 -0.0111  0.6836
 6773SOL     OW31777   1.277   1.557   3.457 -0.8330  0.0954 -0.6049
 6773SOL    HW131778   1.315   1.636   3.419  0.5737  0.5267  1.6476
 6773SOL    HW231779   1.237   1.584   3.539  0.8587 -0.6346  0.4719
 6774SOL     OW31780   4.408   0.936   7.686  0.3282 -0.2471  0.3298
 6774SOL    HW131781   4.456   1.018   7.699  0.7422 -0.6464  1.2778
 6774SOL    HW231782   4.324   0.965   7.649  0.5156 -1.7849 -1.2973
 6775SOL     OW31783   2.419   3.034   9.310  0.5989  0.0750  0.2578
 6775SOL    HW131784   2.380   3.076   9.386 -1.1339  2.0475 -1.7257
 6775SOL    HW231785   2.405   3.107   9.250 -0.0818  1.6358  2.3262
 6776SOL     OW31786   3.604   1.548  12.998  0.5323  0.0012 -0.1459
 6776SOL    HW131787   3.616   1.498  13.078 -1.1073 -1.4867 -0.8427
 6776SOL    HW231788   3.628   1.483  12.932  0.7908  1.2011 -1.2374
 6777SOL     OW31789   3.531   0.230  16.863  0.2806 -0.1578  0.9400
 6777SOL    HW131790   3.575   0.266  16.785  1.3873  1.2056  2.1962
 6777SOL    HW231791   3.562   0.298  16.923  0.6858 -0.5783  1.2057
 6778SOL     OW31792   0.156   1.606   8.325 -0.5724 -0.1600  0.1983
 6778SOL    HW131793   0.127   1.516   8.339 -1.2814 -0.2958 -2.0194
 6778SOL    HW231794   0.174   1.628   8.416 -1.8305 -1.1550  0.6658
 6779SOL     OW31795   3.668   3.103   2.429  0.3314 -0.4971  0.1505
 6779SOL    HW131796   3.657   3.187   2.385  1.4331 -0.3864  0.0973
 6779SOL    HW231797   3.715   3.126   2.508 -0.5838 -0.7689  0.7761
 6780SOL     OW31798   2.110   3.956   5.214  0.1500 -0.5501  0.0986
 6780SOL    HW131799   2.106   4.050   5.227  0.2048 -0.9131  2.7705
 6780SOL    HW231800   2.024   3.926   5.186 -0.7877 -0.0405  2.4536
 6781SOL     OW31801   0.838   1.903   4.575  0.2005 -0.9241 -0.2599
 6781SOL    HW131802   0.892   1.982   4.581 -1.6934  0.4302 -1.0393
 6781SOL    HW231803   0.910   1.841   4.569  2.8393  2.2860 -2.2643
 6782SOL     OW31804   2.780   0.906  10.278  0.2724  0.0516  0.2769
 6782SOL    HW131805   2.726   0.891  10.200 -0.0660 -0.2311  0.5677
 6782SOL    HW231806   2.773   0.823  10.324  0.4388 -0.2795 -0.2913
 6783SOL     OW31807   3.476   3.729   9.987 -0.4399 -0.1833 -0.2085
 6783SOL    HW131808   3.439   3.777   9.912 -0.0127  2.0036  0.9778
 6783SOL    HW231809   3.465   3.636   9.967  0.6691 -0.3562 -0.0272
 6784SOL     OW31810   3.339   3.876  11.910  0.2432  0.1226  0.2594
 6784SOL    HW131811   3.297   3.959  11.930 -0.7451  0.1092 -1.7672
 6784SOL    HW231812   3.311   3.820  11.982 -0.6794 -1.3136 -1.1841
 6785SOL     OW31813   3.500   2.505  15.909 -0.5077 -0.2325 -0.1145
 6785SOL    HW131814   3.558   2.521  15.834  0.4377 -0.2935  0.6065
 6785SOL    HW231815   3.556   2.472  15.979 -0.0732 -1.0069 -0.8264
 6786SOL     OW31816   3.276   1.064   2.644 -0.8186  0.5168 -0.1316
 6786SOL    HW131817   3.354   1.011   2.628 -1.4758 -0.8055  1.0095
 6786SOL    HW231818   3.238   1.064   2.556 -0.5246  1.5055 -0.2561
 6787SOL     OW31819   2.857   2.421  10.135 -0.1184  1.0103 -0.5292
 6787SOL    HW131820   2.793   2.482  10.100  1.2113  1.2791 -2.4927
 6787SOL    HW231821   2.897   2.478  10.202 -1.4222  1.1597  0.1157
 6788SOL     OW31822   1.606   2.186   8.331 -0.7160  0.5428 -0.6503
 6788SOL    HW131823   1.583   2.278   8.320 -0.9628  0.6409  0.6763
 6788SOL    HW231824   1.700   2.186   8.315 -0.4455  0.3220  0.9486
 6789SOL     OW31825   3.161   1.503   3.783 -0.0676 -0.0690 -0.3768
 6789SOL    HW131826   3.108   1.444   3.730 -1.9090  0.5155  0.8319
 6789SOL    HW231827   3.106   1.582   3.787 -0.0148  0.0056 -1.1413
 6790SOL     OW31828   3.077   4.159  13.221 -0.5925  0.6730 -0.4961
 6790SOL    HW131829   3.027   4.177  13.301  0.8085  1.8896  0.0983
 6790SOL    HW231830   3.143   4.228  13.218 -0.9189  1.0350  0.5482
 6791SOL     OW31831   2.707   2.735   2.861  0.1977  0.2558  0.3490
 6791SOL    HW131832   2.648   2.808   2.844  0.5173 -0.1440 -2.4425
 6791SOL    HW231833   2.781   2.785   2.896 -1.7591  2.1929  1.7026
 6792SOL     OW31834   4.259   4.115  13.209 -0.7817 -0.5118  0.2080
 6792SOL    HW131835   4.211   4.106  13.127 -0.0046  1.6231 -0.5047
 6792SOL    HW231836   4.191   4.165  13.254  1.5641  1.0721  2.0512
 6793SOL     OW31837   3.847   4.458   6.317  0.1302  0.4891  0.7795
 6793SOL    HW131838   3.940   4.444   6.299  0.1158 -1.4340  2.1820
 6793SOL    HW231839   3.840   4.533   6.257 -1.6095 -0.0624  0.3173
 6794SOL     OW31840   3.901   0.868   9.608  0.0717 -0.2236  0.2802
 6794SOL    HW131841   3.849   0.811   9.551  0.2937 -1.4470  1.2748
 6794SOL    HW231842   3.960   0.913   9.549 -0.4085  2.1360  1.6044
 6795SOL     OW31843   0.093   0.921   7.418 -0.4083 -0.0614 -0.1419
 6795SOL    HW131844   4.722   0.941   7.410 -1.1266 -2.9363  1.1091
 6795SOL    HW231845   0.118   0.958   7.503  0.9960  0.0237 -0.6055
 6796SOL     OW31846   2.106   0.098   2.334 -0.0661 -0.0186  0.3412
 6796SOL    HW131847   2.117   0.006   2.361  5.9931  0.0472 -1.9615
 6796SOL    HW231848   2.088   0.081   2.242  0.8648 -2.1219  0.5416
 6797SOL     OW31849   2.239   3.696  14.696  0.2094 -0.1648  0.0820
 6797SOL    HW131850   2.250   3.706  14.791 -0.0963  3.1972 -0.2512
 6797SOL    HW231851   2.253   3.601  14.689 -0.0044 -0.2745  1.0682
 6798SOL     OW31852   4.639   4.004   0.243 -0.2092 -0.4618 -0.4446
 6798SOL    HW131853   4.623   3.956   0.323  2.4062  1.3475  1.1684
 6798SOL    HW231854   4.574   4.074   0.251  0.8704  0.4832  0.1211
 6799SOL     OW31855   0.764   1.804   0.030 -0.9172  0.3167  0.2366
 6799SOL    HW131856   0.794   1.820  17.632  2.8281  1.7887  1.7815
 6799SOL    HW231857   0.685   1.858   0.033  0.2870  2.0418  0.7789
 6800SOL     OW31858   1.181   3.139   3.473  0.2128  0.0300  0.7353
 6800SOL    HW131859   1.134   3.093   3.404 -1.2289  1.5775  0.6816
 6800SOL    HW231860   1.124   3.119   3.547 -0.6619  1.2656  0.3916
 6801SOL     OW31861   2.780   3.231   4.129 -0.2996  0.6383 -0.4518
 6801SOL    HW131862   2.749   3.297   4.191  2.0968 -0.7154  2.2248
 6801SOL    HW231863   2.704   3.209   4.075 -0.5243 -0.9157  0.4650
 6802SOL     OW31864   3.204   0.046   5.479  0.3078  0.3749  0.2944
 6802SOL    HW131865   3.152   4.688   5.482 -1.7291  1.6615 -0.8605
 6802SOL    HW231866   3.137   0.113   5.495  1.8859  1.7244  1.2395
 6803SOL     OW31867   2.521   2.931  17.548  0.0880  0.2992  0.3923
 6803SOL    HW131868   2.524   2.934  17.452 -0.5396  1.5561  0.4099
 6803SOL    HW231869   2.473   2.849  17.555 -0.9516  0.9512  0.9770
 6804SOL     OW31870   3.468   3.544   6.077 -0.0632 -0.3455 -0.6180
 6804SOL    HW131871   3.553   3.537   6.032 -0.2609 -3.8762 -0.4246
 6804SOL    HW231872   3.466   3.640   6.084  0.7994 -0.3966  0.3131
 6805SOL     OW31873   1.562   0.174  13.666 -0.8510 -0.1378  0.2005
 6805SOL    HW131874   1.607   0.097  13.702 -2.1824 -0.7073  0.6171
 6805SOL    HW231875   1.471   0.149  13.655 -0.5384 -1.6424  1.0495
 6806SOL     OW31876   2.351   3.992   4.848  0.2786 -0.0643  0.1810
 6806SOL    HW131877   2.396   3.978   4.931 -0.4061 -2.0462  0.2313
 6806SOL    HW231878   2.357   4.087   4.844  2.2136 -0.2455 -1.2745
 6807SOL     OW31879   1.032   4.607   9.614  0.4274  0.3776 -0.6671
 6807SOL    HW131880   1.125   4.598   9.630 -0.1015 -0.4456  1.8842
 6807SOL    HW231881   1.001   4.537   9.557 -0.4271 -0.5238  0.8914
 6808SOL     OW31882   1.691   4.155   3.471 -0.5641 -0.1058  0.3021
 6808SOL    HW131883   1.685   4.060   3.475 -0.8720 -0.0846  0.4085
 6808SOL    HW231884   1.608   4.169   3.518  0.1246 -2.1585  2.1611
 6809SOL     OW31885   1.798   3.787   3.793 -0.1031  0.0594  0.0390
 6809SOL    HW131886   1.835   3.720   3.735  1.0269  2.1442 -1.6348
 6809SOL    HW231887   1.724   3.738   3.829  0.6974 -0.3591  1.1225
 6810SOL     OW31888   2.796   1.321  15.092 -0.3123 -0.0303 -0.2647
 6810SOL    HW131889   2.839   1.236  15.081  1.5289  1.0381 -1.3668
 6810SOL    HW231890   2.820   1.346  15.182 -1.8048 -0.0217  0.1208
 6811SOL     OW31891   4.351   3.101   3.650  0.4071  0.2670  0.3575
 6811SOL    HW131892   4.276   3.074   3.597 -1.5671  1.6358  2.4421
 6811SOL    HW231893   4.318   3.190   3.655 -3.6847 -1.1490 -0.8782
 6812SOL     OW31894   2.258   4.511   4.778  0.1043  0.0910  0.3783
 6812SOL    HW131895   2.172   4.469   4.773 -0.6073  1.4242  1.2697
 6812SOL    HW231896   2.302   4.484   4.698 -0.1711  0.8285 -0.0224
 6813SOL     OW31897   3.833   3.724   7.366  0.2450  0.1984 -0.2058
 6813SOL    HW131898   3.864   3.711   7.276  0.7564  0.5820 -0.0902
 6813SOL    HW231899   3.852   3.641   7.409  0.7078  0.1831 -0.4331
 6814SOL     OW31900   2.788   2.701   4.074  0.1511 -0.1552  0.2264
 6814SOL    HW131901   2.700   2.737   4.081 -0.0283 -0.7650  1.0870
 6814SOL    HW231902   2.842   2.778   4.057  0.2297 -0.0700  0.8860
 6815SOL     OW31903   3.221   3.035   7.279 -0.0175  0.3851 -0.1321
 6815SOL    HW131904   3.142   3.037   7.225  0.1561 -1.3244 -0.4683
 6815SOL    HW231905   3.281   3.086   7.224 -0.8165  2.4117  0.8665
 6816SOL     OW31906   3.400   0.612   7.961 -0.0357  0.3971 -0.3508
 6816SOL    HW131907   3.420   0.574   8.046 -1.0932  0.4522 -0.0781
 6816SOL    HW231908   3.486   0.629   7.923  0.3379  2.2121  1.3503
 6817SOL     OW31909   1.286   0.693   8.838 -0.4821  0.4743 -0.1682
 6817SOL    HW131910   1.310   0.769   8.890 -1.5959 -0.9551  2.4089
 6817SOL    HW231911   1.255   0.627   8.900 -0.2524 -0.3311 -0.9059
 6818SOL     OW31912   3.183   2.214   3.388  0.3186  0.0114  0.6178
 6818SOL    HW131913   3.249   2.266   3.341 -1.2782  0.9472 -0.6046
 6818SOL    HW231914   3.163   2.148   3.322  1.6476  1.5081 -1.3156
 6819SOL     OW31915   1.042   1.217  12.440 -0.0762 -0.8297  0.3710
 6819SOL    HW131916   1.023   1.287  12.377  2.1129 -2.3638 -1.9969
 6819SOL    HW231917   1.076   1.276  12.507  1.6954 -0.5783 -0.7487
 6820SOL     OW31918   1.498   3.155  13.771 -0.2144  0.1809 -0.4561
 6820SOL    HW131919   1.525   3.226  13.830 -4.5002  1.4546  0.0034
 6820SOL    HW231920   1.458   3.096  13.835 -0.5757 -0.7234 -1.5217
 6821SOL     OW31921   4.095   4.106   1.661 -0.1583  0.5550  0.6462
 6821SOL    HW131922   4.025   4.134   1.721 -0.4391  0.2754  0.4494
 6821SOL    HW231923   4.062   4.144   1.580 -1.4278 -1.4996  0.1921
 6822SOL     OW31924   4.122   1.148  10.136  0.4713  0.1938 -0.3000
 6822SOL    HW131925   4.184   1.095  10.186  1.7503  0.0426 -2.0723
 6822SOL    HW231926   4.056   1.078  10.128 -0.0282  0.7217 -0.7330
 6823SOL     OW31927   3.399   3.230  17.346  0.7694  0.2667 -0.4206
 6823SOL    HW131928   3.384   3.268  17.433 -0.0650 -0.3808 -0.2903
 6823SOL    HW231929   3.393   3.313  17.298 -2.5915 -0.2873 -0.9196
 6824SOL     OW31930   2.327   4.541   5.045 -0.1706  0.2235 -0.4913
 6824SOL    HW131931   2.312   4.526   4.952 -1.2775 -1.7011  0.0028
 6824SOL    HW231932   2.286   4.627   5.053 -0.0093  0.4566 -2.0928
 6825SOL     OW31933   2.385   0.797   7.836 -0.2559 -0.1800 -0.1521
 6825SOL    HW131934   2.316   0.859   7.861 -0.4068 -1.3090  2.1711
 6825SOL    HW231935   2.422   0.773   7.921 -1.7934 -0.8155  0.3358
 6826SOL     OW31936   4.541   3.551  14.221 -0.0628 -0.1034 -0.2646
 6826SOL    HW131937   4.461   3.603  14.217  0.1121  0.0469 -1.9685
 6826SOL    HW231938   4.505   3.462  14.227  0.7789 -0.4276  0.0952
 6827SOL     OW31939   0.362   4.015   7.138  0.0415  0.0373 -0.0911
 6827SOL    HW131940   0.282   4.047   7.098  0.0056  0.1225  0.0512
 6827SOL    HW231941   0.384   4.097   7.182  2.2902 -0.1098 -0.8959
 6828SOL     OW31942   1.282   2.839   4.633  0.1256 -0.3570 -0.1276
 6828SOL    HW131943   1.312   2.847   4.723  0.6018  1.0222 -0.3975
 6828SOL    HW231944   1.356   2.882   4.589  2.7771 -2.4102  2.3689
 6829SOL     OW31945   3.230   1.501   6.411  0.4620 -0.9494  0.2086
 6829SOL    HW131946   3.168   1.444   6.366 -1.6164  1.2701  0.2580
 6829SOL    HW231947   3.315   1.466   6.385 -0.1127 -0.0573 -2.8562
 6830SOL     OW31948   2.599   1.442  11.278  0.1556  0.5353 -0.3387
 6830SOL    HW131949   2.512   1.418  11.310 -0.0971  0.8814 -0.7567
 6830SOL    HW231950   2.624   1.362  11.233  0.6984  0.1803  0.5990
 6831SOL     OW31951   4.218   1.167   4.147  0.3522  0.3702 -0.1234
 6831SOL    HW131952   4.194   1.206   4.231  4.4227  1.0901  0.6899
 6831SOL    HW231953   4.167   1.227   4.093  2.6287  2.4964  0.1120
 6832SOL     OW31954   1.330   0.922  16.394  0.3810 -0.2331  0.6923
 6832SOL    HW131955   1.409   0.953  16.438  0.9867 -2.4385  1.1403
 6832SOL    HW231956   1.356   0.836  16.361  0.8204  0.6360 -1.2270
 6833SOL     OW31957   3.993   2.135   5.135  0.0362 -0.1060  0.5862
 6833SOL    HW131958   4.031   2.183   5.061 -0.0851 -2.5734 -1.0550
 6833SOL    HW231959   4.020   2.044   5.126  3.0454  0.9184 -0.8502
 6834SOL     OW31960   4.338   3.851   7.464 -0.2666 -0.4000  0.2670
 6834SOL    HW131961   4.258   3.809   7.495 -0.7056  0.5595  0.4342
 6834SOL    HW231962   4.342   3.815   7.375 -1.7849 -2.5946  1.0922
 6835SOL     OW31963   2.334   2.437   0.179  0.1550  0.0264  0.2125
 6835SOL    HW131964   2.356   2.528   0.156 -0.7982  0.9451  2.9239
 6835SOL    HW231965   2.368   2.420   0.267 -0.7989  0.2383  0.6192
 6836SOL     OW31966   2.092   4.337   3.853  0.1451 -0.1846  0.2715
 6836SOL    HW131967   2.175   4.368   3.815 -0.1838 -0.7970 -0.9304
 6836SOL    HW231968   2.037   4.325   3.776  0.0938 -3.1230  0.7542
 6837SOL     OW31969   0.441   2.526  13.371  0.1110  0.4049 -0.1973
 6837SOL    HW131970   0.438   2.467  13.446 -1.0277 -0.1632 -0.6957
 6837SOL    HW231971   0.481   2.462  13.312 -1.7345 -0.9888  0.0982
 6838SOL     OW31972   0.825   2.423   3.003 -0.6380 -0.2066 -0.2318
 6838SOL    HW131973   0.777   2.481   3.062 -0.9167 -0.1688 -0.4948
 6838SOL    HW231974   0.914   2.455   3.022 -0.0336 -1.9606 -0.1660
 6839SOL     OW31975   4.625   3.748  10.847 -0.0487 -0.3982  0.6254
 6839SOL    HW131976   4.554   3.704  10.894 -0.5075  0.6496  0.9187
 6839SOL    HW231977   4.656   3.790  10.927  0.0311  0.9490 -0.1078
 6840SOL     OW31978   4.145   1.526   7.444  0.2068  0.0481  0.0749
 6840SOL    HW131979   4.128   1.490   7.531 -1.1055 -0.4382 -0.3773
 6840SOL    HW231980   4.054   1.538   7.416 -0.1710  0.6333  1.5590
 6841SOL     OW31981   3.946   0.028  13.547 -0.1548  0.2509 -0.1080
 6841SOL    HW131982   3.978   0.088  13.480  0.4167 -0.4285 -0.4439
 6841SOL    HW231983   3.860   0.063  13.571 -1.7994 -2.2041 -2.3283
 6842SOL     OW31984   1.535   2.504  11.634 -0.3269 -0.0022  0.1585
 6842SOL    HW131985   1.592   2.426  11.632 -0.1920  0.1124 -0.5464
 6842SOL    HW231986   1.463   2.474  11.578  1.1474 -0.7557 -1.3219
 6843SOL     OW31987   2.700   3.997  13.609 -0.0131  0.0096  0.2386
 6843SOL    HW131988   2.654   3.976  13.527  1.9305 -1.5144 -0.4693
 6843SOL    HW231989   2.732   4.080  13.573  0.8471 -0.3312  0.2185
 6844SOL     OW31990   3.503   4.031   6.293  0.4494 -0.1416  0.2890
 6844SOL    HW131991   3.409   4.028   6.273  0.6698 -0.7472 -0.6702
 6844SOL    HW231992   3.532   4.120   6.272  0.9314 -0.1781  0.8122
 6845SOL     OW31993   3.490   1.690  15.901  0.3510  0.1206 -0.2965
 6845SOL    HW131994   3.481   1.607  15.854  3.9526  0.3659 -1.4164
 6845SOL    HW231995   3.475   1.668  15.993  1.8007  3.4501  0.7299
 6846SOL     OW31996   1.562   1.533   6.755  0.5010 -0.0113 -0.4479
 6846SOL    HW131997   1.544   1.446   6.721 -2.2473  0.1958  0.4667
 6846SOL    HW231998   1.483   1.556   6.803  0.4417  0.7405 -0.9023
 6847SOL     OW31999   1.861   1.512   3.024 -0.1434  0.2097 -0.2809
 6847SOL    HW132000   1.930   1.445   3.018  1.2933  1.5759  1.0953
 6847SOL    HW232001   1.807   1.485   2.950 -0.3761  2.3713 -0.8765
 6848SOL     OW32002   3.922   1.172   4.284  0.0436 -0.0435 -0.2259
 6848SOL    HW132003   3.993   1.186   4.346  0.4681  3.0578 -1.3714
 6848SOL    HW232004   3.875   1.255   4.286 -0.0886 -0.1066 -0.6666
 6849SOL     OW32005   4.306   0.120   4.082  0.2028  0.0376  0.3816
 6849SOL    HW132006   4.259   0.190   4.038  0.7740 -0.0829 -0.4074
 6849SOL    HW232007   4.267   0.040   4.046  0.0129  0.8956 -1.2950
 6850SOL     OW32008   4.638   1.551  15.197  0.4219 -0.2671  0.1414
 6850SOL    HW132009   4.682   1.466  15.188  0.4449 -0.3355  0.8708
 6850SOL    HW232010   4.674   1.587  15.278  0.3197 -1.8255  0.8823
 6851SOL     OW32011   2.983   2.727   5.680  0.0646  0.1910  0.0403
 6851SOL    HW132012   3.012   2.734   5.771  0.8720 -1.9470 -0.0610
 6851SOL    HW232013   2.891   2.747   5.698  0.1463  1.5892 -1.1100
 6852SOL     OW32014   1.167   3.082  14.912 -0.0242 -0.3588 -0.7812
 6852SOL    HW132015   1.122   3.001  14.886  2.3225 -1.8223 -0.2598
 6852SOL    HW232016   1.255   3.061  14.882  0.1528 -0.6989 -0.0031
 6853SOL     OW32017   1.684   3.104  12.891 -0.0025  0.2906  0.2273
 6853SOL    HW132018   1.628   3.111  12.814  0.1954 -0.0094  0.0520
 6853SOL    HW232019   1.630   3.151  12.954 -0.6804 -0.5774  0.2943
 6854SOL     OW32020   2.209   0.028  14.842 -1.0737 -0.2210 -0.2874
 6854SOL    HW132021   2.163   0.035  14.925 -1.5375  0.9128 -0.6426
 6854SOL    HW232022   2.270   4.678  14.858 -0.0476  0.6716 -0.2188
 6855SOL     OW32023   3.784   1.605   7.830 -0.0524  0.6822 -0.0796
 6855SOL    HW132024   3.774   1.696   7.857 -0.3552 -0.2374  2.8644
 6855SOL    HW232025   3.785   1.555   7.911  1.8161  0.1354 -0.4267
 6856SOL     OW32026   1.542   2.923   4.565 -0.1865 -0.1482 -0.0705
 6856SOL    HW132027   1.590   2.934   4.484 -0.3196 -2.4654 -0.4568
 6856SOL    HW232028   1.609   2.952   4.627 -0.6516 -0.2100  0.4613
 6857SOL     OW32029   4.476   0.731   7.823 -0.6478 -0.0879 -0.0422
 6857SOL    HW132030   4.448   0.803   7.767 -2.3895 -1.5501 -1.0169
 6857SOL    HW232031   4.428   0.653   7.795  1.1817 -1.3421  0.2885
 6858SOL     OW32032   1.248   2.247   8.921  0.8329  0.2739 -0.3280
 6858SOL    HW132033   1.270   2.159   8.952 -0.6132 -0.2904 -0.8894
 6858SOL    HW232034   1.189   2.276   8.990 -0.8789  1.2758 -2.2196
 6859SOL     OW32035   1.356   3.523   2.675 -0.0886  0.0906 -0.0814
 6859SOL    HW132036   1.348   3.614   2.646 -0.3518  0.8804  2.4375
 6859SOL    HW232037   1.411   3.488   2.605  1.3614  3.0746 -0.4070
 6860SOL     OW32038   1.537   4.328   5.607  0.2092 -0.2075  0.1407
 6860SOL    HW132039   1.567   4.285   5.527  0.7484  0.3144  0.0586
 6860SOL    HW232040   1.472   4.392   5.577 -0.5479 -0.9105  0.2822
 6861SOL     OW32041   1.704   1.681   6.562  0.1941 -0.5799 -0.1588
 6861SOL    HW132042   1.651   1.635   6.627  0.6001  0.8356  1.1765
 6861SOL    HW232043   1.637   1.695   6.495 -0.2912  0.2587  0.5120
 6862SOL     OW32044   1.200   4.202   3.576  0.4982  0.0509  0.0529
 6862SOL    HW132045   1.285   4.212   3.619  0.6796  1.4503 -0.6119
 6862SOL    HW232046   1.216   4.214   3.482 -1.3100  0.3909 -0.2068
 6863SOL     OW32047   2.807   1.798   4.937 -0.2390 -0.1500  0.6571
 6863SOL    HW132048   2.793   1.804   4.842 -0.3214  1.1871  0.7468
 6863SOL    HW232049   2.807   1.892   4.954  0.5718 -0.2484  1.2041
 6864SOL     OW32050   4.388   2.084   2.859 -0.1635 -0.0962 -0.0786
 6864SOL    HW132051   4.444   2.134   2.919 -0.6021  0.8582 -0.4604
 6864SOL    HW232052   4.367   2.014   2.920 -2.9070  0.3244 -0.5674
 6865SOL     OW32053   2.348   0.007   7.675  0.1632  0.1677 -0.0164
 6865SOL    HW132054   2.308   0.031   7.592  1.8552  1.7277 -0.3775
 6865SOL    HW232055   2.292   0.037   7.747  1.1482  0.5539  0.5971
 6866SOL     OW32056   3.261   2.624  12.522 -0.3791 -0.4564  0.4022
 6866SOL    HW132057   3.351   2.593  12.531 -0.0615  0.0939 -0.8771
 6866SOL    HW232058   3.279   2.706  12.477  1.3866 -0.8459  0.3914
 6867SOL     OW32059   2.893   4.565  10.791 -0.3190 -0.2246 -0.5074
 6867SOL    HW132060   2.987   4.550  10.800 -0.3493  0.8352  1.3759
 6867SOL    HW232061   2.894   4.648  10.838 -1.8625 -1.9172  2.5212
 6868SOL     OW32062   1.737   2.881   7.662 -0.1828 -0.4030 -0.1773
 6868SOL    HW132063   1.663   2.840   7.707  0.1409  0.4878  1.1695
 6868SOL    HW232064   1.696   2.913   7.582 -0.2471 -2.0308 -0.7812
 6869SOL     OW32065   1.510   3.523   2.238  0.6797 -0.5638 -0.5308
 6869SOL    HW132066   1.590   3.471   2.233  0.9521 -0.3541  1.5229
 6869SOL    HW232067   1.504   3.563   2.152  1.4838 -0.1834 -0.4098
 6870SOL     OW32068   1.855   1.800   7.274  0.4915 -0.6911  0.1199
 6870SOL    HW132069   1.774   1.812   7.324  0.7390  1.4277 -0.0032
 6870SOL    HW232070   1.851   1.707   7.253  0.8304 -1.1785  2.2519
 6871SOL     OW32071   2.376   3.436   3.595  1.0904 -0.3194 -0.4603
 6871SOL    HW132072   2.469   3.452   3.579  1.7283 -0.9781  2.5807
 6871SOL    HW232073   2.366   3.478   3.681  1.5620  1.7631 -1.4274
 6872SOL     OW32074   2.987   3.477  12.838 -0.3802 -0.3280  0.2906
 6872SOL    HW132075   2.955   3.391  12.810  0.8910 -0.8429  0.4207
 6872SOL    HW232076   2.964   3.471  12.931  1.0649  0.6605  0.6986
 6873SOL     OW32077   4.554   2.906   1.418 -0.6558  0.0466 -0.7733
 6873SOL    HW132078   4.581   2.960   1.344  0.2462 -1.2509 -1.3890
 6873SOL    HW232079   4.468   2.941   1.443  0.2846 -0.9900  3.8147
 6874SOL     OW32080   0.575   2.767   0.057 -0.0484 -0.0798  0.1156
 6874SOL    HW132081   0.660   2.760   0.014  0.1870  0.5102  0.4751
 6874SOL    HW232082   0.523   2.808  17.680  1.3220  1.0142 -0.2699
 6875SOL     OW32083   1.322   0.760  10.673 -0.6954  0.2252  0.2277
 6875SOL    HW132084   1.265   0.755  10.596  0.1312  0.4401 -0.3956
 6875SOL    HW232085   1.296   0.677  10.712  2.1073 -0.0162  1.5588
 6876SOL     OW32086   0.426   2.202   6.542 -0.4872  0.8583 -0.1441
 6876SOL    HW132087   0.444   2.130   6.603 -2.3402  2.3728  2.2314
 6876SOL    HW232088   0.495   2.172   6.484 -0.1206 -0.1272  0.7910
 6877SOL     OW32089   0.280   2.439   1.270  0.4810  0.5097  0.5250
 6877SOL    HW132090   0.206   2.379   1.279  0.9938 -0.4819 -1.8144
 6877SOL    HW232091   0.270   2.464   1.178  0.6967  0.2836  0.4399
 6878SOL     OW32092   4.131   2.001   8.600 -0.1268 -0.6457 -0.2611
 6878SOL    HW132093   4.100   2.053   8.526 -0.2483  1.1754  1.0605
 6878SOL    HW232094   4.203   1.952   8.562 -2.0882 -2.3245 -1.7700
 6879SOL     OW32095   4.196   4.372  15.397  0.1198 -0.1545  0.0664
 6879SOL    HW132096   4.124   4.413  15.348  0.8329  2.3816  1.1309
 6879SOL    HW232097   4.145   4.349  15.474 -2.8074 -1.1991 -2.1883
 6880SOL     OW32098   4.627   0.003  15.344 -0.1049  0.9399  0.3175
 6880SOL    HW132099   4.676   0.004  15.262  1.7672 -3.0927  1.3655
 6880SOL    HW232100   4.694   4.695  15.405 -2.4692 -3.3863  0.7190
 6881SOL     OW32101   1.295   0.055   4.015 -0.2750  0.4063 -0.7768
 6881SOL    HW132102   1.255   0.141   4.029 -0.4612  0.3924 -1.2170
 6881SOL    HW232103   1.286   0.049   3.920 -3.2096  0.8447 -0.5430
 6882SOL     OW32104   2.128   2.882   7.220  0.0661  0.0916  0.2558
 6882SOL    HW132105   2.195   2.950   7.214 -0.0034  0.0239 -1.1859
 6882SOL    HW232106   2.106   2.885   7.313 -0.4938  1.5279  0.0656
 6883SOL     OW32107   1.373   0.345   4.119  0.2505  0.4408 -0.2030
 6883SOL    HW132108   1.443   0.322   4.057  0.5946  1.4178 -0.1924
 6883SOL    HW232109   1.404   0.435   4.135 -0.8794  1.3713 -3.0894
 6884SOL     OW32110   1.182   1.821  11.885 -0.1085 -0.3466  0.2440
 6884SOL    HW132111   1.198   1.899  11.832 -0.5824  0.0799  0.7259
 6884SOL    HW232112   1.177   1.757  11.815  0.2490  0.0950 -0.1849
 6885SOL     OW32113   2.981   3.397  15.148 -0.1294  0.2348 -0.1769
 6885SOL    HW132114   2.890   3.400  15.117 -0.5202  1.6772  1.0769
 6885SOL    HW232115   2.982   3.317  15.200  0.0475 -0.0571 -0.6414
 6886SOL     OW32116   2.019   1.845   6.548 -0.7163  0.1285  0.0679
 6886SOL    HW132117   1.961   1.815   6.618 -2.3487  0.4573 -1.1593
 6886SOL    HW232118   1.981   1.928   6.522 -3.1351 -0.0860  2.8964
 6887SOL     OW32119   0.051   0.576  10.890  0.2696  0.3099 -0.4744
 6887SOL    HW132120   0.141   0.546  10.875 -0.0684 -2.3420  2.7670
 6887SOL    HW232121   0.039   0.651  10.832 -0.8213  0.3241 -0.2254
 6888SOL     OW32122   2.562   2.941   2.812 -0.2394 -0.2215  0.1700
 6888SOL    HW132123   2.520   2.951   2.726 -0.3759  0.8945  0.3690
 6888SOL    HW232124   2.495   2.963   2.876 -0.1996  0.7686 -0.1385
 6889SOL     OW32125   3.400   3.234   5.010 -0.0472  0.6715 -0.1915
 6889SOL    HW132126   3.368   3.236   5.100  0.5285  1.7270 -0.0037
 6889SOL    HW232127   3.344   3.298   4.967 -1.5248 -0.0570  0.6763
 6890SOL     OW32128   2.681   4.533   2.734 -0.1825  0.1793  0.1670
 6890SOL    HW132129   2.615   4.595   2.702 -1.1838 -2.0974 -2.1895
 6890SOL    HW232130   2.718   4.589   2.802 -0.8194 -0.8958  1.4073
 6891SOL     OW32131   3.771   3.014   6.512 -0.1395 -0.6155 -0.2060
 6891SOL    HW132132   3.704   2.947   6.500 -1.5545  0.7912 -0.1303
 6891SOL    HW232133   3.849   2.974   6.550  0.4603  1.1314  0.4248
 6892SOL     OW32134   0.859   3.813   1.974  0.6401  0.6548 -0.0285
 6892SOL    HW132135   0.950   3.818   2.002  0.4290  0.4784  0.7163
 6892SOL    HW232136   0.819   3.857   2.049 -0.2883  1.2235 -0.8600
 6893SOL     OW32137   3.585   2.680   2.526  0.0603  0.5651  0.2206
 6893SOL    HW132138   3.514   2.627   2.561  0.7073 -0.1650  0.4152
 6893SOL    HW232139   3.644   2.613   2.491  2.2865  1.5014  2.1820
 6894SOL     OW32140   2.996   1.333   3.588 -0.3576 -0.4446 -0.0230
 6894SOL    HW132141   2.989   1.238   3.599  1.0913 -0.2409  2.5317
 6894SOL    HW232142   2.931   1.348   3.519 -1.3536 -1.3981  0.7030
 6895SOL     OW32143   4.365   0.780  10.564  0.2260 -0.3255  0.0357
 6895SOL    HW132144   4.406   0.744  10.485 -3.6694 -0.0974 -2.0574
 6895SOL    HW232145   4.281   0.786  10.519 -0.3832  1.3250  1.3929
 6896SOL     OW32146   4.600   2.704  17.335  0.3574 -0.2753  0.4540
 6896SOL    HW132147   4.548   2.632  17.299  2.2133 -1.2102 -0.3923
 6896SOL    HW232148   4.675   2.702  17.276 -1.0544 -0.7356 -1.3384
 6897SOL     OW32149   0.509   0.929   5.407  0.0047  0.3363 -0.2603
 6897SOL    HW132150   0.513   1.016   5.446  1.0884  0.6823 -1.1284
 6897SOL    HW232151   0.501   0.945   5.313 -1.3438  0.1666 -0.1739
 6898SOL     OW32152   0.026   0.279  10.464  0.2864 -0.1491 -0.5550
 6898SOL    HW132153   0.061   0.194  10.439 -1.6244 -1.3072  0.6915
 6898SOL    HW232154   0.056   0.334  10.392  1.0633 -0.4834 -0.4855
 6899SOL     OW32155   3.002   3.454   1.947  0.4572 -0.0399  0.7451
 6899SOL    HW132156   3.053   3.514   1.893  0.9002  0.0284  1.2318
 6899SOL    HW232157   2.973   3.390   1.882  0.7902 -0.3831  0.9275
 6900SOL     OW32158   2.607   3.596  15.032  0.2103 -0.5211  0.3444
 6900SOL    HW132159   2.658   3.526  15.071  1.7388 -0.3387 -1.3304
 6900SOL    HW232160   2.564   3.543  14.965  0.7031 -1.4100  0.7442
 6901SOL     OW32161   1.403   1.138  14.622 -0.6704 -0.8716  0.6351
 6901SOL    HW132162   1.328   1.078  14.616 -0.7298 -0.7569  0.2529
 6901SOL    HW232163   1.355   1.220  14.614  1.5047  0.2078 -1.3601
 6902SOL     OW32164   2.074   3.976   8.933 -0.3336  0.2486  0.3925
 6902SOL    HW132165   2.028   4.060   8.938 -0.3917  0.2759 -0.4740
 6902SOL    HW232166   2.012   3.917   8.975 -0.5227 -0.9187 -1.4976
 6903SOL     OW32167   1.030   2.015   8.606  1.1844  0.5641 -0.0863
 6903SOL    HW132168   0.979   2.011   8.525 -0.9048  2.1429  1.1601
 6903SOL    HW232169   1.037   2.108   8.625 -0.0665  0.4023  1.1826
 6904SOL     OW32170   2.457   2.086   5.369  0.0297 -0.4108  0.2181
 6904SOL    HW132171   2.432   2.174   5.341  1.2180  0.0510  0.6184
 6904SOL    HW232172   2.552   2.091   5.354 -0.2999  3.1461 -0.5737
 6905SOL     OW32173   2.444   2.243   7.987  0.3024  0.6513 -0.2754
 6905SOL    HW132174   2.496   2.167   8.015 -0.8029 -0.4073 -1.1218
 6905SOL    HW232175   2.395   2.255   8.068  1.9872  2.1772  0.5172
 6906SOL     OW32176   0.854   1.594   9.295 -0.5511 -0.2852 -0.1665
 6906SOL    HW132177   0.785   1.627   9.238  0.0267  0.3173 -0.5243
 6906SOL    HW232178   0.814   1.518   9.337 -1.0237  0.0070 -0.1002
 6907SOL     OW32179   1.378   3.369   6.561 -0.3382  0.5560  0.0145
 6907SOL    HW132180   1.448   3.322   6.607  0.3192  2.3128  0.7743
 6907SOL    HW232181   1.344   3.301   6.502  1.8818 -0.6275  0.0989
 6908SOL     OW32182   2.275   1.037  10.169 -0.0079 -0.0962 -0.3033
 6908SOL    HW132183   2.268   0.941  10.171 -5.2129  0.1686 -4.6093
 6908SOL    HW232184   2.264   1.043  10.074  1.0813  3.0048 -0.2110
 6909SOL     OW32185   4.146   2.540   6.900  0.1151 -1.2331  0.0225
 6909SOL    HW132186   4.059   2.508   6.877 -0.8818  1.4324  0.1454
 6909SOL    HW232187   4.166   2.463   6.954 -0.6492 -1.2093  0.3380
 6910SOL     OW32188   4.397   2.374   8.387  0.2999  0.2383  0.0620
 6910SOL    HW132189   4.426   2.283   8.400  0.0438  0.2326  0.5920
 6910SOL    HW232190   4.352   2.372   8.303 -0.6684 -0.1274  0.5881
 6911SOL     OW32191   2.836   3.914   8.735 -0.1643 -0.4412 -0.1838
 6911SOL    HW132192   2.797   3.834   8.771 -0.2978 -0.8561 -1.2589
 6911SOL    HW232193   2.930   3.899   8.731  0.0984  1.2798 -0.3054
 6912SOL     OW32194   4.272   0.649   9.578 -0.7850  0.4640 -0.3768
 6912SOL    HW132195   4.229   0.733   9.560  0.3781  1.1641  0.0950
 6912SOL    HW232196   4.360   0.661   9.541 -1.1189  1.0596 -0.9761
 6913SOL     OW32197   3.537   0.956   6.949  0.2038  0.5847 -0.0101
 6913SOL    HW132198   3.602   0.938   6.881  1.1779 -0.0531  1.0823
 6913SOL    HW232199   3.513   0.870   6.983  1.1658  0.5487  0.5845
 6914SOL     OW32200   0.182   4.257   1.756  0.0387  0.5988  0.6334
 6914SOL    HW132201   0.211   4.189   1.695  0.8573  0.1362  1.5313
 6914SOL    HW232202   0.199   4.217   1.842 -0.3195  0.3305  0.5771
 6915SOL     OW32203   1.457   1.660   4.774 -0.0764  0.2059  0.5213
 6915SOL    HW132204   1.482   1.690   4.861  2.0082 -2.1998  0.7431
 6915SOL    HW232205   1.541   1.658   4.729 -0.7024  0.5148 -0.6826
 6916SOL     OW32206   4.537   0.877   7.348  0.5325  0.1278 -0.3639
 6916SOL    HW132207   4.480   0.802   7.361  0.9036 -0.0256  0.3565
 6916SOL    HW232208   4.477   0.949   7.368 -0.5574 -0.6334 -0.9502
 6917SOL     OW32209   2.418   3.113  16.493  0.2437  0.0002  0.6738
 6917SOL    HW132210   2.393   3.155  16.411 -1.8758 -0.2086  1.2097
 6917SOL    HW232211   2.349   3.155  16.546  1.8241  1.7104  1.3785
 6918SOL     OW32212   0.186   4.261  12.601  0.0260 -0.1491 -0.0036
 6918SOL    HW132213   0.262   4.306  12.563 -0.8001  0.5173 -0.8809
 6918SOL    HW232214   0.181   4.288  12.692  1.2945 -0.6279  0.2164
 6919SOL     OW32215   2.408   2.589   5.267  0.1186 -0.1838 -0.2599
 6919SOL    HW132216   2.403   2.614   5.175  0.3473 -0.2846 -0.2991
 6919SOL    HW232217   2.419   2.495   5.252  0.5417 -0.0456 -0.8231
 6920SOL     OW32218   1.821   3.835  17.482  0.5740 -0.0325  0.5217
 6920SOL    HW132219   1.829   3.878  17.567  1.9385  0.6101  0.0682
 6920SOL    HW232220   1.863   3.750  17.494  0.7185 -0.0451 -0.0610
 6921SOL     OW32221   2.019   2.629   4.353 -0.3390  0.1449 -0.5976
 6921SOL    HW132222   2.080   2.700   4.369 -0.9266  0.1830  1.5406
 6921SOL    HW232223   2.051   2.612   4.264 -0.6637  0.7274 -0.8234
 6922SOL     OW32224   2.449   0.851   7.106  0.1781  0.5945 -0.1409
 6922SOL    HW132225   2.446   0.916   7.177  0.5877 -0.1480  0.5567
 6922SOL    HW232226   2.520   0.795   7.137 -0.1395  0.6430  0.6865
 6923SOL     OW32227   0.963   3.904   5.959 -0.2549  0.1514  0.3039
 6923SOL    HW132228   0.935   3.910   6.050  0.0969 -3.3220  0.6396
 6923SOL    HW232229   1.000   3.816   5.952 -1.9373 -0.2882 -2.9296
 6924SOL     OW32230   3.233   4.687   4.855  0.2049 -0.3810  0.3075
 6924SOL    HW132231   3.283   0.041   4.884 -0.6554  0.6736 -1.0247
 6924SOL    HW232232   3.288   4.614   4.886  0.3947 -0.5221 -0.3693
 6925SOL     OW32233   4.110   0.263   3.889  0.4303  0.3814 -0.3799
 6925SOL    HW132234   4.105   0.356   3.868  2.0229  0.4965 -0.2798
 6925SOL    HW232235   4.187   0.237   3.839  1.6208  0.9040  1.1815
 6926SOL     OW32236   0.925   1.887   1.180  0.4051 -0.2110  0.3354
 6926SOL    HW132237   0.951   1.963   1.127 -0.4543 -0.2453 -0.1266
 6926SOL    HW232238   1.015   1.861   1.199  0.6527 -0.2930 -0.9484
 6927SOL     OW32239   3.756   4.666  11.762  0.1311  0.5064 -0.0268
 6927SOL    HW132240   3.738   4.577  11.793 -1.9425  1.1350  0.5325
 6927SOL    HW232241   3.796   4.650  11.677  1.2278 -2.7128  1.0857
 6928SOL     OW32242   4.263   0.425   1.965 -0.0011  0.2066 -0.2764
 6928SOL    HW132243   4.289   0.517   1.970  1.4251 -0.0979 -1.8370
 6928SOL    HW232244   4.170   0.435   1.946  0.0910  0.1722 -0.7633
 6929SOL     OW32245   3.212   1.266   6.661  0.2767 -0.7895 -0.3997
 6929SOL    HW132246   3.154   1.341   6.674  1.6337 -0.4208  3.7032
 6929SOL    HW232247   3.208   1.222   6.746  0.5532  1.3652  0.7492
 6930SOL     OW32248   0.458   4.628   6.144 -0.6163 -0.2048 -0.0725
 6930SOL    HW132249   0.481   4.675   6.225  0.1160  0.7772 -0.8476
 6930SOL    HW232250   0.419   4.549   6.181 -0.8459 -0.1833 -0.2731
 6931SOL     OW32251   0.333   1.955   6.006 -0.5704  0.3258 -0.4384
 6931SOL    HW132252   0.311   2.034   6.055 -0.6019  0.5079 -0.7501
 6931SOL    HW232253   0.263   1.942   5.943  1.0696 -2.7451 -1.6286
 6932SOL     OW32254   0.403   0.423   1.672 -0.0900 -0.1563 -0.0137
 6932SOL    HW132255   0.485   0.384   1.642  1.0381  1.0080  1.4954
 6932SOL    HW232256   0.370   0.430   1.583  1.7574  0.2443 -0.6559
 6933SOL     OW32257   2.294   2.292   9.137 -0.4487  0.3243  0.4984
 6933SOL    HW132258   2.351   2.227   9.096 -0.4174 -0.8896  2.4673
 6933SOL    HW232259   2.215   2.240   9.153 -0.9708  0.5163 -1.3781
 6934SOL     OW32260   2.026   0.018   2.849 -0.1134 -0.4238  0.3436
 6934SOL    HW132261   2.112   0.047   2.880 -0.6947  0.4138  1.1814
 6934SOL    HW232262   2.051   4.656   2.811 -1.0066 -0.7312  0.4308
 6935SOL     OW32263   4.252   3.721   0.420  0.2079 -0.3258 -0.0685
 6935SOL    HW132264   4.229   3.758   0.505 -2.2634  1.2055 -1.4067
 6935SOL    HW232265   4.169   3.687   0.388 -0.7967  1.6398  0.4402
 6936SOL     OW32266   3.908   2.592   2.595 -0.3170  0.3386 -0.1146
 6936SOL    HW132267   3.951   2.507   2.606  0.4007  0.6533 -0.5122
 6936SOL    HW232268   3.982   2.640   2.558  1.4087 -0.6945  2.0092
 6937SOL     OW32269   0.226   4.704  14.640  0.4006 -0.0163  0.1688
 6937SOL    HW132270   0.209   4.626  14.587  0.7377  0.0963 -0.1064
 6937SOL    HW232271   0.226   0.045  14.568  0.6955 -1.5443 -1.1767
 6938SOL     OW32272   3.259   1.104   6.434 -0.1236 -0.1857  0.4065
 6938SOL    HW132273   3.198   1.039   6.467 -1.8690 -0.1775 -2.8190
 6938SOL    HW232274   3.248   1.164   6.508 -0.5478  0.6631 -0.3316
 6939SOL     OW32275   4.312   0.108   6.561  0.0428  0.3274  0.5416
 6939SOL    HW132276   4.229   0.147   6.533  0.1368  0.2339  0.1358
 6939SOL    HW232277   4.303   0.014   6.547 -4.1417  0.8242 -0.0529
 6940SOL     OW32278   0.926   1.568  13.954 -0.2564 -0.1595  0.0989
 6940SOL    HW132279   0.895   1.620  14.028  0.0138 -0.1197  0.1828
 6940SOL    HW232280   0.977   1.637  13.912  1.4713 -0.3409  1.9047
 6941SOL     OW32281   1.197   0.578   0.802 -0.0769 -0.3986 -0.0964
 6941SOL    HW132282   1.292   0.585   0.793 -0.0573  1.0989  1.2256
 6941SOL    HW232283   1.204   0.493   0.847 -1.0015 -0.3303  0.1777
 6942SOL     OW32284   4.642   1.868   6.820  0.6222  0.0200 -0.1629
 6942SOL    HW132285   4.626   1.931   6.889  0.9089  2.6059 -2.4544
 6942SOL    HW232286   4.561   1.841   6.778  0.3275 -0.8022  0.9384
 6943SOL     OW32287   1.524   1.079   0.002 -0.6233  0.1041 -0.2645
 6943SOL    HW132288   1.478   1.008   0.047 -0.0944 -0.7816 -1.1332
 6943SOL    HW232289   1.579   1.114   0.072  0.8498 -2.6329 -0.0637
 6944SOL     OW32290   1.260   2.331  12.370  0.2016 -0.3492  0.8888
 6944SOL    HW132291   1.228   2.265  12.308  0.8198  0.1495  0.0348
 6944SOL    HW232292   1.184   2.381  12.399 -0.4110  0.2311 -1.7046
 6945SOL     OW32293   4.429   4.129   3.088  0.2253 -0.4623 -0.0709
 6945SOL    HW132294   4.468   4.191   3.027  0.2002  0.9465  1.3445
 6945SOL    HW232295   4.340   4.120   3.053  0.0563  3.3635 -0.6319
 6946SOL     OW32296   4.210   2.763   8.614 -0.2091  0.1161  0.1678
 6946SOL    HW132297   4.115   2.763   8.622 -0.2519  2.0449 -0.3609
 6946SOL    HW232298   4.249   2.824   8.676  1.1997  1.3945 -1.9868
 6947SOL     OW32299   0.540   1.185   6.129  0.1101 -0.0217  0.3496
 6947SOL    HW132300   0.520   1.096   6.101  0.9496 -0.0398 -0.1822
 6947SOL    HW232301   0.477   1.242   6.084  0.6700 -0.2253 -0.6730
 6948SOL     OW32302   2.333   4.512   7.372  0.4138 -0.4723 -0.3347
 6948SOL    HW132303   2.418   4.545   7.400  1.1627 -2.0680 -0.7395
 6948SOL    HW232304   2.278   4.538   7.446  2.5743  1.9078  0.4232
 6949SOL     OW32305   0.085   1.418   5.446  0.3396 -0.5077 -0.3578
 6949SOL    HW132306   0.016   1.419   5.512 -1.0041 -1.1900 -1.7473
 6949SOL    HW232307   0.156   1.445   5.503 -2.9472 -0.3684  3.6847
 6950SOL     OW32308   1.192   4.212   2.348 -0.1204 -0.1869  0.3863
 6950SOL    HW132309   1.229   4.296   2.374 -0.7806  0.1169  0.3384
 6950SOL    HW232310   1.141   4.238   2.271  1.9136  2.6669 -0.0293
 6951SOL     OW32311   0.219   2.725   5.435 -0.5215 -0.5977  0.2152
 6951SOL    HW132312   0.302   2.737   5.388 -0.6171 -1.4023 -0.1767
 6951SOL    HW232313   0.170   2.799   5.401  0.9699  0.8649  1.2791
 6952SOL     OW32314   2.346   1.514  13.895 -0.5983 -0.3128  0.8001
 6952SOL    HW132315   2.289   1.513  13.818  0.4681  0.5421 -0.0179
 6952SOL    HW232316   2.288   1.536  13.967 -2.3822  2.2310 -1.4249
 6953SOL     OW32317   0.105   3.013  11.758  0.0713  0.2933 -0.5855
 6953SOL    HW132318   0.125   3.088  11.814  2.9746  1.9475 -3.8761
 6953SOL    HW232319   0.097   3.046  11.669 -0.2636  0.9797 -0.3036
 6954SOL     OW32320   3.283   1.203   7.982 -0.5610  0.3786  0.5929
 6954SOL    HW132321   3.358   1.257   7.957  0.6311 -0.6695  1.8833
 6954SOL    HW232322   3.217   1.257   7.940 -0.5776 -0.6598 -0.7262
 6955SOL     OW32323   0.321   3.998   8.169  0.4685  0.2700  0.5088
 6955SOL    HW132324   0.240   4.017   8.121  0.8127  0.6278  0.0662
 6955SOL    HW232325   0.340   3.911   8.133 -0.2098  0.4657 -0.3180
 6956SOL     OW32326   2.898   1.176  12.108  0.3288  0.5001  0.0935
 6956SOL    HW132327   2.903   1.153  12.201 -0.9406  0.9253  0.2693
 6956SOL    HW232328   2.981   1.142  12.074 -0.2855  0.3020 -1.2023
 6957SOL     OW32329   0.548   0.741   4.552 -0.1224 -0.0209 -0.0533
 6957SOL    HW132330   0.581   0.827   4.577  0.0671 -0.6888  1.9455
 6957SOL    HW232331   0.602   0.678   4.598 -1.4069 -1.5459 -0.6208
 6958SOL     OW32332   3.171   4.479   9.046 -0.5712 -0.3269  0.3945
 6958SOL    HW132333   3.161   4.473   8.951 -1.0970 -0.0204  0.4291
 6958SOL    HW232334   3.241   4.543   9.054  1.1447 -2.1316 -0.1658
 6959SOL     OW32335   3.226   1.616   2.704 -0.4976  0.4991 -0.1035
 6959SOL    HW132336   3.246   1.522   2.701  1.7001  0.9945 -0.8068
 6959SOL    HW232337   3.153   1.622   2.642 -1.2891  0.9079  0.8749
 6960SOL     OW32338   2.686   0.633   0.921  0.7494  0.3664 -0.2433
 6960SOL    HW132339   2.766   0.684   0.932  1.3261 -0.9041  1.4396
 6960SOL    HW232340   2.644   0.684   0.852 -0.3174 -0.1748  0.0001
 6961SOL     OW32341   1.071   1.706  10.618 -0.4500  0.5651  0.0439
 6961SOL    HW132342   1.047   1.641  10.552  2.1934  1.3857 -1.7460
 6961SOL    HW232343   0.990   1.734  10.660  0.6325  1.1872  1.7140
 6962SOL     OW32344   3.655   2.968   3.882  0.0383 -0.2992  0.5863
 6962SOL    HW132345   3.628   3.051   3.842  2.1741  0.9668  1.7682
 6962SOL    HW232346   3.581   2.954   3.941 -0.8563  0.6687 -0.3130
 6963SOL     OW32347   3.822   3.470   3.042  0.2782 -0.4728 -0.0594
 6963SOL    HW132348   3.750   3.408   3.030  0.1260 -0.0169 -1.4912
 6963SOL    HW232349   3.806   3.512   2.958  3.9487  1.5414  0.2858
 6964SOL     OW32350   4.169   1.292   8.380  0.2948  0.9163 -0.4699
 6964SOL    HW132351   4.205   1.245   8.304 -0.2254  0.3612 -0.3722
 6964SOL    HW232352   4.236   1.359   8.394 -0.5528  1.6094  0.2474
 6965SOL     OW32353   3.825   2.394   3.450  0.0403  0.2475 -0.3375
 6965SOL    HW132354   3.865   2.478   3.427  0.6891 -0.8786 -3.3622
 6965SOL    HW232355   3.857   2.385   3.540  0.8348  0.8947 -0.5539
 6966SOL     OW32356   0.421   3.762   3.227 -0.7259 -0.2941  0.4496
 6966SOL    HW132357   0.333   3.726   3.238 -0.8595  0.1987  0.9804
 6966SOL    HW232358   0.410   3.845   3.180 -0.4657 -1.1457 -1.1380
 6967SOL     OW32359   3.568   0.515  11.489  0.2671  0.1361 -0.1125
 6967SOL    HW132360   3.580   0.420  11.480  0.8845 -0.1811  4.0960
 6967SOL    HW232361   3.573   0.527  11.584  2.4861  2.2306 -0.5039
 6968SOL     OW32362   4.612   4.182   5.131 -0.0466 -0.0476 -0.4460
 6968SOL    HW132363   4.574   4.212   5.214  0.3630 -1.3215  0.2024
 6968SOL    HW232364   4.700   4.211   5.157 -0.3294 -0.5631  1.0571
 6969SOL     OW32365   4.566   2.887  11.055 -0.7985  0.0951 -0.2533
 6969SOL    HW132366   4.626   2.821  11.021  0.3219  1.7216 -1.4476
 6969SOL    HW232367   4.502   2.890  10.984  0.5880 -0.4381 -1.5266
 6970SOL     OW32368   1.569   0.557   4.098 -0.3934 -0.2187  0.2966
 6970SOL    HW132369   1.598   0.644   4.071  1.2034 -0.4095  1.4052
 6970SOL    HW232370   1.557   0.520   4.011 -0.1793 -0.5900  0.4268
 6971SOL     OW32371   3.844   3.112  16.808 -0.4255 -0.7377 -0.2558
 6971SOL    HW132372   3.936   3.090  16.824 -0.6914 -1.3038  0.5131
 6971SOL    HW232373   3.845   3.178  16.739  1.4316 -1.3353 -0.7973
 6972SOL     OW32374   2.242   3.934  12.638 -0.0066  0.4786 -0.1153
 6972SOL    HW132375   2.317   3.913  12.582 -0.1935 -1.6512  0.4255
 6972SOL    HW232376   2.188   3.980  12.575 -1.5569 -0.8487  0.2438
 6973SOL     OW32377   1.149   4.692   3.749  0.3994 -0.3192  0.0520
 6973SOL    HW132378   1.213   4.711   3.680  0.7035 -1.2436  0.0731
 6973SOL    HW232379   1.183   4.621   3.804 -1.4957 -1.3329 -0.0835
 6974SOL     OW32380   2.968   0.149   5.216  0.0769  0.4083  0.1847
 6974SOL    HW132381   3.019   0.208   5.161  2.3218 -0.2615  1.5608
 6974SOL    HW232382   2.981   0.073   5.158  0.4984  0.9108 -0.3826
 6975SOL     OW32383   1.051   2.904   2.936 -0.5350  0.4095  0.2608
 6975SOL    HW132384   1.112   2.833   2.916 -0.6665  0.2265  0.5007
 6975SOL    HW232385   1.088   2.982   2.895 -0.2795 -0.0399 -0.3683
 6976SOL     OW32386   2.705   4.021   0.758 -0.1715  0.0602  0.3952
 6976SOL    HW132387   2.651   3.975   0.822 -0.1706  0.2534  0.5348
 6976SOL    HW232388   2.700   4.106   0.802 -0.6365  0.1862  0.1009
 6977SOL     OW32389   2.082   4.585  15.394  0.5528 -0.2060 -0.0883
 6977SOL    HW132390   2.002   4.623  15.359 -0.1141  1.4082  3.1513
 6977SOL    HW232391   2.132   4.577  15.312 -0.6868  1.3842 -0.9949
 6978SOL     OW32392   0.660   2.896   5.292 -0.2337  0.4390  0.0574
 6978SOL    HW132393   0.700   2.960   5.233 -0.2951 -0.8954 -1.4289
 6978SOL    HW232394   0.723   2.892   5.364 -2.2682 -1.1439  1.7461
 6979SOL     OW32395   4.061   3.979   7.268  0.0513 -0.5711 -0.3359
 6979SOL    HW132396   4.084   3.894   7.305  0.7790 -0.2907 -0.1430
 6979SOL    HW232397   4.002   4.017   7.333  1.2383 -0.5959  0.7523
 6980SOL     OW32398   0.801   2.560   8.168  0.0423  0.5570  0.0753
 6980SOL    HW132399   0.840   2.639   8.206 -0.9651  0.9231  0.3427
 6980SOL    HW232400   0.871   2.495   8.166 -0.0845  0.4139  0.4452
 6981SOL     OW32401   0.757   3.232   6.309 -0.2597  0.2638 -0.2963
 6981SOL    HW132402   0.851   3.247   6.311 -0.0710 -0.8978 -1.0135
 6981SOL    HW232403   0.720   3.320   6.304  0.8592  0.7072 -0.7872
 6982SOL     OW32404   4.230   1.657  14.937  0.2526 -0.4563  0.5047
 6982SOL    HW132405   4.318   1.668  14.974  0.5484 -3.0305  0.5375
 6982SOL    HW232406   4.242   1.580  14.882 -2.2009  0.5948 -1.4982
 6983SOL     OW32407   3.664   3.591  10.213 -0.5053  0.1201  0.1326
 6983SOL    HW132408   3.575   3.627  10.209 -1.5692 -2.5604 -0.2432
 6983SOL    HW232409   3.705   3.650  10.151  1.6472  0.4690  1.8910
 6984SOL     OW32410   2.523   1.993  11.160 -0.0935 -0.2553 -0.7983
 6984SOL    HW132411   2.547   1.913  11.114  2.6959 -0.1138  0.4161
 6984SOL    HW232412   2.428   1.986  11.174  0.0521 -0.0066  0.3287
 6985SOL     OW32413   1.342   3.720   7.189 -0.1063 -0.3468  0.0488
 6985SOL    HW132414   1.402   3.756   7.124 -0.4377 -1.5167 -0.9228
 6985SOL    HW232415   1.346   3.628   7.162  1.3242 -0.6325  1.3098
 6986SOL     OW32416   0.906   1.802   8.719 -0.2102 -0.2122  0.3600
 6986SOL    HW132417   0.918   1.877   8.662 -1.0969 -0.1802  0.2125
 6986SOL    HW232418   0.943   1.730   8.669 -1.8492 -1.0111  0.3072
 6987SOL     OW32419   1.749   0.044   2.196 -0.7596 -0.4713  0.4687
 6987SOL    HW132420   1.730   0.136   2.174  1.3413 -0.6333 -1.9850
 6987SOL    HW232421   1.840   0.044   2.165  0.0788  1.0381  2.9158
 6988SOL     OW32422   1.970   2.250   2.837  0.3878  0.2296  0.6475
 6988SOL    HW132423   2.024   2.329   2.832  3.8800 -2.2383 -1.2130
 6988SOL    HW232424   2.020   2.202   2.903  1.2507  0.0773 -0.1121
 6989SOL     OW32425   0.254   2.676   4.592  0.2490 -0.4605 -0.9698
 6989SOL    HW132426   0.324   2.722   4.544  0.9742  0.2833  0.8289
 6989SOL    HW232427   0.231   2.758   4.635  2.2347 -0.2173 -0.3602
 6990SOL     OW32428   1.205   3.427   3.475  0.2126  0.4795 -0.6121
 6990SOL    HW132429   1.194   3.336   3.502  2.3807  0.7743  1.2572
 6990SOL    HW232430   1.216   3.410   3.382 -0.1001 -0.7343 -0.4221
 6991SOL     OW32431   0.695   0.004   0.902 -0.5122 -0.7474  0.2872
 6991SOL    HW132432   0.689   4.696   0.993 -2.7978 -1.2939 -0.0247
 6991SOL    HW232433   0.779   0.049   0.905 -1.8906  1.8314  0.0939
 6992SOL     OW32434   1.119   0.294  15.264 -0.0734  0.2014 -0.1221
 6992SOL    HW132435   1.038   0.337  15.289 -0.2532 -0.4882  0.4786
 6992SOL    HW232436   1.171   0.374  15.261  0.9266 -0.3393  2.2730
 6993SOL     OW32437   3.614   2.101   4.873  0.8453  0.3050  0.3041
 6993SOL    HW132438   3.639   2.009   4.868  0.4377  0.2088  0.0192
 6993SOL    HW232439   3.589   2.107   4.965 -0.2772  1.6743 -0.0886
 6994SOL     OW32440   2.321   2.836   7.012 -0.0932 -0.7026  0.0491
 6994SOL    HW132441   2.272   2.802   7.086 -0.5030  2.3015  1.1428
 6994SOL    HW232442   2.338   2.755   6.964  0.3330 -0.5528 -0.0546
 6995SOL     OW32443   3.838   2.063   2.602 -0.0526 -0.4135  0.6221
 6995SOL    HW132444   3.884   2.029   2.679  0.1946 -3.1095 -0.6965
 6995SOL    HW232445   3.759   2.009   2.606  0.5439 -1.4419 -1.5294
 6996SOL     OW32446   0.105   2.536   5.628  0.1039 -0.2632 -0.4289
 6996SOL    HW132447   0.147   2.569   5.549 -1.6527 -0.2969 -1.3709
 6996SOL    HW232448   0.024   2.586   5.634  1.5611  1.8931  0.9793
 6997SOL     OW32449   1.105   4.656   7.750  0.4095  0.6754  0.7162
 6997SOL    HW132450   1.051   4.589   7.708  0.5342  0.5663  0.7318
 6997SOL    HW232451   1.108   4.717   7.676 -0.4201 -0.1503 -0.0052
 6998SOL     OW32452   1.382   2.841   2.508  0.3834 -0.0041  0.4181
 6998SOL    HW132453   1.408   2.789   2.431 -0.8241 -1.3414  0.8982
 6998SOL    HW232454   1.463   2.838   2.559  0.9716 -0.4991 -0.5429
 6999SOL     OW32455   3.668   1.799  12.935  0.0847 -0.0379 -0.2531
 6999SOL    HW132456   3.651   1.833  13.023 -0.5773 -3.4916  0.9630
 6999SOL    HW232457   3.636   1.709  12.949  2.7030 -0.3496  3.6973
 7000SOL     OW32458   4.355   3.799   3.890 -0.4265 -0.4793  0.3147
 7000SOL    HW132459   4.293   3.869   3.907 -0.9622 -1.1264  1.0267
 7000SOL    HW232460   4.360   3.794   3.794 -1.4190 -0.4700  0.2686
 7001SOL     OW32461   0.395   4.189   9.438 -0.1310  0.1668 -0.6056
 7001SOL    HW132462   0.326   4.250   9.465  0.1485  0.9463 -1.6262
 7001SOL    HW232463   0.371   4.111   9.488  0.9905  1.3522  1.7585
 7002SOL     OW32464   1.480   1.194   6.099  0.9063 -0.4954  0.4313
 7002SOL    HW132465   1.479   1.139   6.177  1.6994 -0.4901  0.4525
 7002SOL    HW232466   1.408   1.255   6.114  2.2354  1.2074 -0.0045
 7003SOL     OW32467   0.413   1.666   6.027  0.3343 -0.1119 -0.1969
 7003SOL    HW132468   0.450   1.644   6.112  2.0097 -1.6259 -1.3029
 7003SOL    HW232469   0.411   1.761   6.030  2.4664 -0.0912  1.0576
 7004SOL     OW32470   1.317   0.854   5.375  0.1731  0.4255  0.1496
 7004SOL    HW132471   1.289   0.762   5.368 -0.5801  0.6623  0.0885
 7004SOL    HW232472   1.362   0.875   5.294  0.6626 -1.4471 -0.0694
 7005SOL     OW32473   2.194   1.469   7.977  0.0127 -0.0134 -0.4723
 7005SOL    HW132474   2.169   1.377   7.966  1.3759 -0.5352  0.7301
 7005SOL    HW232475   2.126   1.523   7.938 -0.3964 -0.5120 -0.4505
 7006SOL     OW32476   1.462   2.208   0.222 -0.0822 -0.3908  0.0599
 7006SOL    HW132477   1.456   2.131   0.278  0.1354 -0.3473  0.1405
 7006SOL    HW232478   1.388   2.189   0.164 -1.0774 -1.0210  1.5416
 7007SOL     OW32479   0.057   0.253  11.580 -0.4791  0.2187 -0.2612
 7007SOL    HW132480   0.065   0.162  11.610  4.9204 -0.7451 -4.5410
 7007SOL    HW232481   0.145   0.263  11.544  0.3637  0.1919  1.7793
 7008SOL     OW32482   0.232   0.153   3.693  0.2120 -0.1402 -0.9448
 7008SOL    HW132483   0.298   0.185   3.631 -0.4226  2.4080 -0.3280
 7008SOL    HW232484   0.230   0.227   3.754  0.7194 -0.4985 -0.4883
 7009SOL     OW32485   1.147   3.147   6.636 -0.3638 -0.1840 -0.0145
 7009SOL    HW132486   1.194   3.192   6.707 -0.5053  1.8266 -1.1994
 7009SOL    HW232487   1.216   3.134   6.571 -2.4265 -1.8242 -1.8420
 7010SOL     OW32488   1.216   0.760  12.259 -0.0055 -0.0586  0.3186
 7010SOL    HW132489   1.195   0.834  12.201  3.9018  1.0531  0.3135
 7010SOL    HW232490   1.194   0.801  12.343 -0.2001 -0.6589  0.5536
 7011SOL     OW32491   3.937   4.439  13.491  0.0454  0.0697  0.4209
 7011SOL    HW132492   3.946   4.525  13.532 -0.9464 -1.0859  3.0330
 7011SOL    HW232493   3.850   4.444  13.452 -1.0546  0.6872  2.9726
 7012SOL     OW32494   3.030   3.862  13.284 -0.2054  0.1975  1.0774
 7012SOL    HW132495   2.937   3.874  13.263 -0.5872  0.7336  3.0452
 7012SOL    HW232496   3.067   3.950  13.274  1.3585 -0.3019  2.6897
 7013SOL     OW32497   4.047   1.797   0.119  0.4861 -0.0334  0.0163
 7013SOL    HW132498   4.116   1.735   0.098  1.3441  1.5558 -1.9173
 7013SOL    HW232499   3.968   1.745   0.106 -0.4925  1.5597 -0.4472
 7014SOL     OW32500   2.726   1.284   6.378  0.4171  0.3337  0.3644
 7014SOL    HW132501   2.690   1.219   6.437  0.5953  0.8145  1.0046
 7014SOL    HW232502   2.647   1.330   6.350 -0.6687 -1.8215 -0.0410
 7015SOL     OW32503   3.213   3.590   4.042 -0.2453 -0.0930 -0.0404
 7015SOL    HW132504   3.142   3.527   4.055 -0.3265 -0.1298 -0.6778
 7015SOL    HW232505   3.291   3.535   4.027  0.1762  0.3436  0.5617
 7016SOL     OW32506   0.872   1.336   3.610  0.6862  0.0261 -0.2974
 7016SOL    HW132507   0.858   1.317   3.517 -1.2720 -0.5850  0.1215
 7016SOL    HW232508   0.877   1.249   3.650 -3.2035  0.1913  0.5182
 7017SOL     OW32509   2.307   3.342   8.555  0.2001  0.7568  0.3657
 7017SOL    HW132510   2.240   3.319   8.491  0.2546  2.4084 -0.2884
 7017SOL    HW232511   2.343   3.257   8.577 -1.3441  0.1381  0.4933
 7018SOL     OW32512   1.933   4.467   0.600  0.8546 -0.1255  0.5246
 7018SOL    HW132513   2.028   4.462   0.588  0.6579 -0.3065 -0.9056
 7018SOL    HW232514   1.925   4.556   0.635 -1.8485  0.2480 -1.1259
 7019SOL     OW32515   4.564   0.357   4.272  0.2604 -0.1105 -0.5220
 7019SOL    HW132516   4.544   0.266   4.296  2.7660 -0.0901  1.6021
 7019SOL    HW232517   4.536   0.363   4.180 -1.7457 -2.2520 -0.0733
 7020SOL     OW32518   1.965   4.072   1.947 -0.1700  0.8735  0.1919
 7020SOL    HW132519   1.975   4.102   1.856 -0.2105 -0.0951 -0.1387
 7020SOL    HW232520   2.013   3.989   1.949  0.6312  1.3139 -0.6827
 7021SOL     OW32521   4.483   0.928   2.455 -0.9516 -0.0728 -0.0368
 7021SOL    HW132522   4.441   1.003   2.415 -1.7250  0.0572  1.0298
 7021SOL    HW232523   4.504   0.876   2.378 -0.0107  0.6640 -0.2752
 7022SOL     OW32524   3.641   1.145   5.878 -0.2355  0.2088 -0.4142
 7022SOL    HW132525   3.553   1.182   5.878 -0.5570 -0.5811 -3.0815
 7022SOL    HW232526   3.660   1.168   5.969  1.5175 -0.0867 -0.7042
 7023SOL     OW32527   3.821   3.704   3.503 -0.0122 -0.1444  0.0325
 7023SOL    HW132528   3.895   3.643   3.497  0.7586  0.6836  1.0565
 7023SOL    HW232529   3.836   3.772   3.437  2.3064  0.6691  1.3814
 7024SOL     OW32530   3.012   4.251   3.703  0.1983  0.4903  0.4817
 7024SOL    HW132531   3.096   4.285   3.672  0.2725  0.2145  0.3782
 7024SOL    HW232532   3.051   4.170   3.739 -1.1361 -0.2762  0.1808
 7025SOL     OW32533   0.332   2.988   5.963 -0.3742  0.0610  0.1322
 7025SOL    HW132534   0.245   2.961   5.990 -0.1587 -2.2765 -1.5098
 7025SOL    HW232535   0.375   2.902   5.966  1.8315  1.0867 -1.2616
 7026SOL     OW32536   2.469   0.869  13.150 -0.3156  0.0754 -0.3169
 7026SOL    HW132537   2.422   0.933  13.203 -0.2692 -1.0501  1.0743
 7026SOL    HW232538   2.425   0.785  13.146  1.5541 -0.8296 -1.7781
 7027SOL     OW32539   0.515   4.507  12.624 -0.0401 -0.2592 -0.1637
 7027SOL    HW132540   0.570   4.466  12.691  2.3365 -1.0685 -2.5596
 7027SOL    HW232541   0.451   4.437  12.618 -0.3540 -0.0760  1.1085
 7028SOL     OW32542   1.714   1.044   4.495 -0.2275 -0.2126  0.2121
 7028SOL    HW132543   1.728   1.052   4.589  0.2980 -1.3835  0.2302
 7028SOL    HW232544   1.733   0.951   4.487  3.0027  0.2357  2.6946
 7029SOL     OW32545   2.383   1.975   1.298  0.3324 -0.4948  0.0785
 7029SOL    HW132546   2.452   1.987   1.363  1.2177 -2.9054 -0.4253
 7029SOL    HW232547   2.305   1.976   1.354  1.4797 -0.4085  1.6884
 7030SOL     OW32548   2.381   3.591   7.693  0.6404 -0.0409  0.4835
 7030SOL    HW132549   2.391   3.533   7.769 -1.1750 -0.0731  0.6967
 7030SOL    HW232550   2.472   3.587   7.664  0.4536 -4.1971  0.3569
 7031SOL     OW32551   2.149   0.277   4.428  0.4537 -0.3523 -0.2955
 7031SOL    HW132552   2.229   0.225   4.417  1.4573  0.7424  1.9276
 7031SOL    HW232553   2.091   0.218   4.475  1.7111  1.0824  3.0253
 7032SOL     OW32554   0.107   3.815  17.428  0.3956 -0.2034 -0.1002
 7032SOL    HW132555   0.195   3.853  17.430  0.2124  0.2337 -0.2147
 7032SOL    HW232556   0.043   3.883  17.449  0.7513  0.5520 -1.4299
 7033SOL     OW32557   2.255   0.354   7.617 -0.3003 -0.1425  0.0744
 7033SOL    HW132558   2.324   0.418   7.598 -0.0257 -0.6801 -0.7538
 7033SOL    HW232559   2.237   0.385   7.706 -4.3937 -0.5831 -0.6400
 7034SOL     OW32560   1.847   1.565  15.099 -0.0024  0.3808 -0.6583
 7034SOL    HW132561   1.759   1.562  15.062 -0.2275  1.8556 -0.2208
 7034SOL    HW232562   1.867   1.657  15.082  1.3813  0.5601  1.9747
 7035SOL     OW32563   2.763   2.495   7.516 -0.1390  0.0882  0.4199
 7035SOL    HW132564   2.766   2.503   7.612  0.8717 -1.9503  0.5587
 7035SOL    HW232565   2.680   2.541   7.499 -0.9022 -1.9680 -1.3163
 7036SOL     OW32566   0.091   2.254   1.216  0.1260 -0.4102 -0.5404
 7036SOL    HW132567   0.003   2.273   1.249  0.1581  1.1064 -1.3162
 7036SOL    HW232568   0.067   2.232   1.126 -2.7083  0.3138  0.0223
 7037SOL     OW32569   3.708   1.190  13.092 -0.2022 -0.5476 -0.4319
 7037SOL    HW132570   3.770   1.259  13.067 -1.0722  0.6797  0.7973
 7037SOL    HW232571   3.670   1.233  13.168  0.9380 -1.3937  0.6029
 7038SOL     OW32572   3.603   1.804   8.983 -0.3405  0.0927  0.2589
 7038SOL    HW132573   3.567   1.884   9.020 -1.2799  0.0241 -0.5184
 7038SOL    HW232574   3.621   1.828   8.892 -0.5397 -0.7022  0.0063
 7039SOL     OW32575   1.937   1.735   3.545  0.2525  0.9231  0.1875
 7039SOL    HW132576   1.899   1.663   3.595 -0.9898  1.8039  0.4907
 7039SOL    HW232577   2.025   1.743   3.584  0.1989  2.0255  0.0909
 7040SOL     OW32578   1.064   3.962  12.113 -0.2044  0.0792  0.6161
 7040SOL    HW132579   1.056   3.883  12.168 -2.6402  1.3349  2.1011
 7040SOL    HW232580   1.134   3.940  12.052 -0.5011  1.6546 -0.2738
 7041SOL     OW32581   2.220   2.731   3.443  0.0041  0.0442  0.3842
 7041SOL    HW132582   2.191   2.783   3.518  0.5559  1.8683 -0.6563
 7041SOL    HW232583   2.202   2.788   3.368  0.5097  0.0217  0.2448
 7042SOL     OW32584   0.338   0.170   7.640  0.6181  0.0672  0.2487
 7042SOL    HW132585   0.425   0.176   7.679  1.8354 -1.6796 -2.1980
 7042SOL    HW232586   0.354   0.223   7.562 -1.9829 -0.6326 -0.7618
 7043SOL     OW32587   3.554   3.546   7.579 -0.4318 -0.2155 -0.1510
 7043SOL    HW132588   3.567   3.559   7.485 -1.4625  1.5278 -0.0534
 7043SOL    HW232589   3.535   3.452   7.585 -0.1624 -0.2005  0.7790
 7044SOL     OW32590   3.935   0.870  16.880  0.4788  0.3225 -0.1533
 7044SOL    HW132591   3.967   0.908  16.962 -2.8530  1.7418  0.4755
 7044SOL    HW232592   3.859   0.927  16.871 -1.0814 -1.5344  1.1630
 7045SOL     OW32593   4.169   4.079  10.073 -0.1167 -0.8026 -0.2652
 7045SOL    HW132594   4.128   4.145  10.018  0.0710  0.3798  1.0021
 7045SOL    HW232595   4.217   4.130  10.139 -1.9018  2.5837 -1.6066
 7046SOL     OW32596   0.433   2.165   5.526  0.3488  0.2102  0.5096
 7046SOL    HW132597   0.392   2.095   5.475 -0.7489  2.0829 -1.1777
 7046SOL    HW232598   0.362   2.223   5.499 -0.3019 -0.2576  1.1963
 7047SOL     OW32599   1.585   2.478  14.710  0.0254  0.2693  0.1273
 7047SOL    HW132600   1.537   2.535  14.651  0.4502 -2.0760 -2.4546
 7047SOL    HW232601   1.617   2.413  14.647 -2.6959 -1.1937  0.2878
 7048SOL     OW32602   3.738   3.728   1.738 -0.2657 -0.4658  0.4534
 7048SOL    HW132603   3.712   3.770   1.820  1.7006  2.7943 -0.5915
 7048SOL    HW232604   3.766   3.797   1.677 -2.8752  0.8647  0.7519
 7049SOL     OW32605   2.642   3.403  17.227  0.6078 -0.5024 -0.9636
 7049SOL    HW132606   2.645   3.350  17.148  1.4542  0.1571 -1.3830
 7049SOL    HW232607   2.726   3.388  17.270  1.2169 -0.1961 -2.0383
 7050SOL     OW32608   0.917   4.109  11.431 -0.7726  0.1937  0.2138
 7050SOL    HW132609   1.007   4.075  11.432 -1.2683 -1.1591 -0.1854
 7050SOL    HW232610   0.882   4.105  11.520 -0.6830  0.6659  0.2704
 7051SOL     OW32611   4.188   2.334   2.408  0.9507  0.1304 -0.4921
 7051SOL    HW132612   4.216   2.276   2.479 -0.1585  0.3214  0.0920
 7051SOL    HW232613   4.098   2.305   2.396  1.3865 -0.9192 -1.2209
 7052SOL     OW32614   4.468   3.538   1.058  0.8039 -0.1553 -0.1885
 7052SOL    HW132615   4.403   3.530   0.988  1.6428 -0.3852 -0.9336
 7052SOL    HW232616   4.524   3.608   1.024  0.0085  1.4409  1.8102
 7053SOL     OW32617   0.369   4.191   4.286  0.4445  0.3850  0.1760
 7053SOL    HW132618   0.337   4.214   4.373 -2.3020 -2.4061 -0.0656
 7053SOL    HW232619   0.317   4.259   4.243  1.7611  1.6563  0.6045
 7054SOL     OW32620   0.352   1.875  17.526 -0.9901 -0.0277 -0.0955
 7054SOL    HW132621   0.431   1.926  17.543 -0.3394 -1.9159  2.4706
 7054SOL    HW232622   0.307   1.875  17.610  1.0604 -2.3744  1.0062
 7055SOL     OW32623   1.575   3.937   8.651  0.1176 -0.1681 -0.2528
 7055SOL    HW132624   1.484   3.967   8.651 -0.4098 -1.7961 -2.3401
 7055SOL    HW232625   1.554   3.854   8.694 -1.9073 -0.7738 -2.3856
 7056SOL     OW32626   4.499   1.004   9.341 -0.1371  0.2589 -0.7563
 7056SOL    HW132627   4.506   0.935   9.275  1.4010 -0.3139  0.0192
 7056SOL    HW232628   4.493   1.084   9.289 -2.4473 -0.1069 -1.0680
 7057SOL     OW32629   1.612   1.581   2.078  0.4506  0.0614 -0.2974
 7057SOL    HW132630   1.620   1.671   2.049 -0.4705  0.1845 -0.1680
 7057SOL    HW232631   1.548   1.581   2.150 -0.9054  0.4340 -1.5101
 7058SOL     OW32632   4.532   4.573   8.523 -0.3253 -0.1722  0.0286
 7058SOL    HW132633   4.459   4.593   8.582 -1.3061 -0.8334 -0.9757
 7058SOL    HW232634   4.563   4.487   8.550 -0.6261 -1.0776 -2.5359
 7059SOL     OW32635   2.720   4.373   4.348 -0.3816 -0.1008 -0.2639
 7059SOL    HW132636   2.784   4.303   4.337 -1.5522 -0.8607 -2.3136
 7059SOL    HW232637   2.720   4.383   4.443 -0.9847  1.7152 -0.4522
 7060SOL     OW32638   2.311   3.262   7.591  0.3693  0.1731  0.5175
 7060SOL    HW132639   2.387   3.210   7.564 -1.0360 -1.3001 -0.5387
 7060SOL    HW232640   2.291   3.299   7.505  0.9428  1.6894  1.0349
 7061SOL     OW32641   1.404   2.101   3.191 -0.1054 -0.1151 -0.4978
 7061SOL    HW132642   1.354   2.102   3.272  0.7072 -0.2988  0.0112
 7061SOL    HW232643   1.469   2.032   3.205 -2.5378 -2.2099  0.3694
 7062SOL     OW32644   2.173   2.834   4.703 -0.0920  0.2060  0.4295
 7062SOL    HW132645   2.110   2.858   4.635  2.0083 -1.8196 -2.2267
 7062SOL    HW232646   2.224   2.769   4.655 -1.1945  0.4613 -1.0869
 7063SOL     OW32647   1.705   3.398   8.356 -0.0904 -0.4396  0.0526
 7063SOL    HW132648   1.772   3.459   8.323  2.4270 -3.3987 -0.3327
 7063SOL    HW232649   1.748   3.370   8.437 -2.5297  0.3197  1.5917
 7064SOL     OW32650   3.229   4.274   7.765  0.1756 -0.3412 -0.1799
 7064SOL    HW132651   3.155   4.295   7.709  0.2565 -0.6324 -0.3967
 7064SOL    HW232652   3.206   4.280   7.858 -0.5391  1.3369 -0.4676
 7065SOL     OW32653   1.562   4.601   6.802  0.0080  0.0291 -0.5510
 7065SOL    HW132654   1.629   4.669   6.815 -0.7844  0.4313  1.5435
 7065SOL    HW232655   1.605   4.565   6.725  2.2789 -1.5751  1.4483
 7066SOL     OW32656   2.052   4.280   3.163 -0.1344 -0.2571 -0.4163
 7066SOL    HW132657   2.113   4.345   3.127 -0.2652 -0.4547 -0.9961
 7066SOL    HW232658   2.075   4.205   3.108  1.4485 -1.5175  1.9163
 7067SOL     OW32659   1.791   0.587   2.705 -0.0648  0.0261  0.7296
 7067SOL    HW132660   1.777   0.573   2.611  1.6230  0.5385  0.4145
 7067SOL    HW232661   1.885   0.605   2.703  0.3275 -2.1804 -0.8437
 7068SOL     OW32662   4.502   0.930  16.846  0.5599 -0.3489  0.0669
 7068SOL    HW132663   4.428   0.942  16.905  0.1195 -1.0125 -0.3504
 7068SOL    HW232664   4.467   0.858  16.793 -0.2786 -0.1097  0.2884
 7069SOL     OW32665   0.702   3.558   2.641 -0.2468 -0.1583 -0.1241
 7069SOL    HW132666   0.732   3.471   2.616 -0.4813 -0.0842 -0.6625
 7069SOL    HW232667   0.612   3.561   2.609 -0.0527  2.3413 -0.5077
 7070SOL     OW32668   2.378   4.560   9.464 -0.4287  0.4202 -0.5976
 7070SOL    HW132669   2.314   4.602   9.521 -2.2210 -0.7975 -1.7180
 7070SOL    HW232670   2.343   4.471   9.472  0.3173  0.2497  0.8240
 7071SOL     OW32671   3.194   3.966  14.324  0.4654 -0.0891 -0.2648
 7071SOL    HW132672   3.211   4.016  14.243 -1.1956  2.1666  0.7704
 7071SOL    HW232673   3.288   3.968  14.341  0.2157 -0.9398  1.1236
 7072SOL     OW32674   3.821   2.931  13.467 -0.5268  0.3914 -0.9001
 7072SOL    HW132675   3.726   2.923  13.461 -0.5751 -1.9312  2.5127
 7072SOL    HW232676   3.851   2.841  13.479 -2.9667 -0.4504 -1.2150
 7073SOL     OW32677   0.395   3.746   5.841 -0.1592  0.0516  0.0608
 7073SOL    HW132678   0.309   3.703   5.839 -1.1001  2.0737 -2.4201
 7073SOL    HW232679   0.405   3.755   5.936 -0.2054  0.8336 -0.0089
 7074SOL     OW32680   2.113   2.723  13.108 -0.2779  0.1912 -0.9729
 7074SOL    HW132681   2.145   2.635  13.127 -2.4737 -0.4743 -0.3936
 7074SOL    HW232682   2.188   2.759  13.060 -1.5440  0.1848 -2.9630
 7075SOL     OW32683   2.942   1.605   9.520  0.0586  0.0395  0.5209
 7075SOL    HW132684   2.904   1.519   9.505  0.2445 -0.2603  1.8006
 7075SOL    HW232685   2.933   1.627   9.613  2.0596  1.0395  0.5019
 7076SOL     OW32686   0.170   1.034  13.033  0.3983 -0.2617  0.3874
 7076SOL    HW132687   0.146   0.961  12.976  1.1449 -0.0349 -0.2104
 7076SOL    HW232688   0.251   1.062  12.990 -0.1855  1.1520  0.1975
 7077SOL     OW32689   2.397   1.845   9.015  0.5923  0.0031 -0.0063
 7077SOL    HW132690   2.428   1.834   9.105  0.0047 -1.7269 -0.0207
 7077SOL    HW232691   2.302   1.850   9.025  0.5134  0.3950 -0.9450
 7078SOL     OW32692   1.288   0.876   8.465  0.0977  0.3868  0.2959
 7078SOL    HW132693   1.270   0.792   8.508  0.1665 -0.5513 -1.5290
 7078SOL    HW232694   1.252   0.938   8.528  0.9268 -0.2183  1.3765
 7079SOL     OW32695   2.710   4.161   7.042 -0.2188 -0.5818 -0.1132
 7079SOL    HW132696   2.720   4.147   6.948 -0.3794 -0.5887 -0.1297
 7079SOL    HW232697   2.615   4.178   7.042  0.0101  0.7060  0.1046
 7080SOL     OW32698   1.712   0.935   5.745 -0.1585 -0.4644  0.3132
 7080SOL    HW132699   1.700   1.030   5.740  1.8199 -0.3506 -2.2676
 7080SOL    HW232700   1.794   0.932   5.695 -0.6446  1.5266 -0.5710
 7081SOL     OW32701   4.225   3.098   7.210  0.2097  0.4359 -0.3032
 7081SOL    HW132702   4.230   3.035   7.138  1.6814 -0.4059  0.5448
 7081SOL    HW232703   4.288   3.068   7.275  0.6171  0.2005 -0.8036
 7082SOL     OW32704   4.228   2.954   2.924  0.1225 -0.3888  0.3432
 7082SOL    HW132705   4.145   2.952   2.875 -0.1305  0.7088  0.7296
 7082SOL    HW232706   4.273   2.874   2.896 -0.7050 -0.3287 -1.1723
 7083SOL     OW32707   4.213   0.653   8.119 -0.2486  0.5212  0.1079
 7083SOL    HW132708   4.205   0.644   8.213  3.9600 -2.0031  0.1900
 7083SOL    HW232709   4.272   0.581   8.100  1.4338  1.8214  0.3493
 7084SOL     OW32710   0.847   4.055   2.579 -0.3099 -0.2246  0.0074
 7084SOL    HW132711   0.789   4.114   2.627  1.9813  2.4885 -0.5574
 7084SOL    HW232712   0.795   3.976   2.564  1.2708 -1.3725  0.6041
 7085SOL     OW32713   1.724   4.716   5.919 -0.3391 -0.4757 -0.2562
 7085SOL    HW132714   1.712   4.654   5.847 -0.8907 -0.6567 -0.0034
 7085SOL    HW232715   1.748   0.076   5.876 -0.2690  0.2746  1.2214
 7086SOL     OW32716   1.629   4.143  17.109  0.1346 -0.1862  0.6042
 7086SOL    HW132717   1.702   4.186  17.066 -1.2707  0.3962 -1.1713
 7086SOL    HW232718   1.663   4.140  17.199 -2.4227  1.4054  1.6274
 7087SOL     OW32719   3.714   2.733   1.402 -0.2174  0.3994  0.4375
 7087SOL    HW132720   3.744   2.806   1.347 -0.3978 -0.6991 -1.1095
 7087SOL    HW232721   3.801   2.695   1.412  0.4973  1.4827 -1.5404
 7088SOL     OW32722   4.153   0.095  17.405  0.0411  0.8244  0.5725
 7088SOL    HW132723   4.136   0.124  17.494 -0.3865 -1.1635  1.1340
 7088SOL    HW232724   4.062   0.086  17.376 -0.9930  1.8860  3.5555
 7089SOL     OW32725   1.544   0.049  12.414  0.1979 -0.1087  0.0440
 7089SOL    HW132726   1.572   4.707  12.480  0.1266 -1.5236 -1.3107
 7089SOL    HW232727   1.612   0.049  12.347  0.5801  0.4164  0.4385
 7090SOL     OW32728   4.517   4.276  16.095 -0.3982 -0.0923 -0.0844
 7090SOL    HW132729   4.480   4.262  16.182  1.2097  1.8143  0.8873
 7090SOL    HW232730   4.568   4.197  16.077 -0.4345 -0.6012  2.1291
 7091SOL     OW32731   1.796   4.315   6.357  0.6582 -0.0785  0.4509
 7091SOL    HW132732   1.829   4.250   6.419  0.9134 -0.3489  0.0341
 7091SOL    HW232733   1.860   4.316   6.285  1.8962  1.9416  1.5645
 7092SOL     OW32734   1.760   2.469   4.324  0.3414  0.0863 -0.1040
 7092SOL    HW132735   1.844   2.515   4.326  1.2764 -1.6924  1.4230
 7092SOL    HW232736   1.721   2.523   4.393  0.8718  1.7032 -1.0543
 7093SOL     OW32737   1.384   3.062   5.896  0.3116  0.1757  0.4058
 7093SOL    HW132738   1.457   3.019   5.851  1.5913  2.2787  0.4516
 7093SOL    HW232739   1.320   2.994   5.878  0.3684  0.3499 -0.4721
 7094SOL     OW32740   0.155   0.888  16.151  0.2578 -0.3976 -0.2698
 7094SOL    HW132741   0.144   0.935  16.234 -1.8945  2.2087 -2.0311
 7094SOL    HW232742   0.110   0.945  16.088  1.5415  0.2634 -0.5943
 7095SOL     OW32743   1.344   0.409   8.693 -0.1871 -0.5803 -0.4807
 7095SOL    HW132744   1.306   0.427   8.779 -0.2074  1.8646 -1.0118
 7095SOL    HW232745   1.306   0.323   8.674  1.0978 -0.8903 -1.6454
 7096SOL     OW32746   2.422   1.368  14.804  0.3637 -0.2726  0.4197
 7096SOL    HW132747   2.433   1.435  14.736  0.9792 -2.0250 -1.1842
 7096SOL    HW232748   2.328   1.387  14.815  0.1940 -0.3436 -0.9375
 7097SOL     OW32749   2.728   2.914  11.925  0.4465  0.2238  0.0425
 7097SOL    HW132750   2.730   2.951  11.837 -2.2977 -0.2956 -0.2365
 7097SOL    HW232751   2.822   2.929  11.937  0.6751  0.0470 -1.5016
 7098SOL     OW32752   2.985   0.066   9.037 -0.2686  0.4144  0.1623
 7098SOL    HW132753   3.067   0.047   9.083  0.9207 -2.7415 -3.2213
 7098SOL    HW232754   2.942   0.136   9.086  1.9436  1.3730  0.7287
 7099SOL     OW32755   0.918   4.249  13.224 -0.5122  0.1132  0.0882
 7099SOL    HW132756   0.977   4.295  13.284  0.1402 -1.7347  0.8666
 7099SOL    HW232757   0.977   4.211  13.158 -0.4808  1.6642 -0.8056
 7100SOL     OW32758   2.454   2.431   0.685  0.7520  0.3886 -0.1386
 7100SOL    HW132759   2.514   2.357   0.692  0.7659  0.6989  3.2539
 7100SOL    HW232760   2.414   2.435   0.772 -1.2016  0.0621 -1.0377
 7101SOL     OW32761   2.439   1.313   1.754  0.2496 -0.2898  0.6436
 7101SOL    HW132762   2.397   1.236   1.791 -0.4169 -0.2654 -0.0440
 7101SOL    HW232763   2.500   1.265   1.698 -1.4405 -1.0509 -0.5318
 7102SOL     OW32764   0.230   4.042   5.586 -0.2035 -0.2043  0.2494
 7102SOL    HW132765   0.159   4.080   5.534  0.7125 -1.7401 -2.1309
 7102SOL    HW232766   0.231   3.951   5.559  0.2352 -0.3169  0.6459
 7103SOL     OW32767   2.302   0.845   1.229  0.1156 -0.0803 -0.5655
 7103SOL    HW132768   2.291   0.940   1.235  0.2901 -0.0212 -1.1827
 7103SOL    HW232769   2.229   0.808   1.279  0.4904 -0.0039  0.0378
 7104SOL     OW32770   4.112   0.056  10.644 -0.4074 -0.4381 -0.8004
 7104SOL    HW132771   4.090   0.047  10.551  0.4915  0.7231 -1.1261
 7104SOL    HW232772   4.025   0.077  10.677  0.9462  4.8545 -0.6639
 7105SOL     OW32773   0.018   3.903  12.586 -0.1388 -0.2966 -0.0007
 7105SOL    HW132774   0.033   3.843  12.513 -0.0160 -0.1398 -0.1053
 7105SOL    HW232775   4.666   3.869  12.636  0.4648 -0.5935  0.6804
 7106SOL     OW32776   1.306   1.602   9.609  0.7874 -0.3912 -0.2391
 7106SOL    HW132777   1.245   1.639   9.673 -0.2127  0.0988 -1.4634
 7106SOL    HW232778   1.275   1.512   9.596  1.5025 -0.5574 -0.8232
 7107SOL     OW32779   2.990   1.472   7.362 -0.1212  0.0595 -0.3199
 7107SOL    HW132780   2.926   1.401   7.361  0.4707 -0.4917  0.3331
 7107SOL    HW232781   2.994   1.477   7.458 -0.5610  0.0543 -0.3045
 7108SOL     OW32782   0.428   3.759   5.576 -0.6644 -0.0528 -0.4126
 7108SOL    HW132783   0.503   3.701   5.565  2.0857  3.0683  1.8617
 7108SOL    HW232784   0.419   3.754   5.671  1.6412 -0.0129 -0.1896
 7109SOL     OW32785   2.920   0.898   3.424 -0.1433 -0.2657  0.0697
 7109SOL    HW132786   2.993   0.846   3.456  1.1786  0.4223 -1.8158
 7109SOL    HW232787   2.956   0.945   3.349  1.2252 -2.4709 -0.6552
 7110SOL     OW32788   1.357   2.376  13.999  0.2613 -0.0535  0.0412
 7110SOL    HW132789   1.304   2.399  14.076  1.1511  0.9149  0.3590
 7110SOL    HW232790   1.311   2.297  13.970  0.3475  1.0265 -2.9840
 7111SOL     OW32791   0.103   1.706   6.906  0.0958  0.0503 -0.0579
 7111SOL    HW132792   0.048   1.777   6.873 -0.7823  0.4158  2.1733
 7111SOL    HW232793   0.095   1.639   6.838  2.1872  1.0143 -1.2692
 7112SOL     OW32794   2.084   4.045   6.508 -0.4917  0.0171  0.6048
 7112SOL    HW132795   2.140   4.117   6.479  1.6759 -1.3759  1.3516
 7112SOL    HW232796   2.129   4.007   6.583 -1.2031 -2.1126 -0.0588
 7113SOL     OW32797   3.657   3.350  15.350  0.4665 -0.4141  0.3702
 7113SOL    HW132798   3.658   3.404  15.429 -1.1265  2.5960 -1.6787
 7113SOL    HW232799   3.689   3.408  15.281  2.0211 -0.8596  0.7190
 7114SOL     OW32800   3.193   2.609  17.377  0.2081  0.3239  0.2787
 7114SOL    HW132801   3.197   2.677  17.310  0.3893 -0.2669 -0.3121
 7114SOL    HW232802   3.251   2.651  17.440  0.1953 -0.6031  0.9022
 7115SOL     OW32803   3.341   2.911  11.560  0.0347  0.5929  0.0365
 7115SOL    HW132804   3.397   2.884  11.633 -2.1996  0.5803  1.7207
 7115SOL    HW232805   3.402   2.973  11.520  1.9728 -0.9511  0.5676
 7116SOL     OW32806   4.293   0.240   7.505  0.0938  0.1319 -0.4555
 7116SOL    HW132807   4.267   0.160   7.551  0.7750  0.6954  0.9003
 7116SOL    HW232808   4.220   0.246   7.443 -1.0389  2.2498  1.1075
 7117SOL     OW32809   0.482   0.652  17.210 -0.1611  0.1685  0.2334
 7117SOL    HW132810   0.515   0.666  17.299  1.2744 -0.8803 -0.1380
 7117SOL    HW232811   0.395   0.613  17.220 -0.3457  0.5077 -0.0931
 7118SOL     OW32812   2.015   3.654  12.690  0.1668 -0.4214  0.0509
 7118SOL    HW132813   1.969   3.629  12.769 -1.9012 -2.3659 -1.7684
 7118SOL    HW232814   1.989   3.745  12.674  0.5593 -0.0667  1.4400
 7119SOL     OW32815   4.114   3.366  14.652 -0.4022  0.1013  0.0526
 7119SOL    HW132816   4.063   3.442  14.678  0.2256  0.5950 -0.1684
 7119SOL    HW232817   4.075   3.291  14.697 -0.6959  0.3941  0.2849
 7120SOL     OW32818   3.425   4.129  16.371 -0.4104  0.3806  0.3542
 7120SOL    HW132819   3.426   4.050  16.316  2.2354 -0.9066  2.2176
 7120SOL    HW232820   3.335   4.118  16.401 -0.5825  0.4729 -0.1253
 7121SOL     OW32821   3.363   1.560   4.836 -0.4745 -0.1244  0.0155
 7121SOL    HW132822   3.351   1.519   4.750 -2.8180  1.8199 -0.5997
 7121SOL    HW232823   3.446   1.609   4.831  0.9252 -2.8134 -3.0909
 7122SOL     OW32824   2.569   3.605  16.860 -0.1073  0.2023 -0.5772
 7122SOL    HW132825   2.489   3.576  16.903  0.2638  1.4980  0.9840
 7122SOL    HW232826   2.550   3.696  16.839  1.6595  1.1378  1.8155
 7123SOL     OW32827   0.911   3.488   8.286  0.0576  0.0959  0.2442
 7123SOL    HW132828   0.919   3.579   8.256 -1.5395  0.0367 -0.4003
 7123SOL    HW232829   1.001   3.456   8.289 -0.0809 -0.4357 -1.1187
 7124SOL     OW32830   0.279   3.113   4.519  0.2367 -0.1920 -0.2912
 7124SOL    HW132831   0.353   3.072   4.475  0.3231  0.4230 -0.7250
 7124SOL    HW232832   0.213   3.135   4.453  2.7426  0.8129 -2.4648
 7125SOL     OW32833   3.105   1.888   6.536 -0.1647  0.3964 -0.1924
 7125SOL    HW132834   3.081   1.823   6.470 -3.5920  1.6330 -0.1496
 7125SOL    HW232835   3.175   1.841   6.583  1.0648  1.6277 -0.7883
 7126SOL     OW32836   0.802   0.858   8.076 -0.2694  0.3003  0.3149
 7126SOL    HW132837   0.859   0.782   8.075  0.0808  0.5487  1.5185
 7126SOL    HW232838   0.866   0.928   8.068 -0.6072  0.7397  1.5190
 7127SOL     OW32839   1.675   3.243  15.044 -0.2257 -0.1078 -0.2664
 7127SOL    HW132840   1.629   3.279  14.969 -0.4840 -1.4669 -0.7688
 7127SOL    HW232841   1.614   3.231  15.116 -1.5339  1.3479 -1.1464
 7128SOL     OW32842   3.822   4.572   7.002  0.3039 -0.0769  0.9903
 7128SOL    HW132843   3.762   4.499   6.991  0.1975 -0.0276  1.2385
 7128SOL    HW232844   3.775   4.651   7.030 -1.6728 -0.8836 -0.0826
 7129SOL     OW32845   4.672   1.462   5.664 -0.2177 -0.4456  0.0787
 7129SOL    HW132846   4.583   1.482   5.692 -0.8139 -2.5456 -0.2941
 7129SOL    HW232847   4.704   1.551   5.651  0.3422 -0.4595  1.3764
 7130SOL     OW32848   1.892   1.291   3.679  0.4731  0.2690 -0.2291
 7130SOL    HW132849   1.829   1.221   3.661  1.5704 -0.3326 -1.6757
 7130SOL    HW232850   1.946   1.248   3.745 -0.8494  0.6227  1.0956
 7131SOL     OW32851   2.144   2.805  11.057  0.3572  0.4803  0.4313
 7131SOL    HW132852   2.143   2.840  10.967 -1.2322 -2.8330 -0.8247
 7131SOL    HW232853   2.096   2.727  11.030 -4.1187  2.6539  2.1881
 7132SOL     OW32854   2.183   2.620  12.027  0.0069 -0.0842  0.3388
 7132SOL    HW132855   2.218   2.531  12.033 -1.4138 -0.5552  1.5446
 7132SOL    HW232856   2.144   2.622  11.940 -0.5249  0.5370  0.5932
 7133SOL     OW32857   1.803   0.620   8.825 -0.0111  0.4249  0.5584
 7133SOL    HW132858   1.794   0.667   8.742 -1.3169  1.4438  1.2889
 7133SOL    HW232859   1.759   0.541   8.792  1.8651 -1.0006  1.4490
 7134SOL     OW32860   0.843   1.808   3.605 -0.5603 -0.0823  0.3786
 7134SOL    HW132861   0.835   1.729   3.658  1.3802 -0.3541  0.2469
 7134SOL    HW232862   0.768   1.795   3.546  1.0213 -0.1067 -1.6195
 7135SOL     OW32863   1.075   2.436   6.352 -0.1778 -0.0189 -0.4542
 7135SOL    HW132864   1.035   2.502   6.409 -0.4029 -1.3151  0.8483
 7135SOL    HW232865   1.028   2.360   6.384 -0.0368 -0.0539 -0.3326
 7136SOL     OW32866   1.585   1.712  14.812 -0.1860  0.3761  0.2323
 7136SOL    HW132867   1.606   1.683  14.901 -1.1972 -0.6447  0.1422
 7136SOL    HW232868   1.668   1.752  14.786 -0.3221 -0.6313 -1.7523
 7137SOL     OW32869   3.802   2.467   8.332  0.9416  0.4566 -0.3977
 7137SOL    HW132870   3.814   2.540   8.392 -1.6549  0.0139  0.6445
 7137SOL    HW232871   3.737   2.503   8.271  1.8766  2.9626  0.0968
 7138SOL     OW32872   1.784   1.799   0.191 -0.2421 -0.5799  0.2698
 7138SOL    HW132873   1.761   1.759   0.107  0.5375 -1.5300  0.5193
 7138SOL    HW232874   1.808   1.885   0.157  1.7613 -0.6039  1.6550
 7139SOL     OW32875   2.453   3.567   5.239 -0.1403  0.3350  0.2071
 7139SOL    HW132876   2.358   3.572   5.256  0.3517  1.8991  2.5767
 7139SOL    HW232877   2.463   3.656   5.206  1.6010  1.3658  3.5314
 7140SOL     OW32878   4.465   4.141  13.998  0.0058 -0.0959  0.8108
 7140SOL    HW132879   4.544   4.090  13.976 -0.9107 -1.2219  0.1194
 7140SOL    HW232880   4.453   4.196  13.921 -0.7899 -0.0990  0.9410
 7141SOL     OW32881   4.519   1.483   9.106 -0.1985 -0.0363 -0.4468
 7141SOL    HW132882   4.510   1.569   9.148  2.1267  0.2548 -0.5502
 7141SOL    HW232883   4.479   1.506   9.022 -0.0926 -2.1607 -1.0597
 7142SOL     OW32884   3.187   4.080  11.952 -0.1052  0.2468 -0.0819
 7142SOL    HW132885   3.223   4.134  11.882  0.7089 -0.1680  0.0245
 7142SOL    HW232886   3.095   4.083  11.925  0.7668 -0.7040 -3.1389
 7143SOL     OW32887   4.612   4.573   6.280 -0.5684 -0.1894 -0.1489
 7143SOL    HW132888   4.668   4.515   6.228  2.5329  1.4267  1.3952
 7143SOL    HW232889   4.640   4.660   6.250 -1.4510 -0.1066 -0.7435
 7144SOL     OW32890   3.001   3.565   0.942 -0.3031 -0.3240 -0.5250
 7144SOL    HW132891   2.974   3.561   1.034  3.2775 -2.4124  0.4386
 7144SOL    HW232892   3.094   3.584   0.953 -0.5439 -0.9560  2.5246
 7145SOL     OW32893   3.838   1.875   6.429  0.0470  0.2580 -0.5160
 7145SOL    HW132894   3.846   1.836   6.516  0.5374  2.3441  0.3683
 7145SOL    HW232895   3.767   1.938   6.440 -0.9417 -0.9971  0.1825
 7146SOL     OW32896   1.613   2.759   8.085  0.2427 -0.7455 -0.7070
 7146SOL    HW132897   1.536   2.741   8.031  0.1440 -2.5499  0.0603
 7146SOL    HW232898   1.584   2.834   8.137  0.9620 -1.3322  0.5265
 7147SOL     OW32899   2.590   1.932   2.300  0.1027 -0.0580  0.3074
 7147SOL    HW132900   2.658   1.931   2.233  2.7206  0.7875  2.9135
 7147SOL    HW232901   2.591   1.849   2.347 -2.1889 -1.4568 -2.1425
 7148SOL     OW32902   3.297   3.762   5.825 -0.3555 -0.0147  0.7543
 7148SOL    HW132903   3.250   3.749   5.742  0.1453 -0.0265  0.4726
 7148SOL    HW232904   3.244   3.833   5.862 -3.8917 -1.7868 -0.8510
 7149SOL     OW32905   4.322   0.652  16.903 -0.6030  0.1679  0.2371
 7149SOL    HW132906   4.287   0.728  16.856 -1.6760 -1.4245 -1.5452
 7149SOL    HW232907   4.247   0.592  16.899 -0.4387  0.1452 -2.2687
 7150SOL     OW32908   3.920   0.031  15.235 -0.1024  0.1476  0.5067
 7150SOL    HW132909   3.894   0.119  15.260 -0.2360  0.4203 -0.5703
 7150SOL    HW232910   4.014   0.042  15.219 -0.0946 -1.3522 -0.5917
 7151SOL     OW32911   2.080   2.938   2.579  0.2778 -0.6102  0.2616
 7151SOL    HW132912   2.054   2.847   2.564  3.5331 -1.7012  1.3868
 7151SOL    HW232913   2.128   2.923   2.660  1.1803  0.9899  0.0144
 7152SOL     OW32914   3.023   3.466  11.623 -0.3489 -0.6920 -0.3738
 7152SOL    HW132915   3.019   3.434  11.533  0.2043 -0.8108 -0.3624
 7152SOL    HW232916   2.935   3.501  11.630  0.3368  0.6969  1.2769
 7153SOL     OW32917   2.896   0.402   4.187  0.5879 -0.7470 -0.5207
 7153SOL    HW132918   2.923   0.489   4.217 -1.2602 -0.3441 -0.0384
 7153SOL    HW232919   2.847   0.375   4.264  0.9350  0.9391  0.3045
 7154SOL     OW32920   2.500   0.881   8.281  0.0470  0.1088  0.3609
 7154SOL    HW132921   2.537   0.803   8.239  1.6666  0.7086  0.6714
 7154SOL    HW232922   2.406   0.864   8.282  0.3443 -1.3900  2.7474
 7155SOL     OW32923   3.077   2.537  15.216 -0.8972 -0.4122  0.0859
 7155SOL    HW132924   3.011   2.468  15.203 -2.6154  1.4626 -1.1408
 7155SOL    HW232925   3.079   2.580  15.131 -0.0537  0.7685  0.7135
 7156SOL     OW32926   3.719   3.900   1.194  0.6629 -0.1857  0.2296
 7156SOL    HW132927   3.749   3.879   1.105  0.3880  0.3960 -0.0011
 7156SOL    HW232928   3.673   3.982   1.179 -0.2702 -0.7775 -0.1845
 7157SOL     OW32929   4.357   1.469   6.069  0.0972  0.1572  0.1203
 7157SOL    HW132930   4.358   1.436   6.158  0.1258  2.0633  0.8207
 7157SOL    HW232931   4.299   1.401   6.035 -0.2936 -1.4415  4.0229
 7158SOL     OW32932   2.830   4.424  14.347  0.4227 -0.1546 -0.4971
 7158SOL    HW132933   2.823   4.498  14.287  1.3953  1.2586  1.1654
 7158SOL    HW232934   2.740   4.409  14.373  0.8191  1.0256  1.5363
 7159SOL     OW32935   1.685   4.052   2.391  0.6606  0.6652  0.2025
 7159SOL    HW132936   1.653   4.124   2.444  2.1353 -0.0293  2.0290
 7159SOL    HW232937   1.776   4.079   2.402  0.5295  0.3966  1.9521
 7160SOL     OW32938   1.172   0.377  14.416  0.7810 -0.1866  0.4263
 7160SOL    HW132939   1.215   0.463  14.407  1.0025 -0.1975  1.3733
 7160SOL    HW232940   1.149   0.354  14.326 -0.4401  0.1273  0.6616
 7161SOL     OW32941   1.911   2.334  16.926 -0.9607  0.3366  0.6876
 7161SOL    HW132942   1.858   2.379  16.991  0.3750  1.4016  1.0577
 7161SOL    HW232943   1.972   2.404  16.904 -0.6141  0.4497  2.0047
 7162SOL     OW32944   4.016   4.248   2.512 -0.3481 -0.4382 -0.1889
 7162SOL    HW132945   4.012   4.186   2.584 -0.0002  0.0363  0.2425
 7162SOL    HW232946   4.052   4.184   2.451 -0.7374 -2.6349  1.9143
 7163SOL     OW32947   4.401   3.699   4.167  0.4601 -0.2248 -0.3697
 7163SOL    HW132948   4.457   3.629   4.200  0.7727  0.5439  0.7409
 7163SOL    HW232949   4.406   3.702   4.071  0.4634  2.5494 -0.2935
 7164SOL     OW32950   1.770   0.410   3.679 -0.4551 -0.2974  0.2023
 7164SOL    HW132951   1.791   0.344   3.745 -0.6801  1.1224  1.7042
 7164SOL    HW232952   1.831   0.382   3.611  1.2913  0.4832  1.4186
 7165SOL     OW32953   4.017   1.912   2.767  0.2507 -0.5109 -0.6808
 7165SOL    HW132954   4.044   1.953   2.849 -2.2812  1.0837 -0.6456
 7165SOL    HW232955   3.976   1.837   2.811 -0.4881 -1.1693 -2.5091
 7166SOL     OW32956   2.119   0.169  11.994  0.1481 -0.0297 -0.3239
 7166SOL    HW132957   2.190   0.183  11.932  1.7309  2.6250  2.0955
 7166SOL    HW232958   2.072   0.248  11.967 -0.4881  0.7850  3.1499
 7167SOL     OW32959   4.142   3.198   9.285 -0.1210 -0.3948 -0.2534
 7167SOL    HW132960   4.149   3.141   9.208  1.2302 -1.4533  0.6694
 7167SOL    HW232961   4.230   3.190   9.320 -0.6133  1.7568  1.4782
 7168SOL     OW32962   4.490   3.059   8.929 -0.8415 -0.0757  0.2341
 7168SOL    HW132963   4.559   3.081   8.867 -0.0326 -2.6413  0.2384
 7168SOL    HW232964   4.549   3.031   8.999 -0.0730  1.6044  0.2640
 7169SOL     OW32965   2.354   2.226   4.195  0.1802 -0.0111  0.1541
 7169SOL    HW132966   2.260   2.228   4.211  0.1928  1.7321 -0.0268
 7169SOL    HW232967   2.359   2.130   4.193 -1.3226 -0.0410 -2.1326
 7170SOL     OW32968   2.161   1.078   6.891 -0.1936  0.0613  0.0058
 7170SOL    HW132969   2.199   1.038   6.813 -3.3041  0.0675 -1.5308
 7170SOL    HW232970   2.068   1.092   6.870  0.1591 -1.2307 -2.3300
 7171SOL     OW32971   2.820   3.913   2.584 -0.2372  0.0659 -0.4632
 7171SOL    HW132972   2.789   3.926   2.674  1.2851 -1.6694  0.3173
 7171SOL    HW232973   2.803   3.999   2.545 -0.7686  0.6383  1.0423
 7172SOL     OW32974   4.637   3.582   5.450 -0.1399  0.0851 -0.1550
 7172SOL    HW132975   4.630   3.624   5.364  0.2666  1.5732  0.5374
 7172SOL    HW232976   4.548   3.593   5.484  0.1664  0.2269  0.5931
 7173SOL     OW32977   0.521   2.345   2.057  0.2243  0.3212  0.4581
 7173SOL    HW132978   0.574   2.424   2.069  1.0302 -0.2860  0.9190
 7173SOL    HW232979   0.579   2.306   1.992 -1.4865  2.2479 -2.2426
 7174SOL     OW32980   1.156   0.305   4.787 -0.3217 -0.0696 -0.1477
 7174SOL    HW132981   1.096   0.261   4.725 -0.0413 -0.9766  0.2298
 7174SOL    HW232982   1.107   0.318   4.868  0.9023  0.1867  0.5368
 7175SOL     OW32983   3.458   2.788  16.037 -1.1329  0.4865  0.3175
 7175SOL    HW132984   3.504   2.867  16.006 -1.0956 -0.2757 -1.5700
 7175SOL    HW232985   3.396   2.836  16.092  0.5256  0.5630  2.1299
 7176SOL     OW32986   3.564   0.181   4.547  0.5642  0.0909  0.1012
 7176SOL    HW132987   3.571   0.221   4.634  2.5390  0.9996 -0.4677
 7176SOL    HW232988   3.556   0.087   4.562 -2.0066  0.3066  0.0480
 7177SOL     OW32989   0.314   4.480   2.210 -0.5759  0.2713  0.2356
 7177SOL    HW132990   0.322   4.575   2.218 -1.3426  0.4619 -1.2731
 7177SOL    HW232991   0.348   4.476   2.121 -1.5009 -0.3275 -0.0913
 7178SOL     OW32992   0.599   1.169   2.125 -0.0501 -0.5141 -0.4188
 7178SOL    HW132993   0.643   1.084   2.127 -0.0904 -0.5384 -0.6089
 7178SOL    HW232994   0.557   1.177   2.040  1.6470 -1.8751 -1.3851
 7179SOL     OW32995   0.889   2.745  17.338  0.6218 -0.6666  0.4760
 7179SOL    HW132996   0.889   2.797  17.257 -0.4817  0.5212  1.2236
 7179SOL    HW232997   0.930   2.664  17.308  1.5153  0.1358 -0.4752
 7180SOL     OW32998   3.585   0.854   2.967  0.1288 -0.0854  0.4911
 7180SOL    HW132999   3.608   0.787   2.902 -0.5577 -1.4802  1.7040
 7180SOL    HW233000   3.564   0.805   3.046 -3.4729  1.4327  0.4836
 7181SOL     OW33001   2.375   2.535   5.920  0.1207  0.5965  0.1134
 7181SOL    HW133002   2.292   2.529   5.873  0.4213  0.1077 -0.3612
 7181SOL    HW233003   2.354   2.513   6.010  1.5452 -1.1767 -0.0002
 7182SOL     OW33004   0.240   3.789   1.830  0.3488 -0.6363  0.0255
 7182SOL    HW133005   0.261   3.866   1.777  0.8971  0.7765  2.2907
 7182SOL    HW233006   0.281   3.723   1.774 -0.4074  0.5738 -1.9761
 7183SOL     OW33007   0.061   2.803   7.109 -0.9002  0.3229 -0.3322
 7183SOL    HW133008   0.030   2.712   7.105 -0.2116  0.1249 -1.0671
 7183SOL    HW233009   0.019   2.836   7.030  1.1552  2.1356 -0.6541
 7184SOL     OW33010   4.049   2.050  16.313 -0.1638 -0.1732  0.0473
 7184SOL    HW133011   4.018   2.040  16.403 -1.2108 -1.1812 -0.4255
 7184SOL    HW233012   4.140   2.026  16.330  0.4339 -0.8219 -3.9273
 7185SOL     OW33013   1.383   1.521  16.806  0.1911 -0.0971  0.5933
 7185SOL    HW133014   1.464   1.539  16.853  0.1964  0.8645  0.2176
 7185SOL    HW233015   1.343   1.466  16.873  0.2768 -0.2144  0.5472
 7186SOL     OW33016   2.464   1.756   8.028 -0.2946  0.7116  0.0564
 7186SOL    HW133017   2.444   1.771   7.935 -0.5812 -0.2035 -0.0313
 7186SOL    HW233018   2.548   1.713   8.016  0.4775  2.0846  0.5554
 7187SOL     OW33019   4.153   2.094   4.687 -0.3863  0.8678 -0.0945
 7187SOL    HW133020   4.233   2.143   4.708  1.2519 -2.1836  0.8410
 7187SOL    HW233021   4.177   2.025   4.625 -0.1417  0.4615  0.4434
 7188SOL     OW33022   2.443   3.943   3.877 -0.7766  0.1727 -0.0261
 7188SOL    HW133023   2.503   3.870   3.864 -1.9090 -1.3186  3.0267
 7188SOL    HW233024   2.362   3.895   3.894  0.0122 -0.7933  0.9848
 7189SOL     OW33025   3.276   0.556  16.633  0.1899 -0.4934 -0.1595
 7189SOL    HW133026   3.297   0.464  16.615 -0.0499 -0.7261  0.7171
 7189SOL    HW233027   3.193   0.574  16.588  0.5948  0.7054 -0.4123
 7190SOL     OW33028   2.114   2.917   5.112 -0.1608  0.6519  0.0729
 7190SOL    HW133029   2.021   2.906   5.094  0.2766 -0.2946 -1.6088
 7190SOL    HW233030   2.111   2.963   5.197 -0.3759 -1.7677  1.3645
 7191SOL     OW33031   1.257   1.634   4.082  0.2766  0.7047  0.3826
 7191SOL    HW133032   1.172   1.627   4.039  0.6501 -0.5219 -0.1665
 7191SOL    HW233033   1.317   1.640   4.008  1.0928  2.8212  1.1989
 7192SOL     OW33034   2.333   3.956   8.840  0.2817  0.0683  0.0393
 7192SOL    HW133035   2.239   3.956   8.855  0.0608 -1.2813 -1.3218
 7192SOL    HW233036   2.342   3.956   8.745  0.0936  0.4065  0.0246
 7193SOL     OW33037   2.626   1.368   6.925 -0.4757 -0.2510 -0.2082
 7193SOL    HW133038   2.665   1.281   6.931 -1.6981 -0.8346 -0.7756
 7193SOL    HW233039   2.535   1.350   6.903 -0.8848 -0.6565  1.7981
 7194SOL     OW33040   2.121   2.823   8.092  0.2187 -0.0301  0.0655
 7194SOL    HW133041   2.046   2.806   8.034 -1.6853 -0.0231  2.5205
 7194SOL    HW233042   2.197   2.813   8.035 -0.6471  1.1860 -1.3236
 7195SOL     OW33043   0.013   0.256  10.797 -0.0041 -0.2872 -0.3757
 7195SOL    HW133044   4.694   0.173  10.772 -1.7970  0.9206 -1.4581
 7195SOL    HW233045   0.100   0.239  10.762 -0.9251 -0.0883 -2.7437
 7196SOL     OW33046   1.645   1.782  12.020 -0.2240 -0.2470  0.2456
 7196SOL    HW133047   1.638   1.752  11.929  0.7282  1.1012 -0.2816
 7196SOL    HW233048   1.567   1.739  12.055 -1.4059  0.4885 -1.4774
 7197SOL     OW33049   1.611   4.212   5.359 -0.2054  0.2668  0.0427
 7197SOL    HW133050   1.624   4.289   5.304 -1.5911  2.0946  2.2784
 7197SOL    HW233051   1.674   4.148   5.326 -0.5754 -1.1703  2.1136
 7198SOL     OW33052   1.971   1.635   7.871 -0.2203  0.2982  0.2118
 7198SOL    HW133053   2.018   1.718   7.867  1.1863 -0.4462  1.4372
 7198SOL    HW233054   1.972   1.597   7.783  3.4501  0.1628  0.3450
 7199SOL     OW33055   0.221   2.059  11.095  0.1554 -0.3489 -0.1257
 7199SOL    HW133056   0.265   2.004  11.159  2.4292  0.7758 -0.7081
 7199SOL    HW233057   0.284   2.048  11.024  2.2899 -0.4954  1.8304
 7200SOL     OW33058   2.018   3.563   7.033 -0.1949  0.3106  0.2169
 7200SOL    HW133059   2.000   3.604   7.118 -2.2577 -0.7217  0.2874
 7200SOL    HW233060   2.010   3.473   7.066 -3.1120  1.1389  1.7394
 7201SOL     OW33061   1.678   1.644  17.681  0.4356 -0.0868  0.2693
 7201SOL    HW133062   1.711   1.596  17.605 -1.3666  0.8575 -1.0957
 7201SOL    HW233063   1.587   1.654  17.654  0.4160  0.0928  0.4004
 7202SOL     OW33064   1.331   2.870   6.192 -0.3842 -0.3179 -0.0695
 7202SOL    HW133065   1.313   2.834   6.279  1.1948 -1.2957 -0.1482
 7202SOL    HW233066   1.380   2.951   6.206 -0.1029 -0.5328  0.1866
 7203SOL     OW33067   0.514   1.733   8.075  0.3613  0.3448  0.7552
 7203SOL    HW133068   0.470   1.648   8.073 -1.0960  1.1640 -1.4870
 7203SOL    HW233069   0.445   1.800   8.078 -1.3563 -1.3937 -0.0698
 7204SOL     OW33070   1.570   1.313   4.050 -0.0341  0.0886  0.5460
 7204SOL    HW133071   1.578   1.373   3.976  0.7573  1.5885  1.8424
 7204SOL    HW233072   1.481   1.280   4.040  0.9757 -1.7184 -2.4699
 7205SOL     OW33073   3.550   3.093  11.482 -0.3910 -0.0613 -0.6668
 7205SOL    HW133074   3.636   3.135  11.483  0.5585 -2.0913  1.7127
 7205SOL    HW233075   3.497   3.171  11.466 -1.2290 -0.3423  0.8028
 7206SOL     OW33076   1.094   1.003  17.475 -0.1121 -0.1416 -0.1262
 7206SOL    HW133077   1.160   1.064  17.509 -0.1907  1.0988 -2.2113
 7206SOL    HW233078   1.024   0.996  17.540 -1.9490 -0.4651 -2.1120
 7207SOL     OW33079   1.333   0.567  11.575 -0.1486  0.1748  0.0289
 7207SOL    HW133080   1.293   0.624  11.642 -2.0094  0.9159 -1.7247
 7207SOL    HW233081   1.277   0.575  11.498  0.5023  0.2389 -0.4324
 7208SOL     OW33082   0.993   3.230   1.743  0.2805  0.2144  0.1042
 7208SOL    HW133083   1.033   3.189   1.819 -1.2488 -0.7521  0.3749
 7208SOL    HW233084   0.999   3.154   1.685 -0.0696  1.0475 -1.0362
 7209SOL     OW33085   3.616   0.414   7.494 -0.2632 -0.1968  0.3168
 7209SOL    HW133086   3.590   0.398   7.404  0.9834  2.5796 -0.5355
 7209SOL    HW233087   3.542   0.471   7.514  0.6037  0.9606  0.2207
 7210SOL     OW33088   3.892   3.416   6.702  0.3025  0.1053 -0.0332
 7210SOL    HW133089   3.847   3.355   6.761  1.0852  0.3779  0.8394
 7210SOL    HW233090   3.838   3.416   6.624 -1.4517  1.9956  1.2022
 7211SOL     OW33091   4.101   0.243   4.691  0.4656  0.3072 -0.1283
 7211SOL    HW133092   4.148   0.202   4.764 -1.0516  1.0694  1.2666
 7211SOL    HW233093   4.146   0.207   4.614 -1.3507 -0.1076 -1.0079
 7212SOL     OW33094   2.123   4.103   5.771 -0.0400  0.1687  0.4981
 7212SOL    HW133095   2.067   4.181   5.770 -0.7048 -0.3267 -0.9545
 7212SOL    HW233096   2.090   4.056   5.847  1.6827 -0.7694  0.6541
 7213SOL     OW33097   0.386   2.275   0.307 -0.5282  0.4286 -0.8748
 7213SOL    HW133098   0.421   2.281   0.396 -2.3208 -0.8127 -0.0756
 7213SOL    HW233099   0.313   2.216   0.323 -0.3965  1.1679  2.4370
 7214SOL     OW33100   3.838   3.664   6.363 -0.0959  0.1194  0.4162
 7214SOL    HW133101   3.830   3.747   6.317 -0.2367  1.0701  2.1525
 7214SOL    HW233102   3.757   3.622   6.334  0.7162 -3.8004  3.8070
 7215SOL     OW33103   1.636   3.307   4.494  0.2189  0.0697 -0.0701
 7215SOL    HW133104   1.641   3.382   4.435 -0.1578  0.3551  0.2637
 7215SOL    HW233105   1.726   3.274   4.501 -0.1048 -0.8180 -0.0898
 7216SOL     OW33106   0.031   0.187   2.302  0.2242  0.1848 -0.0218
 7216SOL    HW133107   4.687   0.206   2.236  1.5369 -0.4480 -1.5329
 7216SOL    HW233108   0.026   0.242   2.380 -0.4719 -0.8645  0.6863
 7217SOL     OW33109   2.872   0.699  10.706  0.9273 -0.2694 -0.7172
 7217SOL    HW133110   2.782   0.676  10.682  0.9704  0.6792 -1.7931
 7217SOL    HW233111   2.875   0.791  10.679 -0.6009  0.1619  0.5798
 7218SOL     OW33112   3.282   0.979   4.608  0.1315 -0.4030 -0.5664
 7218SOL    HW133113   3.278   0.890   4.571 -2.0870 -0.4112 -0.3276
 7218SOL    HW233114   3.356   1.013   4.558  0.6083  0.8564  1.0175
 7219SOL     OW33115   4.446   4.372  12.322 -0.2790 -0.0543  0.2005
 7219SOL    HW133116   4.381   4.417  12.376 -0.0172 -1.9954  2.1602
 7219SOL    HW233117   4.499   4.343  12.397 -1.2233 -0.0056  0.8827
 7220SOL     OW33118   3.495   2.130  12.314 -0.1373  0.2128 -0.4357
 7220SOL    HW133119   3.577   2.087  12.337 -0.0947  1.5480  1.8886
 7220SOL    HW233120   3.434   2.102  12.383  0.8240 -0.3195  0.1945
 7221SOL     OW33121   1.679   4.612   8.105  0.1883  0.3870  0.1428
 7221SOL    HW133122   1.741   4.684   8.113 -1.3104  1.6171  0.6784
 7221SOL    HW233123   1.611   4.652   8.049  1.0853 -0.5815 -1.6519
 7222SOL     OW33124   3.448   4.314   3.972  0.6127 -0.0009  0.4629
 7222SOL    HW133125   3.441   4.406   3.945  2.1615 -0.5433 -1.8013
 7222SOL    HW233126   3.534   4.309   4.014  0.0646  0.0362  1.5697
 7223SOL     OW33127   0.238   2.297   5.421  0.0048  0.0693 -0.2091
 7223SOL    HW133128   0.160   2.299   5.477  0.5260  0.7289  0.5098
 7223SOL    HW233129   0.198   2.297   5.334  0.4137  0.5383 -0.3989
 7224SOL     OW33130   3.756   4.439   1.981  0.6792 -0.4374  0.2027
 7224SOL    HW133131   3.826   4.424   1.917  2.0685  1.0552  1.3802
 7224SOL    HW233132   3.809   4.442   2.061  1.2783 -1.7797 -0.1452
 7225SOL     OW33133   2.123   1.148   4.140 -0.2773 -0.2536 -0.5202
 7225SOL    HW133134   2.055   1.102   4.191 -1.3511  1.7446 -0.1544
 7225SOL    HW233135   2.099   1.121   4.051 -0.3579 -0.6880 -0.3707
 7226SOL     OW33136   0.699   3.255   1.161 -0.3158 -0.4946 -0.2825
 7226SOL    HW133137   0.704   3.349   1.144  1.0557 -0.2946  1.1788
 7226SOL    HW233138   0.774   3.250   1.221  0.6866  0.2442 -1.4681
 7227SOL     OW33139   2.994   0.810  16.812  0.3179 -0.1290 -0.2137
 7227SOL    HW133140   2.986   0.826  16.906  0.9957  1.1811 -0.3774
 7227SOL    HW233141   2.908   0.841  16.782  0.5631 -2.9796 -3.7926
 7228SOL     OW33142   4.424   1.872  16.710 -0.4361  0.2307 -0.4696
 7228SOL    HW133143   4.371   1.879  16.789 -2.0445 -2.1056 -1.3507
 7228SOL    HW233144   4.446   1.779  16.711 -2.8131 -0.2977  0.4807
 7229SOL     OW33145   4.712   2.364  13.030  0.2414  0.4773 -0.4337
 7229SOL    HW133146   4.696   2.454  13.002  0.8251  0.6220 -0.3143
 7229SOL    HW233147   0.065   2.373  13.090  0.7715  0.5573 -1.1104
 7230SOL     OW33148   1.144   0.790   9.409  0.3192  0.3186  0.0798
 7230SOL    HW133149   1.192   0.803   9.490 -1.8215  0.3541  1.3502
 7230SOL    HW233150   1.191   0.712   9.379 -1.8432 -1.5750  1.6046
 7231SOL     OW33151   1.646   1.493   0.256 -0.1480  0.6633  0.1209
 7231SOL    HW133152   1.655   1.548   0.179  1.4936  0.5081  0.2068
 7231SOL    HW233153   1.553   1.509   0.277 -0.1674  2.5220 -1.4901
 7232SOL     OW33154   1.292   2.931   5.071 -0.0625  0.2206 -0.5379
 7232SOL    HW133155   1.292   2.836   5.069  0.6238  0.2333 -1.1863
 7232SOL    HW233156   1.218   2.953   5.127 -0.4895  1.3269 -1.5198
 7233SOL     OW33157   3.048   2.459  13.331  0.0622  0.0569  0.6734
 7233SOL    HW133158   3.057   2.520  13.404 -0.1875 -0.4740  1.1411
 7233SOL    HW233159   2.995   2.515  13.274 -1.5947 -0.3428  1.8559
 7234SOL     OW33160   3.854   0.157  12.286 -0.5657  0.0134 -0.4964
 7234SOL    HW133161   3.849   0.183  12.194 -0.5551  0.5091 -0.3550
 7234SOL    HW233162   3.897   0.230  12.330  0.9442 -2.0582  1.4476
 7235SOL     OW33163   4.093   3.810  14.841 -1.1154  0.2849 -0.3406
 7235SOL    HW133164   4.017   3.841  14.891 -1.9711 -1.6407 -0.4693
 7235SOL    HW233165   4.148   3.889  14.842 -1.9753  0.8483  2.5060
 7236SOL     OW33166   4.202   3.901   0.830 -0.6283  0.0336  0.5585
 7236SOL    HW133167   4.275   3.963   0.839  0.7183 -1.3630 -0.6862
 7236SOL    HW233168   4.218   3.842   0.904  1.7211 -1.6728 -1.2845
 7237SOL     OW33169   4.518   0.606  13.675 -0.0092  0.6340 -0.0640
 7237SOL    HW133170   4.523   0.516  13.643  1.0996  1.0524 -1.0514
 7237SOL    HW233171   4.426   0.609  13.701  0.7103  3.7081  2.0632
 7238SOL     OW33172   1.229   0.313   0.899 -0.2188 -0.4787  0.3987
 7238SOL    HW133173   1.195   0.261   0.972  1.6861 -1.5587  0.5219
 7238SOL    HW233174   1.283   0.254   0.847 -2.0236  0.4527 -2.5335
 7239SOL     OW33175   1.235   0.710  12.611  0.3036  0.1493 -0.3150
 7239SOL    HW133176   1.266   0.780  12.553  0.1517  0.5213  0.0512
 7239SOL    HW233177   1.140   0.717  12.602  0.2094 -1.8947 -0.9315
 7240SOL     OW33178   1.013   1.221   5.793  0.1534 -0.5718 -0.0014
 7240SOL    HW133179   1.107   1.205   5.778 -0.2758 -1.8077 -1.3124
 7240SOL    HW233180   1.022   1.222   5.889  1.5364 -0.1477 -0.1374
 7241SOL     OW33181   0.429   0.479  17.487 -0.2220 -0.0499  0.6961
 7241SOL    HW133182   0.519   0.510  17.501 -0.3333  0.7857 -0.3850
 7241SOL    HW233183   0.443   0.411  17.421  1.9719  0.0552  1.0336
 7242SOL     OW33184   1.485   3.491   6.291 -0.2231  0.1456 -0.2779
 7242SOL    HW133185   1.462   3.448   6.373 -2.1149  0.7056 -0.5208
 7242SOL    HW233186   1.440   3.572   6.315 -0.6573  0.3140 -1.6450
 7243SOL     OW33187   1.045   0.306   3.066 -0.0865  0.3718  0.0454
 7243SOL    HW133188   0.979   0.248   3.104  2.8782 -1.8183  1.9350
 7243SOL    HW233189   1.127   0.271   3.103  0.5008  0.8982 -0.7609
 7244SOL     OW33190   3.878   0.854   3.984  0.6030  0.3630  0.3818
 7244SOL    HW133191   3.917   0.941   3.986 -0.4763  0.8751 -1.4137
 7244SOL    HW233192   3.908   0.833   4.073 -3.4773 -0.2395  1.6003
 7245SOL     OW33193   1.563   0.185   3.157  0.2922 -1.0751 -0.0238
 7245SOL    HW133194   1.591   0.217   3.243 -0.7243 -0.0344 -0.0824
 7245SOL    HW233195   1.632   0.126   3.127  0.7555 -1.2985  1.4660
 7246SOL     OW33196   4.308   1.346   9.344 -0.4587  0.8231 -0.1817
 7246SOL    HW133197   4.352   1.297   9.274  1.3572  0.5065  1.1588
 7246SOL    HW233198   4.270   1.424   9.306 -0.4886  1.9832  2.2604
 7247SOL     OW33199   1.366   3.693  15.108  0.9439  0.5211  0.4543
 7247SOL    HW133200   1.377   3.636  15.184 -1.3025  1.9792  1.8511
 7247SOL    HW233201   1.383   3.778  15.148 -3.2348  1.8480 -0.6610
 7248SOL     OW33202   3.875   1.508   7.527  0.0357  0.4806 -0.4349
 7248SOL    HW133203   3.817   1.523   7.601 -0.4140 -1.5372 -0.3825
 7248SOL    HW233204   3.821   1.525   7.451 -1.0374 -0.9240  0.0189
 7249SOL     OW33205   0.930   0.398   9.138 -0.2043  0.0799  0.1481
 7249SOL    HW133206   0.963   0.476   9.183 -0.7756 -1.4748  3.3149
 7249SOL    HW233207   1.015   0.354   9.135 -1.2104 -1.6423 -2.7496
 7250SOL     OW33208   2.317   3.190  16.243  0.6372  0.1033 -0.3938
 7250SOL    HW133209   2.358   3.225  16.164 -0.6278 -0.5610 -1.3495
 7250SOL    HW233210   2.228   3.212  16.215  0.5082  0.0085 -0.0641
 7251SOL     OW33211   2.406   0.407  13.548  0.6888  0.0022  0.6496
 7251SOL    HW133212   2.479   0.443  13.598  1.5249  2.8097 -2.5264
 7251SOL    HW233213   2.348   0.483  13.542  0.4437 -0.3757 -1.8241
 7252SOL     OW33214   1.923   2.742   2.892 -0.5484  0.3679  0.0516
 7252SOL    HW133215   1.864   2.810   2.923 -3.5962 -1.5978 -1.4682
 7252SOL    HW233216   2.006   2.788   2.874  0.1742  0.0707  2.6063
 7253SOL     OW33217   0.474   0.717   3.850  0.1801  0.2020  0.3374
 7253SOL    HW133218   0.493   0.624   3.863  0.2053  0.0797 -0.5209
 7253SOL    HW233219   0.527   0.751   3.778  0.5097  0.1089  0.5401
 7254SOL     OW33220   1.361   4.327   6.510  0.3928 -0.1158 -0.3920
 7254SOL    HW133221   1.441   4.376   6.530 -1.0102  1.4027  1.5065
 7254SOL    HW233222   1.396   4.261   6.451  0.7253 -0.8799  0.6693
 7255SOL     OW33223   3.967   4.094   8.838 -0.1567  0.0200 -0.3585
 7255SOL    HW133224   4.059   4.117   8.851  0.0986 -2.3752  2.2005
 7255SOL    HW233225   3.930   4.170   8.882  0.2721  1.0872 -1.8371
 7256SOL     OW33226   3.304   3.184   8.993 -0.0994 -0.1613 -0.4436
 7256SOL    HW133227   3.264   3.271   8.991  0.9879  0.3453 -0.1180
 7256SOL    HW233228   3.271   3.142   9.072  0.5867 -0.2825 -0.2160
 7257SOL     OW33229   2.397   3.658   8.912  0.5085  0.7417 -0.4479
 7257SOL    HW133230   2.377   3.749   8.933  0.5366  1.0765 -1.8707
 7257SOL    HW233231   2.476   3.653   8.857  0.7570 -0.8759  0.0694
 7258SOL     OW33232   3.537   3.353   0.220 -0.6697  0.3333  0.8448
 7258SOL    HW133233   3.476   3.308   0.162 -0.9045  1.1040  0.5036
 7258SOL    HW233234   3.587   3.272   0.227 -0.1549  0.5163 -0.8062
 7259SOL     OW33235   3.044   2.788   3.267 -0.6799 -0.8164 -0.3808
 7259SOL    HW133236   2.949   2.772   3.263 -0.7512 -0.0581 -1.4832
 7259SOL    HW233237   3.067   2.735   3.344  1.5080  2.7946  1.4542
 7260SOL     OW33238   2.761   4.440   5.223  0.2813  0.6587  0.2802
 7260SOL    HW133239   2.770   4.498   5.148 -0.1255  2.0661  1.3295
 7260SOL    HW233240   2.789   4.505   5.287  2.2555  0.6571 -0.5828
 7261SOL     OW33241   1.463   3.472  14.970  0.0283 -0.5802 -0.1510
 7261SOL    HW133242   1.545   3.521  14.970  0.2807 -1.0193  0.5968
 7261SOL    HW233243   1.401   3.538  15.003 -0.7743 -0.9677 -0.8681
 7262SOL     OW33244   0.996   3.275   7.776 -0.0262 -0.2974 -0.5203
 7262SOL    HW133245   0.940   3.198   7.771  0.5150 -0.6342 -1.6123
 7262SOL    HW233246   0.935   3.343   7.747  0.8171  0.2886 -0.9271
 7263SOL     OW33247   4.010   2.204   0.299 -0.9328  1.2853  0.6073
 7263SOL    HW133248   4.104   2.190   0.309 -1.0355 -0.6709 -1.1361
 7263SOL    HW233249   3.989   2.232   0.388 -0.9170  1.5417  0.5300
 7264SOL     OW33250   2.401   4.543   5.687  0.0747  0.6429  0.3199
 7264SOL    HW133251   2.446   4.458   5.689 -1.6920 -0.3433 -2.0543
 7264SOL    HW233252   2.459   4.609   5.650  2.1391  0.1827  2.6716
 7265SOL     OW33253   2.331   2.346   0.421 -0.0844  0.1082  0.5590
 7265SOL    HW133254   2.238   2.331   0.441  0.3487  0.4379  2.8516
 7265SOL    HW233255   2.379   2.310   0.495  0.7690  0.5918  0.2373
 7266SOL     OW33256   1.566   3.920   4.074 -0.2943  1.3023 -0.4500
 7266SOL    HW133257   1.578   3.899   4.166  0.4797 -1.2056 -1.0960
 7266SOL    HW233258   1.505   3.850   4.050  2.4983 -1.3720  0.2836
 7267SOL     OW33259   3.066   4.022   5.498  0.2642 -0.5161  0.5222
 7267SOL    HW133260   3.104   4.051   5.415 -2.2896  1.3981  0.0297
 7267SOL    HW233261   2.980   4.063   5.494  0.2858 -0.4407  0.8319
 7268SOL     OW33262   4.503   1.685  15.012  0.4960 -0.3890  0.0900
 7268SOL    HW133263   4.555   1.633  15.073  1.7117 -1.2933 -1.6943
 7268SOL    HW233264   4.543   1.673  14.925 -0.7239  0.0135 -0.5290
 7269SOL     OW33265   3.454   0.733   1.708  0.2321  0.1014  0.8154
 7269SOL    HW133266   3.413   0.697   1.788  1.4637 -0.2975  1.2626
 7269SOL    HW233267   3.498   0.812   1.741 -1.0640  1.6031 -1.0447
 7270SOL     OW33268   1.057   0.620   5.108  0.4419 -0.1913 -0.1844
 7270SOL    HW133269   1.135   0.565   5.098  0.3046 -0.7276  1.6103
 7270SOL    HW233270   0.979   0.569   5.087  0.7792 -0.4673 -0.7887
 7271SOL     OW33271   4.046   2.456  10.639  0.4457 -0.0810  0.1494
 7271SOL    HW133272   4.117   2.514  10.615  2.0415 -0.8648  2.9581
 7271SOL    HW233273   4.085   2.396  10.703  2.2279 -0.6889 -1.5216
 7272SOL     OW33274   3.474   3.796   0.459  0.0133 -0.0115 -0.0384
 7272SOL    HW133275   3.460   3.837   0.373  0.5265 -0.8790 -0.5356
 7272SOL    HW233276   3.437   3.709   0.447 -2.1888  1.1297 -1.7497
 7273SOL     OW33277   4.005   3.401   1.341  0.0217  0.4532  0.5355
 7273SOL    HW133278   3.978   3.459   1.412 -0.1180  0.7897  0.2082
 7273SOL    HW233279   3.932   3.413   1.280  0.7990  0.3541 -0.4114
 7274SOL     OW33280   1.525   4.573  12.920 -0.5769  0.0844  0.0405
 7274SOL    HW133281   1.481   4.632  12.982  0.1516  1.0275 -0.3412
 7274SOL    HW233282   1.616   4.597  12.939 -0.2582 -0.3941 -0.8764
 7275SOL     OW33283   3.783   1.347   0.296  0.2570  0.1889 -0.2203
 7275SOL    HW133284   3.796   1.259   0.261  0.8364  0.4784 -0.7382
 7275SOL    HW233285   3.688   1.353   0.290  0.3232 -1.3203 -2.9131
 7276SOL     OW33286   3.154   3.999  15.538 -0.0007  0.3308  0.1237
 7276SOL    HW133287   3.186   4.031  15.454  4.0943 -2.9014  0.4472
 7276SOL    HW233288   3.114   3.915  15.515  1.0947 -0.1041 -0.2148
 7277SOL     OW33289   2.799   0.237  15.982 -0.0012 -0.0745 -0.3771
 7277SOL    HW133290   2.833   0.248  15.893  2.5334 -1.3881  0.4282
 7277SOL    HW233291   2.727   0.299  15.993 -0.6228 -0.8752  0.1234
 7278SOL     OW33292   3.869   0.867   5.879 -0.3028 -0.0547 -0.5084
 7278SOL    HW133293   3.849   0.868   5.785  0.4638 -4.1256 -0.6984
 7278SOL    HW233294   3.948   0.813   5.883 -1.4746 -1.6755  0.5485
 7279SOL     OW33295   3.338   0.872   3.384  0.0702 -0.1934  0.0687
 7279SOL    HW133296   3.357   0.780   3.365 -1.6202 -0.3739 -0.7261
 7279SOL    HW233297   3.379   0.886   3.469  0.6172 -0.5519 -0.1341
 7280SOL     OW33298   1.855   4.508   6.064 -0.5906 -0.2689 -0.0397
 7280SOL    HW133299   1.940   4.548   6.049 -1.3195  1.0578 -0.6425
 7280SOL    HW233300   1.810   4.558   5.996  0.1422  0.5088  0.0448
 7281SOL     OW33301   2.316   1.927  15.336  0.2347  0.0711  0.3816
 7281SOL    HW133302   2.338   1.842  15.374  1.7553  0.2740 -0.0354
 7281SOL    HW233303   2.240   1.916  15.278 -0.4597  2.9431  0.7526
 7282SOL     OW33304   3.063   3.863   4.601  0.4897  0.4888  0.3935
 7282SOL    HW133305   3.072   3.772   4.573 -0.2265 -0.4417  3.2324
 7282SOL    HW233306   3.059   3.854   4.696  1.0403  0.7308  0.4404
 7283SOL     OW33307   3.266   1.021   8.171  0.3738 -0.1380  0.4667
 7283SOL    HW133308   3.197   1.060   8.224 -2.0910 -2.5448 -0.9404
 7283SOL    HW233309   3.275   1.095   8.110  2.3704 -1.8985 -1.3781
 7284SOL     OW33310   3.271   3.495  12.758 -0.0097  0.1156  0.0199
 7284SOL    HW133311   3.192   3.457  12.797  0.1924  0.1602  0.4695
 7284SOL    HW233312   3.325   3.506  12.835 -2.0807 -1.2017  1.6727
 7285SOL     OW33313   4.396   3.086   7.431 -0.3970  0.2084 -0.1075
 7285SOL    HW133314   4.363   3.016   7.488 -1.1085  0.4504 -0.2242
 7285SOL    HW233315   4.489   3.071   7.448 -0.3888  0.6143  0.2138
 7286SOL     OW33316   4.499   1.852   4.182 -0.2079 -0.1799  0.2320
 7286SOL    HW133317   4.465   1.888   4.100  0.3690  0.7434  0.3937
 7286SOL    HW233318   4.471   1.921   4.243  1.1225 -0.1034  0.7626
 7287SOL     OW33319   0.618   1.575  17.099  0.3431 -0.0206  0.2776
 7287SOL    HW133320   0.592   1.492  17.059  0.6320 -0.4722  1.0335
 7287SOL    HW233321   0.664   1.626  17.033  0.8263 -0.4734  0.2709
 7288SOL     OW33322   3.808   0.207   2.348 -0.3543 -0.1159 -0.4545
 7288SOL    HW133323   3.792   0.231   2.257  0.0210  0.9367 -0.2357
 7288SOL    HW233324   3.875   0.142   2.328  0.2159 -0.5709  2.9254
 7289SOL     OW33325   1.765   2.892   0.959  0.2961 -0.2640 -0.3689
 7289SOL    HW133326   1.780   2.811   0.912 -0.7060 -0.7468  0.1481
 7289SOL    HW233327   1.670   2.889   0.961  0.3242 -1.7625 -1.7376
 7290SOL     OW33328   1.297   1.164  14.967 -0.3794  0.4363 -0.2336
 7290SOL    HW133329   1.216   1.171  14.917 -0.2581 -1.3274 -0.6928
 7290SOL    HW233330   1.358   1.204  14.905  0.4410  2.3164  1.7912
 7291SOL     OW33331   2.798   2.972  15.040  0.0657 -0.0084 -0.4861
 7291SOL    HW133332   2.845   3.012  14.968  0.5090 -0.6283 -0.5340
 7291SOL    HW233333   2.722   3.028  15.059 -0.7208 -0.6643 -1.7226
 7292SOL     OW33334   1.429   2.141   4.482 -0.8844  0.7494  0.1552
 7292SOL    HW133335   1.380   2.059   4.484  1.3273 -0.6359 -1.6243
 7292SOL    HW233336   1.520   2.113   4.493 -1.0202 -0.0281 -0.6587
 7293SOL     OW33337   3.822   0.985   2.223 -0.1088 -0.0367  0.3243
 7293SOL    HW133338   3.742   0.986   2.171  0.8923 -3.0697 -1.3009
 7293SOL    HW233339   3.833   1.080   2.220  0.3962 -0.1274 -1.0339
 7294SOL     OW33340   3.948   2.984   5.673 -0.3424  0.1414 -0.1496
 7294SOL    HW133341   3.987   3.050   5.616  3.2952 -2.4817 -0.7383
 7294SOL    HW233342   3.883   3.030   5.725  2.4232  1.0649  2.4798
 7295SOL     OW33343   1.612   1.469   9.067 -0.2374  0.1445  0.4396
 7295SOL    HW133344   1.517   1.476   9.058 -0.0711  0.9268 -0.6820
 7295SOL    HW233345   1.632   1.461   8.974 -0.2862  0.3030  0.4157
 7296SOL     OW33346   4.005   1.456   8.088 -0.5026 -0.0411 -0.2427
 7296SOL    HW133347   4.045   1.543   8.085 -2.1654  0.7079 -0.2844
 7296SOL    HW233348   3.943   1.473   8.159  0.9259 -2.3611  1.5740
 7297SOL     OW33349   3.668   0.690   7.852 -0.0382 -0.4058  0.1242
 7297SOL    HW133350   3.752   0.678   7.806 -0.9866 -0.8801 -1.5120
 7297SOL    HW233351   3.656   0.785   7.858 -0.6468 -0.3187 -2.3264
 7298SOL     OW33352   0.417   0.248   4.155 -0.4581  0.2590 -0.4810
 7298SOL    HW133353   0.347   0.290   4.105  0.0795  1.4485 -0.2218
 7298SOL    HW233354   0.383   0.237   4.244  0.8958  1.8530  0.2262
 7299SOL     OW33355   0.718   0.240   7.085  0.2828 -0.4402 -0.0178
 7299SOL    HW133356   0.697   0.147   7.080  2.0877 -0.8283 -0.3328
 7299SOL    HW233357   0.674   0.286   7.014  1.7965 -1.1802 -1.4397
 7300SOL     OW33358   3.415   3.034   6.881 -0.2858  0.0682  0.2314
 7300SOL    HW133359   3.427   2.939   6.882  2.5604  0.4334  0.9352
 7300SOL    HW233360   3.346   3.038   6.815  1.4726  0.4605 -1.5624
 7301SOL     OW33361   4.487   4.625   5.980  0.0759  0.5603 -0.5080
 7301SOL    HW133362   4.574   4.587   5.996  0.3133  1.1325 -0.4312
 7301SOL    HW233363   4.446   4.572   5.912 -1.7220  0.3256  0.7683
 7302SOL     OW33364   2.328   4.175   0.691 -0.0575  0.4168 -0.2530
 7302SOL    HW133365   2.336   4.160   0.786  0.7186  2.0923 -0.0395
 7302SOL    HW233366   2.410   4.218   0.664 -0.3580  1.7434  0.9220
 7303SOL     OW33367   0.559   3.021   3.907 -0.2777 -0.1761 -0.1713
 7303SOL    HW133368   0.622   3.013   3.836  0.5351 -1.9258  0.7159
 7303SOL    HW233369   0.592   3.093   3.961  0.3344 -0.6374  0.0842
 7304SOL     OW33370   0.274   0.644  14.060 -0.3423 -0.1562  0.5402
 7304SOL    HW133371   0.244   0.586  14.130 -0.6455  0.5295  0.9823
 7304SOL    HW233372   0.200   0.645  13.999 -0.3334 -0.3014  0.5262
 7305SOL     OW33373   2.694   0.552   7.141 -0.1161 -0.1107 -0.1510
 7305SOL    HW133374   2.626   0.577   7.078  1.0560  0.9075 -1.0238
 7305SOL    HW233375   2.656   0.585   7.222 -0.2197 -1.2319  0.2494
 7306SOL     OW33376   4.574   0.553   7.608 -0.4376  0.1745 -0.6709
 7306SOL    HW133377   4.512   0.527   7.676  0.1575  2.2771  0.6866
 7306SOL    HW233378   4.657   0.550   7.656 -0.2564  1.6615 -0.8965
 7307SOL     OW33379   2.836   2.802   8.019 -0.1123  0.1337 -0.5475
 7307SOL    HW133380   2.932   2.796   8.020 -0.1760 -0.6499  0.1911
 7307SOL    HW233381   2.819   2.745   8.094  0.3780 -0.4027 -0.8458
 7308SOL     OW33382   0.488   4.615   4.486 -0.4686  0.0509  0.7732
 7308SOL    HW133383   0.543   4.669   4.430  1.6732 -1.6951  1.2189
 7308SOL    HW233384   0.424   4.681   4.512  1.4456  1.9245  0.6654
 7309SOL     OW33385   3.791   3.303   8.192 -0.2176  0.4821  0.4659
 7309SOL    HW133386   3.711   3.250   8.185  1.4578 -1.9095 -0.6791
 7309SOL    HW233387   3.839   3.263   8.119 -0.9751 -2.3510  1.5187
 7310SOL     OW33388   2.419   2.514   7.255  0.0794  0.2407  0.4847
 7310SOL    HW133389   2.425   2.468   7.338  1.1412 -0.2385  0.1400
 7310SOL    HW233390   2.488   2.580   7.265  0.1807  0.5347 -2.1194
 7311SOL     OW33391   1.120   2.327   6.100  0.1937 -0.4448  0.0080
 7311SOL    HW133392   1.118   2.376   6.182 -0.0722 -1.1550  0.4234
 7311SOL    HW233393   1.042   2.272   6.107 -0.4291  0.1969 -1.7397
 7312SOL     OW33394   3.972   3.271   3.489  0.3337  0.6962  0.7668
 7312SOL    HW133395   3.906   3.203   3.497  0.6918  0.5102  2.1251
 7312SOL    HW233396   3.923   3.332   3.434 -1.9180 -1.7254  0.1304
 7313SOL     OW33397   1.004   4.083   5.225 -0.6463  0.3090 -0.6280
 7313SOL    HW133398   1.053   4.156   5.187 -0.9432  1.0255  0.3579
 7313SOL    HW233399   0.960   4.126   5.299  1.4834  1.3019  0.0498
 7314SOL     OW33400   1.859   3.278   8.563  0.0584 -0.1172 -0.2595
 7314SOL    HW133401   1.802   3.292   8.638 -0.1912  0.0136 -0.4729
 7314SOL    HW233402   1.923   3.349   8.574 -0.3591  0.4150 -1.1855
 7315SOL     OW33403   4.081   3.215   8.258  0.1830  0.2461  0.2932
 7315SOL    HW133404   4.040   3.132   8.282 -0.0734  0.7070  1.4455
 7315SOL    HW233405   4.125   3.187   8.177  1.0334  0.6675  0.6062
 7316SOL     OW33406   0.183   0.630  12.067  0.1317 -0.0559 -0.1168
 7316SOL    HW133407   0.199   0.632  12.161 -0.7920  4.5279 -0.0543
 7316SOL    HW233408   0.232   0.550  12.049 -0.0947  0.0472 -1.1884
 7317SOL     OW33409   1.811   3.833   2.019 -0.6402  0.4829  0.1085
 7317SOL    HW133410   1.882   3.780   2.054  0.4080  1.8649  0.0760
 7317SOL    HW233411   1.851   3.920   2.013 -1.8705  0.7600 -3.6101
 7318SOL     OW33412   2.485   0.463  11.277 -0.0539 -0.0428 -0.4218
 7318SOL    HW133413   2.489   0.391  11.214  0.5479 -0.0892 -0.3382
 7318SOL    HW233414   2.517   0.431  11.361 -0.7730 -2.7046 -1.1722
 7319SOL     OW33415   2.143   1.493  10.293  0.4810 -0.1466 -0.1202
 7319SOL    HW133416   2.142   1.504  10.388 -1.7619 -1.3814  0.0037
 7319SOL    HW233417   2.174   1.404  10.277  0.6659  0.0392 -0.7979
 7320SOL     OW33418   2.182   1.664   5.957 -0.1949 -0.5367 -0.0027
 7320SOL    HW133419   2.096   1.627   5.979 -0.7427  0.0543 -1.1225
 7320SOL    HW233420   2.238   1.621   6.022 -0.5018 -2.1032 -0.7587
 7321SOL     OW33421   2.556   0.133  16.909  0.3387  0.2111 -0.4324
 7321SOL    HW133422   2.587   0.102  16.994  0.3740 -0.0753 -0.5493
 7321SOL    HW233423   2.626   0.100  16.852  1.6532 -1.2780  2.0505
 7322SOL     OW33424   0.405   2.751   5.034  0.3849 -0.1425 -0.0581
 7322SOL    HW133425   0.421   2.747   5.128 -4.0583  1.0833  0.7682
 7322SOL    HW233426   0.496   2.755   5.007  0.2138 -0.1442 -0.6461
 7323SOL     OW33427   0.323   4.074   8.535  0.3999 -0.8075  0.1665
 7323SOL    HW133428   0.254   4.134   8.507  0.6225 -0.7381 -0.2181
 7323SOL    HW233429   0.266   4.003   8.567  0.0727 -1.2803 -1.4577
 7324SOL     OW33430   1.767   1.325  11.693 -0.0649 -0.0615 -0.0480
 7324SOL    HW133431   1.836   1.281  11.743 -0.9312 -2.2447 -0.7811
 7324SOL    HW233432   1.814   1.395  11.646 -0.7726 -0.9498 -2.0864
 7325SOL     OW33433   3.514   4.116   3.130  0.2782 -0.3898  0.5194
 7325SOL    HW133434   3.592   4.161   3.096  0.1038  0.4071  1.1838
 7325SOL    HW233435   3.497   4.047   3.066 -2.7912  1.1674 -0.2942
 7326SOL     OW33436   0.853   3.510   2.386 -0.0712  0.3533  0.4091
 7326SOL    HW133437   0.880   3.487   2.297 -0.6973  0.6888  0.1354
 7326SOL    HW233438   0.899   3.593   2.397 -3.1140  1.8946  1.5494
 7327SOL     OW33439   0.459   3.493   2.556  0.5115  0.2658 -0.5371
 7327SOL    HW133440   0.374   3.481   2.599  0.9598  2.3130  0.9153
 7327SOL    HW233441   0.453   3.446   2.472 -2.0423 -1.5381  0.6726
 7328SOL     OW33442   2.048   1.194   4.928  0.1158 -0.1626  0.5243
 7328SOL    HW133443   2.087   1.133   4.990 -3.4092 -1.3786  1.5507
 7328SOL    HW233444   2.038   1.278   4.973  2.2988 -0.0349  0.7381
 7329SOL     OW33445   1.094   4.595   2.656 -0.2294  0.0358  0.1756
 7329SOL    HW133446   1.010   4.558   2.632  0.9523 -0.5696 -3.0060
 7329SOL    HW233447   1.074   4.688   2.657 -0.1389  0.0590 -0.8694
 7330SOL     OW33448   0.536   3.503  14.113 -0.2972 -0.3521  0.2303
 7330SOL    HW133449   0.504   3.580  14.161  0.6086 -0.1421  0.5003
 7330SOL    HW233450   0.624   3.535  14.095 -0.5648  1.2586  1.7460
 7331SOL     OW33451   2.999   4.485   2.040 -0.5405 -0.3598 -0.0566
 7331SOL    HW133452   3.031   4.573   2.064 -1.7578 -0.4692  1.9773
 7331SOL    HW233453   2.925   4.515   1.987 -0.5055 -3.6997 -1.9724
 7332SOL     OW33454   0.853   1.976   8.404  0.0477 -0.1714 -0.1490
 7332SOL    HW133455   0.800   1.932   8.337 -1.4447 -0.1347  1.0229
 7332SOL    HW233456   0.879   2.053   8.353  0.1236 -0.2127 -0.1723
 7333SOL     OW33457   3.522   2.578   5.921 -0.1961  0.6656 -0.2485
 7333SOL    HW133458   3.482   2.650   5.872 -0.2502  1.6315  1.2108
 7333SOL    HW233459   3.595   2.559   5.861 -2.4815 -0.8013 -2.5515
 7334SOL     OW33460   3.547   2.840   5.071  0.0218  0.3768 -0.0290
 7334SOL    HW133461   3.494   2.898   5.125 -1.2094 -0.8713  0.1179
 7334SOL    HW233462   3.485   2.777   5.033  2.2537 -1.6741 -0.2334
 7335SOL     OW33463   1.067   1.457   9.173  0.5725  0.1728 -0.3833
 7335SOL    HW133464   1.024   1.522   9.228  0.4049 -0.6116  0.4009
 7335SOL    HW233465   1.149   1.499   9.147  1.3954 -0.3229  1.4359
 7336SOL     OW33466   1.259   2.481   4.720 -0.2663  0.0666  0.3043
 7336SOL    HW133467   1.351   2.502   4.735  0.1145 -2.2223  1.1745
 7336SOL    HW233468   1.255   2.385   4.715 -1.7368  0.0866  0.9669
 7337SOL     OW33469   2.618   2.925   7.902  0.2297  0.2565  0.1610
 7337SOL    HW133470   2.685   2.888   7.959  2.6045  3.6277 -0.4375
 7337SOL    HW233471   2.546   2.942   7.963  1.0597  0.8288  0.9728
 7338SOL     OW33472   4.079   2.009   3.001  0.3864 -0.1863 -0.0444
 7338SOL    HW133473   4.079   2.096   3.041 -2.0454 -0.8722  1.4436
 7338SOL    HW233474   4.145   1.966   3.056 -1.7150 -4.2999 -0.7404
 7339SOL     OW33475   2.361   0.069   5.894 -0.2870 -0.3330 -0.4185
 7339SOL    HW133476   2.390   0.009   5.962 -1.7242  2.4722  2.6167
 7339SOL    HW233477   2.447   0.085   5.855 -0.8483  1.2098 -1.0249
 7340SOL     OW33478   2.744   1.593  12.604 -0.2903 -0.5392  0.3760
 7340SOL    HW133479   2.830   1.557  12.582  1.2975  3.3313  0.3136
 7340SOL    HW233480   2.765   1.682  12.631 -2.1136 -0.3689  1.2270
 7341SOL     OW33481   1.516   4.319   4.943 -0.1590  0.0529 -0.1459
 7341SOL    HW133482   1.476   4.232   4.939 -0.7464  0.2774  0.8350
 7341SOL    HW233483   1.570   4.326   4.864 -1.0356  0.7137 -0.6890
 7342SOL     OW33484   3.051   2.011  10.869 -0.3263 -0.5292 -0.3506
 7342SOL    HW133485   3.021   2.092  10.911  1.5963  0.0634 -0.1363
 7342SOL    HW233486   3.135   1.992  10.910  1.2482  2.6009 -2.1230
 7343SOL     OW33487   1.573   1.473   3.824 -0.1360 -0.0124  0.1429
 7343SOL    HW133488   1.654   1.511   3.791  0.1040 -0.0638  0.6919
 7343SOL    HW233489   1.537   1.461   3.735 -0.0231 -1.3970  0.2941
 7344SOL     OW33490   4.268   0.279   0.898  0.1082  0.5091 -0.4319
 7344SOL    HW133491   4.244   0.251   0.809 -0.0585  1.8668 -0.8122
 7344SOL    HW233492   4.188   0.306   0.941  0.6723 -0.9306  1.5504
 7345SOL     OW33493   4.072   0.506   4.706 -0.1427 -0.6278 -0.2277
 7345SOL    HW133494   4.167   0.516   4.697  0.0451 -1.8345  0.4616
 7345SOL    HW233495   4.065   0.414   4.680  0.3021 -1.3433  2.1672
 7346SOL     OW33496   2.099   0.347   5.023  0.0875  0.3854  0.0463
 7346SOL    HW133497   2.081   0.394   4.942 -0.5927 -0.3500 -0.2351
 7346SOL    HW233498   2.180   0.390   5.047  1.4457 -1.3540 -1.4373
 7347SOL     OW33499   2.759   2.436   8.008  0.1369 -0.1896  0.1455
 7347SOL    HW133500   2.844   2.438   8.051  0.6303 -0.0964 -0.8241
 7347SOL    HW233501   2.687   2.422   8.069 -0.6917  0.7913 -0.6111
 7348SOL     OW33502   0.065   2.317   3.934  0.6140 -0.1099  0.1307
 7348SOL    HW133503   0.153   2.279   3.940  1.0834  0.8559 -0.6356
 7348SOL    HW233504   0.090   2.409   3.939  0.4572  0.0477 -1.7727
 7349SOL     OW33505   3.464   0.634  16.813  0.4000  0.2831 -0.1733
 7349SOL    HW133506   3.388   0.615  16.759  0.4153 -1.0029  0.2491
 7349SOL    HW233507   3.525   0.665  16.747 -2.5398  1.3176 -2.3919
 7350SOL     OW33508   2.944   3.176   9.007 -0.2615 -0.0426 -0.4480
 7350SOL    HW133509   3.022   3.224   8.980 -1.0793  0.7903 -1.3445
 7350SOL    HW233510   2.912   3.230   9.079  0.0959  0.1536 -0.4361
 7351SOL     OW33511   0.859   3.673  12.626 -0.1270 -0.1562  0.0736
 7351SOL    HW133512   0.941   3.674  12.577  0.6530  1.2899  1.4175
 7351SOL    HW233513   0.889   3.704  12.711 -1.3303 -0.4824  0.6188
 7352SOL     OW33514   4.719   2.174   0.664  0.4334  0.5874 -0.5569
 7352SOL    HW133515   0.049   2.207   0.737 -1.1847  1.0376  0.3752
 7352SOL    HW233516   4.643   2.231   0.658  0.0402  0.4028  2.6958
 7353SOL     OW33517   3.227   3.158   7.517  0.3150 -0.1580  0.8864
 7353SOL    HW133518   3.227   3.139   7.423  0.4140 -0.4486  0.9455
 7353SOL    HW233519   3.133   3.152   7.536  0.3604  0.5276  1.3227
 7354SOL     OW33520   3.026   2.569  16.333 -0.0100  0.2308 -0.0677
 7354SOL    HW133521   3.040   2.513  16.409 -0.7895 -0.5115 -0.4588
 7354SOL    HW233522   2.950   2.620  16.363  0.0653  0.8917 -0.9867
 7355SOL     OW33523   4.134   2.454   3.503 -0.0428  0.5298  0.0176
 7355SOL    HW133524   4.133   2.390   3.432 -3.8229  1.5989 -0.8723
 7355SOL    HW233525   4.104   2.533   3.458  0.7068  1.0240  0.3868
 7356SOL     OW33526   0.632   4.062   7.379 -0.0422 -0.5877 -0.1416
 7356SOL    HW133527   0.589   4.019   7.305  3.8552  0.7153 -3.1816
 7356SOL    HW233528   0.721   4.072   7.347 -0.5145 -1.1507 -1.6501
 7357SOL     OW33529   4.627   4.340   8.658 -0.4648  0.3988  0.1080
 7357SOL    HW133530   4.655   4.250   8.646 -3.1023 -0.5722  1.1580
 7357SOL    HW233531   4.536   4.331   8.688 -0.0922 -1.1404  0.7294
 7358SOL     OW33532   2.034   0.301   8.777  0.0038  0.5602 -0.5747
 7358SOL    HW133533   2.013   0.386   8.816 -2.3186  0.8507 -2.4291
 7358SOL    HW233534   1.947   0.286   8.739  0.2982 -1.4116 -0.4474
 7359SOL     OW33535   1.371   0.041  13.059 -0.7826  0.7041  0.5704
 7359SOL    HW133536   1.367   0.095  13.138  1.0037  0.4780  0.8116
 7359SOL    HW233537   1.339   0.093  12.985  1.8411  2.3183  0.5584
 7360SOL     OW33538   2.042   4.451   9.573 -0.6471 -0.1544  1.0689
 7360SOL    HW133539   2.038   4.365   9.532 -1.9832  0.4351 -0.0107
 7360SOL    HW233540   2.033   4.429   9.666 -1.0554 -0.7539  0.8924
 7361SOL     OW33541   1.656   2.523   8.627  0.2070 -0.1956  0.1088
 7361SOL    HW133542   1.689   2.455   8.684  3.2704  0.8964 -0.3770
 7361SOL    HW233543   1.668   2.480   8.542 -1.9992 -0.0758 -0.2654
 7362SOL     OW33544   3.701   0.207  12.538 -0.1312  0.2903 -0.0626
 7362SOL    HW133545   3.761   0.206  12.463  1.7914  1.2810  1.4673
 7362SOL    HW233546   3.737   0.282  12.586  0.3378  0.9823 -1.4880
 7363SOL     OW33547   1.421   2.210  13.684 -0.1375 -0.7368  0.3589
 7363SOL    HW133548   1.360   2.240  13.616  1.2556  1.2433 -0.0023
 7363SOL    HW233549   1.363   2.204  13.759 -1.3635 -1.9418 -0.6806
 7364SOL     OW33550   1.326   2.124  16.072 -0.1885  0.0201 -0.0806
 7364SOL    HW133551   1.291   2.213  16.064  1.1574  0.5502 -0.0742
 7364SOL    HW233552   1.257   2.087  16.128  0.9082 -1.7030  0.1295
 7365SOL     OW33553   3.841   4.469   9.828  0.3117 -0.6715 -0.3394
 7365SOL    HW133554   3.752   4.500   9.840 -0.3417 -2.9315  0.7125
 7365SOL    HW233555   3.889   4.542   9.868 -0.4745  1.0726 -2.6186
 7366SOL     OW33556   0.410   2.336  13.561  0.5743 -0.3262 -0.0299
 7366SOL    HW133557   0.363   2.336  13.644 -3.4104 -0.5281 -2.2905
 7366SOL    HW233558   0.491   2.291  13.586  1.7137  1.3475 -0.7425
 7367SOL     OW33559   0.785   4.055   3.167 -0.2389 -0.1272  0.1873
 7367SOL    HW133560   0.751   4.068   3.079 -1.0811  0.1868  0.5600
 7367SOL    HW233561   0.750   4.133   3.209 -0.3646 -0.5511  0.8722
 7368SOL     OW33562   3.883   0.179   5.044  0.2524 -0.0351  0.5415
 7368SOL    HW133563   3.930   0.128   5.110  0.9562 -0.6600 -0.4444
 7368SOL    HW233564   3.941   0.255   5.036 -0.3678  0.6306  2.3417
 7369SOL     OW33565   2.442   0.003  12.039  0.2868 -0.7769 -0.0755
 7369SOL    HW133566   2.499   0.021  12.115 -0.1486 -3.5244  0.9094
 7369SOL    HW233567   2.484   4.649  11.999 -1.8083 -1.4723 -0.9326
 7370SOL     OW33568   4.319   3.475   8.841  0.2810  0.0932 -0.1692
 7370SOL    HW133569   4.321   3.514   8.754  0.7536  0.8732  0.1916
 7370SOL    HW233570   4.415   3.472   8.849  0.4474  0.9184 -1.9111
 7371SOL     OW33571   4.144   2.005  16.777  0.7150 -0.0766 -0.3408
 7371SOL    HW133572   4.228   2.047  16.760  1.2632 -1.2651 -0.6200
 7371SOL    HW233573   4.155   1.989  16.870  2.0207 -2.1445 -0.8395
 7372SOL     OW33574   4.054   3.535   6.187  0.2871  0.0931 -0.2767
 7372SOL    HW133575   4.016   3.475   6.252  1.2433  0.2577  0.4327
 7372SOL    HW233576   3.979   3.591   6.167 -1.0354 -1.8143 -0.6713
 7373SOL     OW33577   1.998   1.553  13.889  0.4383 -0.2648  0.0637
 7373SOL    HW133578   1.932   1.538  13.956 -0.3772 -0.5211 -0.7957
 7373SOL    HW233579   2.062   1.603  13.940  0.6264  1.1244 -1.5194
 7374SOL     OW33580   1.373   2.328   3.969 -0.3428 -0.0006 -0.0899
 7374SOL    HW133581   1.414   2.386   4.033 -4.0913  1.5046  0.9343
 7374SOL    HW233582   1.338   2.391   3.906 -1.2106 -2.1934 -1.7817
 7375SOL     OW33583   1.128   0.650  10.865  0.3655 -0.5948  0.0299
 7375SOL    HW133584   1.110   0.743  10.884  0.3823 -0.6178  0.1581
 7375SOL    HW233585   1.093   0.604  10.942  1.7212  0.5903  1.3391
 7376SOL     OW33586   2.208   2.736  11.325 -0.0477  0.6577 -0.0969
 7376SOL    HW133587   2.182   2.770  11.240 -0.3935 -0.0722 -0.2761
 7376SOL    HW233588   2.301   2.719  11.313 -0.0992  0.4592 -0.2110
 7377SOL     OW33589   4.063   2.171   8.413 -1.1447  0.5957  0.7802
 7377SOL    HW133590   3.968   2.166   8.397 -0.7159 -0.1098 -1.5438
 7377SOL    HW233591   4.064   2.263   8.441 -1.2431  0.7629  0.2435
 7378SOL     OW33592   2.290   1.171   6.610  0.0233  0.1944 -0.1344
 7378SOL    HW133593   2.383   1.149   6.617 -0.0892 -0.7607 -1.5477
 7378SOL    HW233594   2.282   1.238   6.677  2.0380 -1.7261  2.0273
 7379SOL     OW33595   4.073   4.134  14.208 -0.2363 -0.3713  0.6571
 7379SOL    HW133596   4.047   4.074  14.138  0.0202 -0.9083  1.0243
 7379SOL    HW233597   4.167   4.145  14.192 -0.5230 -0.2811 -0.9981
 7380SOL     OW33598   2.873   0.458   5.541 -0.2274  0.4848  0.2516
 7380SOL    HW133599   2.786   0.427   5.566  0.1346 -1.8620 -1.4152
 7380SOL    HW233600   2.867   0.553   5.553 -0.6845  0.5250 -0.3163
 7381SOL     OW33601   4.334   3.569   5.331 -0.7728 -0.2487  0.3213
 7381SOL    HW133602   4.375   3.631   5.272  0.7515 -0.7760  0.8319
 7381SOL    HW233603   4.248   3.605   5.352  0.3234  1.7542  1.4086
 7382SOL     OW33604   3.580   4.600   4.235 -0.2529  0.4573  0.3887
 7382SOL    HW133605   3.618   4.688   4.241  0.5461  0.3154 -2.5303
 7382SOL    HW233606   3.510   4.613   4.171  1.4864  0.7689 -1.4537
 7383SOL     OW33607   2.745   2.013  15.829 -0.5492 -0.1725  0.3157
 7383SOL    HW133608   2.823   1.958  15.822  1.9686  3.4070  0.6718
 7383SOL    HW233609   2.696   2.002  15.748  1.7090 -3.9755 -0.5617
 7384SOL     OW33610   0.732   3.575   3.724  0.4052  0.2919  0.5071
 7384SOL    HW133611   0.827   3.566   3.712  0.6961  1.4842  1.8984
 7384SOL    HW233612   0.711   3.612   3.639 -0.1029 -1.0994  0.0220
 7385SOL     OW33613   3.877   3.164   8.962  0.9056 -0.0516  0.7174
 7385SOL    HW133614   3.899   3.232   9.025  0.4717 -0.2979  1.1372
 7385SOL    HW233615   3.828   3.212   8.896  1.0755  2.0185  2.1172
 7386SOL     OW33616   3.309   3.119   6.390 -0.3507  0.0596  0.0482
 7386SOL    HW133617   3.261   3.093   6.311 -1.3336  2.3228 -0.0862
 7386SOL    HW233618   3.377   3.169   6.345 -2.2473  1.1095 -1.6830
 7387SOL     OW33619   4.275   4.660   8.712 -0.3179  0.5504 -0.1607
 7387SOL    HW133620   4.193   4.633   8.753  0.3948 -0.7651  0.3823
 7387SOL    HW233621   4.323   4.672   8.794  2.0012 -2.4134 -1.0764
 7388SOL     OW33622   4.703   2.168   3.724  0.6282 -0.7189 -0.2119
 7388SOL    HW133623   4.608   2.164   3.711  0.4575 -2.4106  1.5276
 7388SOL    HW233624   4.716   2.204   3.811 -2.0096  1.2489 -0.6183
 7389SOL     OW33625   4.098   2.886   7.480 -0.0266 -0.8777  0.2923
 7389SOL    HW133626   4.012   2.891   7.438 -0.2843 -1.3389  0.7806
 7389SOL    HW233627   4.084   2.878   7.574 -0.8415 -1.3592  0.1240
 7390SOL     OW33628   0.786   1.714  16.592 -0.1938  0.3785  0.0389
 7390SOL    HW133629   0.724   1.760  16.535 -0.0227  0.8527  0.2361
 7390SOL    HW233630   0.821   1.649  16.532 -1.8792  0.8449 -1.4689
 7391SOL     OW33631   3.014   3.790   2.209 -0.0041 -0.1733 -0.0004
 7391SOL    HW133632   2.940   3.839   2.244 -1.5395 -1.6510 -1.1312
 7391SOL    HW233633   2.982   3.701   2.224 -1.7089  0.0075 -2.4765
 7392SOL     OW33634   4.186   0.200   5.693  0.0743 -1.0026 -0.1669
 7392SOL    HW133635   4.262   0.226   5.745  0.8421 -1.5014 -1.0247
 7392SOL    HW233636   4.227   0.129   5.643 -0.2143 -1.4240  0.2021
 7393SOL     OW33637   0.647   0.656  11.406  0.0849 -0.3044  0.3144
 7393SOL    HW133638   0.695   0.723  11.358 -1.3749  0.5983  0.1181
 7393SOL    HW233639   0.716   0.592  11.425 -0.4231 -1.1224 -0.5552
 7394SOL     OW33640   4.311   3.018   5.792 -0.5447 -0.3831 -0.6176
 7394SOL    HW133641   4.332   3.091   5.734 -1.7402  0.1870 -0.3372
 7394SOL    HW233642   4.391   2.966   5.788 -1.5829 -2.1895  2.1014
 7395SOL     OW33643   1.530   0.013   7.911  0.5064  1.0385  0.2136
 7395SOL    HW133644   1.507   4.678   7.838 -3.2363  2.6110  0.1547
 7395SOL    HW233645   1.510   0.101   7.880  0.0424  1.3185  1.2851
 7396SOL     OW33646   0.017   2.237   3.270  0.4676 -0.0349 -0.3026
 7396SOL    HW133647   0.045   2.164   3.214 -0.0824 -0.7449  0.3466
 7396SOL    HW233648   4.672   2.202   3.328  0.8733 -1.5313 -0.7454
 7397SOL     OW33649   3.704   2.257   6.649  0.3302  0.1094 -0.4271
 7397SOL    HW133650   3.687   2.296   6.563 -1.4769 -1.0549 -0.5916
 7397SOL    HW233651   3.682   2.164   6.639 -1.2214  0.4339  0.0697
 7398SOL     OW33652   2.548   3.757   6.130  0.0500 -0.0474  0.5540
 7398SOL    HW133653   2.609   3.711   6.189 -2.5755 -2.7756  1.1677
 7398SOL    HW233654   2.569   3.849   6.139  1.9529 -0.5688  1.4757
 7399SOL     OW33655   0.146   1.346   8.980  0.1774  0.8391  0.2258
 7399SOL    HW133656   0.115   1.428   9.018  1.6264  1.2041  0.6314
 7399SOL    HW233657   0.069   1.288   8.976  0.6135  0.3135 -0.5079
 7400SOL     OW33658   2.482   3.325   7.294 -0.3546 -0.8055  0.2685
 7400SOL    HW133659   2.552   3.388   7.280  0.7478 -1.8778  0.9140
 7400SOL    HW233660   2.522   3.264   7.357 -0.3839  0.4369  1.4989
 7401SOL     OW33661   2.939   0.701   2.587 -0.0645  0.2756  0.2981
 7401SOL    HW133662   2.851   0.739   2.585  0.8351  2.4190  1.4161
 7401SOL    HW233663   2.983   0.750   2.518 -0.0878  1.6520  1.2537
 7402SOL     OW33664   3.737   3.989  16.251 -0.7564  0.3218  0.1390
 7402SOL    HW133665   3.774   4.063  16.300  0.4645 -0.5541  0.5468
 7402SOL    HW233666   3.772   4.012  16.165 -2.2199  0.0427 -0.5289
 7403SOL     OW33667   2.964   1.417   2.711  0.1876 -0.4031 -0.2404
 7403SOL    HW133668   3.006   1.450   2.790  1.8748  1.5106 -1.9277
 7403SOL    HW233669   2.977   1.323   2.722  0.6185  0.0053  2.7978
 7404SOL     OW33670   2.754   2.942  11.671  0.7303 -0.7285 -0.2995
 7404SOL    HW133671   2.822   2.899  11.620  0.0377 -2.0581 -0.1101
 7404SOL    HW233672   2.680   2.914  11.616  0.2319  1.1328 -0.5896
 7405SOL     OW33673   3.360   0.834   8.573 -0.2086 -0.4648 -0.3632
 7405SOL    HW133674   3.343   0.919   8.612 -0.5644 -0.4185 -0.6188
 7405SOL    HW233675   3.435   0.815   8.629  0.9538 -0.3439 -1.8533
 7406SOL     OW33676   3.592   2.717   8.418  0.3936  0.2528  0.1340
 7406SOL    HW133677   3.597   2.724   8.514 -1.5536 -3.0433  0.4645
 7406SOL    HW233678   3.663   2.778   8.396  0.5214  1.1136  2.9318
 7407SOL     OW33679   1.135   0.419  10.674 -0.4221 -0.5450 -0.2934
 7407SOL    HW133680   1.145   0.494  10.733  2.2514 -0.9859 -0.1684
 7407SOL    HW233681   1.055   0.371  10.694 -2.1315  2.7992  0.9238
 7408SOL     OW33682   3.112   3.543   5.213  0.2373  0.1078 -0.2473
 7408SOL    HW133683   3.149   3.541   5.125  3.1491  0.9486  0.9769
 7408SOL    HW233684   3.151   3.621   5.251  0.2966  0.2895 -0.6855
 7409SOL     OW33685   1.511   3.771  16.699 -0.9499 -0.4312  0.4684
 7409SOL    HW133686   1.551   3.826  16.767  0.1889 -3.4648  2.2397
 7409SOL    HW233687   1.509   3.828  16.623  1.2595  0.2021  0.8752
 7410SOL     OW33688   3.607   2.555   8.174  0.4420 -0.2693  0.1392
 7410SOL    HW133689   3.575   2.633   8.219  0.7945  0.4149 -0.8002
 7410SOL    HW233690   3.525   2.513   8.150 -0.4633  1.4715  0.1735
 7411SOL     OW33691   2.394   2.696   9.072  0.0023  0.1760 -0.1003
 7411SOL    HW133692   2.467   2.738   9.118  1.2187  0.0477 -1.8887
 7411SOL    HW233693   2.327   2.704   9.139 -0.1490 -1.6043 -0.0498
 7412SOL     OW33694   1.540   2.901  15.101  0.5311  0.8701  0.1650
 7412SOL    HW133695   1.497   2.948  15.173 -0.4593 -1.1728  0.9194
 7412SOL    HW233696   1.461   2.888  15.049  0.7300 -0.3256  0.1412
 7413SOL     OW33697   0.616   1.972   4.348 -0.0890 -0.2698 -0.3047
 7413SOL    HW133698   0.549   2.041   4.358  1.5964  1.1213  1.3734
 7413SOL    HW233699   0.661   1.976   4.433 -1.1342  3.5852  0.0769
 7414SOL     OW33700   4.580   0.278   2.110 -0.0256  0.3295 -0.3678
 7414SOL    HW133701   4.568   0.326   2.027  0.6629 -1.3822 -1.4533
 7414SOL    HW233702   4.543   0.345   2.168  1.1901 -1.1209  2.0575
 7415SOL     OW33703   1.868   0.925  10.413 -0.5432  0.0726 -0.2181
 7415SOL    HW133704   1.840   0.869  10.485  0.6131  0.0676  0.2241
 7415SOL    HW233705   1.958   0.896  10.399 -0.6881  0.6202 -2.3193
 7416SOL     OW33706   0.419   4.340   1.524 -0.6719  0.0256  0.0776
 7416SOL    HW133707   0.430   4.245   1.532  1.9450  0.4686  1.7170
 7416SOL    HW233708   0.444   4.361   1.434 -0.9669  0.4032  0.0848
 7417SOL     OW33709   4.423   3.477  15.034 -0.1505 -0.3569 -0.6024
 7417SOL    HW133710   4.454   3.545  15.095 -0.0929 -0.7405 -0.2082
 7417SOL    HW233711   4.374   3.535  14.975 -1.6095 -3.0272 -2.0011
 7418SOL     OW33712   3.944   2.841  16.417 -0.5711  0.0678  0.4541
 7418SOL    HW133713   3.948   2.748  16.395  0.8067  0.1116  0.5389
 7418SOL    HW233714   3.869   2.845  16.476 -0.0915 -2.5161  1.2460
 7419SOL     OW33715   3.778   0.958  12.969 -0.2206  0.1031  0.0089
 7419SOL    HW133716   3.851   1.000  12.923  0.8231 -1.2555  0.3919
 7419SOL    HW233717   3.757   1.025  13.033 -0.4939  0.3432 -0.3334
 7420SOL     OW33718   3.082   4.601   1.678  0.3937  0.1515  0.0684
 7420SOL    HW133719   3.115   4.511   1.675 -1.9216 -0.8227  3.1971
 7420SOL    HW233720   2.991   4.571   1.669  0.2822  0.8036 -0.9674
 7421SOL     OW33721   2.849   3.950   5.798 -0.3602 -0.7985  0.0553
 7421SOL    HW133722   2.853   3.856   5.780 -0.5342 -0.6266 -0.8751
 7421SOL    HW233723   2.765   3.973   5.758 -0.1423 -0.3691 -0.1470
 7422SOL     OW33724   3.959   2.670   6.619  0.0005 -0.0826  0.4256
 7422SOL    HW133725   4.045   2.638   6.592  0.0955 -0.3562  1.0349
 7422SOL    HW233726   3.972   2.763   6.604  2.5031 -0.5321 -0.0892
 7423SOL     OW33727   1.295   2.200   4.214 -0.4294  1.0136 -0.6252
 7423SOL    HW133728   1.312   2.234   4.126  1.0895 -2.3729 -1.6416
 7423SOL    HW233729   1.322   2.271   4.272  0.0728  0.4216 -0.1448
 7424SOL     OW33730   3.553   1.984  13.974  0.1060  0.0604  0.0645
 7424SOL    HW133731   3.483   1.972  13.911  1.6334  0.9320 -1.7842
 7424SOL    HW233732   3.601   2.041  13.914  0.7871  0.5138  1.0408
 7425SOL     OW33733   3.810   2.050   1.771 -0.0578 -0.2084 -1.0935
 7425SOL    HW133734   3.871   1.993   1.723  0.0079  1.3006 -2.7752
 7425SOL    HW233735   3.863   2.108   1.825 -1.0028 -0.3517 -0.0167
 7426SOL     OW33736   3.176   1.105   6.039  0.2457 -0.0629 -0.3833
 7426SOL    HW133737   3.153   1.041   5.972 -2.6086 -0.1605  0.6551
 7426SOL    HW233738   3.271   1.107   6.032  0.2756 -0.8132 -0.1705
 7427SOL     OW33739   0.658   1.664   4.556 -0.4115  0.5596 -1.0704
 7427SOL    HW133740   0.691   1.748   4.525 -1.7704  1.7695  0.7508
 7427SOL    HW233741   0.742   1.627   4.583 -0.3116  0.3258 -1.7152
 7428SOL     OW33742   3.571   3.923   8.707  0.4655  0.3132  0.4084
 7428SOL    HW133743   3.638   3.880   8.654 -1.2591  0.3154 -1.7869
 7428SOL    HW233744   3.611   4.010   8.705 -1.9539  1.4126 -0.5829
 7429SOL     OW33745   4.175   3.276  14.086  0.1751 -0.2233  0.2813
 7429SOL    HW133746   4.104   3.233  14.133 -2.0467 -0.7161 -3.4965
 7429SOL    HW233747   4.141   3.258  13.998  0.6837 -0.2868  0.0994
 7430SOL     OW33748   4.498   2.419  11.468 -0.6403  0.2007 -0.2771
 7430SOL    HW133749   4.551   2.400  11.546 -1.0582 -2.0399 -0.5204
 7430SOL    HW233750   4.445   2.339  11.463 -1.1237  0.4996  0.0442
 7431SOL     OW33751   3.068   2.926   2.253  0.4349  0.0835 -0.3247
 7431SOL    HW133752   3.113   2.937   2.169 -1.5811 -1.6662 -1.6572
 7431SOL    HW233753   2.984   2.969   2.237  0.6896 -0.1047 -2.1798
 7432SOL     OW33754   3.552   1.890   3.274 -0.0098 -0.3141 -0.0070
 7432SOL    HW133755   3.581   1.878   3.365  2.3637 -1.0791 -0.8566
 7432SOL    HW233756   3.635   1.884   3.226 -0.1316  0.2974 -0.2960
 7433SOL     OW33757   2.153   3.552   5.303 -0.6284 -0.2245  0.4709
 7433SOL    HW133758   2.150   3.634   5.353  0.3258 -0.9642  1.7480
 7433SOL    HW233759   2.062   3.551   5.274 -0.4540 -0.5448 -0.0464
 7434SOL     OW33760   1.085   3.638   1.135 -0.1007  0.3039 -0.6355
 7434SOL    HW133761   1.142   3.568   1.166 -0.5558  0.4375  0.5055
 7434SOL    HW233762   1.149   3.706   1.156 -1.9882  1.7630  0.4396
 7435SOL     OW33763   2.200   2.287   2.109  0.1902  0.1766  0.8083
 7435SOL    HW133764   2.235   2.299   2.197  0.1819  2.0961  0.5572
 7435SOL    HW233765   2.269   2.225   2.083  0.3493  1.4612 -1.9082
 7436SOL     OW33766   0.956   3.553   7.134 -0.3379  0.3730  0.0665
 7436SOL    HW133767   1.008   3.510   7.202  0.6112  0.1112 -0.8071
 7436SOL    HW233768   0.888   3.487   7.120  1.5045 -1.7501  1.1287
 7437SOL     OW33769   3.085   4.459   6.372 -0.4111 -0.4200  0.2018
 7437SOL    HW133770   3.040   4.479   6.290 -0.3757 -2.6058 -0.3607
 7437SOL    HW233771   3.174   4.480   6.345  0.0552  0.1549  2.1881
 7438SOL     OW33772   3.363   2.076   1.434  0.1280  0.5098  0.3030
 7438SOL    HW133773   3.385   1.993   1.393  3.8735  0.9959  1.3585
 7438SOL    HW233774   3.432   2.091   1.498 -1.3544 -1.6957  2.3954
 7439SOL     OW33775   1.971   1.548   4.575 -0.2765 -0.0751  0.3209
 7439SOL    HW133776   2.048   1.578   4.623 -1.1625  2.2673  0.2728
 7439SOL    HW233777   2.004   1.538   4.486 -1.3334  0.0395 -0.0862
 7440SOL     OW33778   1.558   0.326   6.173 -0.1155 -0.1874 -0.0325
 7440SOL    HW133779   1.480   0.272   6.160 -1.3361  1.7288 -0.6358
 7440SOL    HW233780   1.538   0.378   6.250  0.3099  0.1429 -0.1449
 7441SOL     OW33781   4.681   1.800  12.193 -0.5297 -0.3953  0.8782
 7441SOL    HW133782   4.659   1.749  12.271 -0.7015 -3.1626 -0.9731
 7441SOL    HW233783   4.595   1.825  12.159  1.3657 -1.7923 -4.8997
 7442SOL     OW33784   0.976   2.393   3.727  0.8416 -0.1157 -0.2837
 7442SOL    HW133785   0.941   2.322   3.781  1.7352 -1.8994 -2.0539
 7442SOL    HW233786   0.943   2.466   3.781 -0.7403 -0.6163 -0.5557
 7443SOL     OW33787   3.020   4.680   5.038 -0.7149 -0.3103  0.2681
 7443SOL    HW133788   3.053   4.596   5.069  3.3140  0.9948 -0.4939
 7443SOL    HW233789   3.076   4.683   4.960 -0.1932 -1.3781  0.6128
 7444SOL     OW33790   0.482   4.334   6.840  0.5656  0.0219 -0.0454
 7444SOL    HW133791   0.427   4.333   6.761  1.0761 -2.1894 -0.3806
 7444SOL    HW233792   0.552   4.278   6.806  0.2481 -0.7259  0.5187
 7445SOL     OW33793   1.989   0.089  10.855  0.7575  0.1190 -0.2872
 7445SOL    HW133794   1.962   0.101  10.946 -0.8364 -1.3387 -0.5639
 7445SOL    HW233795   1.990   0.181  10.830  1.4710  0.4919  1.1098
 7446SOL     OW33796   1.941   0.379  12.893  0.0457  0.1225  0.3286
 7446SOL    HW133797   1.937   0.415  12.805  1.0331  2.0392  1.0579
 7446SOL    HW233798   1.983   0.295  12.872 -0.5208 -0.6314  2.2243
 7447SOL     OW33799   0.494   2.565   4.685 -0.3823 -0.5018  0.1655
 7447SOL    HW133800   0.404   2.597   4.678 -0.5694 -1.5795 -2.2619
 7447SOL    HW233801   0.513   2.556   4.592 -1.0595 -2.2654  0.1990
 7448SOL     OW33802   1.421   0.543   6.332 -0.0007  0.3455  0.0461
 7448SOL    HW133803   1.340   0.545   6.280  0.3623 -1.2858 -0.6016
 7448SOL    HW233804   1.399   0.619   6.385 -0.1351  0.5612 -0.3153
 7449SOL     OW33805   1.153   1.059   5.144 -0.6091 -0.0602  0.2081
 7449SOL    HW133806   1.115   1.114   5.213 -0.7550  0.1583 -0.0477
 7449SOL    HW233807   1.080   1.018   5.098 -0.8948  0.9167 -0.2102
 7450SOL     OW33808   2.524   4.314   8.087  0.1213 -0.6148  0.0117
 7450SOL    HW133809   2.451   4.270   8.130  0.1896  0.4971  1.2822
 7450SOL    HW233810   2.556   4.247   8.027 -2.3034 -1.3955 -0.3916
 7451SOL     OW33811   0.510   0.316   6.456  0.1434  0.4700 -0.3256
 7451SOL    HW133812   0.534   0.374   6.384 -2.0740 -0.3375 -1.7211
 7451SOL    HW233813   0.526   0.235   6.406  0.4883  0.7200 -0.6205
 7452SOL     OW33814   2.786   2.736   3.235 -0.0836 -0.1836 -0.1169
 7452SOL    HW133815   2.692   2.734   3.215  0.1438 -2.2702 -0.9363
 7452SOL    HW233816   2.777   2.690   3.318  0.7304  1.3344  0.8180
 7453SOL     OW33817   1.345   1.391  12.341 -0.0681  0.3773  0.4979
 7453SOL    HW133818   1.402   1.467  12.346  0.2418  0.1322  0.6967
 7453SOL    HW233819   1.266   1.427  12.301  0.4771  0.0929 -0.8313
 7454SOL     OW33820   3.578   1.983   8.746 -0.1358  0.1438  0.1100
 7454SOL    HW133821   3.621   2.066   8.768  0.8934 -1.1299  2.9311
 7454SOL    HW233822   3.623   1.961   8.664  1.6614  1.0066  0.8523
 7455SOL     OW33823   4.410   1.531   4.959  0.7622  0.3064 -0.0236
 7455SOL    HW133824   4.325   1.499   4.928  1.1320 -0.0291 -0.6952
 7455SOL    HW233825   4.396   1.624   4.943 -2.6091 -0.1754  0.1450
 7456SOL     OW33826   2.739   2.788  10.303 -0.4429 -0.2732  0.2172
 7456SOL    HW133827   2.754   2.883  10.307  2.3029 -0.7475  0.7887
 7456SOL    HW233828   2.650   2.786  10.269 -0.8270 -0.4181  1.2431
 7457SOL     OW33829   3.261   3.051   5.456  0.4032  0.3110  0.0690
 7457SOL    HW133830   3.229   3.125   5.508  0.2106  1.0141 -1.0292
 7457SOL    HW233831   3.178   3.014   5.426  1.0078 -1.1308  0.1953
 7458SOL     OW33832   0.165   2.223  13.446 -0.8002 -0.4412  0.7732
 7458SOL    HW133833   0.259   2.234  13.461 -0.6770  0.5313 -0.7227
 7458SOL    HW233834   0.162   2.128  13.439  2.7875 -0.5731  1.3218
 7459SOL     OW33835   0.633   0.280   1.331 -0.7575  0.4637 -0.5125
 7459SOL    HW133836   0.609   0.187   1.335  1.2719 -0.0273 -0.1359
 7459SOL    HW233837   0.564   0.318   1.275 -2.0883  1.6992  1.9763
 7460SOL     OW33838   1.855   0.564   7.233  0.2856  0.0522 -0.1920
 7460SOL    HW133839   1.849   0.613   7.314  0.1695  0.5746 -0.5177
 7460SOL    HW233840   1.874   0.478   7.270  1.3784  0.3310 -0.1179
 7461SOL     OW33841   2.934   1.784  11.018 -0.1167  0.4980 -0.1078
 7461SOL    HW133842   2.967   1.840  11.089 -1.3052  0.9494  0.0804
 7461SOL    HW233843   3.002   1.717  11.026 -0.3556  0.2445 -0.2480
 7462SOL     OW33844   4.154   0.286   9.636 -0.1239  0.0599  0.5715
 7462SOL    HW133845   4.083   0.329   9.590  0.0136 -1.5943 -1.1896
 7462SOL    HW233846   4.117   0.265   9.722  0.0571  0.9027  0.8558
 7463SOL     OW33847   3.956   3.661   9.799 -0.3246  0.0556 -0.6045
 7463SOL    HW133848   3.996   3.732   9.849 -0.0962 -0.3917 -0.1478
 7463SOL    HW233849   3.986   3.675   9.709  0.2640  1.5360 -0.1783
 7464SOL     OW33850   3.215   2.413  15.864  0.1333 -0.2930 -0.1287
 7464SOL    HW133851   3.158   2.363  15.806  1.5931 -2.5496  0.3930
 7464SOL    HW233852   3.300   2.397  15.823 -0.8511  0.0914 -2.3357
 7465SOL     OW33853   1.655   4.421  11.979  0.0379  0.1055 -0.1596
 7465SOL    HW133854   1.733   4.386  12.021 -0.4139  1.2801  1.6711
 7465SOL    HW233855   1.641   4.498  12.035  1.2189  0.5918 -0.5310
 7466SOL     OW33856   1.861   3.565  14.381  0.9284  0.3075 -0.1802
 7466SOL    HW133857   1.829   3.483  14.344 -1.5455  0.5134  1.4692
 7466SOL    HW233858   1.920   3.531  14.448 -0.8985 -0.3645  1.0921
 7467SOL     OW33859   3.003   0.643   4.597 -0.2559  0.2886  0.2895
 7467SOL    HW133860   3.090   0.604   4.601 -0.3504  0.1745  1.2527
 7467SOL    HW233861   2.937   0.576   4.617  2.1104 -0.9826  3.7346
 7468SOL     OW33862   4.237   0.164   6.275 -0.1476  0.1318  0.0959
 7468SOL    HW133863   4.147   0.133   6.266 -0.0882 -0.5010  1.7898
 7468SOL    HW233864   4.271   0.075   6.281 -2.0091 -0.5076  1.1295
 7469SOL     OW33865   4.027   4.720   5.202 -0.0629 -0.5177 -0.6472
 7469SOL    HW133866   4.047   4.719   5.295 -0.6539  0.2993 -0.5074
 7469SOL    HW233867   3.977   4.641   5.185  1.2510 -1.4505 -0.1629
 7470SOL     OW33868   1.458   1.511   5.384 -0.6346 -0.7020 -0.0490
 7470SOL    HW133869   1.426   1.543   5.300  1.7882 -2.5419 -1.7169
 7470SOL    HW233870   1.540   1.560   5.390 -1.8465  1.0211  2.1565
 7471SOL     OW33871   3.235   3.906  12.728  0.0682  0.3225 -0.2456
 7471SOL    HW133872   3.287   3.826  12.736  0.1138  0.4325  0.6024
 7471SOL    HW233873   3.145   3.872  12.728  1.1363 -2.5261 -0.0412
 7472SOL     OW33874   3.568   3.213   4.430  0.2071 -0.0038  0.2496
 7472SOL    HW133875   3.627   3.140   4.449  0.0635 -1.0076 -3.1506
 7472SOL    HW233876   3.627   3.273   4.385 -0.1109 -1.2972 -1.9231
 7473SOL     OW33877   3.721   3.082   5.795  0.2852  0.2444  0.4734
 7473SOL    HW133878   3.682   3.012   5.743  0.5189  1.0831 -0.8343
 7473SOL    HW233879   3.650   3.138   5.828  0.0651 -0.3198  0.9611
 7474SOL     OW33880   0.201   1.165   5.415 -0.1900  0.6235  0.2249
 7474SOL    HW133881   0.291   1.154   5.385 -1.4807 -2.6601 -2.5523
 7474SOL    HW233882   0.196   1.260   5.425  3.8797  0.7767  0.7283
 7475SOL     OW33883   2.513   2.783   0.437 -0.1610  0.4417  0.6868
 7475SOL    HW133884   2.495   2.691   0.418  0.1304  0.2920  1.1365
 7475SOL    HW233885   2.581   2.778   0.503 -0.3565 -1.7502  0.7217
 7476SOL     OW33886   1.261   4.081   2.964 -0.2800  0.1227  0.0355
 7476SOL    HW133887   1.288   3.989   2.972  0.9893  0.3220 -2.0538
 7476SOL    HW233888   1.231   4.079   2.873  0.2574 -0.7418 -0.1254
 7477SOL     OW33889   4.691   1.992  17.468 -0.6416  0.4568 -0.2920
 7477SOL    HW133890   4.637   1.930  17.517 -1.5273  0.0934 -1.7236
 7477SOL    HW233891   4.684   2.074  17.516  1.9996  1.0304 -0.9155
 7478SOL     OW33892   1.480   0.886   2.249 -0.2951  0.0100  0.3137
 7478SOL    HW133893   1.456   0.797   2.225  1.3517 -0.5247  0.6009
 7478SOL    HW233894   1.562   0.876   2.298  0.2723 -0.5219 -0.7622
 7479SOL     OW33895   0.347   3.757   1.500  0.0941 -0.1598  0.4482
 7479SOL    HW133896   0.417   3.700   1.468  0.9168  0.8268  0.4603
 7479SOL    HW233897   0.271   3.740   1.445 -0.2889  0.0633  0.9062
 7480SOL     OW33898   0.395   2.029   6.748 -0.5839 -0.4578  0.1456
 7480SOL    HW133899   0.301   2.033   6.733 -0.7194 -0.4654  0.9854
 7480SOL    HW233900   0.403   2.100   6.812 -0.4927 -0.7311  0.4374
 7481SOL     OW33901   4.353   2.043   8.026 -0.1477 -0.7702  0.2574
 7481SOL    HW133902   4.267   2.010   8.001  0.4235 -0.3367 -2.2805
 7481SOL    HW233903   4.391   2.042   7.938  0.1974 -1.4449  0.4067
 7482SOL     OW33904   2.593   1.943   1.981  0.0824  0.6689 -0.2074
 7482SOL    HW133905   2.668   1.912   1.931 -1.4347  0.1099 -2.1404
 7482SOL    HW233906   2.562   1.857   2.012  1.6326  0.8191  1.7363
 7483SOL     OW33907   3.787   2.747   5.170  0.0486 -0.4015 -0.0078
 7483SOL    HW133908   3.699   2.776   5.145 -1.2978 -2.5815  2.1459
 7483SOL    HW233909   3.765   2.656   5.193  0.8456 -0.3258  1.0942
 7484SOL     OW33910   2.938   1.641   2.246 -0.4614  0.0403  0.4019
 7484SOL    HW133911   2.906   1.593   2.170 -1.9639 -0.4035  1.3191
 7484SOL    HW233912   2.997   1.712   2.223 -1.8032  0.8109 -0.6550
 7485SOL     OW33913   3.840   3.892   7.707 -0.2001 -0.3540 -0.0246
 7485SOL    HW133914   3.914   3.873   7.650  0.7030  2.2507  0.2542
 7485SOL    HW233915   3.763   3.894   7.650  0.7352 -0.9283 -1.3086
 7486SOL     OW33916   4.610   3.088   7.098 -0.5341  0.1585 -0.4412
 7486SOL    HW133917   4.680   3.058   7.039 -2.2692 -1.3561 -1.7277
 7486SOL    HW233918   4.543   3.070   7.032  0.0065 -0.2215 -0.8981
 7487SOL     OW33919   3.761   2.780   3.261 -0.0631 -0.5164 -0.0923
 7487SOL    HW133920   3.840   2.835   3.266  0.3550 -0.9386 -2.0519
 7487SOL    HW233921   3.699   2.833   3.210 -0.2490 -0.4310  0.2244
 7488SOL     OW33922   1.785   0.065   2.983  0.3339 -0.1892  0.1675
 7488SOL    HW133923   1.771   0.153   2.950  1.2266  0.2845  1.0487
 7488SOL    HW233924   1.864   0.041   2.935  0.9903  1.6868  0.3178
 7489SOL     OW33925   0.810   3.457   0.308 -0.1553 -0.2585  0.3045
 7489SOL    HW133926   0.772   3.542   0.289  1.2102  0.1108 -0.7563
 7489SOL    HW233927   0.743   3.420   0.366 -1.2973  2.3329  0.6412
 7490SOL     OW33928   2.335   0.461  15.650  0.7194 -0.1299  0.4506
 7490SOL    HW133929   2.419   0.436  15.610  0.5995 -0.0063  0.1215
 7490SOL    HW233930   2.281   0.430  15.577 -0.8752  0.2798  1.4617
 7491SOL     OW33931   2.339   3.337   0.679  0.3936 -0.0755 -0.0077
 7491SOL    HW133932   2.278   3.267   0.700  0.7048 -1.0068 -2.2225
 7491SOL    HW233933   2.326   3.351   0.586 -1.6652 -1.2393  0.1166
 7492SOL     OW33934   1.167   4.104  17.260 -0.1279  0.1075 -0.0242
 7492SOL    HW133935   1.090   4.149  17.225 -0.8215  1.0137  2.6689
 7492SOL    HW233936   1.236   4.124  17.197  0.2906  0.9172  0.6894
 7493SOL     OW33937   0.429   0.249   2.635 -0.0131  0.5525  0.0789
 7493SOL    HW133938   0.520   0.234   2.661 -0.2588  0.6220  0.9696
 7493SOL    HW233939   0.411   0.325   2.691 -0.6435  1.7692 -1.7784
 7494SOL     OW33940   4.297   4.691  16.862 -0.2944 -0.5928 -0.4034
 7494SOL    HW133941   4.282   4.665  16.953  0.0204  0.5146 -0.0315
 7494SOL    HW233942   4.269   0.060  16.851  0.0111 -0.3227  1.0419
 7495SOL     OW33943   0.786   3.932  17.450  0.3479  0.2150 -0.6091
 7495SOL    HW133944   0.765   3.850  17.495 -0.0723  0.7067  0.0933
 7495SOL    HW233945   0.878   3.923  17.426  0.3652 -3.8113  0.9901
 7496SOL     OW33946   0.491   2.522   1.818 -0.0602 -0.5218 -0.2283
 7496SOL    HW133947   0.407   2.479   1.834 -0.9275  0.3003 -2.5739
 7496SOL    HW233948   0.505   2.571   1.899  0.0641  1.6403 -1.5479
 7497SOL     OW33949   1.954   3.050   7.929  0.3497  0.1148 -0.0488
 7497SOL    HW133950   1.911   2.964   7.934  0.5257  0.0639  0.6546
 7497SOL    HW233951   2.036   3.025   7.888  1.3003 -0.6342  2.3215
 7498SOL     OW33952   3.810   3.573  10.599  0.4610 -0.0944  0.6214
 7498SOL    HW133953   3.841   3.490  10.562  1.1548  0.0701  0.8404
 7498SOL    HW233954   3.747   3.547  10.666  0.5978 -0.3080  0.6684
 7499SOL     OW33955   1.897   1.694   6.774 -0.3085  0.6039  0.4154
 7499SOL    HW133956   1.902   1.602   6.800 -0.3119 -0.3196 -2.8489
 7499SOL    HW233957   1.825   1.681   6.712 -0.1667 -0.6502  0.5291
 7500SOL     OW33958   3.129   2.898  10.209  0.4417  1.0090  0.4139
 7500SOL    HW133959   3.063   2.967  10.198 -2.0899 -1.2386  1.6003
 7500SOL    HW233960   3.170   2.916  10.293 -1.2359  0.1875  1.4150
 7501SOL     OW33961   3.768   3.190   2.693 -0.2392 -0.3594  0.4891
 7501SOL    HW133962   3.841   3.178   2.754  0.4793 -0.5059 -0.3974
 7501SOL    HW233963   3.684   3.187   2.738  0.1104 -0.7071  1.1216
 7502SOL     OW33964   4.150   3.474   7.300  0.1015  1.1338  0.1752
 7502SOL    HW133965   4.192   3.558   7.281  1.4403  0.4514  0.1549
 7502SOL    HW233966   4.217   3.415   7.266 -1.1670 -0.5921  0.7039
 7503SOL     OW33967   3.841   0.256   4.772 -0.1565 -0.8350  0.1016
 7503SOL    HW133968   3.932   0.241   4.745  0.2240  0.6618  0.5465
 7503SOL    HW233969   3.851   0.242   4.866 -0.2071  0.1244  0.2545
 7504SOL     OW33970   1.817   3.724  11.683 -0.2802 -0.0450  0.0529
 7504SOL    HW133971   1.831   3.782  11.609  0.6353 -1.1468 -0.6324
 7504SOL    HW233972   1.817   3.786  11.757  2.5620  0.0928 -0.0458
 7505SOL     OW33973   0.677   3.468  10.855 -0.2154 -0.4249  0.4394
 7505SOL    HW133974   0.629   3.498  10.778  1.4897 -0.8506 -0.8055
 7505SOL    HW233975   0.767   3.487  10.825 -0.8578  1.5468 -0.2786
 7506SOL     OW33976   3.087   1.885   2.262 -0.5007 -0.1847  0.0607
 7506SOL    HW133977   3.136   1.898   2.344 -2.2230  0.0357  1.0551
 7506SOL    HW233978   3.128   1.938   2.194  0.9299 -0.4628  0.7065
 7507SOL     OW33979   3.747   0.843   7.438 -0.5072 -0.0393  0.7149
 7507SOL    HW133980   3.764   0.791   7.516  1.2602 -0.7489 -0.1389
 7507SOL    HW233981   3.805   0.798   7.376 -2.7989 -1.4049 -0.4418
 7508SOL     OW33982   2.287   3.972  13.591 -0.1800  0.0394 -0.1500
 7508SOL    HW133983   2.279   3.960  13.496 -2.0100 -1.2709  0.1624
 7508SOL    HW233984   2.327   3.888  13.614 -0.2336  0.4745  1.5239
 7509SOL     OW33985   3.517   3.178   8.645 -0.0472 -0.2780  0.4608
 7509SOL    HW133986   3.513   3.204   8.553 -1.0315  0.5479  0.7401
 7509SOL    HW233987   3.429   3.200   8.675 -0.0341 -0.7800  0.8827
 7510SOL     OW33988   3.566   3.120   1.741 -0.0224  0.4527 -0.6442
 7510SOL    HW133989   3.642   3.152   1.789 -0.9673  0.1588  1.0647
 7510SOL    HW233990   3.583   3.028   1.721 -0.4591  0.0046  1.0354
 7511SOL     OW33991   0.356   1.670   4.589  0.8562 -0.6768  0.7900
 7511SOL    HW133992   0.344   1.575   4.597 -0.3653 -0.5742  0.2051
 7511SOL    HW233993   0.449   1.663   4.566  0.4356 -0.5647 -0.9400
 7512SOL     OW33994   2.205   2.555   7.091 -0.6458 -0.3730  0.3413
 7512SOL    HW133995   2.260   2.552   7.012  0.8712  0.5049  1.3721
 7512SOL    HW233996   2.275   2.546   7.155  0.1252  1.4626 -0.2654
 7513SOL     OW33997   2.539   0.634   4.247  0.1823  0.3088 -0.2632
 7513SOL    HW133998   2.467   0.643   4.310 -0.7688  0.0695 -1.3002
 7513SOL    HW233999   2.607   0.693   4.277 -1.7920  1.7978  1.3392
 7514SOL     OW34000   2.339   3.266  17.363 -0.0479  0.0662 -0.4039
 7514SOL    HW134001   2.342   3.258  17.267  0.3595 -0.0432 -0.3803
 7514SOL    HW234002   2.277   3.195  17.382 -0.0790  0.6995  1.8211
 7515SOL     OW34003   2.256   0.543   3.246  0.2398  0.3441  0.0116
 7515SOL    HW134004   2.329   0.597   3.276  0.6523 -0.4332  0.4035
 7515SOL    HW234005   2.198   0.556   3.321  1.5716  1.8170  0.7791
 7516SOL     OW34006   1.045   3.181   0.192  0.0892 -0.0961  0.6430
 7516SOL    HW134007   0.979   3.116   0.167 -0.3256  0.9486 -1.0264
 7516SOL    HW234008   1.063   3.159   0.283  0.3294 -1.9760  0.1431
 7517SOL     OW34009   1.474   1.460   7.863  0.4766 -0.3534 -0.2077
 7517SOL    HW134010   1.380   1.464   7.883  0.1726  1.6469 -2.0617
 7517SOL    HW234011   1.489   1.380   7.914  0.9970  0.4608  0.9260
 7518SOL     OW34012   2.646   1.977  13.862  0.3720  0.5818 -0.6474
 7518SOL    HW134013   2.711   1.930  13.811 -0.4326 -0.6742 -0.5218
 7518SOL    HW234014   2.692   2.041  13.915 -0.6927  2.2144 -1.6731
 7519SOL     OW34015   0.730   0.484   2.914 -0.1322 -0.0227 -0.4948
 7519SOL    HW134016   0.815   0.527   2.909 -0.5891  0.9584  0.0574
 7519SOL    HW234017   0.691   0.531   2.841 -1.0642 -0.4397 -0.2717
 7520SOL     OW34018   2.796   1.397   8.635 -0.3721 -0.0858  0.1998
 7520SOL    HW134019   2.880   1.421   8.673  0.4828  0.4886 -2.0140
 7520SOL    HW234020   2.763   1.355   8.714 -0.9211  0.8736  0.4764
 7521SOL     OW34021   1.518   3.521   7.538 -0.1314 -0.4305 -0.2790
 7521SOL    HW134022   1.482   3.581   7.472  1.1949 -0.2486 -0.8256
 7521SOL    HW234023   1.595   3.493   7.490 -0.6995 -2.3588 -0.0383
 7522SOL     OW34024   1.619   0.978   8.700 -0.4487 -0.2656  0.1974
 7522SOL    HW134025   1.637   0.960   8.792  1.9199 -1.2463 -0.4560
 7522SOL    HW234026   1.574   1.062   8.715 -1.1253 -0.9643  1.9769
 7523SOL     OW34027   4.287   1.229   5.372 -0.1691 -0.4262  0.0972
 7523SOL    HW134028   4.194   1.224   5.351 -0.0090  1.2117 -1.0765
 7523SOL    HW234029   4.311   1.313   5.333  0.5907 -1.8644 -2.5339
 7524SOL     OW34030   0.699   2.787   2.240 -0.7111 -0.0857 -0.4178
 7524SOL    HW134031   0.623   2.823   2.194 -0.7496 -0.0704 -0.3433
 7524SOL    HW234032   0.764   2.855   2.226 -3.2359  2.3051 -0.4968
 7525SOL     OW34033   0.671   4.140   6.784  0.1907  0.2217  0.4198
 7525SOL    HW134034   0.740   4.179   6.838  1.0285 -1.5341  0.6296
 7525SOL    HW234035   0.641   4.070   6.841  0.5746 -0.6189 -0.4088
 7526SOL     OW34036   4.172   0.459   9.296 -0.1691  0.8824 -0.3672
 7526SOL    HW134037   4.237   0.528   9.281 -0.6852  1.6528  0.9089
 7526SOL    HW234038   4.089   0.499   9.271 -2.6094 -2.7406  1.9084
 7527SOL     OW34039   1.697   4.405   1.609  0.1522  0.2915  0.0435
 7527SOL    HW134040   1.617   4.356   1.587 -1.2059  2.0163  1.1187
 7527SOL    HW234041   1.725   4.430   1.521 -0.9079  2.4240  0.3104
 7528SOL     OW34042   1.808   1.894  11.707 -0.3570  0.7323 -0.1117
 7528SOL    HW134043   1.747   1.824  11.731 -0.2841  0.7414  0.0983
 7528SOL    HW234044   1.880   1.888  11.769  0.2181 -0.0084 -0.8567
 7529SOL     OW34045   0.291   1.201  11.047  0.0051 -0.1417  0.7830
 7529SOL    HW134046   0.352   1.211  10.974 -4.3216 -0.4560 -2.9134
 7529SOL    HW234047   0.210   1.193  10.997  0.0683  0.8608  0.5111
 7530SOL     OW34048   1.977   4.303  12.501 -0.5529 -0.0411  0.0533
 7530SOL    HW134049   1.981   4.384  12.449 -4.1958 -0.4925 -0.9145
 7530SOL    HW234050   1.887   4.273  12.491 -1.2624  1.2563  2.3468
 7531SOL     OW34051   2.754   3.361   2.952  0.6153 -0.2227 -0.7194
 7531SOL    HW134052   2.682   3.322   3.001  1.8769  1.3428  2.3806
 7531SOL    HW234053   2.734   3.327   2.865  1.6102  0.9732 -1.4235
 7532SOL     OW34054   0.747   1.290  16.038  0.4904  0.5989  0.3796
 7532SOL    HW134055   0.680   1.232  16.002 -0.1325  0.0320  2.4641
 7532SOL    HW234056   0.815   1.226  16.062  0.9974  0.3871 -1.6289
 7533SOL     OW34057   4.492   2.324   6.366 -0.2172  0.4903 -0.2378
 7533SOL    HW134058   4.488   2.259   6.437  0.5946 -1.5077 -2.0157
 7533SOL    HW234059   4.540   2.271   6.302  2.2694 -0.6259  2.5675
 7534SOL     OW34060   0.422   2.659  13.966  0.8359 -0.3852  0.7331
 7534SOL    HW134061   0.326   2.664  13.964  0.8188 -1.0330 -0.2176
 7534SOL    HW234062   0.440   2.608  13.887  0.7616  0.5910  0.0908
 7535SOL     OW34063   1.572   3.570  10.074 -0.1942  0.3132 -0.0700
 7535SOL    HW134064   1.511   3.635  10.109  0.9265 -0.0665  2.5960
 7535SOL    HW234065   1.655   3.617  10.061  0.1489  0.4493  2.5962
 7536SOL     OW34066   1.516   2.350  17.285 -0.1981  0.2235 -0.0998
 7536SOL    HW134067   1.526   2.303  17.368 -0.4899 -1.6027 -1.0898
 7536SOL    HW234068   1.430   2.391  17.296 -0.5181 -0.1046 -1.4081
 7537SOL     OW34069   4.684   3.402   6.335 -0.0078  0.2427 -0.1672
 7537SOL    HW134070   0.027   3.472   6.345 -0.1272  0.3062  0.1571
 7537SOL    HW234071   4.630   3.443   6.268  1.4987 -1.0736 -2.1938
 7538SOL     OW34072   4.125   0.563   3.887  0.3388 -1.1077 -0.3559
 7538SOL    HW134073   4.043   0.597   3.923  1.4428  0.5601  0.6178
 7538SOL    HW234074   4.139   0.614   3.807  0.6100 -1.0100 -0.2443
 7539SOL     OW34075   1.811   2.933   8.803 -0.0207  0.3987 -0.6687
 7539SOL    HW134076   1.730   2.950   8.755  0.4041 -1.9986 -2.2422
 7539SOL    HW234077   1.847   2.855   8.760 -1.3760  1.0827 -3.0287
 7540SOL     OW34078   2.128   0.119  17.124 -0.2792  0.1049 -0.2644
 7540SOL    HW134079   2.199   0.162  17.077  0.8070 -2.2303 -0.7337
 7540SOL    HW234080   2.162   0.030  17.132 -0.4503 -0.0150 -0.8676
 7541SOL     OW34081   2.509   3.037  13.219  0.4325 -0.1323  0.2242
 7541SOL    HW134082   2.445   3.108  13.212  0.3622 -0.0794  1.3220
 7541SOL    HW234083   2.457   2.967  13.257  0.2150  0.3094  0.7559
 7542SOL     OW34084   1.248   3.653   4.477 -0.3055  0.2884 -0.0385
 7542SOL    HW134085   1.231   3.649   4.571 -0.9901  1.1071 -0.1226
 7542SOL    HW234086   1.175   3.702   4.438 -1.4160 -2.1985 -1.1225
 7543SOL     OW34087   1.090   3.279   7.109  0.1661 -0.0231 -0.0248
 7543SOL    HW134088   1.031   3.306   7.179  0.9828  0.9828  0.2809
 7543SOL    HW234089   1.103   3.185   7.124  0.7689 -0.3900 -2.7679
 7544SOL     OW34090   1.199   3.345   9.466  0.4809  1.1324 -0.0132
 7544SOL    HW134091   1.144   3.409   9.422 -0.7901  0.3778  0.4872
 7544SOL    HW234092   1.171   3.261   9.429 -0.4090  1.0373  0.8734
 7545SOL     OW34093   4.506   3.815  12.704 -0.2235 -0.0695 -0.1346
 7545SOL    HW134094   4.466   3.735  12.739 -1.0975  0.1438 -0.6433
 7545SOL    HW234095   4.461   3.826  12.620 -0.0389  1.0025 -0.0958
 7546SOL     OW34096   1.543   0.366  13.445 -0.4046  0.0243  0.7479
 7546SOL    HW134097   1.565   0.307  13.518 -0.0974 -1.4843 -0.5707
 7546SOL    HW234098   1.494   0.312  13.383  1.7545  0.7385 -1.5411
 7547SOL     OW34099   0.900   2.828   5.440  0.2779  0.3430 -0.0602
 7547SOL    HW134100   0.976   2.870   5.482  1.2385 -1.1284 -0.3394
 7547SOL    HW234101   0.864   2.765   5.501  2.1626  1.5140  2.2723
 7548SOL     OW34102   2.822   3.433  10.954 -0.4982 -0.2302 -0.8316
 7548SOL    HW134103   2.820   3.339  10.972  1.2137 -0.2117 -0.4987
 7548SOL    HW234104   2.914   3.447  10.929 -0.6228  1.4492 -0.3406
 7549SOL     OW34105   4.571   3.632  16.771 -0.2535  0.2577 -0.3345
 7549SOL    HW134106   4.594   3.600  16.858  0.5585 -0.7855 -0.9376
 7549SOL    HW234107   4.514   3.696  16.815 -0.1755  1.0188 -1.3433
 7550SOL     OW34108   2.461   0.750  16.086 -0.3039 -0.1787  0.2715
 7550SOL    HW134109   2.547   0.755  16.045 -1.0908 -0.5680 -1.3930
 7550SOL    HW234110   2.479   0.680  16.149  0.1637  0.5559  0.9687
 7551SOL     OW34111   3.991   2.946   6.638  0.3766 -0.1390  0.2026
 7551SOL    HW134112   4.045   3.010   6.594  0.5648 -0.8854 -0.6424
 7551SOL    HW234113   4.049   2.919   6.709  0.6996  1.3882  0.5094
 7552SOL     OW34114   4.652   2.812   3.534  0.6843  0.5319  0.2959
 7552SOL    HW134115   4.708   2.835   3.460 -0.7482 -0.6632 -1.1754
 7552SOL    HW234116   4.628   2.902   3.557  0.0745  0.6189 -0.7068
 7553SOL     OW34117   4.594   0.896   1.126  0.0370 -0.1060  0.4497
 7553SOL    HW134118   4.514   0.948   1.137  0.1401  0.5352 -1.8611
 7553SOL    HW234119   4.653   0.958   1.085  1.2494  0.1269  2.5520
 7554SOL     OW34120   2.900   1.875   8.823  0.2482 -0.2326 -0.7211
 7554SOL    HW134121   2.974   1.824   8.792 -1.5327 -2.3192 -1.5173
 7554SOL    HW234122   2.851   1.811   8.876 -0.2767 -0.2402 -1.2144
 7555SOL     OW34123   0.511   0.840   7.303  0.3394 -0.3179 -0.3224
 7555SOL    HW134124   0.451   0.913   7.292  0.1204 -0.7143 -1.7800
 7555SOL    HW234125   0.454   0.778   7.348 -0.5735  0.1502 -0.8476
 7556SOL     OW34126   4.125   2.308   9.423 -0.0123  0.5699 -0.1366
 7556SOL    HW134127   4.044   2.359   9.422 -0.5864 -0.3281  1.5550
 7556SOL    HW234128   4.188   2.370   9.460 -2.0879  1.8796  1.1349
 7557SOL     OW34129   2.849   1.206   9.419  0.4457  0.2974 -0.1719
 7557SOL    HW134130   2.883   1.195   9.330  0.3559  0.1477 -0.1889
 7557SOL    HW234131   2.916   1.158   9.469 -0.6452 -2.1197 -1.0143
 7558SOL     OW34132   2.855   0.940  14.884 -0.2163  0.3461  0.1287
 7558SOL    HW134133   2.767   0.938  14.845 -0.2640 -1.5923  0.3599
 7558SOL    HW234134   2.896   0.863  14.845  0.1321 -0.1453  1.4798
 7559SOL     OW34135   1.983   0.191   9.601 -0.0791  0.0233 -0.4454
 7559SOL    HW134136   2.072   0.225   9.589 -0.3378  0.9648  0.3610
 7559SOL    HW234137   1.996   0.133   9.676 -0.9962 -0.5527 -0.7351
 7560SOL     OW34138   3.442   2.575   1.700  0.1486 -0.2882  0.1597
 7560SOL    HW134139   3.510   2.553   1.763  1.0271  0.9838 -0.3503
 7560SOL    HW234140   3.380   2.504   1.717 -3.1392  2.5637  0.1631
 7561SOL     OW34141   0.933   1.849   6.527 -0.3509  0.3379 -0.1805
 7561SOL    HW134142   1.013   1.835   6.578 -1.2828  0.7023  1.3750
 7561SOL    HW234143   0.869   1.873   6.592 -2.0154 -1.0481 -1.2974
 7562SOL     OW34144   2.718   1.620  15.249  0.3751 -0.3103 -0.3541
 7562SOL    HW134145   2.689   1.580  15.167  3.4292  0.1719 -1.6676
 7562SOL    HW234146   2.712   1.715  15.238 -0.6704 -0.3702 -0.3528
 7563SOL     OW34147   4.205   4.376   2.045  0.1382 -0.3853 -0.4518
 7563SOL    HW134148   4.218   4.459   1.999 -2.1785 -0.5047 -1.3158
 7563SOL    HW234149   4.228   4.311   1.978  0.0964 -1.7681  0.8801
 7564SOL     OW34150   3.918   1.362   7.111 -0.0487  0.0417 -0.1090
 7564SOL    HW134151   3.856   1.333   7.178  1.5943 -1.6897  0.6398
 7564SOL    HW234152   4.003   1.342   7.149  0.7604  1.7164 -1.0425
 7565SOL     OW34153   2.484   2.106   7.090 -0.2667  0.0381 -0.0107
 7565SOL    HW134154   2.420   2.034   7.093  0.0528 -0.0931  3.0697
 7565SOL    HW234155   2.563   2.058   7.066 -0.0052  0.6390 -0.3541
 7566SOL     OW34156   3.297   1.987   7.493 -0.3637  0.0928 -0.0171
 7566SOL    HW134157   3.210   1.993   7.533  0.1938 -1.7392  1.4840
 7566SOL    HW234158   3.280   2.007   7.401 -0.0368  0.7165  0.0562
 7567SOL     OW34159   3.653   1.183  15.186  0.8639 -0.5369 -0.3966
 7567SOL    HW134160   3.593   1.252  15.158  2.0711  0.2470 -1.0231
 7567SOL    HW234161   3.584   1.120  15.166  1.1618 -0.2696 -2.2108
 7568SOL     OW34162   1.334   2.643  15.394  0.8934  0.2968  0.2241
 7568SOL    HW134163   1.352   2.616  15.484  0.4799 -0.5385  0.0629
 7568SOL    HW234164   1.352   2.563  15.344 -0.3785 -1.0086  1.8372
 7569SOL     OW34165   2.088   0.248  13.283  0.2346  0.2566 -0.5125
 7569SOL    HW134166   2.026   0.315  13.255 -0.2940  0.5995  1.4511
 7569SOL    HW234167   2.063   0.227  13.373 -2.2699  3.0574 -0.5627
 7570SOL     OW34168   2.085   2.417   7.297  0.4041  0.3090  0.1791
 7570SOL    HW134169   2.130   2.476   7.237 -1.5674  1.5252 -0.0907
 7570SOL    HW234170   2.122   2.330   7.280  2.5796  1.6265 -1.8082
 7571SOL     OW34171   1.682   1.662   5.400  0.1998  0.3011  0.0679
 7571SOL    HW134172   1.744   1.714   5.451 -1.4424 -1.0021  3.4476
 7571SOL    HW234173   1.734   1.640   5.323 -0.6388  1.8522 -0.9458
 7572SOL     OW34174   0.017   1.853   3.522  0.0606  0.2928 -0.3258
 7572SOL    HW134175   0.064   1.785   3.570 -1.2080  0.9285  1.7833
 7572SOL    HW234176   0.083   1.918   3.497  0.0947  0.0788 -0.8017
 7573SOL     OW34177   4.218   0.318   6.077  0.2051  0.0551  0.6283
 7573SOL    HW134178   4.277   0.390   6.099  0.6680 -0.5906  1.4531
 7573SOL    HW234179   4.232   0.253   6.145  2.6018  0.4221  0.4775
 7574SOL     OW34180   3.464   2.306   7.295  0.4778  0.0651 -0.4266
 7574SOL    HW134181   3.381   2.263   7.312 -0.3720  2.1993  0.9055
 7574SOL    HW234182   3.527   2.235   7.284  0.1815 -0.4279  1.0998
 7575SOL     OW34183   0.950   3.524   4.542  0.4514  0.3519  0.5633
 7575SOL    HW134184   0.994   3.489   4.620  3.1733  1.4059 -0.4947
 7575SOL    HW234185   0.890   3.453   4.518  1.0453 -0.0102  0.1465
 7576SOL     OW34186   0.466   3.791  13.291  0.6429  0.3412  0.0677
 7576SOL    HW134187   0.435   3.776  13.202 -0.6512  0.4297  0.4923
 7576SOL    HW234188   0.381   3.808  13.332  0.7446  1.0640 -0.0318
 7577SOL     OW34189   2.373   0.949   7.609 -0.5035  0.0264 -0.0719
 7577SOL    HW134190   2.445   1.007   7.586 -0.3561  0.3643  1.2441
 7577SOL    HW234191   2.404   0.917   7.694  0.1937 -0.2188 -0.4220
 7578SOL     OW34192   2.438   1.226   4.248 -0.0931 -0.4755  0.0239
 7578SOL    HW134193   2.516   1.208   4.195  0.7975 -0.9699  1.5182
 7578SOL    HW234194   2.423   1.136   4.275 -0.5629 -1.0544 -2.1564
 7579SOL     OW34195   2.022   0.062   9.848  0.0584  0.0744 -0.4650
 7579SOL    HW134196   1.941   0.098   9.884 -1.2041 -0.7043 -2.4987
 7579SOL    HW234197   2.028   4.710   9.907 -0.5126 -1.1716 -1.9709
 7580SOL     OW34198   3.986   2.933   8.306 -0.0690 -0.4633 -0.2569
 7580SOL    HW134199   3.994   2.888   8.390 -0.4581  0.9555  0.5432
 7580SOL    HW234200   3.933   2.872   8.255 -0.9772  0.0573  0.0815
 7581SOL     OW34201   3.448   4.288   9.448 -0.2888 -0.5684  0.5001
 7581SOL    HW134202   3.395   4.266   9.371  2.1317 -1.2078 -0.9985
 7581SOL    HW234203   3.528   4.301   9.396 -1.8424  2.4084 -1.1287
 7582SOL     OW34204   0.471   4.081  16.639 -0.5011 -0.4463  0.1742
 7582SOL    HW134205   0.401   4.139  16.668  1.7452  1.4084  1.8783
 7582SOL    HW234206   0.526   4.150  16.601 -1.0876  0.3401  0.7720
 7583SOL     OW34207   1.631   4.669   4.071  0.1996  0.0871 -0.0574
 7583SOL    HW134208   1.536   4.673   4.064  0.0932 -3.6522 -0.8799
 7583SOL    HW234209   1.632   0.025   4.126 -0.8160 -1.2268  1.8253
 7584SOL     OW34210   3.594   3.532   1.824  0.3818  0.5325 -0.1228
 7584SOL    HW134211   3.593   3.616   1.778 -1.5743 -0.2633 -1.5399
 7584SOL    HW234212   3.676   3.490   1.800 -0.3298 -0.6036 -0.5266
 7585SOL     OW34213   2.690   1.613  11.777  0.1465  0.0440  0.3703
 7585SOL    HW134214   2.666   1.682  11.714 -1.8826 -0.0396  1.0706
 7585SOL    HW234215   2.771   1.577  11.740 -0.5939 -0.3862 -0.8432
 7586SOL     OW34216   1.339   2.023   9.037  0.2202 -0.0868  0.4482
 7586SOL    HW134217   1.345   2.014   9.132 -1.4800  3.6400  0.9274
 7586SOL    HW234218   1.432   2.018   9.017 -0.0672 -2.6204 -0.1852
 7587SOL     OW34219   4.239   1.993   8.311  0.3366 -0.2550 -0.5766
 7587SOL    HW134220   4.161   2.047   8.328  1.4125  1.0590  0.2403
 7587SOL    HW234221   4.312   2.055   8.311 -0.0195  0.1921  1.3588
 7588SOL     OW34222   4.282   2.537   3.047  0.1607 -0.1161  0.3516
 7588SOL    HW134223   4.349   2.493   3.098  1.0230 -0.7700 -1.3251
 7588SOL    HW234224   4.332   2.598   2.993  0.9961 -1.4669 -0.3995
 7589SOL     OW34225   0.443   4.102   6.302  0.4443  0.4693 -0.6142
 7589SOL    HW134226   0.415   4.101   6.393  1.9135  0.3573 -0.1509
 7589SOL    HW234227   0.469   4.011   6.289 -1.0907  0.0084 -0.3594
 7590SOL     OW34228   1.175   4.518   5.239  0.3081  0.7152 -0.0857
 7590SOL    HW134229   1.219   4.600   5.215 -1.3524  1.7681  0.4850
 7590SOL    HW234230   1.086   4.544   5.215  0.0248 -1.1540 -1.0154
 7591SOL     OW34231   4.554   4.508  13.083 -0.1100 -0.0264 -0.2424
 7591SOL    HW134232   4.613   4.583  13.087 -0.5048  0.1746  1.7065
 7591SOL    HW234233   4.611   4.433  13.069 -0.3465 -0.4544  1.0723
 7592SOL     OW34234   4.199   1.044   6.582 -0.3259 -0.6892  0.0528
 7592SOL    HW134235   4.246   0.994   6.649  1.0870 -0.1796 -0.5610
 7592SOL    HW234236   4.224   0.998   6.503  0.4101  2.1235 -1.3633
 7593SOL     OW34237   3.196   2.515  10.923 -0.3773 -0.2019  0.2302
 7593SOL    HW134238   3.116   2.468  10.948 -1.1564  0.3047 -1.3325
 7593SOL    HW234239   3.168   2.600  10.959  0.3538 -0.0876  0.5261
 7594SOL     OW34240   2.249   3.186   2.881  0.2135 -0.2103  0.5713
 7594SOL    HW134241   2.275   3.187   2.789  2.0257  1.5079  1.1121
 7594SOL    HW234242   2.222   3.275   2.902 -1.4361 -0.1888 -1.6590
 7595SOL     OW34243   3.177   1.623   9.404 -0.0605 -0.1271  0.1189
 7595SOL    HW134244   3.231   1.688   9.449 -0.4496  1.3391 -1.5255
 7595SOL    HW234245   3.098   1.606   9.454 -1.5104  1.9266 -1.4714
 7596SOL     OW34246   2.689   1.894  10.962  0.4025 -0.2742  0.3630
 7596SOL    HW134247   2.770   1.845  10.976  1.1180  0.3220 -1.7448
 7596SOL    HW234248   2.717   1.985  10.976 -0.6694  0.1156 -0.0469
 7597SOL     OW34249   4.197   2.996   5.269  0.0549  0.0570 -0.0900
 7597SOL    HW134250   4.182   3.051   5.192 -0.4789 -0.5026 -0.3836
 7597SOL    HW234251   4.108   2.969   5.293  0.7504 -1.8475  0.2788
 7598SOL     OW34252   1.538   3.441  14.269 -0.3433  0.4713 -0.6375
 7598SOL    HW134253   1.496   3.498  14.334 -1.8934 -0.0870 -1.1615
 7598SOL    HW234254   1.505   3.356  14.296 -1.4298  0.5410 -1.7235
 7599SOL     OW34255   1.843   0.830  16.866  0.1557  0.6251  0.5515
 7599SOL    HW134256   1.828   0.775  16.943  2.8509 -0.1916  0.5245
 7599SOL    HW234257   1.886   0.767  16.808 -1.1799  1.2123 -1.0839
 7600SOL     OW34258   4.130   1.475   9.997  0.1075  0.2092  0.2007
 7600SOL    HW134259   4.137   1.448   9.905  0.9788 -0.1526  0.3675
 7600SOL    HW234260   4.109   1.568   9.993  0.3788  0.3331  1.7009
 7601SOL     OW34261   1.200   2.989   7.830 -0.6408  0.0875  0.0227
 7601SOL    HW134262   1.274   2.971   7.887 -1.3256 -0.9546  0.5845
 7601SOL    HW234263   1.132   3.017   7.892  0.2910  0.5434  0.8297
 7602SOL     OW34264   2.024   1.501   9.633 -0.1796 -0.2102 -0.1160
 7602SOL    HW134265   2.117   1.520   9.649 -0.5890  1.4160  0.2365
 7602SOL    HW234266   2.011   1.422   9.686  1.5410 -0.8517 -0.6499
 7603SOL     OW34267   2.140   1.692  12.019  0.0301  0.1594  0.1176
 7603SOL    HW134268   2.233   1.705  12.037  0.3524 -0.2288 -1.3129
 7603SOL    HW234269   2.118   1.620  12.078 -3.5710  1.7533  0.7369
 7604SOL     OW34270   3.526   2.362   0.067  0.4072 -0.2320  0.3554
 7604SOL    HW134271   3.500   2.271   0.083  2.5167 -1.1780 -1.5586
 7604SOL    HW234272   3.531   2.388   0.159 -1.2813 -0.2758  0.4564
 7605SOL     OW34273   4.021   3.915  16.441 -0.5545  0.0459 -0.0609
 7605SOL    HW134274   3.958   3.988  16.444 -0.4881 -0.0123  2.7752
 7605SOL    HW234275   3.995   3.870  16.521  1.6647 -1.0462  0.0389
 7606SOL     OW34276   0.823   2.295   2.183  0.2428  0.3807 -0.5480
 7606SOL    HW134277   0.911   2.272   2.154 -1.0696 -3.8475 -1.1024
 7606SOL    HW234278   0.811   2.371   2.126 -1.2027  0.2632 -0.4096
 7607SOL     OW34279   0.224   2.880  16.468 -0.5156 -0.2387 -0.1380
 7607SOL    HW134280   0.275   2.874  16.387  0.9440  2.2123  0.6008
 7607SOL    HW234281   0.136   2.874  16.431 -0.0244  2.7395 -1.7985
 7608SOL     OW34282   1.377   3.311   8.866  0.0025 -0.5810  0.3106
 7608SOL    HW134283   1.330   3.238   8.904 -1.5263 -0.0681 -0.6082
 7608SOL    HW234284   1.394   3.268   8.782 -1.8779  0.2082 -0.4731
 7609SOL     OW34285   1.176   2.767  15.201  0.0012 -0.1283  0.3905
 7609SOL    HW134286   1.097   2.772  15.255 -1.1759  2.2054 -1.5336
 7609SOL    HW234287   1.247   2.752  15.263 -0.9520  1.6436  1.9110
 7610SOL     OW34288   4.714   1.831   8.336 -0.1465 -0.6937  0.0855
 7610SOL    HW134289   4.684   1.880   8.260 -1.6539 -1.2490  0.3204
 7610SOL    HW234290   0.036   1.751   8.307 -1.4893 -0.7246 -1.8342
 7611SOL     OW34291   1.520   1.416   2.919 -0.2695  0.3619  0.3846
 7611SOL    HW134292   1.598   1.448   2.875 -1.0327 -0.4308 -1.5590
 7611SOL    HW234293   1.448   1.463   2.877  0.1544  0.4392 -0.2532
 7612SOL     OW34294   0.019   1.742   4.236 -0.1994 -0.5820  0.1817
 7612SOL    HW134295   4.649   1.752   4.213  0.9757  1.9189 -3.4466
 7612SOL    HW234296   0.035   1.820   4.289  0.9011 -1.9223  1.8415
 7613SOL     OW34297   2.222   2.482  13.101 -0.3305  0.0168  0.1025
 7613SOL    HW134298   2.313   2.495  13.074 -0.6012  0.0810 -0.8051
 7613SOL    HW234299   2.186   2.423  13.034 -0.3903  0.7196 -0.4854
 7614SOL     OW34300   3.121   3.843   4.021 -0.6910 -0.3817 -0.4491
 7614SOL    HW134301   3.061   3.848   4.095 -0.8650 -0.5500 -0.5773
 7614SOL    HW234302   3.159   3.756   4.037  1.8920  0.7995 -0.2698
 7615SOL     OW34303   4.312   2.727   6.254  0.4037 -0.2535 -0.4397
 7615SOL    HW134304   4.401   2.709   6.285  0.3081 -0.3763 -0.2391
 7615SOL    HW234305   4.332   2.800   6.194 -0.5270  0.5057  0.1739
 7616SOL     OW34306   0.731   2.297   0.886  0.1464  0.7578 -0.3208
 7616SOL    HW134307   0.734   2.205   0.910 -0.6043  1.1202  1.1449
 7616SOL    HW234308   0.649   2.319   0.930 -1.8233 -0.9437 -3.1048
 7617SOL     OW34309   4.177   1.975   6.122  0.7143 -0.4333 -0.4738
 7617SOL    HW134310   4.210   2.065   6.122  2.0793 -0.9389 -0.2322
 7617SOL    HW234311   4.092   1.985   6.167  1.5506  0.1223  0.9888
 7618SOL     OW34312   1.871   3.574   8.564  0.5555 -0.1853 -0.1001
 7618SOL    HW134313   1.954   3.553   8.605  0.8040 -1.8315 -1.4383
 7618SOL    HW234314   1.810   3.581   8.638 -1.1230  0.2624 -1.4963
 7619SOL     OW34315   2.226   0.001   9.648  0.3989  0.2766 -0.4563
 7619SOL    HW134316   2.164   4.706   9.719  0.7396  1.8267  0.2384
 7619SOL    HW234317   2.217   0.092   9.619 -0.4722  0.0782 -0.7763
 7620SOL     OW34318   1.296   3.586   0.042 -0.7959  0.3462  0.2463
 7620SOL    HW134319   1.287   3.609   0.134 -2.4162 -2.8050  0.8747
 7620SOL    HW234320   1.313   3.669  17.689 -0.2847 -0.2694 -0.7400
 7621SOL     OW34321   1.261   3.487   9.916 -0.0531 -0.0575 -0.6022
 7621SOL    HW134322   1.264   3.557   9.982  0.7983 -1.4406  0.8396
 7621SOL    HW234323   1.257   3.535   9.833 -0.2111 -0.0929 -0.6162
 7622SOL     OW34324   1.719   4.255   7.159  0.9132  0.0270 -0.0632
 7622SOL    HW134325   1.806   4.251   7.199  0.7172  0.1721  0.3715
 7622SOL    HW234326   1.656   4.281   7.226  0.2379 -1.5551 -0.0779
 7623SOL     OW34327   2.609   1.536  15.003  0.9000  0.4164 -0.9119
 7623SOL    HW134328   2.542   1.500  14.946 -0.1979 -1.9705  1.8853
 7623SOL    HW234329   2.671   1.463  14.997 -0.0517 -0.4318 -0.2622
 7624SOL     OW34330   1.673   0.619  13.618  0.4453 -0.2870 -0.0552
 7624SOL    HW134331   1.736   0.578  13.677  0.9401  0.8875  0.2458
 7624SOL    HW234332   1.692   0.713  13.619 -0.5599 -0.0875 -0.1076
 7625SOL     OW34333   0.791   0.597   1.641 -0.3523  0.1878 -0.1550
 7625SOL    HW134334   0.817   0.679   1.682 -0.0693 -0.2751  0.5890
 7625SOL    HW234335   0.841   0.596   1.560  0.8092 -1.2055  0.5791
 7626SOL     OW34336   3.608   3.525  14.872 -0.0883 -0.1225 -0.1785
 7626SOL    HW134337   3.525   3.519  14.824  0.5544  2.0259 -1.5645
 7626SOL    HW234338   3.655   3.556  14.794  0.0345  0.3213  0.0755
 7627SOL     OW34339   3.077   2.159   1.605  0.0607 -0.1011  0.5124
 7627SOL    HW134340   3.129   2.185   1.682  0.3724  1.6404 -0.2902
 7627SOL    HW234341   3.143   2.198   1.548  1.0778 -1.8910  0.4608
 7628SOL     OW34342   2.228   1.407   8.890  0.1816  0.3012 -0.1325
 7628SOL    HW134343   2.158   1.405   8.825  0.0505  0.3727  0.0069
 7628SOL    HW234344   2.171   1.434   8.961 -0.2613 -1.4163  0.1705
 7629SOL     OW34345   3.935   1.441  11.072 -0.0204 -0.3328 -1.0743
 7629SOL    HW134346   3.973   1.398  10.996 -1.0759 -0.2679 -1.6415
 7629SOL    HW234347   4.012   1.467  11.122  0.8281  1.2199 -3.1927
 7630SOL     OW34348   2.575   2.925  12.845 -0.3175 -0.3111  0.5422
 7630SOL    HW134349   2.651   2.872  12.819 -0.2416 -0.5817  1.3136
 7630SOL    HW234350   2.544   2.948  12.758 -0.6826 -2.2503  0.1705
 7631SOL     OW34351   0.165   2.072   8.826  0.3048 -0.1503 -0.5904
 7631SOL    HW134352   0.242   2.102   8.778  0.2890 -0.3433 -0.7362
 7631SOL    HW234353   0.185   2.103   8.915 -0.7775 -0.2399 -0.3211
 7632SOL     OW34354   3.361   2.287   5.123  0.0397 -0.4320 -0.0071
 7632SOL    HW134355   3.352   2.194   5.144 -1.6360 -0.1325  0.5494
 7632SOL    HW234356   3.410   2.324   5.197  0.4318 -0.4978 -0.2338
 7633SOL     OW34357   1.182   4.419   6.687 -0.2374 -1.0105  0.1469
 7633SOL    HW134358   1.259   4.440   6.739  0.5000 -0.8932 -0.9922
 7633SOL    HW234359   1.224   4.385   6.608  0.9842  1.1322 -0.1278
 7634SOL     OW34360   0.982   2.470   4.344 -0.2767  0.2964  0.3836
 7634SOL    HW134361   0.921   2.518   4.288 -1.2223 -3.2926 -1.6091
 7634SOL    HW234362   1.034   2.535   4.392  0.6846 -2.2321  2.7245
 7635SOL     OW34363   3.077   2.235   6.804 -0.0400  0.1445 -0.1905
 7635SOL    HW134364   3.013   2.166   6.822  1.5044 -0.9628  1.1591
 7635SOL    HW234365   3.061   2.255   6.712 -0.6291 -0.2020 -0.1609
 7636SOL     OW34366   4.465   0.051   3.107 -0.3259  0.0429 -0.0404
 7636SOL    HW134367   4.379   0.070   3.144 -0.6374  0.2257 -0.8412
 7636SOL    HW234368   4.458   0.086   3.018  1.7874  0.3503 -0.0625
 7637SOL     OW34369   4.466   1.995   3.195  0.1324 -0.5700 -0.1072
 7637SOL    HW134370   4.425   1.927   3.142  2.0117 -1.5784 -0.2672
 7637SOL    HW234371   4.546   1.948   3.220  1.0953  0.6522 -0.9007
 7638SOL     OW34372   2.849   0.733  11.621 -0.3549 -0.1835 -0.9125
 7638SOL    HW134373   2.937   0.738  11.659 -0.8471 -3.3425  0.6764
 7638SOL    HW234374   2.859   0.750  11.528  0.4302  1.4837 -0.5267
 7639SOL     OW34375   1.581   3.351  13.973  0.3018 -0.8001 -0.4204
 7639SOL    HW134376   1.634   3.427  13.995 -0.0916 -0.8910  0.8403
 7639SOL    HW234377   1.629   3.274  14.004 -0.6316 -0.3155  2.2822
 7640SOL     OW34378   4.096   4.063   3.305  0.1514  0.7494 -0.1808
 7640SOL    HW134379   4.146   3.993   3.347  0.3023  0.1888 -1.3010
 7640SOL    HW234380   4.137   4.140   3.346  0.8994  1.0428 -1.4690
 7641SOL     OW34381   0.781   1.105   6.735 -0.2924  0.9029  0.3498
 7641SOL    HW134382   0.702   1.080   6.782 -0.1186  0.7858  0.5809
 7641SOL    HW234383   0.795   1.018   6.698 -0.7610  0.8135  0.3950
 7642SOL     OW34384   2.913   3.616   4.865 -0.3805 -0.4723 -0.1813
 7642SOL    HW134385   2.874   3.644   4.782  1.3083 -1.1582 -1.2186
 7642SOL    HW234386   2.906   3.522   4.852  1.2201 -0.7430  0.9625
 7643SOL     OW34387   4.610   4.085   5.591  0.5739 -0.3324  0.1915
 7643SOL    HW134388   4.613   4.097   5.686  2.2432  0.2930  0.0607
 7643SOL    HW234389   4.676   4.017   5.579  1.0888  0.3263 -0.6539
 7644SOL     OW34390   3.008   2.699   5.963  0.2888 -0.0759 -0.2039
 7644SOL    HW134391   2.914   2.700   5.978  0.2069  2.8141 -1.0059
 7644SOL    HW234392   3.022   2.605   5.955  0.5689  0.0578 -1.2729
 7645SOL     OW34393   2.562   1.518   3.116  0.2921  0.4685 -0.2311
 7645SOL    HW134394   2.575   1.448   3.179 -3.3384  0.2633  0.3009
 7645SOL    HW234395   2.609   1.593   3.153 -1.4764  1.4183  0.0934
 7646SOL     OW34396   1.954   1.963   6.851  0.7233  0.0688 -0.1505
 7646SOL    HW134397   1.922   1.873   6.842 -1.5653  0.9569 -0.9856
 7646SOL    HW234398   1.875   2.014   6.872 -1.6832 -2.7043 -2.5320
 7647SOL     OW34399   0.563   3.474   0.866  0.2373  0.2079  0.5794
 7647SOL    HW134400   0.546   3.399   0.807 -0.9196  1.0201 -0.1305
 7647SOL    HW234401   0.655   3.460   0.887 -0.6797 -1.6908  3.3924
 7648SOL     OW34402   0.762   2.050   7.609  0.2102  0.1523 -0.0969
 7648SOL    HW134403   0.839   2.038   7.554 -0.7917 -4.3259 -0.5400
 7648SOL    HW234404   0.774   1.978   7.671 -1.0832  0.3012  0.3156
 7649SOL     OW34405   3.184   4.272   7.302 -0.9766 -0.0655  0.3944
 7649SOL    HW134406   3.248   4.261   7.373 -0.7088  1.7873  0.4477
 7649SOL    HW234407   3.124   4.338   7.336  0.6000  0.8352  1.4647
 7650SOL     OW34408   4.031   1.542   5.464 -0.0210  0.3876  0.1919
 7650SOL    HW134409   4.029   1.469   5.527 -2.5564  0.0010 -0.3522
 7650SOL    HW234410   3.960   1.598   5.494 -0.5852 -0.3356  0.2155
 7651SOL     OW34411   1.767   1.458  14.780 -0.0555 -0.3837  0.1301
 7651SOL    HW134412   1.858   1.453  14.807  0.5766 -1.9008 -2.2915
 7651SOL    HW234413   1.766   1.510  14.700 -0.5482 -0.6953 -0.0708
 7652SOL     OW34414   3.245   3.788   0.628  0.1058 -0.1711  0.4470
 7652SOL    HW134415   3.313   3.802   0.562  0.5908 -0.3525  0.9126
 7652SOL    HW234416   3.204   3.715   0.583  0.0936  0.1568 -0.0743
 7653SOL     OW34417   3.496   4.169  10.896 -0.1636 -0.1389  0.2198
 7653SOL    HW134418   3.460   4.256  10.875  1.1101  0.5309  0.7921
 7653SOL    HW234419   3.423   4.110  10.881  0.2552 -0.2404 -1.3463
 7654SOL     OW34420   4.064   3.611   2.363  0.3895  0.3814  0.0496
 7654SOL    HW134421   4.005   3.536   2.349  0.8009 -0.1097  0.9854
 7654SOL    HW234422   4.076   3.646   2.274  0.5267  0.4450  0.0937
 7655SOL     OW34423   3.308   4.081   6.892 -0.1060  0.6681  0.2040
 7655SOL    HW134424   3.383   4.034   6.930  2.0167  2.8227 -1.3364
 7655SOL    HW234425   3.356   4.164   6.881 -0.0773  0.6985  0.5349
 7656SOL     OW34426   2.688   1.752   1.333  0.0121 -0.2916  0.4463
 7656SOL    HW134427   2.622   1.788   1.391 -0.0206  0.1797  0.1186
 7656SOL    HW234428   2.674   1.658   1.323 -1.1391 -0.2504  1.7076
 7657SOL     OW34429   2.193   0.237   6.375  0.0868  0.1017  0.0426
 7657SOL    HW134430   2.116   0.290   6.395  0.6258  0.2279  1.8062
 7657SOL    HW234431   2.207   0.202   6.463  1.9006  0.2034 -0.1984
 7658SOL     OW34432   0.031   4.252  14.406  0.2368 -0.4610 -0.3060
 7658SOL    HW134433   4.699   4.235  14.483 -0.3197 -0.8914 -0.7922
 7658SOL    HW234434   4.691   4.256  14.333 -0.5325 -1.0467  0.3196
 7659SOL     OW34435   0.540   2.220  15.888 -0.7059 -0.1883  0.2943
 7659SOL    HW134436   0.544   2.134  15.928  0.4126 -1.7130 -3.0867
 7659SOL    HW234437   0.572   2.269  15.964 -1.9006  1.8243 -0.4726
 7660SOL     OW34438   0.834   3.942   4.093  0.3438  0.6529 -0.0472
 7660SOL    HW134439   0.763   3.889   4.057  0.4942 -0.7943  1.7757
 7660SOL    HW234440   0.901   3.914   4.030  1.1771 -0.5188  1.3457
 7661SOL     OW34441   4.230   0.393   8.503  0.1733  0.1030 -0.3484
 7661SOL    HW134442   4.259   0.302   8.499  0.2660  0.1272 -0.2037
 7661SOL    HW234443   4.217   0.399   8.597 -1.6999  1.3206 -0.6649
 7662SOL     OW34444   2.573   3.143   9.880 -0.2688  0.3023  0.0196
 7662SOL    HW134445   2.647   3.203   9.869  0.3731 -0.5512 -0.2381
 7662SOL    HW234446   2.552   3.115   9.791 -2.0418  0.8233  0.2668
 7663SOL     OW34447   2.046   0.972   1.843 -0.1017 -0.7030  0.5786
 7663SOL    HW134448   1.963   0.982   1.796  0.8933  0.8757 -0.8433
 7663SOL    HW234449   2.047   0.877   1.833  4.0125 -0.7547  1.3789
 7664SOL     OW34450   0.507   1.053  14.776 -0.2828  0.4361  0.0376
 7664SOL    HW134451   0.582   1.039  14.718 -0.9068 -2.4479 -0.0651
 7664SOL    HW234452   0.526   0.983  14.839 -2.2796  0.1704  0.3407
 7665SOL     OW34453   0.748   1.068   9.410  0.3641  0.0355  0.3653
 7665SOL    HW134454   0.668   1.016   9.398 -0.5977  2.1628 -2.7044
 7665SOL    HW234455   0.798   1.026   9.340 -1.1034  2.0562 -1.9303
 7666SOL     OW34456   4.706   0.336   7.756 -0.3461  0.1725 -0.3017
 7666SOL    HW134457   4.684   0.288   7.676  1.1098 -1.3453  0.2086
 7666SOL    HW234458   4.664   0.284   7.824  2.1518  0.4268  1.4205
 7667SOL     OW34459   4.189   3.720   3.118  0.4051 -0.0413 -0.0055
 7667SOL    HW134460   4.191   3.715   3.023  0.2095 -3.2420  0.1508
 7667SOL    HW234461   4.130   3.645   3.126  2.2846 -1.4113  1.2877
 7668SOL     OW34462   3.724   3.399   1.451  0.2399 -0.0224  0.8161
 7668SOL    HW134463   3.755   3.416   1.361  2.7863 -2.4220  1.2353
 7668SOL    HW234464   3.666   3.323   1.451  0.0166  0.1477  0.2622
 7669SOL     OW34465   2.200   3.737   7.978 -0.4057  0.2729  0.7638
 7669SOL    HW134466   2.105   3.728   7.986 -0.5617  0.4538 -1.0028
 7669SOL    HW234467   2.230   3.652   8.011 -1.1274  0.3401  1.5867
 7670SOL     OW34468   2.839   3.117   9.332 -0.0118 -0.6702 -0.3259
 7670SOL    HW134469   2.894   3.057   9.383  0.5741  1.5483  1.6607
 7670SOL    HW234470   2.821   3.178   9.403 -1.4542 -1.0874 -0.3183
 7671SOL     OW34471   1.051   1.452   8.823 -0.1246  0.2145 -0.0499
 7671SOL    HW134472   0.997   1.485   8.895 -0.2242  0.5770 -0.2881
 7671SOL    HW234473   1.123   1.512   8.802  0.7775 -1.6126 -2.1084
 7672SOL     OW34474   4.715   2.741  17.624 -0.0401 -0.0170 -0.7880
 7672SOL    HW134475   4.686   2.757  17.534  0.7305 -0.6552 -1.1468
 7672SOL    HW234476   0.081   2.777  17.625 -0.7359  1.6723  0.2739
 7673SOL     OW34477   2.688   0.788   4.847  0.3148 -0.7906  0.1513
 7673SOL    HW134478   2.684   0.702   4.806  0.4701 -1.4304  1.4899
 7673SOL    HW234479   2.779   0.814   4.828 -0.0594 -0.4370 -1.1687
 7674SOL     OW34480   3.275   3.660   6.742  0.2575  0.4727 -0.3208
 7674SOL    HW134481   3.230   3.724   6.686  0.5930 -0.3639 -1.5402
 7674SOL    HW234482   3.321   3.609   6.676  1.5041  0.6759  0.4050
 7675SOL     OW34483   1.065   2.977   7.203 -0.4766 -0.5034  0.0122
 7675SOL    HW134484   1.129   2.957   7.271 -0.3763  1.4188  0.4856
 7675SOL    HW234485   1.101   2.920   7.135 -0.2788  0.3080 -0.5731
 7676SOL     OW34486   0.297   0.388   0.694  0.0942  0.0646 -0.0403
 7676SOL    HW134487   0.241   0.445   0.747 -0.3969 -1.6182  1.2690
 7676SOL    HW234488   0.284   0.419   0.604 -0.1509  2.7468  0.9109
 7677SOL     OW34489   0.370   0.574   8.128 -0.5329  0.5416 -0.0573
 7677SOL    HW134490   0.402   0.659   8.159 -2.0304  1.4995 -1.1328
 7677SOL    HW234491   0.438   0.548   8.065  0.8139 -0.2750  1.7511
 7678SOL     OW34492   0.876   2.946   6.589 -0.1955  1.1570  0.0293
 7678SOL    HW134493   0.782   2.956   6.575 -0.3536 -1.4419 -0.7770
 7678SOL    HW234494   0.902   3.037   6.579 -2.4152  1.7136 -0.7078
 7679SOL     OW34495   1.252   3.424   7.428  0.1258  0.5449 -0.1390
 7679SOL    HW134496   1.272   3.377   7.509 -1.9651  1.1885  0.7705
 7679SOL    HW234497   1.309   3.372   7.372 -1.7958 -1.6179 -0.1218
 7680SOL     OW34498   2.430   2.936  16.256  0.4145  0.2301 -0.0384
 7680SOL    HW134499   2.364   2.906  16.193  1.2024 -0.7074 -0.4157
 7680SOL    HW234500   2.397   3.026  16.258 -0.2041  0.0022  0.0793
 7681SOL     OW34501   3.849   3.591   2.796  0.1971 -0.2978  0.1294
 7681SOL    HW134502   3.797   3.593   2.716  3.1388 -0.6519 -1.7568
 7681SOL    HW234503   3.816   3.673   2.832  1.7765 -0.1042  1.1306
 7682SOL     OW34504   1.932   4.529   7.934  0.6851  0.0732  0.3424
 7682SOL    HW134505   1.891   4.589   7.997  1.7381  0.6970  0.4410
 7682SOL    HW234506   1.871   4.456   7.941 -0.2127  0.7197 -0.8705
 7683SOL     OW34507   3.639   4.129   7.879  0.0593 -0.0946  0.4410
 7683SOL    HW134508   3.601   4.137   7.966 -0.8350 -0.6615  0.1029
 7683SOL    HW234509   3.590   4.057   7.839  0.5875 -0.9674  1.3852
 7684SOL     OW34510   3.262   1.343   2.675  0.1085  0.2365 -0.5505
 7684SOL    HW134511   3.267   1.248   2.683 -1.5093  0.1869 -0.0704
 7684SOL    HW234512   3.232   1.349   2.585  0.9043  1.3463 -0.7488
 7685SOL     OW34513   2.639   4.481   6.565  0.1239  0.1463 -0.9546
 7685SOL    HW134514   2.695   4.404   6.559  0.3251  0.0442  2.1528
 7685SOL    HW234515   2.694   4.543   6.519 -2.4167  4.0440  1.2037
 7686SOL     OW34516   3.127   1.993   4.661 -0.2960  0.0723  0.4624
 7686SOL    HW134517   3.220   2.004   4.640 -0.3596 -1.8022 -0.8237
 7686SOL    HW234518   3.134   1.968   4.753 -0.6474 -1.1515  0.1449
 7687SOL     OW34519   3.605   4.325   6.990  0.3270 -0.2989  0.3646
 7687SOL    HW134520   3.566   4.252   6.943  0.6094  0.7595 -1.5258
 7687SOL    HW234521   3.654   4.277   7.057 -0.5099 -0.5603  0.7873
 7688SOL     OW34522   0.726   2.546  12.178 -0.1087 -0.4336  0.1009
 7688SOL    HW134523   0.663   2.473  12.177  1.5885 -1.9009  1.1221
 7688SOL    HW234524   0.735   2.552  12.083 -2.2609 -1.1497 -0.1503
 7689SOL     OW34525   2.380   1.764   3.574  0.7189  0.1538 -0.7704
 7689SOL    HW134526   2.421   1.765   3.661 -1.9070  3.6408  0.4164
 7689SOL    HW234527   2.312   1.829   3.593 -1.3459 -2.1794 -0.1302
 7690SOL     OW34528   3.769   1.290   0.902  0.3555 -0.3037  0.0263
 7690SOL    HW134529   3.782   1.268   0.810 -1.4690 -2.5181  0.3076
 7690SOL    HW234530   3.796   1.208   0.942  1.0011 -0.2267 -0.2593
 7691SOL     OW34531   3.346   2.100   3.667  0.3096 -0.0493 -1.0461
 7691SOL    HW134532   3.270   2.126   3.718  0.0286 -0.8410 -1.0595
 7691SOL    HW234533   3.309   2.112   3.580 -1.7112 -2.6290 -0.5484
 7692SOL     OW34534   2.845   4.566   6.808 -0.3595 -0.2721 -0.3545
 7692SOL    HW134535   2.858   4.591   6.716  0.6393  0.1207 -0.1030
 7692SOL    HW234536   2.895   4.632   6.856 -2.8714  0.3465  1.3984
 7693SOL     OW34537   0.471   0.412   6.003  0.0636 -0.2078  0.0664
 7693SOL    HW134538   0.561   0.443   6.006 -0.0677  0.1113  0.6936
 7693SOL    HW234539   0.417   0.486   6.030  0.9621  0.0673  1.1048
 7694SOL     OW34540   2.726   2.393   3.196  0.2475 -0.5106 -0.6524
 7694SOL    HW134541   2.693   2.407   3.108  3.1637  0.4844 -1.5872
 7694SOL    HW234542   2.820   2.410   3.188  0.1793 -0.9848 -2.3237
 7695SOL     OW34543   4.062   0.577   5.259  0.0209 -0.2655  0.1398
 7695SOL    HW134544   4.042   0.650   5.200  2.7386  0.1944 -0.2101
 7695SOL    HW234545   3.979   0.557   5.302 -0.8092 -0.5740 -1.5726
 7696SOL     OW34546   2.958   0.097   1.905  0.2304  0.0548  0.2524
 7696SOL    HW134547   2.876   0.106   1.857 -0.5260 -1.7832  1.1781
 7696SOL    HW234548   3.008   0.062   1.832  0.5460  2.8255 -0.8789
 7697SOL     OW34549   0.694   0.210   5.845  0.1153  0.4058  1.0925
 7697SOL    HW134550   0.749   0.139   5.813  0.8594 -0.3616  4.1265
 7697SOL    HW234551   0.666   0.170   5.927  1.8583  0.9643  1.9819
 7698SOL     OW34552   1.230   1.259   9.008  0.0401 -0.3525  0.0332
 7698SOL    HW134553   1.136   1.271   8.995 -0.2939 -0.0050  2.6936
 7698SOL    HW234554   1.261   1.349   9.009  0.6695 -0.5562 -1.7944
 7699SOL     OW34555   0.771   4.519   3.838  0.3688 -0.5381  0.1793
 7699SOL    HW134556   0.758   4.592   3.778 -0.2517 -0.2844  0.6239
 7699SOL    HW234557   0.848   4.548   3.887  0.9319  1.0818 -1.6861
 7700SOL     OW34558   1.389   0.381   7.601 -0.4925 -0.5017  0.1761
 7700SOL    HW134559   1.342   0.343   7.527 -0.3270  2.0529 -1.2488
 7700SOL    HW234560   1.325   0.449   7.623 -1.1781 -1.2058  0.3450
 7701SOL     OW34561   3.607   0.831   9.348 -0.3465 -0.4654  0.4775
 7701SOL    HW134562   3.560   0.861   9.426 -0.2763  0.7894  0.0203
 7701SOL    HW234563   3.617   0.913   9.301  1.5571 -0.2874  1.1910
 7702SOL     OW34564   1.134   0.904   6.752  0.1518  0.1353  0.3998
 7702SOL    HW134565   1.117   0.949   6.834 -1.1849  1.1211 -0.4092
 7702SOL    HW234566   1.118   0.814   6.780  0.9249 -0.1202  0.0420
 7703SOL     OW34567   3.105   0.456   6.214 -0.3243  0.4835 -0.5397
 7703SOL    HW134568   3.199   0.463   6.197 -0.1181  0.7782  0.6995
 7703SOL    HW234569   3.074   0.535   6.171 -2.4356 -0.5451 -0.9183
 7704SOL     OW34570   3.595   4.160   1.721 -0.5224  0.6618 -0.1662
 7704SOL    HW134571   3.558   4.139   1.807 -0.4978 -1.2375 -0.6275
 7704SOL    HW234572   3.519   4.186   1.669 -0.7964 -1.2079 -0.6898
 7705SOL     OW34573   4.482   0.672   3.483 -0.1027 -0.5993  0.8623
 7705SOL    HW134574   4.436   0.747   3.523 -0.8712 -0.0607 -1.0226
 7705SOL    HW234575   4.506   0.624   3.561  1.8785  2.8254  2.3630
 7706SOL     OW34576   3.130   1.674   4.926  0.5639  0.0134  0.2260
 7706SOL    HW134577   3.198   1.607   4.922 -1.8351 -2.4398  0.3170
 7706SOL    HW234578   3.112   1.685   4.832  1.8023 -0.5206 -0.0739
 7707SOL     OW34579   2.346   3.058   5.425 -0.2591  0.9343  0.4781
 7707SOL    HW134580   2.290   3.082   5.352 -0.8487 -3.3250 -0.4807
 7707SOL    HW234581   2.376   2.972   5.395 -0.1668  0.8556  0.7989
 7708SOL     OW34582   0.901   2.172   2.662 -0.5871  0.0460  0.6644
 7708SOL    HW134583   0.953   2.203   2.736 -2.5479  0.9311  1.6959
 7708SOL    HW234584   0.906   2.246   2.601  1.9692 -0.5346  0.2015
 7709SOL     OW34585   1.258   2.127  13.885 -0.2375 -0.7114  0.0519
 7709SOL    HW134586   1.281   2.040  13.853  2.3872 -0.8016  2.2137
 7709SOL    HW234587   1.223   2.100  13.970 -1.9821 -0.0427 -0.4387
 7710SOL     OW34588   2.710   0.867   1.248 -0.2706  0.0119 -0.3311
 7710SOL    HW134589   2.754   0.855   1.164 -1.0436 -0.1894 -0.7098
 7710SOL    HW234590   2.743   0.954   1.271  1.0650 -0.8366  0.9253
 7711SOL     OW34591   1.404   3.149   6.157  0.2792 -0.1279  0.0282
 7711SOL    HW134592   1.408   3.243   6.143  0.5193 -0.4778 -2.1796
 7711SOL    HW234593   1.405   3.113   6.069  1.7775  2.5364 -1.0427
 7712SOL     OW34594   2.126   2.461  16.807 -0.1000  0.1979  0.8962
 7712SOL    HW134595   2.220   2.452  16.821  0.2205 -0.0373 -1.3124
 7712SOL    HW234596   2.110   2.556  16.809 -1.2657  0.0448 -0.5088
 7713SOL     OW34597   2.380   4.462   8.316 -0.0056 -0.5806 -0.0971
 7713SOL    HW134598   2.427   4.535   8.356  0.0043 -1.5549  1.6635
 7713SOL    HW234599   2.289   4.478   8.342  0.7638  1.2651  1.4415
 7714SOL     OW34600   3.785   3.834   0.930 -0.3103 -0.0769 -0.1971
 7714SOL    HW134601   3.756   3.812   0.842  0.2782 -0.8138 -0.2103
 7714SOL    HW234602   3.811   3.749   0.967 -1.7309 -0.4907 -0.1714
 7715SOL     OW34603   3.826   3.849  11.518  0.3526  1.0415 -0.7658
 7715SOL    HW134604   3.786   3.763  11.527 -4.3539  3.3265 -0.1516
 7715SOL    HW234605   3.834   3.871  11.611 -0.3954  1.1963 -0.7370
 7716SOL     OW34606   3.509   3.322   3.315 -0.4989 -0.0629 -0.0502
 7716SOL    HW134607   3.426   3.300   3.273 -1.9015  2.1098  1.6117
 7716SOL    HW234608   3.566   3.320   3.238 -0.1419 -0.6761  0.2302
 7717SOL     OW34609   2.127   1.790  15.180  0.4578 -0.8863 -0.9515
 7717SOL    HW134610   2.048   1.806  15.129 -0.5073 -2.2650  0.1061
 7717SOL    HW234611   2.197   1.836  15.134  2.3265 -0.2066  2.5642
 7718SOL     OW34612   2.338   1.536  15.203  0.3358  0.3786 -0.7057
 7718SOL    HW134613   2.412   1.475  15.216  2.0308  2.4997 -0.3991
 7718SOL    HW234614   2.342   1.578  15.288 -0.5532 -3.5012  1.2655
 7719SOL     OW34615   3.440   0.033   2.115  0.6665 -0.3073 -0.5949
 7719SOL    HW134616   3.396   0.026   2.031  2.4888 -2.4853 -1.3621
 7719SOL    HW234617   3.372   0.001   2.174  1.4196 -1.9989 -0.6525
 7720SOL     OW34618   0.019   0.298  12.260  0.0387 -0.2465  0.3805
 7720SOL    HW134619   0.028   0.226  12.197  2.0864 -0.9080  1.4420
 7720SOL    HW234620   4.698   0.353  12.195 -0.2448  0.1079  0.8703
 7721SOL     OW34621   2.751   1.841   1.090 -0.5633 -0.4589 -0.4796
 7721SOL    HW134622   2.737   1.789   1.169  0.4605  2.9855  1.9627
 7721SOL    HW234623   2.828   1.896   1.107 -0.7263 -0.6654  0.9242
 7722SOL     OW34624   0.474   4.689   3.543 -0.4944 -0.2963  0.1568
 7722SOL    HW134625   0.493   0.028   3.615 -0.3501  0.0453 -0.1697
 7722SOL    HW234626   0.551   4.699   3.486 -0.1441 -0.1124  0.6617
 7723SOL     OW34627   1.855   1.769  16.145  0.5995 -0.1687  0.2816
 7723SOL    HW134628   1.935   1.816  16.125 -2.5152  4.2846 -1.7389
 7723SOL    HW234629   1.862   1.759  16.240 -1.7036  1.2590  0.5971
 7724SOL     OW34630   4.198   3.419   8.406 -0.8240 -0.5945  0.4021
 7724SOL    HW134631   4.146   3.353   8.361 -0.0052 -0.5309 -0.6637
 7724SOL    HW234632   4.277   3.366   8.416 -1.3306 -0.9796  2.2692
 7725SOL     OW34633   0.812   4.453  16.692 -0.1861  0.1142  0.3839
 7725SOL    HW134634   0.752   4.528  16.692  0.1387  0.3740  0.6372
 7725SOL    HW234635   0.846   4.451  16.782  0.9030 -1.3425 -0.0596
 7726SOL     OW34636   1.579   0.969  14.169 -0.2795 -0.4561  0.0067
 7726SOL    HW134637   1.587   0.939  14.259  1.6275 -0.6473 -0.2293
 7726SOL    HW234638   1.666   1.008  14.164 -0.5185  0.4921  3.2837
 7727SOL     OW34639   2.320   3.075   3.271  0.4693  0.3789  0.1877
 7727SOL    HW134640   2.235   3.033   3.279 -0.9025  2.8691 -1.1048
 7727SOL    HW234641   2.311   3.148   3.333 -1.5646  0.6351 -0.4098
 7728SOL     OW34642   2.968   3.421   2.626  0.1233  0.3542 -0.4566
 7728SOL    HW134643   2.996   3.364   2.554 -1.2745 -0.1241 -0.6282
 7728SOL    HW234644   3.023   3.498   2.611  0.9828  0.1474  1.6455
 7729SOL     OW34645   3.636   4.682  15.285  0.0375 -0.8178  0.2856
 7729SOL    HW134646   3.647   4.630  15.365  1.2995 -0.3753  0.4071
 7729SOL    HW234647   3.723   0.001  15.284  0.3100 -1.3420  1.5867
 7730SOL     OW34648   2.638   2.669  15.042 -0.0742  0.1950 -0.7642
 7730SOL    HW134649   2.612   2.737  14.979  0.4484 -0.3891 -1.6181
 7730SOL    HW234650   2.573   2.678  15.111 -0.0837 -0.8360 -0.6376
 7731SOL     OW34651   3.051   4.029   6.748  0.0186  0.0172  0.6607
 7731SOL    HW134652   3.125   4.030   6.809  2.3070  3.3887 -2.1756
 7731SOL    HW234653   3.092   4.060   6.667  0.9394 -1.9302  0.3802
 7732SOL     OW34654   2.572   3.406   6.602  0.2058 -0.2452  0.0370
 7732SOL    HW134655   2.570   3.467   6.528  1.0426  1.6721  1.5967
 7732SOL    HW234656   2.653   3.442   6.639  1.3981 -0.3679 -2.4577
 7733SOL     OW34657   0.093   4.061   6.777  0.2717  0.1690  0.2611
 7733SOL    HW134658   0.062   4.144   6.815  0.1703  0.4167 -0.3613
 7733SOL    HW234659   0.017   4.035   6.724 -0.4322  0.2152  1.2448
 7734SOL     OW34660   4.343   2.277   9.967  0.1921  0.4789  0.2441
 7734SOL    HW134661   4.287   2.348   9.936 -3.1508 -2.4265 -0.2893
 7734SOL    HW234662   4.306   2.262  10.054 -0.4400  4.0807  0.6066
 7735SOL     OW34663   1.905   1.228   3.344  0.2058 -0.2488 -0.3499
 7735SOL    HW134664   1.991   1.269   3.338  0.6341 -1.1777 -0.5290
 7735SOL    HW234665   1.927   1.137   3.367 -0.1228 -0.7594 -2.0562
 7736SOL     OW34666   0.323   0.242  12.299 -0.1205  0.3673 -0.4187
 7736SOL    HW134667   0.400   0.185  12.310  0.0586  0.6394 -0.2422
 7736SOL    HW234668   0.252   0.179  12.314 -1.2492  1.3819 -1.5843
 7737SOL     OW34669   3.090   2.143   3.782 -0.4250 -0.1282 -0.2462
 7737SOL    HW134670   3.059   2.096   3.860  0.6507  0.2167  0.3949
 7737SOL    HW234671   3.011   2.144   3.728  0.6038 -1.3918 -1.7552
 7738SOL     OW34672   0.357   1.289   6.819 -0.1607  0.1725 -0.0336
 7738SOL    HW134673   0.408   1.276   6.899  1.2216  0.5571 -0.8383
 7738SOL    HW234674   0.423   1.335   6.767 -1.0195  1.0404 -0.3433
 7739SOL     OW34675   4.084   2.927  15.961  0.4119  0.5494 -0.0824
 7739SOL    HW134676   4.009   2.912  16.018 -1.2074  1.2807 -2.0077
 7739SOL    HW234677   4.086   3.022  15.953  0.3633  0.5606  0.0461
 7740SOL     OW34678   3.543   3.374  10.307  0.1901  0.4199 -0.0860
 7740SOL    HW134679   3.611   3.436  10.281  1.3222 -0.5499  0.5446
 7740SOL    HW234680   3.577   3.287  10.288 -1.7781 -0.1403 -1.0153
 7741SOL     OW34681   0.905   3.312  11.262  0.7958 -0.0885  0.0809
 7741SOL    HW134682   0.882   3.383  11.323  0.6849 -1.6023  1.8049
 7741SOL    HW234683   0.963   3.271  11.326 -0.1922  0.8585  1.5875
 7742SOL     OW34684   4.469   1.962   9.057  0.2186 -0.1899 -0.0037
 7742SOL    HW134685   4.563   1.980   9.052  0.3545 -1.0951 -0.6894
 7742SOL    HW234686   4.437   1.960   8.967  0.8748 -0.0114 -0.2412
 7743SOL     OW34687   1.581   2.481   2.497 -0.2744  0.1263 -0.2080
 7743SOL    HW134688   1.584   2.386   2.512  0.3742  0.0059 -1.1574
 7743SOL    HW234689   1.638   2.510   2.568 -1.8439 -1.4362  1.6847
 7744SOL     OW34690   3.279   2.345   4.534  0.1879  0.4842 -0.5006
 7744SOL    HW134691   3.255   2.388   4.616 -0.6537  0.8133 -0.9286
 7744SOL    HW234692   3.353   2.293   4.567  0.5560  1.0716 -0.4076
 7745SOL     OW34693   4.384   3.183   5.514 -0.6113  0.3102  0.4973
 7745SOL    HW134694   4.476   3.211   5.509 -1.0561  1.7275  0.2225
 7745SOL    HW234695   4.389   3.092   5.482 -1.8083  0.7542 -0.9645
 7746SOL     OW34696   0.842   4.676  12.639  0.5270  0.0654  0.0864
 7746SOL    HW134697   0.836   0.006  12.719  3.5677  1.5652 -0.6876
 7746SOL    HW234698   0.802   4.595  12.673  0.5248 -0.9638 -2.2924
 7747SOL     OW34699   4.024   0.626   5.881 -0.5312  0.2685  0.1201
 7747SOL    HW134700   3.998   0.556   5.941  0.6709  1.1655  1.6886
 7747SOL    HW234701   4.059   0.582   5.803 -2.3055  2.3243 -1.8184
 7748SOL     OW34702   3.416   2.424  15.639 -0.3130 -0.4790  0.2036
 7748SOL    HW134703   3.460   2.443  15.556  1.2716  0.3220  1.2241
 7748SOL    HW234704   3.488   2.383  15.686  0.2738 -0.4768 -0.6840
 7749SOL     OW34705   3.523   3.818  15.246  0.5231  0.0561 -0.1727
 7749SOL    HW134706   3.509   3.871  15.168  2.1635  0.4983 -0.1578
 7749SOL    HW234707   3.434   3.797  15.276 -0.0352  1.9135 -0.5238
 7750SOL     OW34708   0.215   2.674   1.724 -0.5765 -0.1415 -0.0605
 7750SOL    HW134709   0.149   2.620   1.768 -0.4388 -0.8321 -0.6972
 7750SOL    HW234710   0.201   2.659   1.631 -0.9016  0.0398 -0.0376
 7751SOL     OW34711   1.892   3.422   3.347 -0.5609 -0.4059  1.0685
 7751SOL    HW134712   1.803   3.389   3.338 -0.6417 -0.3052  1.5007
 7751SOL    HW234713   1.898   3.473   3.266  0.1570 -0.4727  1.0732
 7752SOL     OW34714   3.290   0.205  12.977 -0.1941 -0.4846  0.4794
 7752SOL    HW134715   3.283   0.301  12.971 -2.1336 -0.6563  0.0654
 7752SOL    HW234716   3.374   0.200  13.023 -0.6620 -2.9277  1.0500
 7753SOL     OW34717   1.256   1.259   7.034 -0.0814 -0.3227  0.4339
 7753SOL    HW134718   1.313   1.283   7.106  0.9979  0.7145 -0.7619
 7753SOL    HW234719   1.247   1.167   7.058 -0.4875 -0.4858 -0.3273
 7754SOL     OW34720   0.967   3.520   2.138  0.1790 -0.4319 -0.5152
 7754SOL    HW134721   0.934   3.503   2.049 -0.3822  0.4710 -0.4801
 7754SOL    HW234722   1.032   3.587   2.120  0.4102 -0.5831 -0.2342
 7755SOL     OW34723   0.360   2.724   7.474 -0.0491 -0.1020 -0.0140
 7755SOL    HW134724   0.284   2.753   7.525 -1.0799  0.0216 -1.6184
 7755SOL    HW234725   0.410   2.674   7.539  0.9545  0.7617 -0.1190
 7756SOL     OW34726   4.156   3.859   8.933 -0.5490 -0.6675 -0.2557
 7756SOL    HW134727   4.157   3.840   9.026  0.0595 -1.8993 -0.5097
 7756SOL    HW234728   4.177   3.772   8.898  2.0362 -0.0722 -0.1404
 7757SOL     OW34729   1.622   3.206  10.779 -0.5076  0.9802  0.0950
 7757SOL    HW134730   1.618   3.118  10.739  0.7815  0.3437  1.4019
 7757SOL    HW234731   1.704   3.242  10.746  0.7907 -2.8020 -0.8000
 7758SOL     OW34732   0.491   1.957  16.045  0.2099  0.3121 -0.1990
 7758SOL    HW134733   0.474   1.939  16.137  1.0094 -0.8746 -0.2837
 7758SOL    HW234734   0.435   1.893  16.001 -0.6809 -0.3363  1.9243
 7759SOL     OW34735   2.830   1.987  14.285  0.1683 -0.6432  0.2825
 7759SOL    HW134736   2.867   1.932  14.354  1.2392 -1.2850 -0.8123
 7759SOL    HW234737   2.780   2.037  14.350  3.0029  1.7033  0.6282
 7760SOL     OW34738   3.519   4.502   5.761 -0.8516 -0.5595 -0.3941
 7760SOL    HW134739   3.505   4.584   5.809  0.5830 -1.1541  1.0487
 7760SOL    HW234740   3.567   4.533   5.684  1.6283 -1.0774  0.9475
 7761SOL     OW34741   4.647   1.950   2.821 -0.3243 -0.4775  0.1551
 7761SOL    HW134742   4.685   1.869   2.856  1.2469  0.6061  0.9362
 7761SOL    HW234743   4.573   1.915   2.771  0.2199  0.0775 -1.0564
 7762SOL     OW34744   3.905   0.124   3.026  0.2984  0.4890 -0.0134
 7762SOL    HW134745   3.853   0.053   2.988  0.0366  1.8568 -2.1729
 7762SOL    HW234746   3.836   0.183   3.057  1.1664 -0.0817  2.9541
 7763SOL     OW34747   0.922   4.476   4.881  0.3411  0.4353 -0.4287
 7763SOL    HW134748   0.836   4.508   4.908 -0.0254  0.7481 -1.9611
 7763SOL    HW234749   0.968   4.425   4.948  0.3619 -0.9958 -1.5129
 7764SOL     OW34750   3.123   4.464   4.607  0.0455 -0.1354  0.1510
 7764SOL    HW134751   3.164   4.452   4.692 -0.2848  1.4420  0.5365
 7764SOL    HW234752   3.099   4.373   4.590 -0.5433 -0.4199  2.4615
 7765SOL     OW34753   3.489   1.766   8.131  0.1981  0.1905  0.4875
 7765SOL    HW134754   3.515   1.850   8.171 -0.2345 -0.2037  1.5963
 7765SOL    HW234755   3.566   1.709   8.135  0.0817 -0.1325 -1.8716
 7766SOL     OW34756   0.681   2.506   0.177 -0.1997 -0.4824  0.3840
 7766SOL    HW134757   0.589   2.525   0.164 -0.2129 -0.3145  0.7107
 7766SOL    HW234758   0.720   2.587   0.143  0.9615 -0.6638  1.2560
 7767SOL     OW34759   3.782   1.033   7.116 -0.4224  0.1803 -0.6926
 7767SOL    HW134760   3.766   1.127   7.116 -2.1855 -0.1261 -0.7837
 7767SOL    HW234761   3.819   1.030   7.204 -0.9078  0.9557 -0.4648
 7768SOL     OW34762   3.995   2.754   1.977  0.0682  0.4881  0.6315
 7768SOL    HW134763   4.065   2.748   2.042  0.9062 -0.3847 -0.3308
 7768SOL    HW234764   3.954   2.831   2.015  0.2957 -0.2746  2.4378
 7769SOL     OW34765   4.614   4.456   7.340  0.6245  0.1275 -0.4807
 7769SOL    HW134766   4.694   4.421   7.379  0.3662  0.2952  0.2018
 7769SOL    HW234767   4.603   4.530   7.400 -1.0163 -0.0057 -0.6311
 7770SOL     OW34768   4.069   3.739   5.711 -0.3969  0.1288 -0.1754
 7770SOL    HW134769   4.056   3.650   5.743 -2.0955  0.8808  1.2406
 7770SOL    HW234770   4.016   3.785   5.777 -0.8939 -1.2606  0.3799
 7771SOL     OW34771   0.031   0.932  14.051 -0.3022 -0.2903  0.0058
 7771SOL    HW134772   0.014   0.877  13.974 -2.0577 -1.4275  1.1895
 7771SOL    HW234773   4.685   0.887  14.100 -1.8386  0.4635 -1.4306
 7772SOL     OW34774   1.498   2.261   5.202 -0.1833 -0.5516 -0.3645
 7772SOL    HW134775   1.569   2.323   5.186  2.0069 -2.6771  1.2785
 7772SOL    HW234776   1.501   2.267   5.298  1.2935  2.2605 -0.5836
 7773SOL     OW34777   3.528   4.030   9.255 -0.2888  0.1327  0.1710
 7773SOL    HW134778   3.553   4.009   9.345  1.0526 -0.7408 -0.3988
 7773SOL    HW234779   3.520   3.939   9.226 -1.6742 -0.0542  1.1397
 7774SOL     OW34780   1.497   0.828  17.508  0.4842 -0.4214 -0.4036
 7774SOL    HW134781   1.516   0.868  17.592  1.5584 -2.5626  0.3833
 7774SOL    HW234782   1.587   0.840  17.476  0.9178  1.7291  1.7005
 7775SOL     OW34783   2.448   3.983  10.473 -0.3729 -0.0582  0.1223
 7775SOL    HW134784   2.489   3.919  10.414  1.4935 -0.3277  1.7208
 7775SOL    HW234785   2.461   3.942  10.559  1.4680  1.1463  0.4021
 7776SOL     OW34786   0.104   0.030   8.470  0.1839  0.7473  0.2458
 7776SOL    HW134787   0.133   4.700   8.545  0.4934  0.4887 -0.0553
 7776SOL    HW234788   0.170   0.098   8.461  2.1387 -1.2673 -0.5124
 7777SOL     OW34789   1.903   0.675   2.044 -0.6088 -0.0838 -0.2266
 7777SOL    HW134790   1.818   0.653   2.007  0.2199  0.7504 -2.6725
 7777SOL    HW234791   1.955   0.660   1.964 -0.3498  0.2832 -0.1277
 7778SOL     OW34792   0.432   1.917   3.283 -0.1003  1.0078 -0.7674
 7778SOL    HW134793   0.378   1.931   3.205  0.5379 -1.2996 -1.6263
 7778SOL    HW234794   0.465   2.005   3.300 -0.0136  1.0718 -1.2719
 7779SOL     OW34795   2.812   4.555   3.888 -1.0141  0.4533 -0.4886
 7779SOL    HW134796   2.858   4.496   3.948  0.2150 -0.7748 -2.6684
 7779SOL    HW234797   2.824   4.643   3.924  2.2197  0.2048 -0.9657
 7780SOL     OW34798   2.210   0.647   1.033 -0.1162 -1.3081 -0.3651
 7780SOL    HW134799   2.258   0.721   1.072  0.8723 -0.3674 -3.4011
 7780SOL    HW234800   2.124   0.645   1.075 -0.1208  1.0125 -0.2554
 7781SOL     OW34801   3.164   1.196   5.690 -0.2877 -0.1557 -0.3654
 7781SOL    HW134802   3.201   1.167   5.606  0.9678 -3.2410  1.2316
 7781SOL    HW234803   3.071   1.175   5.681 -0.3169  0.2016 -0.8788
 7782SOL     OW34804   0.336   4.421   8.341  0.4377  0.5776  0.0920
 7782SOL    HW134805   0.295   4.335   8.357  1.3052  0.1718  0.1547
 7782SOL    HW234806   0.413   4.411   8.397  0.0902 -1.0052  0.3026
 7783SOL     OW34807   3.415   2.478   5.648  0.1851 -0.1050  0.0338
 7783SOL    HW134808   3.397   2.561   5.692  0.9044  0.0123  0.1144
 7783SOL    HW234809   3.374   2.419   5.711  1.3434  1.0559  1.8583
 7784SOL     OW34810   2.525   2.744   4.083 -0.0695 -0.4206 -0.3957
 7784SOL    HW134811   2.453   2.714   4.139 -1.1857 -1.9920 -2.6747
 7784SOL    HW234812   2.484   2.820   4.042  1.0369  1.0584  1.2161
 7785SOL     OW34813   1.799   1.465  10.588 -0.2802  0.8116 -0.2099
 7785SOL    HW134814   1.821   1.379  10.552 -1.1501  1.6477 -2.6787
 7785SOL    HW234815   1.880   1.484  10.636  0.2150 -0.8318 -0.3739
 7786SOL     OW34816   1.045   1.745   5.059  0.6435  0.4127 -0.1570
 7786SOL    HW134817   1.091   1.813   5.011 -0.7249  1.1417 -0.4394
 7786SOL    HW234818   0.978   1.799   5.102 -0.5295 -2.4837  1.7186
 7787SOL     OW34819   2.872   2.058   6.850 -0.0929 -0.3588  0.3808
 7787SOL    HW134820   2.855   1.985   6.909 -0.2694 -0.3652  0.3194
 7787SOL    HW234821   2.798   2.117   6.864 -1.3067 -1.9185  0.4249
 7788SOL     OW34822   0.809   0.487   8.069 -0.0232  0.1798  0.0956
 7788SOL    HW134823   0.751   0.452   8.001 -1.0055  0.4838  0.7858
 7788SOL    HW234824   0.865   0.538   8.011 -0.9787  0.1721 -0.8286
 7789SOL     OW34825   1.370   3.942   0.618 -0.5669  0.2134 -0.1909
 7789SOL    HW134826   1.429   3.868   0.634 -0.3377  0.0327 -1.8696
 7789SOL    HW234827   1.424   4.020   0.605 -0.2780  0.2619  1.2915
 7790SOL     OW34828   1.449   4.176   4.122  0.2492 -0.0904 -0.2392
 7790SOL    HW134829   1.515   4.108   4.112  0.3706  0.0820 -0.6127
 7790SOL    HW234830   1.439   4.174   4.218 -1.2380 -2.9804 -0.4706
 7791SOL     OW34831   0.254   4.535   1.729 -1.0880 -0.1043 -0.0900
 7791SOL    HW134832   0.218   4.446   1.731 -0.4452 -0.3968 -1.8174
 7791SOL    HW234833   0.317   4.532   1.658 -0.1337  1.4623  0.6960
 7792SOL     OW34834   0.245   1.143   0.624 -0.0424  0.1013  0.4255
 7792SOL    HW134835   0.195   1.167   0.546 -0.0845  0.7078  0.6379
 7792SOL    HW234836   0.274   1.233   0.640  1.8915 -0.6603  1.2321
 7793SOL     OW34837   3.669   0.502  16.944  0.0969  0.2849  0.1281
 7793SOL    HW134838   3.607   0.563  16.904  0.4029  0.6888  0.2556
 7793SOL    HW234839   3.757   0.529  16.917  0.1862  1.2555  1.3881
 7794SOL     OW34840   3.993   4.425   3.062  0.7850  0.3829  0.5019
 7794SOL    HW134841   3.934   4.466   3.125 -0.5487 -0.2582 -0.3354
 7794SOL    HW234842   4.049   4.499   3.039  0.4656 -0.1594 -2.0152
 7795SOL     OW34843   3.808   3.729  11.988  0.2799  0.4552  0.2819
 7795SOL    HW134844   3.760   3.745  12.069 -3.8751 -1.1037 -1.8940
 7795SOL    HW234845   3.836   3.640  12.009  2.2109 -0.0804 -4.4808
 7796SOL     OW34846   2.923   3.054   5.813  0.1384  0.3800  0.5693
 7796SOL    HW134847   2.842   3.008   5.786 -1.0524  1.2529  2.6771
 7796SOL    HW234848   2.925   3.093   5.726 -1.1825  0.0178  0.3735
 7797SOL     OW34849   2.246   1.829  17.520 -0.3096 -0.2400  0.1557
 7797SOL    HW134850   2.311   1.898  17.507 -0.2919 -0.3589 -0.4118
 7797SOL    HW234851   2.270   1.804  17.609 -0.2680  0.8881  0.4607
 7798SOL     OW34852   0.641   4.490   2.160 -0.0172 -0.3558  0.1229
 7798SOL    HW134853   0.572   4.430   2.133 -0.2065 -0.5471  1.0582
 7798SOL    HW234854   0.716   4.431   2.151  0.3072  0.1474 -0.5346
 7799SOL     OW34855   2.796   2.232   6.140  0.1586  0.1696  0.6887
 7799SOL    HW134856   2.781   2.327   6.139 -0.2649  0.0589 -1.8697
 7799SOL    HW234857   2.758   2.215   6.054 -1.0570  1.4392  0.9577
 7800SOL     OW34858   3.900   1.065   7.584  0.4264 -0.2753  0.1808
 7800SOL    HW134859   3.946   0.997   7.635 -0.9383  0.8088  2.8488
 7800SOL    HW234860   3.827   1.017   7.546  0.0588  0.0807  0.4445
 7801SOL     OW34861   2.794   4.328   7.857 -0.3045 -0.4471 -0.1182
 7801SOL    HW134862   2.709   4.302   7.894  0.4333 -1.2741  0.9827
 7801SOL    HW234863   2.768   4.333   7.764  3.0734 -0.8905 -1.0709
 7802SOL     OW34864   3.794   3.186   1.864  0.6961 -0.7353 -0.3561
 7802SOL    HW134865   3.797   3.274   1.828  0.9921 -0.5373  0.1525
 7802SOL    HW234866   3.882   3.170   1.829  2.1306 -1.3806  3.5429
 7803SOL     OW34867   3.829   2.692   7.176  0.4819  0.0320 -0.0662
 7803SOL    HW134868   3.846   2.759   7.109  0.0922 -2.0077 -2.2085
 7803SOL    HW234869   3.753   2.648   7.139  1.1568  0.1237 -1.5722
 7804SOL     OW34870   1.432   2.386   5.704 -0.5459 -0.7300 -0.0622
 7804SOL    HW134871   1.374   2.402   5.778  0.4367  2.6721 -0.0244
 7804SOL    HW234872   1.368   2.399   5.634  0.0956 -1.5197 -0.7978
 7805SOL     OW34873   1.687   0.519   5.382 -0.0091  0.2563  0.2029
 7805SOL    HW134874   1.684   0.571   5.462  0.0577 -1.0201  1.0226
 7805SOL    HW234875   1.776   0.483   5.378 -0.5109 -0.9468 -0.3268
 7806SOL     OW34876   3.142   3.553  16.776 -0.1827 -0.7128 -0.1211
 7806SOL    HW134877   3.233   3.530  16.757  0.1100  0.2821  0.0417
 7806SOL    HW234878   3.114   3.610  16.704 -0.2519  2.0612  2.0941
 7807SOL     OW34879   2.227   0.860   4.275 -0.1539  0.3174 -0.6473
 7807SOL    HW134880   2.286   0.920   4.321 -0.0359 -0.1266 -0.2114
 7807SOL    HW234881   2.156   0.864   4.339  0.0477  1.6807 -0.5130
 7808SOL     OW34882   2.340   3.054   8.376  0.6864  0.4933  0.3848
 7808SOL    HW134883   2.312   2.970   8.414 -0.6695  0.1567 -1.3387
 7808SOL    HW234884   2.419   3.025   8.331 -0.4986 -3.5193  0.8790
 7809SOL     OW34885   1.859   0.453   8.376 -0.0268 -0.6633 -0.0151
 7809SOL    HW134886   1.950   0.442   8.403 -0.2440  1.6508  1.6467
 7809SOL    HW234887   1.856   0.546   8.353  3.4883 -0.6783 -0.6705
 7810SOL     OW34888   4.466   0.640   3.914 -0.1971 -0.1222  0.8718
 7810SOL    HW134889   4.498   0.648   3.824  0.6484 -1.1353  1.0844
 7810SOL    HW234890   4.412   0.719   3.911 -0.8995 -0.6840 -1.7277
 7811SOL     OW34891   0.627   1.211   2.412 -0.6954  0.0580  0.3087
 7811SOL    HW134892   0.554   1.150   2.424 -0.4978 -0.4724 -1.1683
 7811SOL    HW234893   0.617   1.228   2.318  0.4984 -1.8193 -0.1701
 7812SOL     OW34894   3.938   3.865  15.078  0.1989  0.3457 -0.2162
 7812SOL    HW134895   3.882   3.855  15.155  1.4886 -0.4697  0.6173
 7812SOL    HW234896   3.976   3.951  15.099 -2.5506  1.5222 -0.1175
 7813SOL     OW34897   3.143   0.062   9.268 -0.3737 -0.2667 -0.1796
 7813SOL    HW134898   3.073   0.080   9.330 -0.1550 -0.8760  0.2457
 7813SOL    HW234899   3.159   4.692   9.290  1.0358  0.1562  0.5809
 7814SOL     OW34900   3.529   2.401   3.439  0.0149  0.2403  0.4174
 7814SOL    HW134901   3.623   2.419   3.431  0.0473 -1.1345 -2.5073
 7814SOL    HW234902   3.531   2.319   3.389 -0.0577  2.1453 -2.6672
 7815SOL     OW34903   0.854   4.556   9.829 -0.2880 -0.5745  0.2518
 7815SOL    HW134904   0.839   4.641   9.787  0.7407 -0.6906 -0.3441
 7815SOL    HW234905   0.916   4.523   9.764 -1.6358 -1.8110 -0.3950
 7816SOL     OW34906   0.876   0.376   4.616 -0.2110 -0.4766 -0.2987
 7816SOL    HW134907   0.815   0.436   4.659 -0.7741 -0.7503 -0.7083
 7816SOL    HW234908   0.956   0.425   4.600 -2.1696  2.9048  0.2971
 7817SOL     OW34909   3.369   1.515   8.777  0.0236  0.0875  0.4163
 7817SOL    HW134910   3.304   1.498   8.846  0.6953 -2.4209  0.4266
 7817SOL    HW234911   3.437   1.557   8.829  0.5968 -0.1878 -0.1197
 7818SOL     OW34912   1.113   3.007  17.153 -0.1568 -0.3185 -0.4117
 7818SOL    HW134913   1.021   3.027  17.172 -0.2622  0.4604 -1.7706
 7818SOL    HW234914   1.108   2.968  17.066  2.1318 -0.7495 -0.3409
 7819SOL     OW34915   1.867   1.611  11.625 -0.2109  0.1108 -0.2418
 7819SOL    HW134916   1.879   1.631  11.532 -0.6016  0.6558 -0.1728
 7819SOL    HW234917   1.954   1.610  11.664 -0.3897  0.3964  0.1604
 7820SOL     OW34918   0.055   3.260   8.005 -0.4852 -0.2169 -0.4988
 7820SOL    HW134919   4.696   3.221   8.037  0.6140 -0.6842  1.7669
 7820SOL    HW234920   0.042   3.253   7.911  1.2902  0.2701 -0.7867
 7821SOL     OW34921   0.857   0.939   5.862 -0.5887 -0.0414 -0.9536
 7821SOL    HW134922   0.847   1.024   5.820 -1.7653  0.8324  1.0717
 7821SOL    HW234923   0.907   0.955   5.942 -4.0725 -1.1161  1.4620
 7822SOL     OW34924   0.637   2.076  15.221 -0.0438 -0.2929  0.2705
 7822SOL    HW134925   0.695   2.003  15.200  0.6893  0.1238  0.8593
 7822SOL    HW234926   0.564   2.026  15.259 -2.3330  2.5971 -0.2992
 7823SOL     OW34927   2.835   2.001  11.678 -0.3936  0.1485 -1.2807
 7823SOL    HW134928   2.744   2.009  11.652 -0.1255  1.5871 -1.7581
 7823SOL    HW234929   2.881   2.080  11.649 -0.4034  0.5590 -0.1699
 7824SOL     OW34930   3.824   4.138  16.489  0.0608 -0.3782 -0.2901
 7824SOL    HW134931   3.736   4.150  16.523  0.2933 -0.1073  0.2191
 7824SOL    HW234932   3.878   4.209  16.523  0.8202 -1.0517 -0.0618
 7825SOL     OW34933   0.163   4.210   7.140 -0.2659  0.4014 -0.7369
 7825SOL    HW134934   0.201   4.295   7.161 -0.8416  0.9805 -2.0486
 7825SOL    HW234935   0.091   4.243   7.087 -1.4634  0.7559  1.1349
 7826SOL     OW34936   1.778   0.736   7.915  0.2353  0.4504  0.1332
 7826SOL    HW134937   1.761   0.651   7.874 -0.7540  1.2483 -1.1310
 7826SOL    HW234938   1.873   0.734   7.927 -0.0158 -0.3484  1.9267
 7827SOL     OW34939   1.775   3.335  14.212 -0.1114  0.1977 -0.0856
 7827SOL    HW134940   1.693   3.385  14.216  0.1756  0.8222 -2.1168
 7827SOL    HW234941   1.741   3.252  14.178  0.7023  0.4878 -1.5823
 7828SOL     OW34942   4.320   2.816   7.362  0.3929 -0.1514 -0.6505
 7828SOL    HW134943   4.246   2.853   7.411  1.7221  1.0757  0.4356
 7828SOL    HW234944   4.277   2.805   7.278  2.4446 -0.9466 -1.5938
 7829SOL     OW34945   4.685   4.648   8.020  0.0443 -0.5922 -0.0383
 7829SOL    HW134946   4.709   4.566   8.062 -0.8080 -0.3817  0.8452
 7829SOL    HW234947   0.032   4.708   8.050  0.0261  0.2146 -1.5852
 7830SOL     OW34948   2.016   0.097  12.789  0.0616 -0.1257  0.0523
 7830SOL    HW134949   2.107   0.093  12.760  0.0043 -0.5849 -0.0688
 7830SOL    HW234950   2.024   0.093  12.884  1.0523 -1.8183 -0.0937
 7831SOL     OW34951   0.130   4.655  10.798 -0.2631 -0.1118 -0.3034
 7831SOL    HW134952   0.088   4.608  10.726 -0.0955  2.8026 -2.3127
 7831SOL    HW234953   0.208   4.688  10.754  0.4032 -1.2570  0.0264
 7832SOL     OW34954   1.032   2.908  16.627 -0.4323  0.3485 -0.0549
 7832SOL    HW134955   1.004   2.818  16.613  1.1653 -0.1711  0.1333
 7832SOL    HW234956   1.091   2.924  16.553  1.5504 -0.9392  1.2507
 7833SOL     OW34957   3.670   3.363   2.293 -0.0187 -0.3385 -0.5103
 7833SOL    HW134958   3.755   3.348   2.335 -0.7271  0.6713  1.3079
 7833SOL    HW234959   3.684   3.452   2.259 -0.2545 -0.3686 -0.6836
 7834SOL     OW34960   3.867   0.379  14.447  0.1045  0.6708 -0.0472
 7834SOL    HW134961   3.905   0.443  14.387  2.2956  0.4291  1.0954
 7834SOL    HW234962   3.812   0.433  14.503 -1.0352  0.0017 -0.5184
 7835SOL     OW34963   1.062   3.928   0.723 -0.2169 -0.3403  0.3876
 7835SOL    HW134964   1.100   3.943   0.809 -0.6179 -0.1876  0.5371
 7835SOL    HW234965   0.971   3.911   0.750 -0.7831 -1.7917 -2.3991
 7836SOL     OW34966   1.153   1.577   6.618 -0.0100 -0.0129  0.3366
 7836SOL    HW134967   1.146   1.663   6.660 -3.3493  0.5965 -1.5062
 7836SOL    HW234968   1.180   1.518   6.689  1.0029 -2.8094 -2.3777
 7837SOL     OW34969   3.748   4.320  17.645 -0.0703 -0.2723  0.1531
 7837SOL    HW134970   3.777   4.373  17.571  0.5552 -0.0838  0.5342
 7837SOL    HW234971   3.805   4.371   0.012  0.4665 -2.1279  1.2859
 7838SOL     OW34972   0.009   3.087   5.658 -0.6810 -0.0541  0.8254
 7838SOL    HW134973   0.083   3.031   5.635 -3.0457 -1.1984 -3.9727
 7838SOL    HW234974   4.673   3.026   5.703 -0.1173 -1.0261  0.2312
 7839SOL     OW34975   0.257   1.974   5.479 -0.2712  0.1744  0.1165
 7839SOL    HW134976   0.188   1.981   5.545  0.3205  2.9646  0.4080
 7839SOL    HW234977   0.307   1.903   5.521 -0.2941  1.0250  1.5645
 7840SOL     OW34978   1.993   2.685   3.151 -0.2215  0.1027 -0.3592
 7840SOL    HW134979   1.928   2.719   3.213  1.2451 -0.5059  1.5259
 7840SOL    HW234980   1.932   2.678   3.078 -1.1489  1.7473  0.2482
 7841SOL     OW34981   4.114   3.061   9.062 -0.1355  0.3434 -0.4237
 7841SOL    HW134982   4.162   3.133   9.022  1.4694 -1.4091 -1.6316
 7841SOL    HW234983   4.031   3.074   9.016  0.8585  4.0218 -1.1469
 7842SOL     OW34984   1.304   2.012   8.161 -0.3087 -0.0681  0.3982
 7842SOL    HW134985   1.316   2.007   8.255  1.2338 -1.8110  0.1008
 7842SOL    HW234986   1.319   1.921   8.137 -0.0774  0.5395 -1.7735
 7843SOL     OW34987   3.916   2.683   8.823  0.0752 -0.1870 -0.0901
 7843SOL    HW134988   3.941   2.647   8.908 -0.2617 -0.3864 -0.0798
 7843SOL    HW234989   3.880   2.771   8.838  1.6509  0.7874 -1.8723
 7844SOL     OW34990   2.423   0.491   8.467  0.1116 -0.0958 -0.2007
 7844SOL    HW134991   2.478   0.562   8.437 -0.2013 -0.0673 -0.7162
 7844SOL    HW234992   2.418   0.503   8.561  0.1560  1.5774 -0.4273
 7845SOL     OW34993   0.360   3.535   9.919 -0.2380 -0.0999  0.0932
 7845SOL    HW134994   0.366   3.551   9.825 -2.8097  4.0510  0.6392
 7845SOL    HW234995   0.308   3.613   9.937  0.0099  0.4784 -1.7426
 7846SOL     OW34996   0.660   4.272   4.183  0.0222  0.0250 -0.0992
 7846SOL    HW134997   0.621   4.344   4.134  0.7208 -1.4858 -2.8329
 7846SOL    HW234998   0.579   4.227   4.207  0.6499  0.0062  1.9844
 7847SOL     OW34999   3.768   1.972   2.318 -0.3523 -0.4575 -0.0318
 7847SOL    HW135000   3.710   1.979   2.241  2.1603 -1.9099 -2.0461
 7847SOL    HW235001   3.706   1.933   2.380 -1.5986  1.2370 -0.2260
 7848SOL     OW35002   0.965   3.358   2.585  0.0131 -0.1717 -0.1905
 7848SOL    HW135003   0.918   3.413   2.521 -1.2114 -0.8964  0.0907
 7848SOL    HW235004   1.046   3.361   2.535 -0.1619 -0.2567 -0.4796
 7849SOL     OW35005   2.825   3.587   5.990 -0.2660 -0.4569 -0.4434
 7849SOL    HW135006   2.826   3.681   6.009 -1.9019 -0.8356  1.4464
 7849SOL    HW235007   2.739   3.566   5.954 -0.9709 -1.0184  1.5637
 7850SOL     OW35008   2.464   4.563  11.656 -0.2914 -0.1673  0.0054
 7850SOL    HW135009   2.396   4.626  11.631 -0.1526  1.1458  2.9474
 7850SOL    HW235010   2.527   4.623  11.697 -0.7407 -1.4784  2.6181
 7851SOL     OW35011   4.608   4.166  14.641 -0.2833  0.5177 -0.4199
 7851SOL    HW135012   4.535   4.154  14.579  0.9495 -1.7831 -1.4410
 7851SOL    HW235013   4.664   4.088  14.643  0.3408  1.0080  0.8730
 7852SOL     OW35014   0.521   1.076   4.144 -0.0060 -0.1794  0.0999
 7852SOL    HW135015   0.444   1.022   4.129  0.3495 -1.2278  2.0495
 7852SOL    HW235016   0.475   1.157   4.168 -1.0049 -0.5782 -0.4663
 7853SOL     OW35017   3.014   2.307   0.575  0.4473  0.5587 -0.1816
 7853SOL    HW135018   3.077   2.364   0.530  1.7372  0.3655  1.3685
 7853SOL    HW235019   3.045   2.307   0.665  1.5501  0.7030 -0.5622
 7854SOL     OW35020   1.786   2.717   6.154  0.5598 -0.1158 -0.0247
 7854SOL    HW135021   1.867   2.751   6.192  1.9268 -3.9944  0.4911
 7854SOL    HW235022   1.729   2.794   6.164  0.9046  0.2586 -0.9129
 7855SOL     OW35023   3.390   2.889   6.535 -0.1327  0.4652  0.3205
 7855SOL    HW135024   3.340   2.958   6.492  0.8321  0.4274 -0.8630
 7855SOL    HW235025   3.393   2.826   6.463 -0.5422  1.1748 -0.3280
 7856SOL     OW35026   2.122   0.803   4.031  0.1638  0.1045 -0.5009
 7856SOL    HW135027   2.133   0.826   4.123 -0.9105  0.1499 -0.3912
 7856SOL    HW235028   2.048   0.743   4.035  1.1095 -1.0447 -0.1573
 7857SOL     OW35029   2.920   4.422   9.140  0.0620 -0.0922 -0.0498
 7857SOL    HW135030   3.012   4.446   9.149 -0.1922  0.7373  0.3325
 7857SOL    HW235031   2.888   4.502   9.098 -2.6668 -0.2613  1.7019
 7858SOL     OW35032   1.441   3.285   3.103  0.3370  0.3156  0.0042
 7858SOL    HW135033   1.447   3.368   3.056  0.9305  0.6633  0.6955
 7858SOL    HW235034   1.347   3.273   3.090  0.5735 -2.7507  1.1552
 7859SOL     OW35035   1.436   3.913   7.621 -0.5437  0.4463 -0.7098
 7859SOL    HW135036   1.353   3.950   7.591 -0.0933  1.3740 -0.8295
 7859SOL    HW235037   1.483   3.900   7.539  1.0731 -0.2501  0.3343
 7860SOL     OW35038   3.698   1.749   4.417 -0.2577  0.1052  0.2923
 7860SOL    HW135039   3.770   1.700   4.376 -1.3399 -0.9426 -0.3241
 7860SOL    HW235040   3.746   1.769   4.497 -1.1241 -0.5813  0.9780
 7861SOL     OW35041   3.373   0.223   5.214  0.3398  0.0631  0.0394
 7861SOL    HW135042   3.333   0.152   5.265  0.3829  0.3711  0.4943
 7861SOL    HW235043   3.297   0.249   5.163 -0.5125 -0.7470  0.8918
 7862SOL     OW35044   2.532   1.765   2.785  0.5663 -0.0965 -1.2047
 7862SOL    HW135045   2.437   1.753   2.795  0.6628 -0.4382 -0.6871
 7862SOL    HW235046   2.540   1.853   2.820  0.3132 -0.1163 -1.0937
 7863SOL     OW35047   0.177   1.946  12.188  0.5723  0.4769  0.1730
 7863SOL    HW135048   0.097   1.900  12.214  2.0154 -1.4528  1.2261
 7863SOL    HW235049   0.243   1.909  12.246 -0.1089 -0.8772  0.0712
 7864SOL     OW35050   2.452   2.736  15.221 -0.4004 -0.0996 -0.1725
 7864SOL    HW135051   2.452   2.832  15.224  0.4993 -0.0963 -0.4405
 7864SOL    HW235052   2.366   2.719  15.260 -0.3469 -1.2456 -0.5683
 7865SOL     OW35053   4.605   4.361   2.079  0.0147  0.3355  0.2025
 7865SOL    HW135054   4.599   4.387   1.987  1.2788  0.3970  0.1328
 7865SOL    HW235055   4.697   4.337   2.086 -0.2439 -0.9575 -0.8591
 7866SOL     OW35056   3.456   1.366   7.854 -0.5467  0.0316 -0.2871
 7866SOL    HW135057   3.543   1.351   7.817  0.0853  2.0165  0.3824
 7866SOL    HW235058   3.397   1.384   7.782  0.2449  1.0692 -0.6807
 7867SOL     OW35059   2.840   4.696   2.482 -0.3632  0.0080  0.0268
 7867SOL    HW135060   2.757   0.006   2.447 -1.2072 -2.3357 -0.0684
 7867SOL    HW235061   2.903   0.002   2.415 -0.9222  1.6327  0.1785
 7868SOL     OW35062   2.109   1.533   8.441 -0.0608 -0.6642  0.4131
 7868SOL    HW135063   2.174   1.482   8.393 -0.8955  0.4215 -1.8975
 7868SOL    HW235064   2.030   1.543   8.388 -0.7243 -0.1939  1.4984
 7869SOL     OW35065   1.666   2.940   6.695 -0.3741  0.0943  0.0575
 7869SOL    HW135066   1.644   2.872   6.631 -0.8380 -0.0898  0.4150
 7869SOL    HW235067   1.752   2.909   6.724  0.3026  0.7752 -1.2120
 7870SOL     OW35068   0.556   2.631   3.903  0.1526 -0.3449 -0.0431
 7870SOL    HW135069   0.600   2.709   3.936 -0.8524  0.1415  0.1476
 7870SOL    HW235070   0.523   2.666   3.821  0.0941  1.1922  0.6307
 7871SOL     OW35071   3.079   3.857   1.949  0.4234 -0.0973 -0.6024
 7871SOL    HW135072   3.090   3.943   1.990 -2.0451  0.6768 -1.5646
 7871SOL    HW235073   3.061   3.809   2.030 -2.7552  2.2261  0.0236
 7872SOL     OW35074   1.861   1.542   8.294  0.0626  0.2239 -0.0596
 7872SOL    HW135075   1.844   1.506   8.207  0.0816  0.8643 -0.3263
 7872SOL    HW235076   1.781   1.587   8.319 -0.6452 -1.7415  1.1661
 7873SOL     OW35077   1.749   2.037  13.787  0.0874 -0.6117  0.1854
 7873SOL    HW135078   1.753   2.130  13.809  1.6144 -0.8271  0.8263
 7873SOL    HW235079   1.781   2.029  13.697  0.7003  0.9766  0.2636
 7874SOL     OW35080   0.153   4.680   7.687 -0.0998  0.2310 -0.5646
 7874SOL    HW135081   0.184   0.049   7.689 -0.1545  0.1977  2.0515
 7874SOL    HW235082   0.212   4.630   7.743  0.0685 -1.2314 -2.0664
 7875SOL     OW35083   1.883   1.900  14.461  0.1668  0.1939 -0.9225
 7875SOL    HW135084   1.793   1.915  14.431 -0.5491 -2.1790  0.0957
 7875SOL    HW235085   1.929   1.964  14.406  2.7341  0.6068  1.7078
 7876SOL     OW35086   1.110   0.431   4.151  0.4974  0.2058 -0.2058
 7876SOL    HW135087   1.045   0.392   4.210  1.9366 -0.9159  0.6516
 7876SOL    HW235088   1.190   0.379   4.157 -0.4779 -1.0829  1.6379
 7877SOL     OW35089   1.579   3.982  16.883 -0.0384  0.2047 -0.2461
 7877SOL    HW135090   1.596   4.027  16.965 -3.2398  1.8137 -0.4954
 7877SOL    HW235091   1.609   4.054  16.827  2.0783  0.4969  1.2715
 7878SOL     OW35092   3.775   0.618   3.023 -0.3327 -0.3654  0.0650
 7878SOL    HW135093   3.722   0.584   2.951 -1.0635 -0.6847  0.7510
 7878SOL    HW235094   3.709   0.626   3.091 -2.3873  0.1653 -2.0147
 7879SOL     OW35095   1.738   3.505   7.913  0.3145 -0.3379 -0.1841
 7879SOL    HW135096   1.728   3.588   7.868 -0.6269  0.7331  1.9707
 7879SOL    HW235097   1.656   3.460   7.891 -0.7672  2.3672 -1.7521
 7880SOL     OW35098   0.486   2.683   3.022 -0.1190 -0.0842  0.1995
 7880SOL    HW135099   0.561   2.643   3.066  1.4921  1.1939 -1.3838
 7880SOL    HW235100   0.511   2.682   2.930 -0.6148 -3.6067  0.1011
 7881SOL     OW35101   0.971   0.589   3.558  0.3077 -0.5608  0.3804
 7881SOL    HW135102   1.067   0.587   3.564  0.4321  1.2382 -0.9694
 7881SOL    HW235103   0.963   0.684   3.546  1.8627 -0.3068  1.3764
 7882SOL     OW35104   4.313   3.372   6.396  0.8420 -0.2532 -0.5381
 7882SOL    HW135105   4.262   3.378   6.477  0.5179  1.5560 -0.8803
 7882SOL    HW235106   4.386   3.314   6.420 -0.5039 -1.3018  1.0232
 7883SOL     OW35107   1.206   0.319  16.230 -0.3795  0.0093  0.0420
 7883SOL    HW135108   1.239   0.246  16.177 -2.5687 -1.2449  0.3915
 7883SOL    HW235109   1.289   0.351  16.265 -0.5828  1.6781 -1.0249
 7884SOL     OW35110   2.735   1.724   3.248  0.1038 -0.5276  0.2254
 7884SOL    HW135111   2.741   1.711   3.343  0.2522 -1.0068  0.1492
 7884SOL    HW235112   2.685   1.804   3.233 -2.3645 -1.7949  1.6664
 7885SOL     OW35113   2.119   3.205   3.855  0.0168 -0.3374 -0.0090
 7885SOL    HW135114   2.059   3.239   3.789 -0.3458 -0.7832  0.0858
 7885SOL    HW235115   2.198   3.219   3.803 -0.5500 -0.2071 -0.8320
 7886SOL     OW35116   2.458   0.988   5.474  0.1860 -0.0976  0.0883
 7886SOL    HW135117   2.394   0.951   5.414  0.5237 -1.4755  0.5613
 7886SOL    HW235118   2.426   0.965   5.562 -1.8113 -2.7648 -1.3514
 7887SOL     OW35119   0.181   1.403  15.820 -0.1793  0.0368  0.2977
 7887SOL    HW135120   0.275   1.394  15.807 -0.3145  0.5355 -0.9866
 7887SOL    HW235121   0.169   1.415  15.914 -0.9669 -1.2304  0.3570
 7888SOL     OW35122   4.148   4.140   7.640 -0.1559  0.4054  0.2308
 7888SOL    HW135123   4.216   4.086   7.682  0.1649 -1.5367 -2.7547
 7888SOL    HW235124   4.186   4.139   7.552  0.8246 -1.8089  0.6694
 7889SOL     OW35125   3.819   4.653   4.856 -0.0779  0.2041  0.6277
 7889SOL    HW135126   3.789   0.013   4.895  0.1298  1.1793 -1.2394
 7889SOL    HW235127   3.869   4.696   4.786  0.7205 -0.9975  0.4589
 7890SOL     OW35128   1.779   0.998   3.815 -0.5014 -0.1660  0.4784
 7890SOL    HW135129   1.770   0.908   3.847 -1.4322 -0.8413 -1.6683
 7890SOL    HW235130   1.737   1.003   3.729  1.2065  0.1447 -0.3382
 7891SOL     OW35131   4.526   0.446   6.511 -0.0553 -0.8021  0.1512
 7891SOL    HW135132   4.568   0.532   6.503 -0.7198 -0.2265  2.8189
 7891SOL    HW235133   4.513   0.436   6.605 -1.0759  4.1632  0.5399
 7892SOL     OW35134   3.736   1.229   6.140 -0.4573  0.0544 -0.1505
 7892SOL    HW135135   3.830   1.246   6.144 -0.4862 -0.0657  1.0434
 7892SOL    HW235136   3.725   1.161   6.206  0.6617  0.7378  0.7301
 7893SOL     OW35137   3.118   4.506   8.779  0.0559 -0.1038 -0.0362
 7893SOL    HW135138   3.114   4.479   8.687  2.1633 -1.2897  0.2291
 7893SOL    HW235139   3.056   4.578   8.772  0.4923  0.2635 -0.1191
 7894SOL     OW35140   3.680   1.517   8.462  0.2492  0.0760 -0.0192
 7894SOL    HW135141   3.740   1.585   8.493  0.8849 -1.2003  1.5241
 7894SOL    HW235142   3.747   1.457   8.431 -2.2553 -2.1182 -1.2092
 7895SOL     OW35143   2.758   1.723   9.314  0.7171  0.0896 -0.1947
 7895SOL    HW135144   2.840   1.694   9.353  1.1354  1.8391  0.2240
 7895SOL    HW235145   2.701   1.652   9.340  1.5770 -0.0347  1.3123
 7896SOL     OW35146   2.368   1.973   2.576  0.6723  0.1839  0.1438
 7896SOL    HW135147   2.310   1.955   2.502 -0.9377 -1.3041  1.7709
 7896SOL    HW235148   2.431   1.902   2.567 -0.3215 -0.5540 -0.9663
 7897SOL     OW35149   1.286   4.110   8.915  0.7516 -0.5017  0.6222
 7897SOL    HW135150   1.302   4.062   8.834 -0.1553  0.5667 -0.1858
 7897SOL    HW235151   1.234   4.052   8.971 -0.4001 -1.8877 -1.9153
 7898SOL     OW35152   4.599   0.913   3.766  0.1783  0.2088  0.4501
 7898SOL    HW135153   4.606   0.910   3.862  0.3402  2.9489  0.5120
 7898SOL    HW235154   4.642   0.832   3.738  1.1914  1.1492 -0.6962
 7899SOL     OW35155   0.424   4.251   7.382 -0.2313 -0.0947 -0.0852
 7899SOL    HW135156   0.502   4.197   7.370  0.1209  0.4111 -0.1066
 7899SOL    HW235157   0.419   4.300   7.300 -0.6050  0.9204  0.5377
 7900SOL     OW35158   4.583   0.191   7.972 -0.3852  0.1273 -0.0650
 7900SOL    HW135159   4.499   0.203   8.018 -0.2282  0.2074  0.1996
 7900SOL    HW235160   4.600   0.098   7.960 -1.1861  0.3701 -3.0216
 7901SOL     OW35161   4.320   0.925   9.563 -0.7503 -0.1850 -0.4280
 7901SOL    HW135162   4.292   1.016   9.556  0.5603  0.4108  1.8389
 7901SOL    HW235163   4.381   0.920   9.490 -1.4685  1.3359 -1.1349
 7902SOL     OW35164   1.058   3.464   0.462  0.2629  0.5548 -0.2779
 7902SOL    HW135165   1.037   3.405   0.534 -2.6822  0.5777 -1.1220
 7902SOL    HW235166   0.979   3.450   0.410  0.4750 -1.3754 -0.0766
 7903SOL     OW35167   2.736   3.064   6.590 -0.1626  0.1758  0.3561
 7903SOL    HW135168   2.805   3.083   6.653 -0.1915 -1.1035  0.7778
 7903SOL    HW235169   2.752   3.138   6.531 -1.5529 -0.4097 -0.7619
 7904SOL     OW35170   0.506   2.684   2.752  0.0822  0.5743 -0.3408
 7904SOL    HW135171   0.543   2.768   2.725 -2.4104  1.7635 -0.0753
 7904SOL    HW235172   0.549   2.620   2.694 -0.2535 -2.0428  2.2965
 7905SOL     OW35173   4.131   0.369  12.714  0.9614  0.0866 -0.2598
 7905SOL    HW135174   4.214   0.354  12.670  1.8495 -0.7943  1.6994
 7905SOL    HW235175   4.145   0.456  12.751  2.2046 -0.0538 -0.4194
 7906SOL     OW35176   1.100   1.817   3.486  0.3371 -0.0512  0.6331
 7906SOL    HW135177   1.007   1.829   3.507  0.7736  0.0746  2.4963
 7906SOL    HW235178   1.120   1.751   3.552  0.8468 -2.3857 -1.8237
 7907SOL     OW35179   0.371   2.729   6.577  0.2041  0.4292 -0.2233
 7907SOL    HW135180   0.302   2.721   6.643  0.9685 -1.5639  0.3248
 7907SOL    HW235181   0.432   2.663   6.609  0.1809  0.3929 -0.2534
 7908SOL     OW35182   3.586   2.936  17.633 -0.0934 -0.5908 -0.0819
 7908SOL    HW135183   3.633   2.855  17.613  3.7038  1.7838 -0.7415
 7908SOL    HW235184   3.557   2.913   0.031 -1.6840  0.7944 -0.2349
 7909SOL     OW35185   2.091   3.192   2.358 -0.2654  0.0757  0.1456
 7909SOL    HW135186   2.040   3.169   2.281 -0.3757 -1.6063  0.7189
 7909SOL    HW235187   2.167   3.237   2.321  0.4831 -3.1142 -2.2342
 7910SOL     OW35188   1.997   1.766   2.992  0.9683 -0.0667 -0.2702
 7910SOL    HW135189   1.996   1.770   3.088  2.2597  0.2798 -0.2716
 7910SOL    HW235190   1.942   1.693   2.965  0.4643 -0.3170  1.4656
 7911SOL     OW35191   1.049   4.246   8.035  0.1812 -0.5274 -0.1869
 7911SOL    HW135192   0.996   4.320   8.005  1.7880  0.3180 -0.9651
 7911SOL    HW235193   1.100   4.230   7.956 -2.1817  3.6060 -2.5361
 7912SOL     OW35194   3.513   3.797   5.132 -0.3464  0.0584  0.3138
 7912SOL    HW135195   3.506   3.704   5.111 -0.4203  0.0526  0.3646
 7912SOL    HW235196   3.433   3.816   5.181  0.8272  1.9571  1.5096
 7913SOL     OW35197   0.515   1.828   7.815  0.5968  0.1627 -0.1862
 7913SOL    HW135198   0.472   1.907   7.846 -1.5891 -0.7852 -0.7748
 7913SOL    HW235199   0.550   1.785   7.893  1.2419  1.5615  0.2959
 7914SOL     OW35200   4.591   0.045  10.679 -0.0182  0.4366 -0.2916
 7914SOL    HW135201   4.633   4.686  10.653 -0.6487  0.5532 -1.6372
 7914SOL    HW235202   4.499   0.024  10.667  0.3756 -2.1712  1.3451
 7915SOL     OW35203   0.757   0.605  14.293  0.0983  0.5734 -0.1988
 7915SOL    HW135204   0.795   0.534  14.345  1.8721  1.4120 -0.3153
 7915SOL    HW235205   0.664   0.589  14.305  0.3836 -0.7587  0.2148
 7916SOL     OW35206   2.869   2.286   2.184 -0.9077 -0.1749 -0.0838
 7916SOL    HW135207   2.843   2.205   2.227 -1.4897  0.3221  0.5077
 7916SOL    HW235208   2.948   2.261   2.137  0.4257  2.4111  0.7729
 7917SOL     OW35209   1.837   1.263   8.485  0.8289 -0.2920  0.4359
 7917SOL    HW135210   1.848   1.357   8.471  3.3100 -0.8694 -1.4904
 7917SOL    HW235211   1.742   1.265   8.497  0.8664  1.0860  0.5750
 7918SOL     OW35212   1.905   0.455   9.128 -0.1813 -0.0651 -0.1060
 7918SOL    HW135213   1.918   0.425   9.218 -2.4495  3.1124  1.3342
 7918SOL    HW235214   1.840   0.389   9.105 -1.9099  0.7418  2.4746
 7919SOL     OW35215   1.138   1.600   7.122  0.2624  0.1508 -0.3708
 7919SOL    HW135216   1.154   1.690   7.150  1.2548  0.3148 -1.4410
 7919SOL    HW235217   1.079   1.614   7.048 -0.0308 -1.0583 -0.3709
 7920SOL     OW35218   2.073   3.422  14.498  0.3018 -0.7326  0.3126
 7920SOL    HW135219   2.084   3.411  14.403 -0.1312 -1.5329  0.3574
 7920SOL    HW235220   2.095   3.332  14.518 -1.8719 -1.8142 -2.1508
 7921SOL     OW35221   1.245   2.324   0.706 -0.0838  0.1119 -0.6133
 7921SOL    HW135222   1.307   2.252   0.716 -2.6875 -2.2178 -1.3030
 7921SOL    HW235223   1.258   2.342   0.613  0.1983 -1.5273 -0.8938
 7922SOL     OW35224   4.383   1.640   1.982  0.5389 -0.2433 -0.4637
 7922SOL    HW135225   4.448   1.677   2.043  1.5936 -0.5540 -1.3920
 7922SOL    HW235226   4.315   1.621   2.046 -0.6280  0.6245 -1.4583
 7923SOL     OW35227   3.552   3.531  10.748  0.7165 -0.0553  0.8564
 7923SOL    HW135228   3.544   3.494  10.836  1.1469 -0.9706  0.5099
 7923SOL    HW235229   3.487   3.601  10.752 -1.7052 -2.3818  2.1664
 7924SOL     OW35230   3.918   2.065   9.161 -0.4990  0.2672 -0.4288
 7924SOL    HW135231   3.886   1.975   9.155  0.2901 -0.0500  0.0167
 7924SOL    HW235232   3.935   2.067   9.255 -1.4766  1.4221 -0.2899
 7925SOL     OW35233   2.877   3.015  10.210 -0.6099  0.7103  0.4204
 7925SOL    HW135234   2.874   3.033  10.303  1.0084  0.8492  0.4503
 7925SOL    HW235235   2.811   3.074  10.174 -2.0920  0.4894  2.7937
 7926SOL     OW35236   4.443   1.257  13.099 -0.4545 -0.3338  0.4467
 7926SOL    HW135237   4.421   1.329  13.040  1.2536  2.4970  3.3251
 7926SOL    HW235238   4.359   1.212  13.086 -0.5333  0.5876 -2.3172
 7927SOL     OW35239   2.564   4.681   5.317  0.3254 -0.7546 -0.3855
 7927SOL    HW135240   2.474   4.682   5.350  0.6250 -2.7540  0.5300
 7927SOL    HW235241   2.571   0.018   5.242 -2.4177 -0.0641 -0.0819
 7928SOL     OW35242   4.299   0.237  12.956  0.5199  0.1313  0.0488
 7928SOL    HW135243   4.341   0.240  12.869  0.5145  0.9339  0.0698
 7928SOL    HW235244   4.374   0.203  13.005 -0.2153 -1.6716 -0.1090
 7929SOL     OW35245   0.992   4.543  13.390  0.5698 -0.8572  0.1175
 7929SOL    HW135246   1.073   4.493  13.399  0.6080 -0.8493 -0.1917
 7929SOL    HW235247   0.951   4.541  13.477  0.3193  2.6022  0.0832
 7930SOL     OW35248   0.424   0.879   8.399 -0.2469  0.4900 -0.3999
 7930SOL    HW135249   0.440   0.787   8.419 -1.2214  0.5020  0.4296
 7930SOL    HW235250   0.485   0.918   8.462  2.3219 -0.4702 -2.2838
 7931SOL     OW35251   1.128   1.732  11.553 -0.5650 -0.0080  0.4819
 7931SOL    HW135252   1.179   1.666  11.601 -0.4765  0.1458  0.6028
 7931SOL    HW235253   1.042   1.691  11.552 -0.6643  0.2562 -0.9827
 7932SOL     OW35254   3.627   0.990   7.921 -0.1715 -0.3245 -1.0228
 7932SOL    HW135255   3.613   0.985   8.015 -0.5653  0.7582 -1.0240
 7932SOL    HW235256   3.677   1.071   7.913 -2.6402  1.3152  0.1915
 7933SOL     OW35257   0.811   3.880   5.619  0.1005  0.1053  0.2141
 7933SOL    HW135258   0.805   3.975   5.610 -1.4236 -0.0611 -0.4903
 7933SOL    HW235259   0.861   3.862   5.540 -1.0972 -1.2076 -0.2413
 7934SOL     OW35260   1.341   0.468   3.645 -0.2077  0.4203  0.3443
 7934SOL    HW135261   1.301   0.421   3.572  0.6741  0.6112 -0.2631
 7934SOL    HW235262   1.285   0.545   3.636 -0.1247  0.5186  0.6666
 7935SOL     OW35263   4.550   3.522   3.795  0.3644 -0.1035 -0.0529
 7935SOL    HW135264   4.521   3.513   3.705  0.0179  0.0460  0.0429
 7935SOL    HW235265   4.619   3.587   3.781  0.0509  0.7482  2.2210
 7936SOL     OW35266   3.292   1.087   8.660  0.3787  0.3210  0.2533
 7936SOL    HW135267   3.357   1.133   8.713 -1.4369 -0.7700  3.4272
 7936SOL    HW235268   3.251   1.159   8.612  0.2928 -0.3151 -0.6078
 7937SOL     OW35269   2.975   1.592  15.136  0.2511  0.3006  0.4691
 7937SOL    HW135270   3.015   1.675  15.162 -0.8617  0.7472  0.7594
 7937SOL    HW235271   2.888   1.595  15.177  0.1877 -1.5229  0.4446
 7938SOL     OW35272   2.627   0.685  14.161 -0.3646 -0.1955 -0.6212
 7938SOL    HW135273   2.560   0.630  14.121 -1.0612 -0.1612  0.4993
 7938SOL    HW235274   2.707   0.645  14.129 -0.5066  1.7483 -3.3959
 7939SOL     OW35275   0.850   2.713   8.561 -0.3287 -0.1837 -0.2350
 7939SOL    HW135276   0.813   2.712   8.649  0.1150  1.3750 -0.0279
 7939SOL    HW235277   0.851   2.619   8.544 -1.7226 -0.3024  0.3225
 7940SOL     OW35278   4.622   2.633   1.492  1.2500  0.6247 -0.2189
 7940SOL    HW135279   4.645   2.616   1.401  0.3764  2.7572 -0.8432
 7940SOL    HW235280   4.604   2.727   1.488  0.5681  0.5212  0.2721
 7941SOL     OW35281   3.621   2.212   3.702  0.1006  0.1116 -0.2445
 7941SOL    HW135282   3.598   2.304   3.712 -0.0318 -0.0508  0.8670
 7941SOL    HW235283   3.541   2.179   3.661  0.6724 -1.0202 -0.4579
 7942SOL     OW35284   2.277   2.432  11.682 -0.0213  0.3863  0.7193
 7942SOL    HW135285   2.213   2.371  11.647  1.1960  0.9586 -2.5085
 7942SOL    HW235286   2.256   2.522  11.655  0.0960  0.4872  0.9624
 7943SOL     OW35287   2.959   4.247  15.368 -0.2174 -0.2475 -0.3984
 7943SOL    HW135288   2.910   4.212  15.293 -0.3222 -0.0118 -0.4408
 7943SOL    HW235289   2.987   4.327  15.322 -0.5521  0.0176 -0.1401
 7944SOL     OW35290   0.225   0.531   0.902 -0.2111 -0.5774  0.4151
 7944SOL    HW135291   0.268   0.506   0.984 -1.4476  0.4054  1.3597
 7944SOL    HW235292   0.179   0.612   0.923  0.3471  0.2901 -1.6436
 7945SOL     OW35293   2.218   0.342   4.715 -0.1119  0.0701 -0.0120
 7945SOL    HW135294   2.191   0.251   4.729  1.7238 -0.3987  0.5046
 7945SOL    HW235295   2.140   0.369   4.667  0.8203  0.6559 -1.1768
 7946SOL     OW35296   4.679   0.594  11.173  0.2993  0.4117  0.3134
 7946SOL    HW135297   4.638   0.508  11.166 -0.3859  0.7584  0.0669
 7946SOL    HW235298   4.622   0.636  11.109  0.5013 -1.0282 -0.8241
 7947SOL     OW35299   2.125   2.405   3.025 -0.0342 -0.1465 -0.6360
 7947SOL    HW135300   2.138   2.444   2.939 -1.3478  2.6698  0.4324
 7947SOL    HW235301   2.207   2.357   3.033 -0.3938 -0.3853  1.6011
 7948SOL     OW35302   3.967   2.490  10.933 -0.0341 -0.4830 -0.2501
 7948SOL    HW135303   4.042   2.438  10.904 -0.4808 -1.4465  0.3021
 7948SOL    HW235304   3.989   2.503  11.025  1.5084 -0.3245 -0.6410
 7949SOL     OW35305   2.355   1.642   4.248 -0.0800 -0.4580 -0.1339
 7949SOL    HW135306   2.362   1.649   4.152  0.2439  0.5675 -0.0368
 7949SOL    HW235307   2.286   1.576   4.246  0.2132 -0.7843  0.7025
 7950SOL     OW35308   1.759   2.850   5.548 -0.0028  0.4294  0.0545
 7950SOL    HW135309   1.786   2.863   5.639 -0.0985 -0.4042  0.2000
 7950SOL    HW235310   1.668   2.829   5.566  0.0649  1.3702  1.5352
 7951SOL     OW35311   2.772   3.006   3.079  0.4878 -0.0901  0.0274
 7951SOL    HW135312   2.704   3.073   3.083  0.5842  0.1616 -2.4201
 7951SOL    HW235313   2.758   2.944   3.151 -1.8192  2.2069  1.5595
 7952SOL     OW35314   4.492   1.613  16.736 -0.2142 -0.1272 -0.7132
 7952SOL    HW135315   4.479   1.559  16.659  1.3673  0.1232 -1.1516
 7952SOL    HW235316   4.489   1.542  16.801  0.8573 -0.0372 -0.5672
 7953SOL     OW35317   1.956   4.484   6.623 -0.3805 -0.5710 -0.0505
 7953SOL    HW135318   1.875   4.469   6.671 -0.7651  0.4658 -0.3683
 7953SOL    HW235319   2.028   4.464   6.684 -0.3333 -0.2810 -0.0106
 7954SOL     OW35320   4.719   0.985   8.723  0.3715 -0.3863  0.3222
 7954SOL    HW135321   0.047   0.926   8.780  1.3257  0.6109  0.5121
 7954SOL    HW235322   0.060   1.004   8.654 -2.3440  0.7574 -1.8001
 7955SOL     OW35323   1.620   3.779  14.493 -0.1474  0.1479  0.3565
 7955SOL    HW135324   1.686   3.716  14.466  0.8113  0.1312  2.6768
 7955SOL    HW235325   1.663   3.801  14.576 -1.5927  1.1876  0.8425
 7956SOL     OW35326   1.664   1.023  12.465  0.1933 -0.1849  0.0774
 7956SOL    HW135327   1.628   1.102  12.504  0.1311  0.4556 -1.2832
 7956SOL    HW235328   1.661   0.958  12.536 -0.8388 -0.3467 -0.1239
 7957SOL     OW35329   3.867   1.684   8.568  0.5043  0.0313  0.0624
 7957SOL    HW135330   3.954   1.646   8.553  0.7134  0.3962  0.3390
 7957SOL    HW235331   3.876   1.753   8.634  0.8468 -1.1795  1.2925
 7958SOL     OW35332   0.453   2.737   0.291 -0.3943 -0.2113  0.7875
 7958SOL    HW135333   0.504   2.738   0.210 -0.2876  0.6919  0.8619
 7958SOL    HW235334   0.520   2.736   0.359 -0.2184 -0.3713  0.6092
 7959SOL     OW35335   2.114   1.885   9.012 -0.9538  0.2010 -0.0576
 7959SOL    HW135336   2.054   1.948   8.971  0.9092  1.1566 -1.3250
 7959SOL    HW235337   2.090   1.874   9.104 -2.6640  0.9148 -0.4291
 7960SOL     OW35338   3.957   1.675   2.206 -0.4916  0.1355  0.2176
 7960SOL    HW135339   3.925   1.651   2.293  0.9717 -2.6678 -0.0374
 7960SOL    HW235340   3.876   1.713   2.172  0.5990  1.9690 -0.3736
 7961SOL     OW35341   2.877   3.750  11.137 -0.4911 -0.7949 -0.4383
 7961SOL    HW135342   2.825   3.793  11.205  1.2588 -0.6739  0.8302
 7961SOL    HW235343   2.810   3.686  11.114 -0.7889 -0.2972 -0.9437
 7962SOL     OW35344   1.064   2.763   6.946 -0.0849  0.7803  0.3811
 7962SOL    HW135345   1.012   2.684   6.931  0.1931  0.5764  0.4871
 7962SOL    HW235346   1.070   2.807   6.861  2.0328 -0.2717 -0.0323
 7963SOL     OW35347   3.549   3.383   9.500 -0.3138 -0.2685  0.5254
 7963SOL    HW135348   3.639   3.367   9.474 -1.2022 -2.2918 -1.4193
 7963SOL    HW235349   3.560   3.369   9.594 -0.8628  0.6842  0.7298
 7964SOL     OW35350   4.320   3.055  13.211 -0.0045 -0.2002  0.2466
 7964SOL    HW135351   4.318   3.133  13.155  0.2025 -1.0592 -0.9494
 7964SOL    HW235352   4.370   2.996  13.155  2.4966  0.9047  1.3039
 7965SOL     OW35353   0.111   4.229   0.457  0.4007 -0.8564 -0.5702
 7965SOL    HW135354   0.128   4.296   0.523 -0.4451 -2.2059  1.0303
 7965SOL    HW235355   0.017   4.241   0.458  0.5771  0.4661 -0.3803
 7966SOL     OW35356   2.427   1.823  15.716 -0.0489  0.2724 -0.7145
 7966SOL    HW135357   2.359   1.863  15.662  0.9481  1.0315 -1.4232
 7966SOL    HW235358   2.503   1.875  15.691  0.3434 -0.2654 -0.6436
 7967SOL     OW35359   3.009   1.403   8.798 -0.1700 -0.7418  0.7298
 7967SOL    HW135360   3.081   1.377   8.857 -0.5244  0.9753  1.9158
 7967SOL    HW235361   2.940   1.428   8.859 -0.9064 -1.7139  0.2899
 7968SOL     OW35362   0.987   0.617   3.243 -0.2914 -0.0724 -0.1380
 7968SOL    HW135363   1.001   0.608   3.337  2.1799  0.0304 -0.4889
 7968SOL    HW235364   1.077   0.613   3.211  1.0603 -1.7256  3.8957
 7969SOL     OW35365   3.800   3.761  15.286 -0.3233 -0.6538 -0.0681
 7969SOL    HW135366   3.709   3.789  15.299 -0.4611  0.2516 -3.1188
 7969SOL    HW235367   3.805   3.691  15.352  3.2381  0.5216  0.9453
 7970SOL     OW35368   3.901   2.224   7.296  0.1118  0.3160 -0.3962
 7970SOL    HW135369   3.914   2.263   7.209 -1.0859  1.0175 -0.2683
 7970SOL    HW235370   3.818   2.178   7.284 -0.2448  1.5463 -2.7637
 7971SOL     OW35371   3.602   3.083  16.711 -0.0642 -0.2755 -0.1177
 7971SOL    HW135372   3.579   3.013  16.772 -1.8297  0.2709 -0.1587
 7971SOL    HW235373   3.690   3.100  16.745  0.4261  0.7811 -1.8977
 7972SOL     OW35374   2.778   1.771   1.798  0.5109 -0.2907  0.2873
 7972SOL    HW135375   2.795   1.820   1.717 -0.0627 -0.5334  0.0185
 7972SOL    HW235376   2.759   1.686   1.759 -0.9474  0.6029 -0.9807
 7973SOL     OW35377   4.331   2.872  11.958 -0.3351  0.4917  0.3244
 7973SOL    HW135378   4.327   2.799  11.896 -0.3893  2.2461 -1.7138
 7973SOL    HW235379   4.421   2.896  11.938 -0.4462  0.0808 -0.6901
 7974SOL     OW35380   2.269   3.477   9.412 -0.3697 -0.0096 -0.0784
 7974SOL    HW135381   2.317   3.417   9.355 -0.3360 -0.6478  0.6338
 7974SOL    HW235382   2.269   3.438   9.499 -1.2388 -0.3980 -0.2488
 7975SOL     OW35383   2.315   4.503   6.804 -0.1235 -0.2611 -0.1896
 7975SOL    HW135384   2.410   4.487   6.803 -0.2411 -0.8636 -2.2572
 7975SOL    HW235385   2.292   4.420   6.762 -1.4947 -0.1688  0.3940
 7976SOL     OW35386   3.694   1.572   3.028 -0.4478 -0.5763 -0.5485
 7976SOL    HW135387   3.676   1.490   3.075  0.7044 -0.8389 -0.5653
 7976SOL    HW235388   3.607   1.591   2.993 -0.9638 -1.0870  0.4443
 7977SOL     OW35389   3.446   4.436   7.417  0.2867 -0.3724  0.4233
 7977SOL    HW135390   3.442   4.341   7.423 -3.3194 -0.2735 -0.1676
 7977SOL    HW235391   3.514   4.460   7.481  0.4068 -1.4053  0.6814
 7978SOL     OW35392   0.972   0.810   4.724  0.6069  0.2926  0.7101
 7978SOL    HW135393   1.035   0.774   4.786  0.0692 -0.4314  0.8397
 7978SOL    HW235394   0.989   0.762   4.643  0.6120 -0.7945  1.3512
 7979SOL     OW35395   3.114   1.138   9.510 -0.2695  0.2346  0.8383
 7979SOL    HW135396   3.163   1.214   9.543  0.6754  0.2002 -0.4573
 7979SOL    HW235397   3.187   1.079   9.493  0.0336  0.5514  1.0555
 7980SOL     OW35398   1.916   0.345   3.461  0.2151 -0.0106  0.0928
 7980SOL    HW135399   1.919   0.345   3.365  2.3871  0.5480  0.1671
 7980SOL    HW235400   1.976   0.417   3.481  1.6195 -0.6528 -1.8113
 7981SOL     OW35401   4.383   2.712  11.706 -0.1466  0.0923 -0.0892
 7981SOL    HW135402   4.452   2.775  11.684  0.3666 -0.5354 -0.2635
 7981SOL    HW235403   4.417   2.658  11.777  1.6611  0.6984 -0.4908
 7982SOL     OW35404   2.921   3.334   4.885  0.0978 -0.3055 -0.5245
 7982SOL    HW135405   3.000   3.280   4.892 -0.6866 -1.1798  1.4253
 7982SOL    HW235406   2.888   3.299   4.967  0.4738 -0.1813 -0.3205
 7983SOL     OW35407   4.266   2.660  10.316 -0.3574  0.1977  0.6106
 7983SOL    HW135408   4.298   2.730  10.373 -1.0547  0.8238  0.2432
 7983SOL    HW235409   4.253   2.712  10.237  0.9311 -1.3102 -0.5837
 7984SOL     OW35410   2.854   0.114   3.322  0.0133  0.1173 -0.6497
 7984SOL    HW135411   2.943   0.100   3.356 -0.4933 -0.8780  0.2577
 7984SOL    HW235412   2.822   0.029   3.353  0.9881 -0.7700 -2.0829
 7985SOL     OW35413   1.338   3.753   1.126 -0.2031  0.2133 -0.4894
 7985SOL    HW135414   1.404   3.794   1.071  1.5311 -1.5969  0.2517
 7985SOL    HW235415   1.373   3.794   1.206  3.5649 -0.3972 -1.8190
 7986SOL     OW35416   4.616   2.173   4.885 -0.0624  0.3498 -0.3190
 7986SOL    HW135417   4.704   2.182   4.922 -0.4771 -2.2625  1.3084
 7986SOL    HW235418   4.618   2.253   4.832  1.4830  1.7802  1.9071
 7987SOL     OW35419   3.783   0.483   6.619 -0.0226  0.0326  0.3675
 7987SOL    HW135420   3.817   0.403   6.659  0.3472 -0.4890 -0.9969
 7987SOL    HW235421   3.740   0.519   6.696 -1.4624 -0.7036 -0.0873
 7988SOL     OW35422   3.343   0.613  10.461 -0.3340  0.8602  0.0327
 7988SOL    HW135423   3.250   0.636  10.453 -0.0207  1.7951 -0.9573
 7988SOL    HW235424   3.355   0.572  10.376 -2.1995 -0.3952  0.3756
 7989SOL     OW35425   0.774   0.919   7.348 -0.4041 -0.1373  0.0569
 7989SOL    HW135426   0.810   0.864   7.417 -1.4254  1.2062  1.6593
 7989SOL    HW235427   0.688   0.877   7.336  0.5175 -1.7526 -0.8712
 7990SOL     OW35428   0.477   1.096   7.483 -0.0791  0.0736  0.4261
 7990SOL    HW135429   0.406   1.106   7.419 -0.7326 -0.0860  1.1284
 7990SOL    HW235430   0.543   1.069   7.419  0.3301  0.6337  0.6077
 7991SOL     OW35431   0.194   0.453  14.303  0.3108  0.0056 -0.2053
 7991SOL    HW135432   0.100   0.435  14.310  0.4229 -0.4685  0.0874
 7991SOL    HW235433   0.230   0.418  14.385 -1.0892 -1.1899 -0.1152
 7992SOL     OW35434   0.267   4.502   7.119  0.1489 -0.2189 -0.6073
 7992SOL    HW135435   0.267   4.548   7.203  1.5345  0.4044 -0.9488
 7992SOL    HW235436   0.177   4.511   7.087 -0.7857  1.1830  2.3613
 7993SOL     OW35437   4.011   0.050   2.254 -0.2026 -0.6190  0.3406
 7993SOL    HW135438   3.992   0.037   2.161  0.7131 -0.6198  0.1457
 7993SOL    HW235439   4.034   4.683   2.278  0.8455 -0.3841  0.2243
 7994SOL     OW35440   1.485   2.503   1.878  0.0367 -0.0173 -0.2513
 7994SOL    HW135441   1.481   2.451   1.959  0.8645 -0.3245 -0.4132
 7994SOL    HW235442   1.416   2.563   1.909  1.6206  1.5677  0.1841
 7995SOL     OW35443   1.890   3.315   1.186  0.3634  0.1632  0.4242
 7995SOL    HW135444   1.982   3.293   1.175 -0.4823 -2.1719 -2.1982
 7995SOL    HW235445   1.892   3.408   1.167  1.8390  0.9545  4.4648
 7996SOL     OW35446   4.282   2.936   7.740 -0.5632  0.0265  0.7077
 7996SOL    HW135447   4.246   2.877   7.806 -0.0942 -0.4570  0.5379
 7996SOL    HW235448   4.210   2.999   7.738  1.5559  2.4376  2.3804
 7997SOL     OW35449   3.910   0.859   8.801 -0.2501 -0.1973  0.0903
 7997SOL    HW135450   3.873   0.947   8.793 -0.5577 -0.0957  2.7771
 7997SOL    HW235451   3.980   0.859   8.736 -1.3311 -0.9478 -1.0942
 7998SOL     OW35452   3.563   4.326  17.369  0.1725  0.0987  0.6169
 7998SOL    HW135453   3.509   4.278  17.306 -1.4074  1.0898  1.2329
 7998SOL    HW235454   3.607   4.385  17.307 -0.4891 -0.5421 -0.4709
 7999SOL     OW35455   0.186   1.862  14.572 -0.1636  0.1811 -0.0874
 7999SOL    HW135456   0.261   1.881  14.628  1.1653 -1.2099 -1.4130
 7999SOL    HW235457   0.128   1.821  14.637 -1.9952  0.2122 -1.6927
 8000SOL     OW35458   3.220   2.127   2.165 -0.2564 -0.1093 -0.8333
 8000SOL    HW135459   3.224   2.211   2.212  0.4349 -1.0786  0.8676
 8000SOL    HW235460   3.169   2.143   2.086  1.9382  0.5231 -2.1113
 8001SOL     OW35461   2.326   2.825   8.511  0.2089  0.1091  0.7517
 8001SOL    HW135462   2.331   2.784   8.598 -1.4230 -0.5814  0.5254
 8001SOL    HW235463   2.233   2.832   8.491 -0.0486 -3.5004  0.7228
 8002SOL     OW35464   1.483   4.063   2.711  0.5193 -0.2008  0.0604
 8002SOL    HW135465   1.546   4.120   2.666  3.3956 -1.6635  2.2542
 8002SOL    HW235466   1.405   4.114   2.689  0.8206 -0.2258 -1.0853
 8003SOL     OW35467   0.940   0.551  15.855  0.4548 -0.3688  0.2971
 8003SOL    HW135468   0.869   0.558  15.919  0.5148 -2.0907  0.5484
 8003SOL    HW235469   0.903   0.483  15.799  0.9634 -0.3200 -0.0926
 8004SOL     OW35470   3.319   1.001  13.042  0.5273 -0.2177  0.2955
 8004SOL    HW135471   3.396   0.960  13.004  1.0947  0.5872  0.5754
 8004SOL    HW235472   3.350   1.015  13.131 -1.3460 -2.4684  1.2988
 8005SOL     OW35473   1.347   0.962   9.294  0.0886 -0.2058  0.6377
 8005SOL    HW135474   1.271   0.921   9.334 -0.0128 -3.3479 -2.8629
 8005SOL    HW235475   1.416   0.958   9.361 -0.2439 -3.9225  0.7557
 8006SOL     OW35476   1.161   3.823  14.312  0.4445 -0.2268 -0.8329
 8006SOL    HW135477   1.180   3.773  14.391  1.7245 -1.9216 -2.1910
 8006SOL    HW235478   1.112   3.757  14.263 -0.3175 -0.0606 -0.2976
 8007SOL     OW35479   1.305   1.704   1.371  0.3117 -0.3494 -0.3529
 8007SOL    HW135480   1.333   1.633   1.314 -2.3677 -1.4559 -0.2831
 8007SOL    HW235481   1.252   1.753   1.309 -1.8496 -1.4712  0.5874
 8008SOL     OW35482   3.139   3.702  14.170  0.2657  0.3623 -0.2102
 8008SOL    HW135483   3.064   3.728  14.224 -1.0405 -1.2589 -1.2501
 8008SOL    HW235484   3.169   3.792  14.155 -1.6653  0.9924 -0.2923
 8009SOL     OW35485   1.996   1.830  17.663 -0.5656  0.0297  0.1901
 8009SOL    HW135486   2.021   1.775   0.046  1.5730 -1.1197 -1.3706
 8009SOL    HW235487   2.070   1.814  17.603 -0.9019  1.1892 -0.5299
 8010SOL     OW35488   4.547   1.632   3.003  0.3551  0.2712 -0.3248
 8010SOL    HW135489   4.576   1.557   3.055 -0.4193  1.3364  1.6161
 8010SOL    HW235490   4.626   1.669   2.963 -0.9913  2.0378 -1.3438
 8011SOL     OW35491   1.387   1.333   6.621 -0.9832 -0.4753  0.1163
 8011SOL    HW135492   1.310   1.335   6.678 -0.7588  0.5376  0.3794
 8011SOL    HW235493   1.347   1.279   6.553 -2.6377  2.2884 -1.1315
 8012SOL     OW35494   3.285   4.600   8.350 -0.4294  0.1201  0.3223
 8012SOL    HW135495   3.324   4.611   8.437 -2.2298 -1.5152  1.3116
 8012SOL    HW235496   3.351   4.542   8.311 -0.9899 -0.2831 -0.0150
 8013SOL     OW35497   4.017   2.453   4.300  0.5461 -0.0658 -0.1355
 8013SOL    HW135498   4.038   2.463   4.394 -4.0663 -2.1207  1.0860
 8013SOL    HW235499   4.041   2.360   4.299 -2.3336 -0.8162  0.6372
 8014SOL     OW35500   3.694   2.334  15.998  0.7786 -0.3605  0.0390
 8014SOL    HW135501   3.713   2.243  15.975 -1.8116 -1.1411  0.9272
 8014SOL    HW235502   3.778   2.347  16.042  0.9637  0.5753 -0.6067
 8015SOL     OW35503   3.092   3.897   2.618  0.6196  0.4258 -0.1450
 8015SOL    HW135504   3.078   3.939   2.703  1.1238  1.5371 -0.6092
 8015SOL    HW235505   3.010   3.922   2.575  0.4044  0.9493  0.5585
 8016SOL     OW35506   3.810   0.690   4.420 -0.0580 -0.6014 -0.3741
 8016SOL    HW135507   3.790   0.613   4.367  0.3942  1.2516 -3.2529
 8016SOL    HW235508   3.787   0.644   4.500  0.1475  1.5862  0.9544
 8017SOL     OW35509   2.076   1.113  16.452 -0.5793  0.0407 -0.2987
 8017SOL    HW135510   2.074   1.084  16.361 -0.5655 -1.9001  0.3142
 8017SOL    HW235511   2.004   1.176  16.458  1.0724  1.9609 -0.6013
 8018SOL     OW35512   1.112   0.607  11.412 -0.1174 -0.2870  0.2457
 8018SOL    HW135513   1.090   0.685  11.361  2.5335  1.3833  1.6391
 8018SOL    HW235514   1.137   0.558  11.334  0.2121 -1.2645  0.9541
 8019SOL     OW35515   4.522   4.000   7.965 -0.0150 -0.0002  0.0419
 8019SOL    HW135516   4.484   3.918   7.997 -0.3371  0.4233  0.7670
 8019SOL    HW235517   4.502   3.991   7.872  2.3198 -0.3926 -0.4083
 8020SOL     OW35518   1.124   3.270  14.665 -0.1269  0.3114 -0.3003
 8020SOL    HW135519   1.180   3.262  14.742 -1.1494  3.5696  0.8145
 8020SOL    HW235520   1.135   3.183  14.627  1.0665  1.1020 -1.7464
 8021SOL     OW35521   0.976   0.185   3.711 -0.2274 -0.3639 -0.9650
 8021SOL    HW135522   1.015   0.106   3.747  1.2554  0.3484 -1.0161
 8021SOL    HW235523   1.041   0.245   3.748 -0.7484 -0.1062 -0.4623
 8022SOL     OW35524   0.450   3.742   7.414  0.1535  0.2297  0.6550
 8022SOL    HW135525   0.376   3.798   7.389 -0.2006 -0.0068  1.1700
 8022SOL    HW235526   0.518   3.805   7.437 -1.5577  2.8637 -1.4994
 8023SOL     OW35527   2.329   2.722   8.806 -0.2208  0.3340 -0.0543
 8023SOL    HW135528   2.286   2.798   8.845 -0.6327 -0.8501  1.8052
 8023SOL    HW235529   2.408   2.725   8.859 -0.8129 -2.4112  1.0121
 8024SOL     OW35530   3.345   0.049   4.172  0.0510 -0.0261 -0.3982
 8024SOL    HW135531   3.272   0.108   4.153  2.1120  2.4012 -0.6460
 8024SOL    HW235532   3.394   0.034   4.091 -0.0997 -2.7175  0.0102
 8025SOL     OW35533   1.722   0.877  13.589  0.0924  0.0746 -0.1625
 8025SOL    HW135534   1.694   0.955  13.638 -0.1916  1.0356 -1.8760
 8025SOL    HW235535   1.742   0.899  13.498  1.6963  1.8495  0.6142
 8026SOL     OW35536   3.687   3.305   8.797  0.2696  0.1082  0.1895
 8026SOL    HW135537   3.636   3.262   8.727  0.0979  0.1787  0.2712
 8026SOL    HW235538   3.613   3.346   8.842 -0.2982 -2.3645  1.5235
 8027SOL     OW35539   4.361   1.344   3.168 -0.0746  0.2859 -0.1586
 8027SOL    HW135540   4.447   1.320   3.134 -0.2939  0.9092 -1.1621
 8027SOL    HW235541   4.324   1.391   3.094 -2.1398  1.3893  1.5878
 8028SOL     OW35542   3.875   3.607   4.020  0.3101  0.6928  0.2251
 8028SOL    HW135543   3.883   3.639   3.930 -4.2603  0.3911 -0.2599
 8028SOL    HW235544   3.902   3.516   4.004 -0.4394  1.0041 -2.8238
 8029SOL     OW35545   3.837   3.571  12.399  0.2539 -0.4031  0.6429
 8029SOL    HW135546   3.831   3.576  12.495 -0.3980 -0.8647  0.6296
 8029SOL    HW235547   3.932   3.560  12.396  0.3195 -0.5610  3.0798
 8030SOL     OW35548   4.480   0.375   3.327 -0.3584  0.2602  0.5850
 8030SOL    HW135549   4.542   0.302   3.319 -1.7446 -0.5214 -2.9782
 8030SOL    HW235550   4.396   0.330   3.326 -1.4848  2.3389  0.4757
 8031SOL     OW35551   0.978   3.705  11.981 -0.2566 -0.0259  0.2941
 8031SOL    HW135552   0.978   3.623  11.931  1.1525  0.5079 -0.5783
 8031SOL    HW235553   1.064   3.739  11.956 -1.9725  2.4280 -2.2384
 8032SOL     OW35554   0.980   2.345  10.315 -0.1425  0.4302  0.3269
 8032SOL    HW135555   0.916   2.416  10.320  1.8548  2.2674 -0.3444
 8032SOL    HW235556   0.954   2.285  10.385 -0.6017 -0.0048 -0.2200
 8033SOL     OW35557   1.003   1.059  14.239  0.5406  0.2985  0.4417
 8033SOL    HW135558   0.971   0.977  14.275  0.3942  0.6164  1.0416
 8033SOL    HW235559   1.024   1.041  14.148 -0.1666  1.4445  0.0430
 8034SOL     OW35560   3.569   4.603   6.490 -0.3618  0.0663  0.0276
 8034SOL    HW135561   3.495   4.575   6.543 -0.3810 -0.2520 -0.1666
 8034SOL    HW235562   3.534   4.687   6.459 -3.1914 -0.8270  0.8065
 8035SOL     OW35563   1.358   0.607   7.283 -0.8287  0.2911 -0.4900
 8035SOL    HW135564   1.406   0.644   7.209 -0.8954 -0.5004 -0.9286
 8035SOL    HW235565   1.427   0.605   7.350  0.3132 -0.0223 -1.6740
 8036SOL     OW35566   1.029   1.251   8.650  0.1359 -0.0381  0.0654
 8036SOL    HW135567   0.974   1.176   8.673 -0.0139  0.5661  1.6702
 8036SOL    HW235568   1.012   1.317   8.717  1.3811  0.1276  0.2107
 8037SOL     OW35569   3.507   4.641  11.587  0.8758 -0.6507  0.1626
 8037SOL    HW135570   3.595   4.675  11.601  1.1804 -0.8919 -1.1649
 8037SOL    HW235571   3.498   4.605  11.676  2.1577  1.8692  1.3068
 8038SOL     OW35572   1.588   2.622   4.508  0.1969 -0.1736 -0.5956
 8038SOL    HW135573   1.581   2.589   4.598  0.3082  1.0124 -0.1478
 8038SOL    HW235574   1.548   2.708   4.516 -2.7870 -1.5876 -0.1868
 8039SOL     OW35575   2.755   0.272   1.171  0.1545 -0.1327 -0.0602
 8039SOL    HW135576   2.816   0.209   1.207 -0.5173 -0.8211 -0.1242
 8039SOL    HW235577   2.776   0.283   1.078 -0.0580 -0.6420 -0.1664
 8040SOL     OW35578   2.679   1.204   3.769  0.2687  0.1157 -0.1241
 8040SOL    HW135579   2.595   1.170   3.737  0.6750  0.3821 -1.5017
 8040SOL    HW235580   2.741   1.140   3.734  0.3509  1.9858 -3.4061
 8041SOL     OW35581   0.071   3.628   3.657 -0.2278  0.0289  0.3606
 8041SOL    HW135582   0.142   3.691   3.662  0.5014 -1.0006  2.8083
 8041SOL    HW235583   0.035   3.656   3.573  0.5553 -0.0889 -0.0126
 8042SOL     OW35584   2.475   1.631  12.401 -0.1115 -0.3659  0.1963
 8042SOL    HW135585   2.524   1.614  12.320  0.8645  2.0180  0.2794
 8042SOL    HW235586   2.543   1.607  12.464  0.6286 -1.2724 -0.9487
 8043SOL     OW35587   0.953   4.582   8.938 -0.3489 -0.2928  0.4374
 8043SOL    HW135588   0.861   4.556   8.950 -1.0144  1.2914 -1.2338
 8043SOL    HW235589   1.001   4.500   8.934 -1.0166 -0.5543 -1.8213
 8044SOL     OW35590   3.030   4.171   0.864  0.1476 -0.4190 -0.2339
 8044SOL    HW135591   3.027   4.076   0.849 -3.8547 -0.4620  0.8034
 8044SOL    HW235592   2.937   4.192   0.877  1.0030  1.5367  2.4857
 8045SOL     OW35593   0.005   4.063   2.414 -0.0205 -0.0419  0.4143
 8045SOL    HW135594   0.034   4.151   2.438 -0.2993 -0.8930  3.8833
 8045SOL    HW235595   4.632   4.070   2.409  0.0997  1.2909  0.1881
 8046SOL     OW35596   2.555   1.798   5.233 -0.2412  0.4830 -0.0079
 8046SOL    HW135597   2.466   1.832   5.230  0.2439  1.6391 -1.0770
 8046SOL    HW235598   2.549   1.750   5.150 -1.8447 -0.3289  0.5913
 8047SOL     OW35599   0.928   2.588   6.529  0.2577 -0.4839  0.4859
 8047SOL    HW135600   0.845   2.589   6.577 -0.2471  1.4013 -0.4152
 8047SOL    HW235601   0.970   2.643   6.595  2.2634  0.0679 -1.2632
 8048SOL     OW35602   0.218   1.190  16.700 -0.3811 -0.4039 -0.4614
 8048SOL    HW135603   0.274   1.252  16.745 -0.6156 -1.6024  1.4690
 8048SOL    HW235604   0.128   1.223  16.702  0.4039  1.6033  1.6567
 8049SOL     OW35605   2.845   2.632   9.125 -0.1714  0.3361 -0.1659
 8049SOL    HW135606   2.813   2.722   9.123 -3.0029 -0.6456  0.1451
 8049SOL    HW235607   2.906   2.634   9.199  0.7847 -1.6403 -0.8986
 8050SOL     OW35608   4.434   3.311   2.880 -0.3136 -0.0333 -0.2244
 8050SOL    HW135609   4.434   3.371   2.805 -0.1597  0.2453  0.0003
 8050SOL    HW235610   4.502   3.258   2.839 -1.3912 -3.4591  2.5178
 8051SOL     OW35611   1.639   2.885   7.083  0.0183 -0.1453  0.1584
 8051SOL    HW135612   1.606   2.938   7.155 -1.6905 -0.1586 -0.6116
 8051SOL    HW235613   1.734   2.893   7.081 -0.0471  0.4798 -0.8275
 8052SOL     OW35614   2.124   2.634  11.552  0.4215  0.3579 -0.2796
 8052SOL    HW135615   2.098   2.544  11.532  2.9149 -0.3382 -0.3836
 8052SOL    HW235616   2.155   2.663  11.466 -0.3029  1.8504 -0.0394
 8053SOL     OW35617   3.987   2.374  16.103 -0.9117  0.3981 -0.1248
 8053SOL    HW135618   4.002   2.456  16.150  0.4745  0.6549 -0.9995
 8053SOL    HW235619   4.065   2.354  16.051 -0.6684  2.7115 -0.6644
 8054SOL     OW35620   0.941   0.289   4.971 -0.1687 -0.4468 -0.7783
 8054SOL    HW135621   0.929   0.282   5.066 -0.1477 -2.0388 -0.8989
 8054SOL    HW235622   0.854   0.261   4.941  0.5850 -2.0919 -1.4255
 8055SOL     OW35623   3.666   4.651  12.409 -0.2922 -0.5351  0.7707
 8055SOL    HW135624   3.712   4.646  12.326 -0.1781 -1.5516  0.8896
 8055SOL    HW235625   3.643   0.022  12.413 -3.7414 -1.4661  2.6284
 8056SOL     OW35626   1.888   2.032   8.603 -0.3738 -0.3643 -0.0675
 8056SOL    HW135627   1.918   2.120   8.581 -0.1844 -0.4460 -0.1314
 8056SOL    HW235628   1.933   1.976   8.540  1.5750  1.8443 -0.6145
 8057SOL     OW35629   1.731   2.455  13.602 -0.2102 -0.6617  0.0759
 8057SOL    HW135630   1.795   2.445  13.532 -0.8678  0.0009 -0.6178
 8057SOL    HW235631   1.721   2.550  13.605 -3.1519 -0.9478  0.0089
 8058SOL     OW35632   0.338   3.741   8.084  0.0685  0.2907 -0.2532
 8058SOL    HW135633   0.362   3.699   8.002 -0.6609  0.4839 -0.5638
 8058SOL    HW235634   0.261   3.687   8.106  0.6292 -0.5227 -0.2746
 8059SOL     OW35635   3.307   4.061   3.443 -0.6577 -0.6186  0.3122
 8059SOL    HW135636   3.347   4.064   3.356  1.5950 -1.9023  1.3078
 8059SOL    HW235637   3.386   4.059   3.497  0.7353 -0.3037 -1.6964
 8060SOL     OW35638   2.517   1.539   0.011 -0.1525 -0.4617 -0.3529
 8060SOL    HW135639   2.431   1.581   0.013  1.4462  2.8022  0.5491
 8060SOL    HW235640   2.506   1.460   0.063 -0.0674 -0.8963 -0.9949
 8061SOL     OW35641   2.255   0.465   9.999 -0.1833 -0.2739 -0.2772
 8061SOL    HW135642   2.255   0.376   9.964 -1.8067 -0.5036  0.2921
 8061SOL    HW235643   2.176   0.511   9.970 -0.1406  0.2453  0.4288
 8062SOL     OW35644   4.048   4.007   0.186  0.4875 -0.7914 -0.1442
 8062SOL    HW135645   4.140   4.006   0.213  0.8746  0.9781 -1.4502
 8062SOL    HW235646   4.023   4.099   0.194  0.7456 -0.7179 -0.1694
 8063SOL     OW35647   2.984   2.869   9.964  0.0139  0.0267  0.1229
 8063SOL    HW135648   2.978   2.917  10.047  1.0617  1.5871 -0.6936
 8063SOL    HW235649   2.894   2.880   9.932  0.4101  1.3322 -0.5422
 8064SOL     OW35650   4.627   3.566   3.402  0.5565 -0.3622 -0.0489
 8064SOL    HW135651   4.571   3.530   3.333  1.3836  0.0940 -0.9607
 8064SOL    HW235652   4.556   3.590   3.461  1.0103  0.0724  0.3180
 8065SOL     OW35653   4.190   3.443  17.423 -0.3606  0.5386  0.1794
 8065SOL    HW135654   4.206   3.525  17.470 -1.8635  0.1428  1.3705
 8065SOL    HW235655   4.099   3.446  17.393 -0.0349 -1.1073 -0.9787
 8066SOL     OW35656   4.646   0.556   8.032 -0.3164 -0.3371 -0.2470
 8066SOL    HW135657   4.708   0.484   8.046 -0.7303 -0.6158  0.1755
 8066SOL    HW235658   4.558   0.518   8.038 -0.3625 -0.3476 -1.0365
 8067SOL     OW35659   3.674   2.483  10.292 -0.1942  0.0869 -0.5234
 8067SOL    HW135660   3.663   2.458  10.200 -0.5736  0.2775 -0.5308
 8067SOL    HW235661   3.674   2.577  10.272 -1.3686 -0.1175 -1.5457
 8068SOL     OW35662   4.532   1.046   5.280  0.4607 -0.2668  0.4817
 8068SOL    HW135663   4.476   1.123   5.286 -3.6159 -3.3156  1.5305
 8068SOL    HW235664   4.520   1.013   5.191 -0.4664 -0.1129  0.5473
 8069SOL     OW35665   0.892   2.316   0.656 -0.5912 -0.3226  0.0470
 8069SOL    HW135666   0.862   2.326   0.747 -1.7240 -0.8345 -0.2740
 8069SOL    HW235667   0.960   2.251   0.673  0.9762  2.3328  4.1180
 8070SOL     OW35668   1.119   3.772   2.153  0.9419 -0.5099 -0.3286
 8070SOL    HW135669   1.188   3.836   2.136  1.0370 -0.7663 -0.8772
 8070SOL    HW235670   1.147   3.741   2.240  0.5005  0.8660  0.3107
 8071SOL     OW35671   2.430   4.209   7.074  0.3875 -0.0813 -0.2901
 8071SOL    HW135672   2.354   4.217   7.132  0.2416 -1.0186 -0.3541
 8071SOL    HW235673   2.398   4.271   7.008  1.0639 -0.8488 -1.3434
 8072SOL     OW35674   3.688   0.772   1.941  0.3326 -0.3695  0.3730
 8072SOL    HW135675   3.627   0.715   1.988 -1.1911  1.2577  0.4049
 8072SOL    HW235676   3.660   0.856   1.978 -0.3766 -0.6392  0.4586
 8073SOL     OW35677   4.363   1.778   9.418  0.3438 -0.6373  0.1734
 8073SOL    HW135678   4.348   1.705   9.479  0.2658 -1.4093 -0.7724
 8073SOL    HW235679   4.352   1.853   9.476 -0.7461 -1.7378  1.3852
 8074SOL     OW35680   3.937   0.509   8.593 -0.4856 -0.4778 -0.6452
 8074SOL    HW135681   3.927   0.555   8.510 -1.3903 -4.0046 -2.5127
 8074SOL    HW235682   4.030   0.523   8.613 -0.4915 -0.2903 -0.7587
 8075SOL     OW35683   3.697   0.807   8.378  0.1052  0.4020 -0.1533
 8075SOL    HW135684   3.638   0.871   8.338 -0.6053 -0.4215 -0.4378
 8075SOL    HW235685   3.636   0.759   8.434 -0.1139  1.6885  0.7054
 8076SOL     OW35686   1.315   3.143   1.140  0.2269 -0.5233 -0.3175
 8076SOL    HW135687   1.307   3.234   1.171 -1.1639 -0.2332 -1.5827
 8076SOL    HW235688   1.366   3.149   1.059 -0.4849  1.3957 -0.6140
 8077SOL     OW35689   2.928   0.672   6.591  0.1891 -0.0494 -0.1702
 8077SOL    HW135690   3.004   0.630   6.630 -0.1300  0.5055  1.0345
 8077SOL    HW235691   2.866   0.600   6.577 -0.4468  0.6184 -0.7726
 8078SOL     OW35692   3.729   3.924   4.473  0.1418 -0.5114 -0.0966
 8078SOL    HW135693   3.655   3.972   4.438 -0.4076  0.1340  1.9453
 8078SOL    HW235694   3.712   3.930   4.567  3.2772  0.2589  0.4504
 8079SOL     OW35695   4.014   0.088   1.386  0.5435  0.5786 -0.1613
 8079SOL    HW135696   4.086   0.092   1.448  0.3341 -0.8806  0.1850
 8079SOL    HW235697   4.051   0.134   1.311  0.8012  0.3788 -0.1592
 8080SOL     OW35698   2.354   0.274  17.342  0.3967 -0.1191 -0.5301
 8080SOL    HW135699   2.422   0.206  17.338  1.3602  0.8160 -0.0628
 8080SOL    HW235700   2.334   0.272  17.249 -1.4592  0.7504 -0.1619
 8081SOL     OW35701   3.360   2.036   5.548  0.3689  0.1114  0.1534
 8081SOL    HW135702   3.442   2.022   5.501  0.7089  0.9264  0.5116
 8081SOL    HW235703   3.338   2.126   5.523 -0.1672  0.9912  3.7826
 8082SOL     OW35704   2.754   0.919  12.090 -0.0724  0.6387  0.0547
 8082SOL    HW135705   2.788   1.009  12.092  0.8259  0.3337 -1.3020
 8082SOL    HW235706   2.812   0.868  12.033  0.7971  1.8938 -0.1784
 8083SOL     OW35707   2.119   0.846  10.430  0.5489 -0.0981 -0.3291
 8083SOL    HW135708   2.114   0.758  10.467 -2.2051  0.6149  0.9956
 8083SOL    HW235709   2.208   0.859  10.398 -0.1157 -1.0521 -2.5573
 8084SOL     OW35710   2.914   2.945   8.694  0.3159  0.0069 -0.6746
 8084SOL    HW135711   2.866   3.026   8.712 -0.9871 -0.8065 -0.4437
 8084SOL    HW235712   2.998   2.955   8.739  1.3216  1.1147 -2.8050
 8085SOL     OW35713   0.832   4.472  13.958 -0.2239 -0.4827  0.4281
 8085SOL    HW135714   0.870   4.441  14.040 -1.1234 -1.8217  0.3232
 8085SOL    HW235715   0.740   4.485  13.981 -0.9195 -2.4977 -1.2555
 8086SOL     OW35716   4.552   3.798   6.731  0.4376  0.0990  0.5212
 8086SOL    HW135717   4.513   3.710   6.724 -2.3162  1.2454  1.6375
 8086SOL    HW235718   4.580   3.808   6.640  1.2745 -1.8498  0.5500
 8087SOL     OW35719   2.052   2.741   0.113 -0.2322  0.0486  0.3108
 8087SOL    HW135720   2.072   2.647   0.105  0.4282  0.1522  0.7766
 8087SOL    HW235721   2.036   2.752   0.206  1.0001  0.2224  0.4997
 8088SOL     OW35722   4.257   0.913  17.487 -0.0303  0.3852 -0.0155
 8088SOL    HW135723   4.284   0.834  17.534 -2.4322  0.1433  0.9800
 8088SOL    HW235724   4.294   0.884  17.404  0.3417  1.9393 -0.3908
 8089SOL     OW35725   2.733   3.019  14.096 -0.2056  0.0400  0.0732
 8089SOL    HW135726   2.713   3.112  14.080 -0.5572  0.1201  0.9590
 8089SOL    HW235727   2.822   3.004  14.065 -0.1562 -2.1797  1.3159
 8090SOL     OW35728   0.801   3.189   6.889  0.3886 -0.1361 -0.1453
 8090SOL    HW135729   0.842   3.147   6.813 -3.9992 -0.6301 -2.2575
 8090SOL    HW235730   0.845   3.274   6.892  1.9360 -0.9690  0.9494
 8091SOL     OW35731   0.536   4.568   7.724  0.4113  0.4935  0.1126
 8091SOL    HW135732   0.454   4.518   7.729 -0.6827  2.3011  0.0834
 8091SOL    HW235733   0.586   4.519   7.658 -0.3403  0.4525 -0.4260
 8092SOL     OW35734   2.261   2.861   6.163  0.4435 -0.3994 -0.0343
 8092SOL    HW135735   2.347   2.827   6.139  0.8153  0.5322 -0.0163
 8092SOL    HW235736   2.289   2.952   6.168 -1.2736  0.2086 -1.4180
 8093SOL     OW35737   4.639   2.626   1.224  0.0454  0.0531  0.0069
 8093SOL    HW135738   4.636   2.546   1.171  1.3319 -0.5846  0.8930
 8093SOL    HW235739   4.586   2.681   1.166 -0.0210 -1.5691 -1.4695
 8094SOL     OW35740   3.042   1.043   2.469 -0.2166 -0.2052 -0.3828
 8094SOL    HW135741   3.009   0.959   2.437  0.9397 -0.2179 -1.5686
 8094SOL    HW235742   3.088   1.054   2.386  1.7215 -1.2305  0.5636
 8095SOL     OW35743   3.957   4.344  16.653  0.0205  0.4912 -0.4200
 8095SOL    HW135744   4.005   4.422  16.680 -0.8813  1.1860 -0.8073
 8095SOL    HW235745   3.994   4.281  16.714 -1.4932  1.3042  1.3449
 8096SOL     OW35746   3.424   2.687   1.438 -0.3428 -0.4848  0.3380
 8096SOL    HW135747   3.444   2.644   1.521  0.7516 -0.9040 -0.1379
 8096SOL    HW235748   3.510   2.690   1.395 -0.0350  1.8733  1.0925
 8097SOL     OW35749   0.911   1.091   5.428 -0.8398 -0.4514  0.0080
 8097SOL    HW135750   0.855   1.019   5.398  1.3455 -2.2252  0.2489
 8097SOL    HW235751   0.929   1.161   5.365 -0.4930 -0.1762  0.4116
 8098SOL     OW35752   1.007   1.851   8.014 -0.3182  0.1575 -0.1492
 8098SOL    HW135753   1.041   1.941   8.017 -0.1846  0.0819  0.7304
 8098SOL    HW235754   1.035   1.810   8.096 -3.6238  1.5555  1.7252
 8099SOL     OW35755   1.000   3.501   1.601  0.4353  0.1093 -0.8778
 8099SOL    HW135756   1.070   3.541   1.652 -0.6129  0.2137  0.4604
 8099SOL    HW235757   1.003   3.407   1.618 -1.8883  0.3557  0.8548
 8100SOL     OW35758   1.731   1.497  17.435 -0.1495  0.0045  0.0280
 8100SOL    HW135759   1.661   1.516  17.373 -1.5322 -0.0600  1.5467
 8100SOL    HW235760   1.810   1.502  17.381 -0.5001  1.2070 -0.3838
 8101SOL     OW35761   3.465   2.787  16.552 -0.2989  0.1002  0.5124
 8101SOL    HW135762   3.463   2.700  16.513 -1.0247  1.6858 -3.0007
 8101SOL    HW235763   3.379   2.819  16.522  0.6590  2.1294 -0.0564
 8102SOL     OW35764   0.999   2.105   4.607 -0.3894 -0.3687  0.1634
 8102SOL    HW135765   1.078   2.114   4.555 -0.1629  3.8071  1.2793
 8102SOL    HW235766   0.981   2.197   4.626  0.8036  0.0885 -0.9557
 8103SOL     OW35767   4.210   3.129   4.455  0.0657  0.0378  0.2261
 8103SOL    HW135768   4.235   3.135   4.547 -0.9938  3.1629  0.3291
 8103SOL    HW235769   4.121   3.093   4.460 -0.1853  0.9761  2.6308
 8104SOL     OW35770   2.373   1.447  11.469 -0.3806  0.3596  0.0639
 8104SOL    HW135771   2.396   1.433  11.561  0.2139 -2.7629 -0.5684
 8104SOL    HW235772   2.285   1.410  11.467 -0.1561 -0.1880  0.6007
 8105SOL     OW35773   2.622   3.249  12.784  0.1154  0.2682  0.0154
 8105SOL    HW135774   2.594   3.246  12.692  3.1442  3.0190 -0.9915
 8105SOL    HW235775   2.717   3.248  12.776  0.1048  0.7239 -0.1335
 8106SOL     OW35776   2.543   3.131   5.245  0.1199  0.1058  0.3890
 8106SOL    HW135777   2.453   3.163   5.235  0.2782  0.2741 -0.4762
 8106SOL    HW235778   2.549   3.151   5.339 -1.9659 -1.3727  0.8339
 8107SOL     OW35779   4.428   4.185   4.847 -0.4878 -0.1185 -0.1328
 8107SOL    HW135780   4.412   4.274   4.814  0.0761 -0.0634 -0.2749
 8107SOL    HW235781   4.423   4.197   4.942 -2.2460  1.3572 -0.4161
 8108SOL     OW35782   4.071   4.305   0.929 -0.0205  0.4287  0.2869
 8108SOL    HW135783   4.042   4.221   0.967 -2.3213  1.2974  0.4763
 8108SOL    HW235784   4.128   4.337   0.999  0.7286 -0.2662  0.0020
 8109SOL     OW35785   2.437   1.436   7.567  0.1631  0.3316 -0.2817
 8109SOL    HW135786   2.478   1.513   7.528 -1.6036  0.8538 -1.0754
 8109SOL    HW235787   2.361   1.417   7.513 -0.1772  0.9357 -0.0108
 8110SOL     OW35788   3.000   1.900   6.205  0.3515  0.4988  0.4118
 8110SOL    HW135789   3.080   1.900   6.151  0.3281  0.2189  0.3790
 8110SOL    HW235790   3.012   1.821   6.258  0.5921 -0.6472 -1.3478
 8111SOL     OW35791   2.743   3.944   7.413  0.1114 -0.5317 -0.2391
 8111SOL    HW135792   2.782   3.935   7.326  0.3115  2.5067 -0.4458
 8111SOL    HW235793   2.666   3.887   7.411 -1.5417  1.7107 -0.0346
 8112SOL     OW35794   3.685   3.222   7.379  0.0314  0.6116  0.1461
 8112SOL    HW135795   3.675   3.181   7.293  4.1678 -1.8545  0.8378
 8112SOL    HW235796   3.700   3.142   7.430 -1.2875  0.0804 -0.3134
 8113SOL     OW35797   2.124   2.535   4.128  0.0194  0.7074 -0.1625
 8113SOL    HW135798   2.213   2.507   4.106 -0.0037  0.6548 -0.1899
 8113SOL    HW235799   2.088   2.499   4.047  1.9158 -0.7565 -0.3411
 8114SOL     OW35800   2.227   2.036   0.112 -0.2490  0.1659  0.4599
 8114SOL    HW135801   2.195   2.126   0.119 -1.1686  0.0225 -1.7433
 8114SOL    HW235802   2.212   2.021   0.018 -1.0795 -0.0690  0.6272
 8115SOL     OW35803   1.963   3.775   3.325  0.2923  0.2595 -0.3165
 8115SOL    HW135804   1.908   3.853   3.325 -0.5463 -0.3113 -5.5751
 8115SOL    HW235805   1.933   3.721   3.252  1.3433 -2.7254  1.4680
 8116SOL     OW35806   1.908   3.622   5.232  0.1014  0.7987 -0.5268
 8116SOL    HW135807   1.907   3.705   5.183  2.1102  0.3832 -1.2684
 8116SOL    HW235808   1.860   3.649   5.311  0.5745  0.6434 -0.1834
 8117SOL     OW35809   2.627   0.840   2.618 -0.1259  0.4073  0.0564
 8117SOL    HW135810   2.584   0.763   2.657  0.2616  0.6706  0.9895
 8117SOL    HW235811   2.630   0.902   2.691  1.0662  2.6789 -1.9246
 8118SOL     OW35812   0.397   4.142   6.577  0.2088 -0.3150  0.3698
 8118SOL    HW135813   0.366   4.232   6.591  1.8417  0.3867 -0.5420
 8118SOL    HW235814   0.344   4.091   6.638  1.1126 -2.3147 -0.5306
 8119SOL     OW35815   4.048   3.124   4.159  0.4139 -0.3420  0.3349
 8119SOL    HW135816   4.098   3.043   4.164 -0.8410 -1.1636 -0.4370
 8119SOL    HW235817   4.012   3.131   4.247  0.5003 -1.5362  0.4589
 8120SOL     OW35818   2.350   2.569   6.859 -0.0898 -0.2396 -0.0159
 8120SOL    HW135819   2.423   2.598   6.803 -0.1522 -2.6217 -1.3439
 8120SOL    HW235820   2.333   2.487   6.813 -0.0478 -0.6688  0.7406
 8121SOL     OW35821   3.172   0.495   9.071 -0.0783  0.2675 -0.2840
 8121SOL    HW135822   3.252   0.442   9.071 -0.0593  0.2962  0.3555
 8121SOL    HW235823   3.131   0.460   9.150  0.8709 -1.5805 -0.6136
 8122SOL     OW35824   1.251   1.052   8.667  0.9066  0.8962 -0.4711
 8122SOL    HW135825   1.186   1.102   8.717  1.3906 -1.8651  2.9371
 8122SOL    HW235826   1.335   1.094   8.685  2.4407 -1.2243 -2.7138
 8123SOL     OW35827   3.910   1.709   2.898  0.5243 -0.2080  0.1766
 8123SOL    HW135828   3.839   1.663   2.942 -0.2126  1.3313  0.5993
 8123SOL    HW235829   3.980   1.646   2.914  0.2999 -0.3374  0.6264
 8124SOL     OW35830   3.548   1.381  13.213 -0.3334  0.3177 -0.4218
 8124SOL    HW135831   3.476   1.326  13.245  0.9447  0.2464  2.3529
 8124SOL    HW235832   3.550   1.450  13.280  0.1715 -0.4997  0.3974
 8125SOL     OW35833   3.997   2.392   6.346  0.5724  0.9746 -0.5795
 8125SOL    HW135834   4.009   2.430   6.433  0.7581  1.4585 -0.8206
 8125SOL    HW235835   4.083   2.352   6.332 -0.0535 -0.4603 -0.3552
 8126SOL     OW35836   3.745   2.865  16.819  0.0003 -0.6007  0.0826
 8126SOL    HW135837   3.803   2.807  16.770 -0.2992 -3.4605  3.1388
 8126SOL    HW235838   3.798   2.945  16.815 -1.4330  0.2085 -3.2934
 8127SOL     OW35839   4.538   2.948   5.184  0.2517 -0.4054  0.3556
 8127SOL    HW135840   4.543   2.949   5.089 -1.1197 -2.6549  0.2571
 8127SOL    HW235841   4.608   3.011   5.200  0.7681 -1.1965  1.2316
 8128SOL     OW35842   1.995   2.955   2.309 -0.2762  0.1707 -0.2374
 8128SOL    HW135843   1.932   2.971   2.379  2.5312  1.1214  2.0937
 8128SOL    HW235844   2.065   3.009   2.347 -0.6624 -0.3077  1.1509
 8129SOL     OW35845   2.510   4.354   9.736  0.8367  0.5416 -0.7745
 8129SOL    HW135846   2.601   4.381   9.740  0.7244  0.8039 -0.0733
 8129SOL    HW235847   2.506   4.315   9.823  1.9324  1.9012 -0.1196
 8130SOL     OW35848   3.864   3.842   5.896 -0.0105  0.5681 -0.6846
 8130SOL    HW135849   3.871   3.937   5.899  0.2146  0.4033  3.0089
 8130SOL    HW235850   3.814   3.823   5.816  0.1556  1.0935 -0.9139
 8131SOL     OW35851   3.217   2.954  10.478 -0.0430  0.3475 -0.4013
 8131SOL    HW135852   3.303   2.985  10.505  0.2356 -0.2962 -0.5571
 8131SOL    HW235853   3.211   2.876  10.533 -1.2881  0.3435 -0.5300
 8132SOL     OW35854   3.552   2.168   3.291  0.0162  0.0409 -0.0080
 8132SOL    HW135855   3.531   2.078   3.265 -1.9470  0.1655  1.1278
 8132SOL    HW235856   3.647   2.169   3.302  0.2446  0.6367 -2.1246
 8133SOL     OW35857   0.571   2.866   7.655 -0.2860  0.4985  0.2708
 8133SOL    HW135858   0.520   2.793   7.688 -0.2063  1.2834  2.1469
 8133SOL    HW235859   0.643   2.831   7.603 -1.8265 -1.8862 -0.2359
 8134SOL     OW35860   1.679   2.308   7.707  0.6483  0.5623 -0.0196
 8134SOL    HW135861   1.624   2.288   7.631 -2.5919  1.4058  2.0990
 8134SOL    HW235862   1.745   2.239   7.699 -0.0753 -0.2762  1.2171
 8135SOL     OW35863   0.486   2.784   4.467  0.5642  0.2350  0.5753
 8135SOL    HW135864   0.451   2.750   4.385  4.7151 -0.4710 -0.9278
 8135SOL    HW235865   0.521   2.868   4.435  0.1709  0.7660  1.5330
 8136SOL     OW35866   4.513   3.430   7.541  0.2467  0.4531  0.4602
 8136SOL    HW135867   4.515   3.350   7.488  0.7034  0.7425  0.0407
 8136SOL    HW235868   4.580   3.483   7.498 -0.2436  0.8399  0.1757
 8137SOL     OW35869   1.045   1.913  17.372 -0.0887 -0.3295  0.3455
 8137SOL    HW135870   1.012   1.986  17.425  1.5340  0.9134 -0.3720
 8137SOL    HW235871   1.106   1.953  17.311  0.8742 -1.1101  0.8090
 8138SOL     OW35872   3.998   3.911  12.123 -0.0600  0.4454 -0.6317
 8138SOL    HW135873   3.917   3.911  12.071 -0.7759  1.3346  0.4870
 8138SOL    HW235874   3.993   3.818  12.145 -0.7758  0.3623 -1.1463
 8139SOL     OW35875   2.526   0.670   8.070 -0.7627  0.1683 -0.3349
 8139SOL    HW135876   2.603   0.613   8.073 -0.3977  0.4691 -3.2031
 8139SOL    HW235877   2.458   0.610   8.101  1.0305 -1.1420  1.0517
 8140SOL     OW35878   4.078   0.150   6.899 -0.6066 -0.2814 -0.3617
 8140SOL    HW135879   4.160   0.142   6.850  1.2319 -2.1953  3.0836
 8140SOL    HW235880   4.109   0.094   6.969 -1.6076 -0.6196 -0.1776
 8141SOL     OW35881   0.088   3.628   0.462 -0.2239  0.1724  0.1040
 8141SOL    HW135882   0.046   3.712   0.478  0.2584  0.0221  2.1045
 8141SOL    HW235883   0.121   3.636   0.372 -2.7990 -2.2459 -1.0526
 8142SOL     OW35884   1.890   0.071   8.062  0.2384 -0.5682  0.3366
 8142SOL    HW135885   1.871   0.132   7.991  1.6089  0.7541  1.0973
 8142SOL    HW235886   1.971   0.110   8.095 -1.4446  2.2512  1.0121
 8143SOL     OW35887   4.554   0.289  15.876  0.4369  0.1271 -0.5211
 8143SOL    HW135888   4.563   0.195  15.864 -1.8980 -0.1434 -0.2700
 8143SOL    HW235889   4.496   0.281  15.952 -2.3988 -0.2919 -2.7010
 8144SOL     OW35890   1.222   3.679   3.316  0.2617  0.3345 -0.5310
 8144SOL    HW135891   1.255   3.605   3.366  0.3328  0.9227  0.2974
 8144SOL    HW235892   1.200   3.638   3.232  1.4873 -0.0139 -0.6777
 8145SOL     OW35893   3.653   1.443  11.082 -0.1536 -0.3653 -0.4499
 8145SOL    HW135894   3.669   1.432  10.989  0.9581 -1.3650 -0.1251
 8145SOL    HW235895   3.745   1.453  11.105 -0.1520  0.2529 -0.7234
 8146SOL     OW35896   2.900   2.330  15.685 -0.2571 -0.0739 -0.0799
 8146SOL    HW135897   2.949   2.254  15.716 -1.1357 -0.6840 -0.1649
 8146SOL    HW235898   2.947   2.341  15.602  1.3275  0.8748  0.9502
 8147SOL     OW35899   2.989   2.422   2.521 -0.0972  0.3829 -0.5989
 8147SOL    HW135900   3.049   2.484   2.480 -0.1505  0.3457 -0.7310
 8147SOL    HW235901   2.939   2.385   2.450  0.9251  0.1088 -1.1777
 8148SOL     OW35902   2.520   1.923  14.707 -0.3817  0.1017  0.4125
 8148SOL    HW135903   2.610   1.945  14.686 -0.7141  0.8446 -0.2103
 8148SOL    HW235904   2.544   1.865  14.780 -0.0638  0.9022  0.9468
 8149SOL     OW35905   0.063   1.746   4.693  0.4924  0.1681  0.1311
 8149SOL    HW135906   0.084   1.839   4.686 -0.5416  0.3828 -0.1473
 8149SOL    HW235907   0.149   1.711   4.712 -0.4259 -1.6364  0.9585
 8150SOL     OW35908   0.094   4.404   6.250 -0.0582 -0.7197 -0.4367
 8150SOL    HW135909   0.052   4.321   6.270 -0.2914 -0.0844  1.6930
 8150SOL    HW235910   0.183   4.386   6.280 -0.0605 -2.0495 -1.2033
 8151SOL     OW35911   3.392   1.106  11.918  0.5063  0.1430 -0.2606
 8151SOL    HW135912   3.324   1.166  11.950 -1.4999 -2.3141  0.1579
 8151SOL    HW235913   3.404   1.143  11.831 -2.4605  2.2350  0.1991
 8152SOL     OW35914   1.616   2.605   5.304  0.3874  0.0942 -0.6360
 8152SOL    HW135915   1.580   2.627   5.390 -0.4715  0.3754 -1.0630
 8152SOL    HW235916   1.568   2.670   5.252 -1.5599 -0.6677  0.1991
 8153SOL     OW35917   3.844   0.180   7.182 -0.1613  0.2058 -0.1548
 8153SOL    HW135918   3.823   0.212   7.270 -0.4849 -1.2526  0.2985
 8153SOL    HW235919   3.761   0.138   7.158  0.3159 -1.5069  1.2025
 8154SOL     OW35920   4.398   3.893   4.879  0.0681  0.4232  0.3914
 8154SOL    HW135921   4.489   3.881   4.908  0.1791 -2.6692 -1.2752
 8154SOL    HW235922   4.395   3.988   4.870 -0.2277  0.3299 -0.4512
 8155SOL     OW35923   2.574   1.500   1.324 -0.2417 -0.2558 -0.1489
 8155SOL    HW135924   2.504   1.516   1.387 -1.2385  0.7888 -1.5144
 8155SOL    HW235925   2.569   1.404   1.325 -1.4738 -0.1780  0.8769
 8156SOL     OW35926   1.820   1.852  16.438 -0.1176 -0.1706  0.2847
 8156SOL    HW135927   1.825   1.928  16.380 -1.1129 -1.1107 -1.0170
 8156SOL    HW235928   1.911   1.824  16.429  0.7901  2.9516 -0.3365
 8157SOL     OW35929   2.614   3.105   0.600 -0.3519  0.0744  0.0082
 8157SOL    HW135930   2.526   3.090   0.566 -0.5582 -0.9005  0.9933
 8157SOL    HW235931   2.614   3.199   0.580  3.6641 -0.1875 -1.3172
 8158SOL     OW35932   2.995   1.536   7.011 -0.1137  0.5818 -0.1338
 8158SOL    HW135933   3.001   1.448   7.047  0.3618  0.4853 -0.4497
 8158SOL    HW235934   3.058   1.578   7.070  0.2732 -1.9713  1.2366
 8159SOL     OW35935   3.648   3.811   2.002 -0.2105  0.2359 -0.4476
 8159SOL    HW135936   3.648   3.898   2.042 -1.3201 -0.2197  0.5134
 8159SOL    HW235937   3.562   3.808   1.960 -0.6371  0.7968  0.3793
 8160SOL     OW35938   2.763   4.071   4.093  0.1790  0.3090  0.1393
 8160SOL    HW135939   2.672   4.099   4.105  0.3065 -0.3113  2.4704
 8160SOL    HW235940   2.751   3.992   4.040  2.0353 -0.8828  1.5127
 8161SOL     OW35941   2.869   2.542   4.272  0.2713  0.0051  0.1210
 8161SOL    HW135942   2.958   2.568   4.250  0.4345 -0.0003  0.7809
 8161SOL    HW235943   2.825   2.593   4.203 -0.4985 -1.6058 -0.5690
 8162SOL     OW35944   3.493   2.941   2.588  0.0740 -0.1465  0.4462
 8162SOL    HW135945   3.519   2.850   2.577 -1.7280 -0.4244 -1.3980
 8162SOL    HW235946   3.537   2.997   2.524  0.5017 -0.6924  0.2626
 8163SOL     OW35947   2.679   3.694   7.710  0.0954  0.3129  0.7541
 8163SOL    HW135948   2.755   3.661   7.661 -1.1280 -0.9583 -0.2663
 8163SOL    HW235949   2.677   3.786   7.681 -0.1422  0.4374  1.1718
 8164SOL     OW35950   2.161   0.119   3.157 -0.4545 -0.3099  0.0818
 8164SOL    HW135951   2.225   0.165   3.211 -0.8795  0.4276 -0.0311
 8164SOL    HW235952   2.146   0.036   3.201 -0.8898  0.6710  1.7887
 8165SOL     OW35953   1.983   1.777   1.830  0.0528  0.0970  0.1606
 8165SOL    HW135954   1.888   1.772   1.836  0.0418 -0.2064 -0.2389
 8165SOL    HW235955   2.003   1.805   1.919 -1.4461  2.3497 -0.2191
 8166SOL     OW35956   1.430   3.842  17.480 -0.2313  0.1915  0.9302
 8166SOL    HW135957   1.525   3.829  17.483 -0.3617 -0.8381  0.6978
 8166SOL    HW235958   1.421   3.933  17.453 -0.5353  0.4548  1.8972
 8167SOL     OW35959   1.304   1.549  10.541  0.3960 -0.1403  0.4728
 8167SOL    HW135960   1.291   1.530  10.634  0.4327 -0.7811  0.3440
 8167SOL    HW235961   1.225   1.513  10.500 -0.9750  5.5416 -1.8673
 8168SOL     OW35962   2.869   0.805   0.909 -0.1393 -0.1941 -0.5300
 8168SOL    HW135963   2.861   0.867   0.837  1.0158 -1.2517 -1.5513
 8168SOL    HW235964   2.961   0.810   0.932 -0.0965  0.4152 -0.8386
 8169SOL     OW35965   4.676   1.503   7.025  0.0335 -0.0153  0.4616
 8169SOL    HW135966   0.019   1.466   7.084  0.5337  1.8085  1.0629
 8169SOL    HW235967   0.003   1.582   7.001  0.6457 -0.1813  1.1917
 8170SOL     OW35968   1.859   2.322  14.297 -0.4680  0.4003 -0.1569
 8170SOL    HW135969   1.818   2.330  14.211 -1.2205  0.0316  0.1729
 8170SOL    HW235970   1.792   2.325  14.365  1.0939 -0.5490  1.4200
 8171SOL     OW35971   0.350   2.750   4.186 -0.0628 -0.1279 -0.0222
 8171SOL    HW135972   0.264   2.787   4.167 -0.2842 -0.6712 -0.0551
 8171SOL    HW235973   0.323   2.659   4.197  0.1497 -0.6308 -3.5825
 8172SOL     OW35974   0.055   4.530   5.966  0.7813 -0.1493  0.0823
 8172SOL    HW135975   0.071   4.441   5.997  1.5082 -0.3881 -1.0021
 8172SOL    HW235976   0.138   4.577   5.974  0.6026  0.3776 -1.1229
 8173SOL     OW35977   1.953   4.211   8.968  0.2598 -0.1828 -0.1136
 8173SOL    HW135978   1.956   4.270   9.043 -1.9365 -0.9362  0.5804
 8173SOL    HW235979   1.860   4.210   8.945  0.3075 -0.3733 -0.2918
 8174SOL     OW35980   0.696   0.650   6.671 -0.5883  0.0320  0.3846
 8174SOL    HW135981   0.630   0.696   6.722 -0.2641  0.3167  0.5480
 8174SOL    HW235982   0.703   0.710   6.597  2.1823 -0.8260 -0.0619
 8175SOL     OW35983   2.757   3.903   3.876  0.1609  0.1190 -0.3607
 8175SOL    HW135984   2.738   3.966   3.806  0.7149  1.3945  0.6361
 8175SOL    HW235985   2.825   3.851   3.833  0.7070 -0.2194  0.8907
 8176SOL     OW35986   2.321   3.612   8.593 -0.4353 -0.1861 -0.9696
 8176SOL    HW135987   2.305   3.518   8.592  1.2503 -0.5070  1.6316
 8176SOL    HW235988   2.408   3.623   8.556 -0.9145  0.9394 -1.7813
 8177SOL     OW35989   3.018   2.936   4.383  0.2054 -0.5002  0.1554
 8177SOL    HW135990   3.096   2.923   4.438 -0.5017  2.4998  1.9019
 8177SOL    HW235991   3.057   2.914   4.299  1.1180  0.5351  0.3078
 8178SOL     OW35992   4.266   0.670  13.687 -0.4804  0.1647  0.4770
 8178SOL    HW135993   4.199   0.695  13.750 -0.1117  0.1576  0.8763
 8178SOL    HW235994   4.203   0.629  13.629  0.0465 -0.5539  0.4130
 8179SOL     OW35995   3.214   2.884  16.413 -0.3102 -0.1260  0.1130
 8179SOL    HW135996   3.121   2.906  16.419 -0.2100 -0.1663  1.9905
 8179SOL    HW235997   3.229   2.911  16.323 -0.4828 -1.6604 -0.3805
 8180SOL     OW35998   1.314   2.506   3.768  0.4893  0.0156  0.2259
 8180SOL    HW135999   1.371   2.575   3.735 -1.3466  1.2268 -0.4184
 8180SOL    HW236000   1.237   2.555   3.739  0.2373 -1.1262 -1.0537
 8181SOL     OW36001   2.833   2.253   4.038 -0.4009  0.2150  0.5608
 8181SOL    HW136002   2.812   2.261   4.131 -1.1811 -0.2462  0.4173
 8181SOL    HW236003   2.755   2.288   3.994  1.0030  0.0731 -2.0464
 8182SOL     OW36004   2.905   4.720   8.753 -0.2190  0.0167 -0.6308
 8182SOL    HW136005   2.871   4.703   8.841  0.7342  1.5597  0.0387
 8182SOL    HW236006   2.922   0.092   8.757 -2.3674  0.3307  1.0957
 8183SOL     OW36007   1.748   4.656   3.830  0.3153  0.0919 -0.7628
 8183SOL    HW136008   1.681   4.600   3.790  1.7880 -2.4268  0.2804
 8183SOL    HW236009   1.725   4.649   3.922 -1.8015  0.4302 -1.2729
 8184SOL     OW36010   3.919   2.884   6.102  0.1075 -0.2743 -0.3582
 8184SOL    HW136011   3.971   2.840   6.034  0.0196 -1.2383  0.2002
 8184SOL    HW236012   3.986   2.901   6.168 -0.4670 -0.8317  0.3654
 8185SOL     OW36013   2.949   2.425   5.919  0.3070 -0.2283  0.0661
 8185SOL    HW136014   2.957   2.395   5.829 -1.4769  0.5591 -0.3529
 8185SOL    HW236015   2.856   2.428   5.939  0.8902 -0.3692  2.8727
 8186SOL     OW36016   3.777   0.040   8.190 -0.1862 -0.3369 -0.2083
 8186SOL    HW136017   3.781   4.669   8.209 -1.8483 -0.1754  0.8787
 8186SOL    HW236018   3.855   0.045   8.134 -1.3572  3.8728 -1.4872
 8187SOL     OW36019   3.457   3.264   5.450 -0.4160  0.0229  0.4977
 8187SOL    HW136020   3.401   3.241   5.376  0.1835  0.8301 -0.2095
 8187SOL    HW236021   3.395   3.288   5.519 -2.4083  2.7378 -2.2382
 8188SOL     OW36022   3.709   4.516  16.603 -0.1656 -0.2905  0.3245
 8188SOL    HW136023   3.750   4.602  16.599  0.2064 -0.4833 -0.1330
 8188SOL    HW236024   3.791   4.465  16.608 -0.1269 -0.3927 -1.1481
 8189SOL     OW36025   3.980   2.640   3.396  0.3116 -0.1011 -0.2141
 8189SOL    HW136026   3.979   2.657   3.302  0.9984  2.2200  0.1786
 8189SOL    HW236027   3.974   2.727   3.436  1.9201 -0.9180  1.8011
 8190SOL     OW36028   3.441   1.462   4.549  0.6750  0.4176 -0.4274
 8190SOL    HW136029   3.463   1.409   4.473 -1.7113 -1.0030 -0.1297
 8190SOL    HW236030   3.348   1.441   4.558  0.9336 -1.1801 -1.5189
 8191SOL     OW36031   2.512   0.124   7.046  0.2698 -0.1064 -0.2556
 8191SOL    HW136032   2.509   0.034   7.078  2.8828 -1.0574 -2.6688
 8191SOL    HW236033   2.596   0.159   7.077  0.6717 -0.2289 -1.2049
 8192SOL     OW36034   1.399   3.995   8.389 -0.6492  0.1380 -0.1362
 8192SOL    HW136035   1.349   3.990   8.470 -0.8520  1.7455 -0.1617
 8192SOL    HW236036   1.325   3.986   8.329  0.6705  2.3874 -2.1014
 8193SOL     OW36037   2.358   3.238   7.075 -0.0779  0.0556 -0.5825
 8193SOL    HW136038   2.376   3.248   7.168  0.7575  1.7135 -0.9228
 8193SOL    HW236039   2.369   3.143   7.076 -0.4811  0.0267  1.7696
 8194SOL     OW36040   3.953   4.461   1.779  0.8726 -0.2281  0.3212
 8194SOL    HW136041   3.929   4.512   1.702  0.0165 -3.0013 -1.2414
 8194SOL    HW236042   3.936   4.373   1.747  1.7194 -0.0429 -0.6501
 8195SOL     OW36043   0.846   3.044   2.639 -0.0780 -0.1607  0.1296
 8195SOL    HW136044   0.826   2.954   2.614 -0.8892  0.0024  0.1914
 8195SOL    HW236045   0.898   3.074   2.565  0.6568 -0.6515  0.4501
 8196SOL     OW36046   3.665   0.224   4.306 -0.1433 -0.2470  0.3740
 8196SOL    HW136047   3.631   0.191   4.389 -1.7298 -0.0091 -0.1917
 8196SOL    HW236048   3.754   0.243   4.337 -0.4462  0.3856  0.8552
 8197SOL     OW36049   2.706   1.072  14.291 -0.0417 -0.2375 -0.0149
 8197SOL    HW136050   2.634   1.127  14.323 -1.4246 -2.4880  0.7406
 8197SOL    HW236051   2.682   1.074  14.198  0.8520  1.7918 -0.2153
 8198SOL     OW36052   4.593   2.920  11.862 -0.5082 -0.0057  0.1623
 8198SOL    HW136053   4.667   2.952  11.811 -0.4827 -0.9061 -0.3796
 8198SOL    HW236054   4.637   2.921  11.947  2.0947  1.6543 -1.2156
 8199SOL     OW36055   0.711   4.199   5.657  0.2330 -0.3819 -0.0650
 8199SOL    HW136056   0.766   4.210   5.734 -0.0579 -1.1645  0.2547
 8199SOL    HW236057   0.627   4.179   5.697 -0.4263 -1.0893 -1.7750
 8200SOL     OW36058   4.645   0.775   9.231  0.3593 -0.0641 -0.2778
 8200SOL    HW136059   4.591   0.750   9.157 -1.1362 -1.7392  1.3951
 8200SOL    HW236060   4.720   0.807   9.181  0.1357  0.5382 -0.2334
 8201SOL     OW36061   0.587   2.943   2.860  0.4035 -0.1963  0.8555
 8201SOL    HW136062   0.614   3.021   2.909 -0.2603  0.3577  0.3354
 8201SOL    HW236063   0.644   2.876   2.898  2.8782  0.8279 -1.0283
 8202SOL     OW36064   3.641   3.436  16.015 -0.3595  0.4792  0.1993
 8202SOL    HW136065   3.582   3.395  16.078 -1.4359 -0.0345 -1.1267
 8202SOL    HW236066   3.597   3.516  15.984 -2.2157 -0.6722 -0.1375
 8203SOL     OW36067   0.192   0.925   0.793 -0.7325 -0.0283 -0.2949
 8203SOL    HW136068   0.263   0.861   0.786 -0.3651  0.1645  1.6430
 8203SOL    HW236069   0.212   0.993   0.730  0.6392  1.5490  1.8344
 8204SOL     OW36070   3.547   4.158   4.393  0.1666  0.6191 -0.4236
 8204SOL    HW136071   3.506   4.241   4.370  0.2981  0.9193  0.4358
 8204SOL    HW236072   3.545   4.125   4.303 -1.0436 -1.3677  0.3125
 8205SOL     OW36073   0.774   3.725   3.505 -0.0106 -0.2210 -0.3738
 8205SOL    HW136074   0.809   3.814   3.509 -0.5220  0.0352 -1.6041
 8205SOL    HW236075   0.758   3.716   3.411 -0.2777  1.9994 -0.5287
 8206SOL     OW36076   1.015   4.629   6.667 -0.1597  0.2721 -0.2493
 8206SOL    HW136077   1.067   4.548   6.666 -1.7569 -0.7470 -0.3513
 8206SOL    HW236078   1.020   4.654   6.575  1.2683  0.9877  0.0254
 8207SOL     OW36079   3.150   0.809   0.931 -0.3390 -0.3154  0.5413
 8207SOL    HW136080   3.195   0.863   0.866 -1.3451  0.0035  0.1039
 8207SOL    HW236081   3.185   0.842   1.014  1.1319 -0.0782 -0.1667
 8208SOL     OW36082   3.789   1.506   9.089  0.0363 -0.2278 -0.3557
 8208SOL    HW136083   3.843   1.543   9.019  1.4294  0.8409  1.2956
 8208SOL    HW236084   3.840   1.526   9.167  1.5167 -3.7320 -0.4290
 8209SOL     OW36085   3.095   0.612   5.808 -0.1868 -0.1329 -0.1618
 8209SOL    HW136086   3.023   0.612   5.872 -0.2632 -1.1181 -0.2483
 8209SOL    HW236087   3.078   0.691   5.757 -1.5931  0.5765  1.3768
 8210SOL     OW36088   2.188   3.763   4.249  0.1079  0.0173 -0.1730
 8210SOL    HW136089   2.277   3.755   4.213 -0.0916 -3.0587  0.0418
 8210SOL    HW236090   2.173   3.674   4.279 -0.0218  0.2027  0.3145
 8211SOL     OW36091   1.538   0.942   3.356 -0.3237 -0.5255  0.0030
 8211SOL    HW136092   1.452   0.909   3.384  0.7734 -2.9632  0.4862
 8211SOL    HW236093   1.507   1.020   3.311  0.6367  0.0475  0.3349
 8212SOL     OW36094   1.655   1.869   7.735 -0.1894 -0.2240 -0.3448
 8212SOL    HW136095   1.585   1.929   7.709  0.3922 -0.7648 -3.1214
 8212SOL    HW236096   1.648   1.877   7.830  3.9355  1.8392 -0.2126
 8213SOL     OW36097   2.904   1.181   4.140 -0.2161 -0.2988  0.4355
 8213SOL    HW136098   2.934   1.214   4.225 -0.7230  3.2478 -0.7440
 8213SOL    HW236099   2.969   1.221   4.082  2.0559 -3.1818  1.0091
 8214SOL     OW36100   0.407   2.954   3.112 -0.6071  0.1631  0.0032
 8214SOL    HW136101   0.370   2.880   3.160  2.1737 -0.8852  0.5437
 8214SOL    HW236102   0.460   2.906   3.048 -2.2766  1.3592 -2.2586
 8215SOL     OW36103   1.251   2.567  15.012 -0.2199  0.0128 -0.2865
 8215SOL    HW136104   1.270   2.608  14.928  0.9466 -1.6211 -0.8243
 8215SOL    HW236105   1.199   2.632  15.060 -1.9454 -0.4369 -1.5620
 8216SOL     OW36106   4.406   4.314   9.251 -0.3499 -0.0942  0.3975
 8216SOL    HW136107   4.354   4.282   9.179 -1.7381  1.0375  0.8977
 8216SOL    HW236108   4.345   4.351   9.315 -0.5138  1.1853 -0.5087
 8217SOL     OW36109   2.472   1.960   0.042 -0.5966 -0.4423  0.5130
 8217SOL    HW136110   2.431   1.879   0.074 -2.2952  0.6086  0.9694
 8217SOL    HW236111   2.421   2.028   0.086 -1.8160 -0.8271 -0.3246
 8218SOL     OW36112   0.123   0.027   5.719  0.3946 -0.0110  0.2199
 8218SOL    HW136113   0.217   0.009   5.726  0.6965  0.9866 -1.4917
 8218SOL    HW236114   0.117   0.083   5.797 -0.1434 -1.2398  1.0658
 8219SOL     OW36115   2.449   2.913   5.771  0.3077 -0.3698  0.2024
 8219SOL    HW136116   2.363   2.887   5.739  0.9691  0.5741 -2.3484
 8219SOL    HW236117   2.434   2.966   5.849  0.7725  0.9395 -0.6011
 8220SOL     OW36118   2.272   4.214   6.429 -0.3690  0.1243 -0.0907
 8220SOL    HW136119   2.360   4.181   6.412 -0.4848  0.4770 -1.3524
 8220SOL    HW236120   2.262   4.274   6.355 -0.2743  1.0300  0.6291
 8221SOL     OW36121   1.014   0.745   2.707  0.2728  0.0787  0.1092
 8221SOL    HW136122   1.057   0.683   2.766 -0.9212  0.2502  1.1666
 8221SOL    HW236123   0.992   0.701   2.624 -0.0252 -0.9280  0.7199
 8222SOL     OW36124   0.134   4.265   8.470 -0.4019 -0.1827  0.4374
 8222SOL    HW136125   0.045   4.267   8.434 -1.4628  0.4320  3.1262
 8222SOL    HW236126   0.138   4.349   8.514 -1.0900  0.1157 -0.0702
 8223SOL     OW36127   3.852   3.356  14.879 -0.7150  0.4667  0.4268
 8223SOL    HW136128   3.878   3.443  14.848  0.4990  0.8825  2.5743
 8223SOL    HW236129   3.757   3.363  14.880 -0.6681  1.9714 -2.8591
 8224SOL     OW36130   2.840   0.101   5.709  0.2204  0.4670 -0.1602
 8224SOL    HW136131   2.907   0.052   5.757 -0.0813 -1.2261 -1.4792
 8224SOL    HW236132   2.902   0.142   5.650 -1.3759  2.2989 -0.5277
 8225SOL     OW36133   0.738   0.370   3.999 -0.4022 -0.1640 -0.5698
 8225SOL    HW136134   0.694   0.389   4.082  0.2559  2.6948 -0.8733
 8225SOL    HW236135   0.761   0.457   3.965  0.3912 -0.5299 -0.9677
 8226SOL     OW36136   1.905   2.624  16.836  0.2050  0.0686  0.3459
 8226SOL    HW136137   1.903   2.712  16.799 -1.0259 -0.1045  0.0318
 8226SOL    HW236138   1.829   2.576  16.803  0.1067  1.0752 -0.8478
 8227SOL     OW36139   1.866   2.443   4.661  0.0022  0.4543  0.2563
 8227SOL    HW136140   1.950   2.487   4.671 -0.9244  1.6744  2.6727
 8227SOL    HW236141   1.885   2.370   4.602  0.2212 -1.0797  2.2268
 8228SOL     OW36142   3.282   0.171   8.860  0.0639  0.0906  0.1004
 8228SOL    HW136143   3.309   0.211   8.943  0.5204  1.5831 -0.7531
 8228SOL    HW236144   3.239   0.097   8.902  1.7491 -0.6076  0.5903
 8229SOL     OW36145   1.709   3.040   5.971 -0.0975  0.5854 -0.3106
 8229SOL    HW136146   1.793   3.031   6.015  0.4604  1.2459 -1.2390
 8229SOL    HW236147   1.660   3.109   6.016  0.4934  1.5775 -1.1972
 8230SOL     OW36148   3.234   3.404  17.136  0.1242 -0.0729 -0.5695
 8230SOL    HW136149   3.160   3.423  17.078 -1.0125 -1.5077  0.3937
 8230SOL    HW236150   3.299   3.376  17.071 -0.8220 -0.4143 -1.3706
 8231SOL     OW36151   2.832   1.796  13.725  0.1997 -0.2782 -0.3214
 8231SOL    HW136152   2.918   1.798  13.767  0.3326  0.2999 -0.6235
 8231SOL    HW236153   2.845   1.706  13.694 -0.0562 -0.5618  0.3906
 8232SOL     OW36154   4.274   2.227   7.621  0.1471  0.0339 -0.0956
 8232SOL    HW136155   4.198   2.168   7.620  1.8239 -2.1314  0.9600
 8232SOL    HW236156   4.304   2.232   7.530 -1.1731  0.9791 -0.4946
 8233SOL     OW36157   4.187   4.195   8.073  0.4034 -0.2052 -0.4229
 8233SOL    HW136158   4.198   4.145   8.153  1.8853  2.1247  0.8185
 8233SOL    HW236159   4.093   4.180   8.061  0.3668 -1.5296  1.6697
 8234SOL     OW36160   3.977   1.624   4.803 -0.2134 -0.5244 -0.0753
 8234SOL    HW136161   3.932   1.569   4.868 -0.9454  0.0614 -0.0968
 8234SOL    HW236162   4.069   1.596   4.811 -0.5115 -1.6043 -0.4163
 8235SOL     OW36163   3.356   4.600  12.507  0.3385 -0.2992  0.3403
 8235SOL    HW136164   3.351   4.671  12.570  1.5864  1.1054 -1.1439
 8235SOL    HW236165   3.369   4.519  12.558  0.7515  1.4516  2.9920
 8236SOL     OW36166   2.239   4.300  15.239  0.0474  0.1959  0.0731
 8236SOL    HW136167   2.159   4.299  15.292  0.3316 -1.7211  0.4757
 8236SOL    HW236168   2.257   4.394  15.238  1.0952 -0.0075  0.1315
 8237SOL     OW36169   1.917   4.414   7.497 -0.0799 -0.2459  0.7806
 8237SOL    HW136170   1.951   4.350   7.434 -3.8490 -0.2543 -1.2458
 8237SOL    HW236171   1.900   4.368   7.579 -0.3764 -2.3728 -0.4679
 8238SOL     OW36172   1.685   0.721   8.425 -0.0686  0.2962  0.3276
 8238SOL    HW136173   1.638   0.659   8.368 -1.5318  0.6290  1.1541
 8238SOL    HW236174   1.619   0.704   8.493 -1.6494 -0.9592 -1.5042
 8239SOL     OW36175   1.034   1.200   6.678  0.2480  0.2251  0.0999
 8239SOL    HW136176   1.050   1.105   6.671  1.3228  0.3586  0.7096
 8239SOL    HW236177   0.939   1.186   6.672  0.3805 -0.5034 -0.3423
 8240SOL     OW36178   0.657   2.970   0.412  0.0962  0.2332 -0.2082
 8240SOL    HW136179   0.672   2.882   0.447 -2.9381  0.4560  1.6144
 8240SOL    HW236180   0.693   3.016   0.488 -1.6048  2.7417 -0.9197
 8241SOL     OW36181   4.543   3.970   4.242  0.3954  0.0786  0.0108
 8241SOL    HW136182   4.593   3.936   4.167 -2.7790  0.7269 -2.4115
 8241SOL    HW236183   4.611   4.007   4.298 -0.6465 -0.1931  1.4523
 8242SOL     OW36184   3.168   2.818   1.668  0.0397 -0.9278 -0.8392
 8242SOL    HW136185   3.136   2.785   1.753  1.1971 -2.2059 -0.8912
 8242SOL    HW236186   3.256   2.838   1.699 -0.1041 -0.8444 -0.4805
 8243SOL     OW36187   3.453   1.449   5.313  0.8089  0.1329 -0.2449
 8243SOL    HW136188   3.428   1.424   5.402  1.9299 -0.2081 -0.0225
 8243SOL    HW236189   3.537   1.402   5.317  1.1606  0.9800  2.4561
 8244SOL     OW36190   2.789   1.985  11.315 -0.0632 -0.6317 -0.5648
 8244SOL    HW136191   2.806   1.893  11.335  1.8149  0.0244  0.8032
 8244SOL    HW236192   2.713   2.000  11.373  1.0910 -0.1574  0.8319
 8245SOL     OW36193   3.255   4.633   1.438  0.2789  0.4921 -0.5720
 8245SOL    HW136194   3.191   4.648   1.507 -0.9316  0.6929 -1.7194
 8245SOL    HW236195   3.317   4.701   1.464  0.8120 -0.1583 -0.1570
 8246SOL     OW36196   4.369   1.541  15.501  0.9086 -0.2109 -0.2048
 8246SOL    HW136197   4.385   1.632  15.477  1.1920 -0.8498 -2.5297
 8246SOL    HW236198   4.456   1.513  15.529  0.6681 -1.5747 -0.8162
 8247SOL     OW36199   1.335   2.134  17.661 -0.0734 -0.6818 -0.3876
 8247SOL    HW136200   1.312   2.046   0.001  0.3081 -0.6474 -0.0074
 8247SOL    HW236201   1.252   2.173  17.631  0.9196  0.3159 -1.8106
 8248SOL     OW36202   1.869   1.995   3.978  0.1059  0.6994  0.4298
 8248SOL    HW136203   1.798   2.057   3.962 -0.8576 -0.3018  0.9194
 8248SOL    HW236204   1.941   2.051   4.009  0.6894  1.4210 -2.1824
 8249SOL     OW36205   4.656   3.581  17.032 -0.4276 -0.3038  0.0211
 8249SOL    HW136206   0.025   3.553  17.030 -1.2070 -2.8422  0.0668
 8249SOL    HW236207   4.654   3.605  17.124 -2.1723  3.0206 -0.8982
 8250SOL     OW36208   2.135   3.996   7.260 -0.4759  0.2626 -0.0444
 8250SOL    HW136209   2.215   4.040   7.288 -0.1974  0.9662 -1.9927
 8250SOL    HW236210   2.111   3.954   7.343 -2.2314  0.1656 -0.5875
 8251SOL     OW36211   1.077   3.784   7.073  0.1073  0.1525  0.4240
 8251SOL    HW136212   1.015   3.713   7.092 -0.7810  0.5258 -1.1124
 8251SOL    HW236213   1.143   3.764   7.140 -0.4944  3.1308  1.8946
 8252SOL     OW36214   0.926   4.530  14.976  0.4293  0.4893  0.1932
 8252SOL    HW136215   0.881   4.506  14.895 -0.1460 -0.2126  0.7125
 8252SOL    HW236216   0.960   4.618  14.963 -1.1022  0.9179 -0.9014
 8253SOL     OW36217   1.721   4.504   2.954 -0.5336 -0.5294  0.1367
 8253SOL    HW136218   1.740   4.592   2.985  0.9626 -0.1566 -1.8081
 8253SOL    HW236219   1.747   4.456   3.033  0.6165 -2.3045 -1.3178
 8254SOL     OW36220   1.207   3.131   4.319 -0.2078 -0.2171  0.2383
 8254SOL    HW136221   1.275   3.149   4.383 -1.1282  2.1425  0.5310
 8254SOL    HW236222   1.196   3.208   4.264 -3.9810 -0.0825  1.1924
 8255SOL     OW36223   0.315   3.433   0.956  0.1531  0.5149 -0.2405
 8255SOL    HW136224   0.408   3.440   0.934 -0.0003 -0.3115 -1.1839
 8255SOL    HW236225   0.275   3.476   0.880 -0.6908 -0.1380 -0.1653
 8256SOL     OW36226   3.220   1.891   7.858  0.6716  0.2977 -0.0415
 8256SOL    HW136227   3.148   1.829   7.871  1.4409 -0.6477 -0.2748
 8256SOL    HW236228   3.290   1.830   7.879 -0.3821 -0.5246  1.0890
 8257SOL     OW36229   0.650   2.760   4.952 -0.1959  0.0845  0.2525
 8257SOL    HW136230   0.744   2.778   4.950 -0.0483 -0.7251 -0.3280
 8257SOL    HW236231   0.633   2.783   4.860 -0.9696 -0.7459  0.1869
 8258SOL     OW36232   3.528   4.631   4.579 -0.0569 -0.0560  0.3139
 8258SOL    HW136233   3.486   4.563   4.632  1.3946  0.1501  1.7444
 8258SOL    HW236234   3.453   4.638   4.521 -1.0730 -1.4857  1.4523
 8259SOL     OW36235   2.546   2.476   4.655 -0.0287  0.1260  0.1031
 8259SOL    HW136236   2.519   2.392   4.618  0.8004  0.4422 -1.2174
 8259SOL    HW236237   2.599   2.505   4.581 -0.5580  0.4786 -0.1362
 8260SOL     OW36238   3.521   2.441  16.744 -0.3594  0.5439 -0.2488
 8260SOL    HW136239   3.447   2.384  16.725  1.1712 -0.9076 -1.7896
 8260SOL    HW236240   3.477   2.515  16.786 -2.5165 -0.6852 -0.3486
 8261SOL     OW36241   2.069   4.159   3.412 -0.2720 -0.2393 -0.0983
 8261SOL    HW136242   2.096   4.198   3.329 -1.6298 -1.3016 -1.0271
 8261SOL    HW236243   2.038   4.075   3.379  3.0088 -0.7114 -1.9353
 8262SOL     OW36244   0.820   2.691  12.377  0.5604  0.3003 -1.0866
 8262SOL    HW136245   0.791   2.619  12.320  1.0894 -0.7946  0.0142
 8262SOL    HW236246   0.735   2.717  12.411  1.1131 -0.2947  0.7607
 8263SOL     OW36247   0.863   3.053  17.264  0.4288  0.0574 -0.9652
 8263SOL    HW136248   0.834   3.143  17.253  0.2141  0.1132  0.0449
 8263SOL    HW236249   0.782   3.006  17.282  1.3035 -1.1243 -0.0463
 8264SOL     OW36250   4.336   0.165   8.110  0.2541  0.0852  0.1145
 8264SOL    HW136251   4.241   0.157   8.097  0.4057  0.7448 -1.4321
 8264SOL    HW236252   4.365   0.077   8.132  1.7174  0.2105 -1.2717
 8265SOL     OW36253   0.831   4.682   3.612  0.2257  0.0175 -0.5186
 8265SOL    HW136254   0.792   4.694   3.525 -2.1561  0.7651  0.6655
 8265SOL    HW236255   0.862   0.046   3.641  1.6063 -0.2861 -1.0847
 8266SOL     OW36256   2.803   4.509  14.004 -0.2274  0.7155 -0.3381
 8266SOL    HW136257   2.874   4.513  13.941  0.5050  0.3647  0.4672
 8266SOL    HW236258   2.822   4.579  14.067 -2.7807  0.7052  0.4797
 8267SOL     OW36259   2.190   3.594   1.574 -0.0183 -0.4271 -0.0272
 8267SOL    HW136260   2.237   3.526   1.526 -2.3286 -2.8596  1.2104
 8267SOL    HW236261   2.262   3.648   1.608 -0.4465  0.5375 -0.6584
 8268SOL     OW36262   4.007   4.564  17.019  0.7164  0.3283 -0.4061
 8268SOL    HW136263   3.916   4.584  17.040  0.6676  1.7044 -1.9688
 8268SOL    HW236264   4.056   4.564  17.101 -0.4392 -1.7539  0.2917
 8269SOL     OW36265   1.331   0.098   4.702 -0.3312 -0.3209 -0.7086
 8269SOL    HW136266   1.277   0.019   4.704  1.4634 -1.4723  2.2496
 8269SOL    HW236267   1.273   0.174   4.701  0.6183  0.3967 -1.9008
 8270SOL     OW36268   1.134   0.455   1.233 -0.1887  0.4448 -0.4295
 8270SOL    HW136269   1.090   0.515   1.173  0.1638  1.0700 -0.0650
 8270SOL    HW236270   1.221   0.488   1.212  0.9021 -3.2973 -1.7949
 8271SOL     OW36271   2.773   4.190   5.177 -0.1038  0.0298  0.2604
 8271SOL    HW136272   2.759   4.283   5.195  0.4965 -0.0876  1.3412
 8271SOL    HW236273   2.819   4.192   5.093 -0.0704  1.3864  0.3191
 8272SOL     OW36274   2.068   1.918  16.082  0.0130 -0.2063 -0.1711
 8272SOL    HW136275   2.133   1.946  16.146 -2.5902  3.1945  0.9864
 8272SOL    HW236276   2.098   1.966  16.004  0.6018  0.9727  0.7779
 8273SOL     OW36277   1.702   1.599  16.403 -0.2150  0.2452  0.2634
 8273SOL    HW136278   1.723   1.691  16.418  0.2975  0.2790 -0.7362
 8273SOL    HW236279   1.721   1.563  16.490  1.3250  0.7211  0.1083
 8274SOL     OW36280   2.187   0.901   9.251  0.8672 -0.3648 -0.2136
 8274SOL    HW136281   2.163   0.820   9.296  3.0440 -1.6560 -1.3842
 8274SOL    HW236282   2.280   0.888   9.234  0.6872 -1.5684 -0.2500
 8275SOL     OW36283   1.339   2.184   1.670  0.2424  0.5478 -0.3456
 8275SOL    HW136284   1.355   2.115   1.606 -2.7257 -1.8681  1.5243
 8275SOL    HW236285   1.425   2.222   1.692 -1.2545  2.2375  2.5520
 8276SOL     OW36286   2.619   0.857  14.407 -0.1223  0.2587  0.2788
 8276SOL    HW136287   2.663   0.935  14.373  0.7458 -0.3265  0.0456
 8276SOL    HW236288   2.638   0.793  14.338 -0.8517 -0.4661  0.7428
 8277SOL     OW36289   3.812   0.504  13.620  0.6442 -0.4206  0.0575
 8277SOL    HW136290   3.720   0.485  13.600  0.4290  1.1851 -0.5011
 8277SOL    HW236291   3.804   0.581  13.675 -0.2623  0.0923 -0.7856
 8278SOL     OW36292   3.066   0.549   2.263  0.3070  0.2799 -0.0110
 8278SOL    HW136293   3.142   0.530   2.209  1.8007 -1.2333  2.6515
 8278SOL    HW236294   3.046   0.460   2.294  0.1165 -0.2877 -1.8136
 8279SOL     OW36295   0.056   3.876   2.724  0.4824  0.4101  0.1844
 8279SOL    HW136296   4.694   3.915   2.746 -0.8733 -1.1502 -2.2929
 8279SOL    HW236297   0.117   3.916   2.786  2.0559  0.3147 -1.3210
 8280SOL     OW36298   3.030   4.505   7.341 -0.3658  0.0516  0.6677
 8280SOL    HW136299   2.965   4.487   7.273 -0.6889  2.9383  0.1737
 8280SOL    HW236300   2.994   4.591   7.364 -2.6948 -0.2057 -2.1150
 8281SOL     OW36301   4.432   2.782   1.033  0.6917  0.1518  0.0465
 8281SOL    HW136302   4.443   2.742   0.947  0.0604  1.1197 -0.4804
 8281SOL    HW236303   4.444   2.872   1.002  2.5910 -0.1843 -0.2330
 8282SOL     OW36304   3.570   3.720  11.847  0.4282 -0.1790  0.6069
 8282SOL    HW136305   3.652   3.738  11.893  1.6401  1.1327 -2.0303
 8282SOL    HW236306   3.518   3.801  11.852  1.0083  0.2790 -0.6712
 8283SOL     OW36307   3.463   4.410   7.784  0.0574 -0.1501 -0.3813
 8283SOL    HW136308   3.444   4.460   7.864 -0.0860  0.2148 -0.6438
 8283SOL    HW236309   3.395   4.343   7.781  0.3294 -0.3496 -1.9723
 8284SOL     OW36310   2.657   2.393   5.346 -0.2508 -0.1744  0.0050
 8284SOL    HW136311   2.696   2.480   5.338 -0.9356 -0.0533 -1.9539
 8284SOL    HW236312   2.580   2.406   5.291  0.6787  0.3978 -1.1520
 8285SOL     OW36313   2.306   2.611   6.392  0.3708  0.2814  0.8555
 8285SOL    HW136314   2.272   2.675   6.455 -2.4523  1.7851 -2.2038
 8285SOL    HW236315   2.364   2.566   6.453  0.3538 -0.6251  0.2034
 8286SOL     OW36316   0.653   3.996   7.004  0.5336 -0.4111 -0.1547
 8286SOL    HW136317   0.574   4.003   7.059  0.1949 -0.2753 -0.6543
 8286SOL    HW236318   0.719   3.991   7.073  0.0390 -0.2781  0.3327
 8287SOL     OW36319   4.012   0.568   2.899 -0.1719 -0.1886  0.2238
 8287SOL    HW136320   3.952   0.579   2.973  0.6471 -0.2249  0.9026
 8287SOL    HW236321   4.097   0.588   2.939 -0.3150 -0.6669  0.7804
 8288SOL     OW36322   2.069   2.030   3.032 -0.2694  0.0962  0.5379
 8288SOL    HW136323   2.148   1.993   3.072  0.2939 -0.5357 -1.1970
 8288SOL    HW236324   2.044   1.944   3.000  0.2634 -0.0242  0.4390
 8289SOL     OW36325   0.857   2.578   5.551 -0.1239 -0.2410  0.1042
 8289SOL    HW136326   0.869   2.515   5.480 -1.0716 -1.3511  0.9090
 8289SOL    HW236327   0.883   2.525   5.627 -1.0965 -0.8081  0.0516
 8290SOL     OW36328   1.709   3.677   7.341  0.4829  0.0005  0.0241
 8290SOL    HW136329   1.696   3.586   7.316  0.5567 -0.1997  0.7080
 8290SOL    HW236330   1.790   3.671   7.393 -0.1267  0.1510  0.9772
 8291SOL     OW36331   0.468   2.521   5.896 -0.4270 -0.2244 -0.1451
 8291SOL    HW136332   0.527   2.522   5.971  0.1334 -1.3297 -0.5753
 8291SOL    HW236333   0.495   2.453   5.835 -1.5130  0.8503 -1.8023
 8292SOL     OW36334   3.528   1.977  17.658  0.2591  0.6024 -0.4476
 8292SOL    HW136335   3.446   1.979  17.609 -1.3753  1.0779  2.3059
 8292SOL    HW236336   3.522   2.029   0.047 -4.3488 -0.4501 -0.1446
 8293SOL     OW36337   0.462   1.653   8.427 -0.6594  0.3692 -0.1883
 8293SOL    HW136338   0.426   1.673   8.341  1.4582 -0.6076 -1.2810
 8293SOL    HW236339   0.549   1.625   8.399 -0.8813  0.7194 -1.2254
 8294SOL     OW36340   2.461   2.196   1.652 -0.0386  0.1486 -0.9684
 8294SOL    HW136341   2.554   2.175   1.662 -0.6210 -1.4774  0.8567
 8294SOL    HW236342   2.459   2.215   1.558 -1.1371  0.9246 -0.7861
 8295SOL     OW36343   0.866   4.601   8.254 -0.7308  0.2281  0.0316
 8295SOL    HW136344   0.871   4.508   8.272 -1.2284  0.2296  0.1842
 8295SOL    HW236345   0.946   4.600   8.202 -1.1515  1.0942 -0.6303
 8296SOL     OW36346   4.664   3.343   0.317 -0.0076 -0.3178  0.1032
 8296SOL    HW136347   4.700   3.395   0.246  0.4693 -0.3284  0.3399
 8296SOL    HW236348   4.703   3.257   0.304  0.6543  0.1530 -1.0114
 8297SOL     OW36349   0.132   3.146   3.523  0.1998  0.0519 -0.0632
 8297SOL    HW136350   0.052   3.141   3.575 -0.3111 -0.6401 -0.9133
 8297SOL    HW236351   0.094   3.151   3.436  0.1817 -1.8884 -0.1525
 8298SOL     OW36352   1.882   4.322   1.796  0.3624  0.0044  0.2261
 8298SOL    HW136353   1.814   4.274   1.844  0.3031 -1.4055 -1.2474
 8298SOL    HW236354   1.819   4.363   1.736  0.6105  0.5404  0.3294
 8299SOL     OW36355   1.466   1.549  17.304 -0.4414 -0.4637  0.2242
 8299SOL    HW136356   1.486   1.637  17.272 -0.3948 -0.2397  0.8803
 8299SOL    HW236357   1.460   1.490  17.228 -1.2626  0.4259 -0.4131
 8300SOL     OW36358   2.592   0.255   0.834  0.3585 -1.0200 -0.4323
 8300SOL    HW136359   2.678   0.295   0.845 -0.8171  1.4107 -0.0048
 8300SOL    HW236360   2.545   0.324   0.786 -1.1165 -0.7680  1.3762
 8301SOL     OW36361   3.651   1.006  16.605 -0.0615 -0.2852  0.0940
 8301SOL    HW136362   3.699   1.048  16.677 -1.7819 -0.5069  1.3821
 8301SOL    HW236363   3.562   1.023  16.637  0.5799  1.3924  0.9901
 8302SOL     OW36364   1.308   0.215   5.414 -1.0730 -0.6473  0.0915
 8302SOL    HW136365   1.235   0.274   5.392 -1.9545 -1.5753  0.5495
 8302SOL    HW236366   1.375   0.276   5.447  0.0434 -0.0121 -3.3233
 8303SOL     OW36367   1.207   2.887   5.538  0.2739 -0.1164  0.3023
 8303SOL    HW136368   1.200   2.791   5.536  0.7131 -0.1368 -0.5145
 8303SOL    HW236369   1.220   2.896   5.633 -0.7210 -2.4957  0.6566
 8304SOL     OW36370   3.246   3.239  16.249  0.0847  0.2313  0.6601
 8304SOL    HW136371   3.220   3.312  16.192 -1.2324 -2.9568 -2.7992
 8304SOL    HW236372   3.178   3.239  16.316 -3.0488  1.4017 -2.5149
 8305SOL     OW36373   0.299   3.864   4.993 -0.0502  0.1268  0.0735
 8305SOL    HW136374   0.386   3.904   4.988  0.1068 -0.2653 -0.3338
 8305SOL    HW236375   0.335   3.776   4.986 -1.8716 -0.8374  2.8018
 8306SOL     OW36376   1.847   2.990   1.377  0.0354 -0.4689 -0.4252
 8306SOL    HW136377   1.796   3.042   1.315 -0.7507 -0.7546 -0.0200
 8306SOL    HW236378   1.786   2.917   1.387  0.0993 -0.3573  0.7374
 8307SOL     OW36379   0.104   3.872   6.115 -0.9210  0.0927  0.3369
 8307SOL    HW136380   0.104   3.781   6.083  0.2154  0.8069 -1.7333
 8307SOL    HW236381   0.181   3.912   6.075  0.1172  0.4071  2.6443
 8308SOL     OW36382   4.422   1.057   8.913 -0.0044 -0.0194  0.3754
 8308SOL    HW136383   4.335   1.086   8.887  0.1925  0.2394  0.0081
 8308SOL    HW236384   4.463   1.072   8.828 -0.9285  0.2048 -0.0282
 8309SOL     OW36385   1.478   1.467   8.650  0.2800  0.3011 -0.4435
 8309SOL    HW136386   1.556   1.484   8.704  0.1283 -0.8460  0.1390
 8309SOL    HW236387   1.514   1.438   8.566  1.1296 -0.1201  0.0573
 8310SOL     OW36388   1.454   2.033  14.171  0.3803  0.1653 -0.3531
 8310SOL    HW136389   1.363   2.057  14.187  0.3837 -0.2425  0.3060
 8310SOL    HW236390   1.452   1.947  14.130 -1.4877 -0.2159  0.5230
 8311SOL     OW36391   3.757   0.128   1.318 -0.3553  0.1468 -0.5572
 8311SOL    HW136392   3.741   0.200   1.380 -0.2263  1.2108 -1.7661
 8311SOL    HW236393   3.849   0.112   1.338  0.2705  1.7344 -2.1558
 8312SOL     OW36394   2.998   0.518   7.889 -0.2649  0.3388 -0.2325
 8312SOL    HW136395   2.935   0.481   7.828 -1.8257  3.5263 -0.5629
 8312SOL    HW236396   3.079   0.472   7.869 -0.3501 -0.1861  0.6194
 8313SOL     OW36397   4.679   4.501   2.869  0.3295  0.0666 -0.4539
 8313SOL    HW136398   4.708   4.469   2.783 -0.1883  0.4658 -0.7747
 8313SOL    HW236399   4.652   4.591   2.850  1.3079  0.7810  1.6006
 8314SOL     OW36400   3.450   2.776   3.725  0.0101  0.5061  0.4957
 8314SOL    HW136401   3.495   2.795   3.644 -1.8804 -0.2219 -0.7318
 8314SOL    HW236402   3.420   2.686   3.708 -1.5199  1.0476  0.3363
 8315SOL     OW36403   0.276   3.659   6.695 -0.0915  0.4061 -0.0824
 8315SOL    HW136404   0.314   3.721   6.633  0.7096  1.4070  1.4138
 8315SOL    HW236405   0.281   3.714   6.773 -0.6933 -0.3877  0.5181
 8316SOL     OW36406   2.285   2.811  16.473  0.2727  0.4649  0.6897
 8316SOL    HW136407   2.354   2.861  16.429 -1.0914  0.4605 -1.4443
 8316SOL    HW236408   2.211   2.870  16.463 -1.0438 -0.9537  2.0342
 8317SOL     OW36409   2.268   1.993   2.103 -0.2418 -0.3815  0.3673
 8317SOL    HW136410   2.297   1.987   2.193  0.2637 -0.3684  0.2065
 8317SOL    HW236411   2.277   1.903   2.074  2.2958  0.7231 -2.3105
 8318SOL     OW36412   4.155   4.111   7.047  0.0143 -0.0112  0.0959
 8318SOL    HW136413   4.104   4.071   7.118  3.1076 -0.8727  1.8376
 8318SOL    HW236414   4.193   4.028   7.016 -0.0170  0.4758 -1.2331
 8319SOL     OW36415   3.098   1.940   4.954 -0.0724  0.3101 -0.3688
 8319SOL    HW136416   3.176   1.956   5.009 -1.0129  1.0625  0.7467
 8319SOL    HW236417   3.089   1.845   4.954 -0.9947  0.4028  0.4825
 8320SOL     OW36418   0.759   1.396  15.791 -0.3154  0.7419  0.5864
 8320SOL    HW136419   0.822   1.357  15.853 -0.0569 -0.0250 -0.1695
 8320SOL    HW236420   0.725   1.469  15.843 -1.0354  2.1700 -1.8965
 8321SOL     OW36421   3.741   4.246   3.075 -0.1302 -0.6504 -0.0703
 8321SOL    HW136422   3.722   4.302   3.150 -0.3005  1.2760 -1.5646
 8321SOL    HW236423   3.825   4.289   3.062 -0.0198 -0.0755  2.5578
 8322SOL     OW36424   1.064   2.506  12.433 -0.0096  0.1500 -0.4027
 8322SOL    HW136425   1.025   2.577  12.382 -1.5312 -0.9310 -0.7101
 8322SOL    HW236426   1.012   2.509  12.513  0.6101  1.6810 -0.0433
 8323SOL     OW36427   3.081   0.896   7.486 -0.5270  0.4123  0.2553
 8323SOL    HW136428   3.009   0.838   7.513 -1.1459 -0.2844 -2.9758
 8323SOL    HW236429   3.151   0.850   7.533 -0.3801  3.0090  2.5538
 8324SOL     OW36430   2.767   0.928  13.900 -0.8854 -0.4433 -0.1472
 8324SOL    HW136431   2.718   0.850  13.927 -2.2603  0.6838  0.6372
 8324SOL    HW236432   2.830   0.889  13.839  1.5860 -0.4149  2.3876
 8325SOL     OW36433   3.116   1.287   0.331  0.3036 -0.5149 -0.4988
 8325SOL    HW136434   3.058   1.339   0.276 -2.4669 -1.1035  1.8638
 8325SOL    HW236435   3.132   1.354   0.398  0.5838 -1.1478  0.0709
 8326SOL     OW36436   2.910   3.571   1.504  0.4734  0.3100  0.2837
 8326SOL    HW136437   2.940   3.520   1.428  1.5302 -0.7363  1.3986
 8326SOL    HW236438   2.983   3.627   1.531 -0.8830  1.6019  1.2968
 8327SOL     OW36439   3.030   4.653   0.191  0.4382 -0.2259  0.2409
 8327SOL    HW136440   2.952   4.653   0.247  2.2401  1.0388  2.7193
 8327SOL    HW236441   3.092   4.600   0.241 -0.5612  0.0689  1.7924
 8328SOL     OW36442   4.516   3.351   1.575  0.4901  0.2350 -0.2986
 8328SOL    HW136443   4.432   3.361   1.530 -1.4425 -2.5215  2.6796
 8328SOL    HW236444   4.509   3.258   1.595 -0.5006  0.8428  2.1247
 8329SOL     OW36445   3.569   2.020   7.968 -0.4815 -0.0571  0.8494
 8329SOL    HW136446   3.495   2.026   8.028 -0.5982 -1.7436  0.8754
 8329SOL    HW236447   3.521   2.036   7.887  0.3156  0.2228  0.4262
 8330SOL     OW36448   0.771   4.672  12.397 -0.1819  0.1075  0.1580
 8330SOL    HW136449   0.840   4.611  12.370  1.1684  0.9297  1.7583
 8330SOL    HW236450   0.795   4.693  12.487  0.3299  2.8697 -0.6117
 8331SOL     OW36451   3.972   1.325   8.729  0.0446 -0.1550  0.1032
 8331SOL    HW136452   3.967   1.365   8.643 -0.8012 -1.5509 -0.4967
 8331SOL    HW236453   3.889   1.353   8.767  0.3419 -0.6848  1.1502
 8332SOL     OW36454   2.943   1.751   5.829 -0.2794  0.1605 -0.2824
 8332SOL    HW136455   2.855   1.789   5.831  0.7059  2.3980 -0.1703
 8332SOL    HW236456   2.959   1.755   5.735 -1.7097 -0.4221 -0.5506
 8333SOL     OW36457   3.747   2.241   7.676 -0.2343  0.6553 -0.0951
 8333SOL    HW136458   3.802   2.305   7.722 -0.8637  2.4098 -1.8100
 8333SOL    HW236459   3.754   2.277   7.588 -1.3314  1.9848  0.3463
 8334SOL     OW36460   4.148   2.457   1.274 -0.1259 -0.2186  0.1997
 8334SOL    HW136461   4.228   2.443   1.326  0.8015  0.9503 -0.9009
 8334SOL    HW236462   4.168   2.543   1.238  3.6114 -0.6525  1.2245
 8335SOL     OW36463   3.362   1.518  11.205 -0.0244  0.4843 -0.0915
 8335SOL    HW136464   3.451   1.505  11.172  0.0445 -1.2543  0.7944
 8335SOL    HW236465   3.328   1.429  11.214 -0.9486  0.9972  1.6947
 8336SOL     OW36466   0.501   2.607   7.037  0.6445 -0.4913  0.1883
 8336SOL    HW136467   0.557   2.649   6.972  2.2540 -1.8143  0.6973
 8336SOL    HW236468   0.501   2.679   7.100 -1.3286  0.0375 -0.4150
 8337SOL     OW36469   1.062   4.091   0.373  0.1852 -0.0116  0.2502
 8337SOL    HW136470   1.045   4.120   0.283 -1.7311 -1.7822  0.0365
 8337SOL    HW236471   0.979   4.115   0.414  0.0718 -0.9808  0.5852
 8338SOL     OW36472   0.533   0.015   2.947  0.1716  0.4010  0.5290
 8338SOL    HW136473   0.540   4.659   3.001 -1.4162 -1.3668 -1.8549
 8338SOL    HW236474   0.620   0.024   2.909  0.4871  0.0784  1.1704
 8339SOL     OW36475   0.524   4.521   4.889  0.2455  0.4578 -0.1859
 8339SOL    HW136476   0.553   4.499   4.800 -1.5037  0.3588 -0.7386
 8339SOL    HW236477   0.458   4.452   4.901  1.3361 -0.2102  1.8399
 8340SOL     OW36478   4.021   1.906   1.675  0.4075  0.2289  0.1553
 8340SOL    HW136479   4.101   1.884   1.723  1.2890  0.7557 -1.0865
 8340SOL    HW236480   4.025   1.845   1.602 -2.6453  0.4985 -0.2431
 8341SOL     OW36481   3.373   3.532   1.994 -0.3288  0.5041 -0.5751
 8341SOL    HW136482   3.310   3.546   1.923  1.2374 -0.5294 -2.1575
 8341SOL    HW236483   3.457   3.529   1.949 -0.2193  0.8045 -0.3906
 8342SOL     OW36484   1.562   2.106  13.174 -1.0890  0.2233 -0.2518
 8342SOL    HW136485   1.597   2.157  13.102  0.8911 -1.4897 -0.4902
 8342SOL    HW236486   1.469   2.107  13.150 -1.2503  0.1856  0.3713
 8343SOL     OW36487   4.074   0.532   2.315 -0.3197  0.4056  0.0183
 8343SOL    HW136488   4.131   0.556   2.242  1.4708  2.9020  2.2489
 8343SOL    HW236489   4.053   0.442   2.289  1.0893  0.9708 -3.0008
 8344SOL     OW36490   0.493   1.403  11.540 -0.4073 -0.0881 -0.3312
 8344SOL    HW136491   0.517   1.411  11.632  0.0355 -0.4929 -0.4081
 8344SOL    HW236492   0.457   1.314  11.544 -0.2822 -0.0204  2.1539
 8345SOL     OW36493   3.829   2.468  15.131 -0.1071 -0.2011  0.1802
 8345SOL    HW136494   3.827   2.563  15.127 -0.3831 -0.1832  0.8799
 8345SOL    HW236495   3.764   2.447  15.064  1.6198 -1.0256 -1.2655
 8346SOL     OW36496   4.707   4.368   5.745 -0.3963  0.1235  0.2213
 8346SOL    HW136497   0.025   4.433   5.803  2.1526 -1.3000  0.0612
 8346SOL    HW236498   0.053   4.301   5.752  0.3693  0.7046 -1.6734
 8347SOL     OW36499   2.762   0.591   3.944 -0.3147  0.8549 -0.1384
 8347SOL    HW136500   2.759   0.644   4.023  0.9683 -1.9605  1.7755
 8347SOL    HW236501   2.733   0.660   3.884 -0.3283  0.6658 -0.3527
 8348SOL     OW36502   1.720   2.754   6.504 -0.1848  0.0305  0.5143
 8348SOL    HW136503   1.803   2.773   6.549  0.6251 -2.5153  0.1034
 8348SOL    HW236504   1.755   2.682   6.451 -1.2064 -0.3701  0.3992
 8349SOL     OW36505   4.557   2.444   2.511  0.1245 -0.4266 -0.3154
 8349SOL    HW136506   4.593   2.369   2.557  0.6979 -0.4346 -0.7631
 8349SOL    HW236507   4.616   2.509   2.550 -1.1702  0.2228  0.5260
 8350SOL     OW36508   0.093   3.650   5.020 -0.1636  0.3537  0.4668
 8350SOL    HW136509   0.026   3.713   5.046  0.1946  0.3240  1.4641
 8350SOL    HW236510   0.165   3.713   5.030 -0.4526  0.4712  1.7615
 8351SOL     OW36511   4.235   0.886  10.003 -0.2894  0.6449  0.4448
 8351SOL    HW136512   4.155   0.903   9.954  0.6262 -0.7154 -1.5366
 8351SOL    HW236513   4.263   0.805   9.961  1.5750  1.5237  0.0246
 8352SOL     OW36514   1.721   3.304   5.396 -0.1450  0.3745  0.0772
 8352SOL    HW136515   1.756   3.372   5.453 -0.8114  0.8700 -0.1190
 8352SOL    HW236516   1.672   3.250   5.459 -2.1498 -1.5960 -3.1994
 8353SOL     OW36517   4.337   4.699   5.619  0.4084 -0.1984 -0.9243
 8353SOL    HW136518   4.357   4.605   5.613  1.1789 -0.1814  1.1588
 8353SOL    HW236519   4.424   0.010   5.640  0.7330 -0.4887 -1.8012
 8354SOL     OW36520   3.007   0.133   1.512  0.1842 -0.2240 -1.2021
 8354SOL    HW136521   2.974   0.043   1.514 -0.7962  0.2124  1.7019
 8354SOL    HW236522   3.027   0.143   1.419 -2.1776  1.1934 -1.5652
 8355SOL     OW36523   2.596   4.354  14.463  0.0000  0.0346 -0.1430
 8355SOL    HW136524   2.548   4.271  14.470  0.2671 -0.3569 -2.8896
 8355SOL    HW236525   2.523   4.410  14.437  0.0104 -0.4481 -1.2193
 8356SOL     OW36526   1.292   2.781   7.121 -0.9630 -0.4351  0.4099
 8356SOL    HW136527   1.337   2.699   7.099 -2.5464 -1.5400  1.2901
 8356SOL    HW236528   1.221   2.781   7.057 -0.1832 -0.9860 -0.4624
 8357SOL     OW36529   0.216   1.207  14.896  0.2132  0.3587  0.5317
 8357SOL    HW136530   0.218   1.117  14.861  2.2329  0.3529  0.6504
 8357SOL    HW236531   0.124   1.233  14.894  0.2390  0.4234  0.1974
 8358SOL     OW36532   2.362   0.866   6.845  0.0374 -0.1148 -0.2068
 8358SOL    HW136533   2.396   0.952   6.820  0.7144 -0.5935 -0.8866
 8358SOL    HW236534   2.404   0.861   6.931  0.1100 -1.3666 -0.3277
 8359SOL     OW36535   2.182   2.992   0.203  0.1294  0.0000 -0.0062
 8359SOL    HW136536   2.094   3.008   0.169  1.3272  3.0606 -1.6631
 8359SOL    HW236537   2.224   3.043   0.134  0.4762 -1.0044 -0.5525
 8360SOL     OW36538   0.907   0.537  10.985  0.4162  0.0568  0.3049
 8360SOL    HW136539   0.921   0.564  10.895  0.7225  1.9898  0.9282
 8360SOL    HW236540   0.838   0.475  10.962  0.3333  0.4124 -0.3759
 8361SOL     OW36541   0.261   4.666  11.344  0.3021 -0.5346 -0.6367
 8361SOL    HW136542   0.226   0.031  11.365 -0.7174 -1.0974 -0.0044
 8361SOL    HW236543   0.187   4.622  11.302  0.9104 -1.2601 -0.9452
 8362SOL     OW36544   1.834   4.100   2.802 -0.4172  0.1525 -0.2270
 8362SOL    HW136545   1.885   4.104   2.722 -2.0720 -2.1471 -1.4189
 8362SOL    HW236546   1.835   4.008   2.828  0.9441 -0.5323 -2.7418
 8363SOL     OW36547   3.333   3.643   3.009  0.3449  0.4529  0.2121
 8363SOL    HW136548   3.258   3.593   2.977  0.3413  0.2382  0.5537
 8363SOL    HW236549   3.283   3.721   3.031  0.6542  1.1045 -1.4270
 8364SOL     OW36550   0.380   3.054   7.625  0.6595 -0.3392 -0.0071
 8364SOL    HW136551   0.315   2.988   7.648 -0.6120  0.3860 -1.5001
 8364SOL    HW236552   0.458   3.000   7.628 -0.4311 -2.0049 -2.0692
 8365SOL     OW36553   2.233   2.007  13.580 -0.4789  0.1172 -0.5426
 8365SOL    HW136554   2.310   1.952  13.567 -0.9085 -0.6263  0.0405
 8365SOL    HW236555   2.260   2.025  13.670  0.0928 -0.2616 -0.6384
 8366SOL     OW36556   1.691   1.843   5.844 -0.4908  0.5145  0.1109
 8366SOL    HW136557   1.752   1.893   5.791 -0.6803  1.2516  0.5893
 8366SOL    HW236558   1.623   1.810   5.785  0.4300 -0.3084 -0.4877
 8367SOL     OW36559   1.496   2.506  17.654  0.2656  0.6712  1.0118
 8367SOL    HW136560   1.444   2.565  17.599 -0.3606  0.7501  1.6762
 8367SOL    HW236561   1.521   2.432  17.599  0.9411  1.6652 -0.0266
 8368SOL     OW36562   4.247   4.216   7.408  0.0652 -0.4857  0.0616
 8368SOL    HW136563   4.259   4.299   7.454 -0.3015  0.5150 -1.6269
 8368SOL    HW236564   4.181   4.242   7.343  0.3160 -0.2025 -0.0826
 8369SOL     OW36565   1.029   1.480  16.161  0.4008 -0.6575  0.6883
 8369SOL    HW136566   1.098   1.545  16.146 -0.8113  0.5785  0.4414
 8369SOL    HW236567   0.946   1.527  16.157 -0.3245 -2.2324 -2.4040
 8370SOL     OW36568   1.807   3.025   3.040  0.3754 -0.4463 -0.4932
 8370SOL    HW136569   1.864   3.080   2.987  0.0163 -1.6803 -2.1694
 8370SOL    HW236570   1.729   3.029   2.984 -0.3567 -2.4868  0.3897
 8371SOL     OW36571   2.315   0.023   5.426 -0.0093 -0.0959  0.2098
 8371SOL    HW136572   2.234   0.069   5.405  0.1123  0.3374  0.6901
 8371SOL    HW236573   2.346   0.077   5.499  3.3089 -1.3401 -0.2774
 8372SOL     OW36574   0.056   0.076  14.826  0.5735  0.0410 -0.1445
 8372SOL    HW136575   0.119   0.044  14.762 -0.9156  0.1974 -1.6809
 8372SOL    HW236576   4.695   0.064  14.782  0.1576  2.5801 -0.0440
 8373SOL     OW36577   4.713   2.710   6.249  0.4071  0.1474  0.0842
 8373SOL    HW136578   0.066   2.654   6.268 -0.5304 -1.0167  0.3810
 8373SOL    HW236579   4.652   2.685   6.318  0.9614  2.4664  1.4200
 8374SOL     OW36580   1.585   0.341   4.457 -0.3058  0.0745 -0.1395
 8374SOL    HW136581   1.582   0.356   4.551  0.5263 -1.8400  0.1907
 8374SOL    HW236582   1.508   0.287   4.443 -1.5650  2.4231 -2.3367
 8375SOL     OW36583   2.003   1.386   6.164 -0.4288  0.3574  0.0692
 8375SOL    HW136584   2.046   1.373   6.249  1.1433  1.4847 -0.5578
 8375SOL    HW236585   1.947   1.460   6.189  1.6201  1.9438 -0.0111
 8376SOL     OW36586   4.419   2.676   6.828  0.2979 -0.0263 -0.3151
 8376SOL    HW136587   4.377   2.731   6.762  0.5859  0.7615  0.1578
 8376SOL    HW236588   4.417   2.587   6.793  2.1931  0.0391 -0.5976
 8377SOL     OW36589   0.195   3.863   7.367  0.1580 -0.2319  0.0004
 8377SOL    HW136590   0.136   3.826   7.301  0.2993 -1.5467  0.6017
 8377SOL    HW236591   0.209   3.946   7.323  1.3463 -0.8420 -0.7744
 8378SOL     OW36592   3.966   4.119   8.520 -0.1695 -0.3782 -0.4461
 8378SOL    HW136593   4.026   4.075   8.581 -0.2618  0.6721  0.3952
 8378SOL    HW236594   3.915   4.175   8.578  0.3157 -1.6901  1.2506
 8379SOL     OW36595   3.019   1.966   2.898  0.2972 -0.5252 -0.4906
 8379SOL    HW136596   2.969   2.043   2.924 -0.0828 -0.8283 -0.3357
 8379SOL    HW236597   2.984   1.946   2.811  0.0025 -3.0740  0.2274
 8380SOL     OW36598   2.918   3.573   8.117  0.0418 -0.1445  0.3303
 8380SOL    HW136599   2.980   3.501   8.117  0.3790  0.1466 -2.2511
 8380SOL    HW236600   2.967   3.640   8.069  0.7143 -0.0920  1.0806
 8381SOL     OW36601   1.408   1.298  10.367  0.0779 -0.2485  0.2629
 8381SOL    HW136602   1.458   1.379  10.360  1.8144 -1.3510 -0.2054
 8381SOL    HW236603   1.477   1.237  10.339  0.5010  0.6618 -0.6793
 8382SOL     OW36604   0.936   1.471   8.184  0.3971 -0.2899 -0.7222
 8382SOL    HW136605   0.977   1.557   8.178 -0.0995  0.1437  1.9863
 8382SOL    HW236606   0.952   1.449   8.275 -0.2634 -0.5368 -0.6632
 8383SOL     OW36607   3.584   3.994  11.443 -0.0702 -0.4111 -0.1389
 8383SOL    HW136608   3.578   4.038  11.527  2.2035 -2.4978  1.1316
 8383SOL    HW236609   3.666   3.945  11.451 -0.5944 -1.3856 -0.6741
 8384SOL     OW36610   3.328   2.350   8.056  0.3786  0.2948  0.0889
 8384SOL    HW136611   3.282   2.414   8.111 -1.3174 -1.7935  1.0988
 8384SOL    HW236612   3.260   2.317   7.997 -0.5171  0.2571  1.1272
 8385SOL     OW36613   1.727   2.068  13.408 -0.3399 -0.2398  0.3962
 8385SOL    HW136614   1.784   1.994  13.390 -0.9508 -0.1709 -1.7543
 8385SOL    HW236615   1.680   2.063  13.325 -1.2919  2.5655  0.7584
 8386SOL     OW36616   2.064   1.599   9.093 -0.0337 -0.5922  0.1533
 8386SOL    HW136617   2.145   1.645   9.073 -1.2301  1.8091  0.8829
 8386SOL    HW236618   2.046   1.619   9.185  1.9192 -1.3929  0.7046
 8387SOL     OW36619   0.031   0.356   4.463 -0.6856 -0.1363  0.6061
 8387SOL    HW136620   0.076   0.428   4.418  0.5646 -0.9416  0.5513
 8387SOL    HW236621   4.668   0.366   4.422  1.1356 -1.1292 -3.3944
 8388SOL     OW36622   2.517   0.663  12.768 -0.7182  0.2903 -0.3231
 8388SOL    HW136623   2.422   0.652  12.767 -0.5433 -1.4281  0.6617
 8388SOL    HW236624   2.526   0.653  12.674 -0.9516 -0.1614 -0.3007
 8389SOL     OW36625   1.030   3.932   7.878 -0.3684  0.2819  0.0821
 8389SOL    HW136626   1.063   3.893   7.798 -0.3825 -1.5172  0.9594
 8389SOL    HW236627   0.938   3.948   7.856 -0.4822  1.7205  1.5665
 8390SOL     OW36628   0.707   3.744   6.873 -0.3651  0.1356 -0.2209
 8390SOL    HW136629   0.785   3.773   6.826  1.1954 -1.6148  1.2966
 8390SOL    HW236630   0.710   3.811   6.942  0.5909 -0.3749  0.2379
 8391SOL     OW36631   1.345   3.099   1.582  0.2405 -0.3373 -0.3192
 8391SOL    HW136632   1.388   3.182   1.600 -0.9461  0.3797 -0.8023
 8391SOL    HW236633   1.408   3.086   1.510  0.8322  0.3253  0.0802
 8392SOL     OW36634   2.141   1.882   5.598 -0.0280  0.2400 -0.5443
 8392SOL    HW136635   2.171   1.793   5.581  0.0637  0.1721 -0.0267
 8392SOL    HW236636   2.224   1.929   5.600 -0.3093  0.7205 -0.1580
 8393SOL     OW36637   1.209   1.556   2.422 -0.2594  0.0105 -0.5512
 8393SOL    HW136638   1.193   1.646   2.451 -1.0170  0.3266 -1.9527
 8393SOL    HW236639   1.202   1.502   2.501 -0.9600  2.8389  1.3245
 8394SOL     OW36640   1.262   2.286   8.505 -0.3273 -0.2182  0.0522
 8394SOL    HW136641   1.328   2.222   8.480 -0.6875 -0.2798 -0.7437
 8394SOL    HW236642   1.276   2.358   8.444 -1.0881 -0.5096 -0.4666
 8395SOL     OW36643   0.434   4.348  14.547 -0.8770 -0.2047  0.1626
 8395SOL    HW136644   0.500   4.314  14.486 -1.9308  0.0802 -1.1430
 8395SOL    HW236645   0.383   4.269  14.566 -1.4796  0.1436 -0.0310
 8396SOL     OW36646   3.183   3.965   8.003  0.0993 -0.2665 -0.0295
 8396SOL    HW136647   3.103   4.012   7.978  0.1144  1.2050  2.6272
 8396SOL    HW236648   3.199   3.998   8.092 -0.9946  1.2137 -0.3757
 8397SOL     OW36649   1.042   2.467  10.739 -0.2460 -0.0061 -0.2139
 8397SOL    HW136650   1.121   2.515  10.762 -1.1924  0.8663  1.2378
 8397SOL    HW236651   0.985   2.493  10.812 -0.4614 -2.1693  0.3653
 8398SOL     OW36652   1.689   2.187  14.086  0.7061 -0.4552 -0.3268
 8398SOL    HW136653   1.604   2.143  14.078  1.1831 -1.6252  1.2065
 8398SOL    HW236654   1.667   2.257  14.024  0.2091  1.2049  1.6834
 8399SOL     OW36655   1.676   2.067   5.177 -0.0324 -0.4322 -0.9069
 8399SOL    HW136656   1.624   1.987   5.174  2.3338 -1.9894 -1.0111
 8399SOL    HW236657   1.611   2.136   5.172 -2.5936 -2.7880 -0.4189
 8400SOL     OW36658   2.185   0.541   4.356 -0.3192 -0.1270  0.0570
 8400SOL    HW136659   2.160   0.452   4.382 -0.6093 -0.0888 -0.0850
 8400SOL    HW236660   2.188   0.529   4.261  1.0899  0.7100 -0.0095
 8401SOL     OW36661   4.161   2.016   4.413  0.1801 -0.3845 -0.0143
 8401SOL    HW136662   4.074   2.056   4.409  1.1958  1.7259 -0.6348
 8401SOL    HW236663   4.203   2.065   4.343 -0.7885 -2.5970 -2.1443
 8402SOL     OW36664   1.934   2.341   7.949 -0.1125  0.4964  0.9022
 8402SOL    HW136665   1.924   2.293   8.031 -0.6911 -2.2777 -0.7645
 8402SOL    HW236666   1.973   2.271   7.895 -2.2205 -0.3641  0.5006
 8403SOL     OW36667   2.987   0.807   2.314  0.1975 -0.3740  0.2011
 8403SOL    HW136668   2.900   0.774   2.291  0.0679 -0.1236  0.3368
 8403SOL    HW236669   3.039   0.733   2.282 -2.4922 -2.1666  0.0317
 8404SOL     OW36670   0.015   0.386   1.086 -0.0810 -0.3334  0.2514
 8404SOL    HW136671   4.647   0.353   1.081 -0.4972  0.8337 -0.0846
 8404SOL    HW236672   0.005   0.464   1.141 -2.2254 -0.5227  0.1464
 8405SOL     OW36673   0.598   0.293   3.386 -0.1290  0.5289 -0.3311
 8405SOL    HW136674   0.507   0.289   3.416  0.3480  0.2034  1.0475
 8405SOL    HW236675   0.632   0.364   3.440 -0.8599 -0.0281  0.8769
 8406SOL     OW36676   1.148   2.215   6.541 -0.7394  0.4544 -0.1051
 8406SOL    HW136677   1.234   2.218   6.500 -1.6353  0.0259 -1.9822
 8406SOL    HW236678   1.164   2.293   6.594 -2.9070  0.7837  0.0855
 8407SOL     OW36679   2.212   3.148   8.102  0.0001 -0.0909  0.0883
 8407SOL    HW136680   2.209   3.136   8.197 -0.6721  1.8719  0.3271
 8407SOL    HW236681   2.122   3.122   8.082  0.0389  1.7174 -2.4769
 8408SOL     OW36682   2.345   1.666   5.746 -0.1271 -0.3807 -0.2876
 8408SOL    HW136683   2.266   1.643   5.794 -0.4468  0.3893 -0.4535
 8408SOL    HW236684   2.323   1.655   5.654 -1.9179 -0.2000  0.1267
 8409SOL     OW36685   4.705   0.898  10.875 -0.3779 -0.3105  0.2225
 8409SOL    HW136686   0.054   0.915  10.813  0.4239 -1.9837  0.6904
 8409SOL    HW236687   4.656   0.979  10.859  2.0341  0.5661 -2.6680
 8410SOL     OW36688   1.010   0.364  12.906 -0.3157  0.2883 -0.0254
 8410SOL    HW136689   1.000   0.270  12.924  0.0233 -0.0145 -1.4224
 8410SOL    HW236690   1.005   0.359  12.811 -1.0243  1.0348 -0.0211
 8411SOL     OW36691   1.971   3.040  16.224  0.0391 -0.3875 -0.9041
 8411SOL    HW136692   1.880   3.070  16.234  0.4128  0.7330 -0.8856
 8411SOL    HW236693   2.015   3.120  16.196 -3.7009  1.1250 -2.5780
 8412SOL     OW36694   0.918   1.831   3.221 -0.6882  0.0951 -0.0413
 8412SOL    HW136695   0.904   1.912   3.172 -0.0408  0.9208  1.1326
 8412SOL    HW236696   0.888   1.862   3.306  0.1203 -1.3563  0.7641
 8413SOL     OW36697   2.073   2.777  12.651 -0.0790 -0.4571 -0.1550
 8413SOL    HW136698   1.988   2.808  12.682 -1.0190 -3.7984  0.6858
 8413SOL    HW236699   2.094   2.820  12.569 -0.5287  1.3312  0.6688
 8414SOL     OW36700   4.140   2.533   2.246 -0.4019  0.2282 -0.0620
 8414SOL    HW136701   4.141   2.446   2.287  2.5612  1.5561  2.6496
 8414SOL    HW236702   4.151   2.516   2.153 -1.8215  1.6189 -0.4868
 8415SOL     OW36703   1.185   1.175   4.672 -1.1926  0.8199 -0.4610
 8415SOL    HW136704   1.213   1.224   4.749 -1.2010  0.4051 -0.1931
 8415SOL    HW236705   1.269   1.162   4.628 -0.5273 -0.9334  1.3024
 8416SOL     OW36706   1.384   0.624   4.526  0.3690 -0.4161 -0.1957
 8416SOL    HW136707   1.343   0.613   4.440 -0.8093  5.6126 -0.4325
 8416SOL    HW236708   1.371   0.718   4.540  0.7629 -0.7773  2.6591
 8417SOL     OW36709   2.404   2.951   3.038 -0.0397  0.0584 -0.4028
 8417SOL    HW136710   2.377   3.006   3.112  0.0589  0.6768 -0.8246
 8417SOL    HW236711   2.347   2.876   3.054 -2.1355  1.8311  0.3751
 8418SOL     OW36712   1.777   1.685   7.573  0.1393  0.5334 -0.3579
 8418SOL    HW136713   1.754   1.592   7.574 -1.8690  1.0625  1.1757
 8418SOL    HW236714   1.707   1.718   7.629 -0.0873  0.8212 -0.8113
 8419SOL     OW36715   0.312   3.504   2.206  0.4414 -0.5681  0.1669
 8419SOL    HW136716   0.260   3.542   2.277  1.7039 -0.4967  1.0388
 8419SOL    HW236717   0.348   3.585   2.172 -0.6191 -0.1605 -0.0015
 8420SOL     OW36718   4.109   2.568   8.114  0.1322  0.0777  0.0886
 8420SOL    HW136719   4.111   2.619   8.194  0.1353 -0.7652  0.6232
 8420SOL    HW236720   4.173   2.499   8.133 -1.2602 -1.5484 -1.0119
 8421SOL     OW36721   3.103   2.981   1.215 -0.2269 -0.3232  0.6034
 8421SOL    HW136722   3.171   2.969   1.281  0.6416  1.4096  0.0106
 8421SOL    HW236723   3.027   2.946   1.262  0.5594 -0.8278  1.5004
 8422SOL     OW36724   2.433   0.941   8.824  0.6175  0.0663  0.2203
 8422SOL    HW136725   2.423   0.854   8.862  0.1479  0.4944  1.1051
 8422SOL    HW236726   2.524   0.950   8.851  0.5479  1.6856 -0.0721
 8423SOL     OW36727   3.852   2.684   8.121 -0.1831 -0.2536  0.5560
 8423SOL    HW136728   3.798   2.605   8.127 -0.1875 -0.1408  1.9957
 8423SOL    HW236729   3.939   2.648   8.100 -0.2501  1.2188 -2.1904
 8424SOL     OW36730   1.153   2.736   0.058  0.0400 -0.2271 -0.6498
 8424SOL    HW136731   1.189   2.810   0.010  0.9975  0.0690  0.5049
 8424SOL    HW236732   1.174   2.752   0.150  0.2202 -1.6050 -0.4386
 8425SOL     OW36733   0.936   2.684   2.701 -0.1512  0.0180  0.2435
 8425SOL    HW136734   0.999   2.612   2.693  0.1002  0.1806  0.7297
 8425SOL    HW236735   0.974   2.731   2.627  0.1453 -1.2743 -0.4243
 8426SOL     OW36736   3.013   3.538   3.202 -0.3428  0.6985  0.1495
 8426SOL    HW136737   3.034   3.465   3.144  1.4326 -0.8493  2.7016
 8426SOL    HW236738   2.931   3.573   3.169 -0.4282 -1.3831 -1.8334
 8427SOL     OW36739   3.596   0.606   2.811  0.3686 -0.1439  0.1706
 8427SOL    HW136740   3.508   0.568   2.818  0.1947  0.4191  1.0414
 8427SOL    HW236741   3.598   0.633   2.720  0.8451  2.4624  0.9648
 8428SOL     OW36742   4.036   3.442   5.393 -0.0643  0.2461 -0.3734
 8428SOL    HW136743   3.956   3.405   5.432  1.5614 -2.3241  0.5117
 8428SOL    HW236744   4.088   3.470   5.468 -2.5204  1.1010  1.0146
 8429SOL     OW36745   0.063   2.410   2.994  0.6779 -0.3814 -0.4520
 8429SOL    HW136746   0.027   2.376   3.076  0.0794  0.3114 -0.4319
 8429SOL    HW236747   0.151   2.372   2.992  0.6196 -0.5794  0.5852
 8430SOL     OW36748   0.148   0.270   4.951  0.3480 -0.2402 -0.2476
 8430SOL    HW136749   0.178   0.344   5.002  1.7953 -0.9677 -0.0265
 8430SOL    HW236750   0.095   0.216   5.010  2.2274  0.7727  2.3659
 8431SOL     OW36751   1.793   1.062  17.000 -0.0104 -0.0875 -0.9498
 8431SOL    HW136752   1.774   0.971  16.975  0.8160 -0.5692  0.1307
 8431SOL    HW236753   1.864   1.043  17.062  0.4609  2.5839 -0.7081
 8432SOL     OW36754   1.584   1.173  15.670 -0.4928 -0.5026  0.2945
 8432SOL    HW136755   1.496   1.171  15.632  0.8540 -0.1572 -2.8431
 8432SOL    HW236756   1.609   1.265  15.662  1.0507 -0.8996  0.5873
 8433SOL     OW36757   2.532   1.317   3.343 -0.1691 -0.2346 -0.3824
 8433SOL    HW136758   2.512   1.387   3.404  2.7243 -0.6245  1.0130
 8433SOL    HW236759   2.471   1.245   3.364 -0.9588  1.7524  4.0597
 8434SOL     OW36760   0.647   3.670   2.201  0.3264  0.2372 -0.2278
 8434SOL    HW136761   0.606   3.718   2.273  2.0573 -1.4419  1.8614
 8434SOL    HW236762   0.662   3.585   2.241  0.1614  0.5349  0.4787
 8435SOL     OW36763   3.055   0.551   4.974  0.2009  0.5717 -0.4911
 8435SOL    HW136764   3.142   0.582   4.951  0.0911  0.3556 -1.2148
 8435SOL    HW236765   3.011   0.571   4.891  0.8338  0.0512 -0.9486
 8436SOL     OW36766   4.101   3.416  11.090 -0.0356  0.3129 -0.2308
 8436SOL    HW136767   4.042   3.467  11.035 -0.8087 -0.1974  0.1218
 8436SOL    HW236768   4.072   3.452  11.174  2.8827 -0.3628  1.0999
 8437SOL     OW36769   3.807   4.189   1.150 -0.1890  0.2536 -0.8336
 8437SOL    HW136770   3.859   4.138   1.087  0.2057  0.7313 -0.8922
 8437SOL    HW236771   3.825   4.282   1.140 -0.5311  0.1921 -2.0414
 8438SOL     OW36772   3.575   0.860   8.730  0.0782  0.3353 -0.3183
 8438SOL    HW136773   3.615   0.795   8.788  1.9587  2.5196  0.8136
 8438SOL    HW236774   3.615   0.941   8.760  1.1886 -0.0335 -0.8183
 8439SOL     OW36775   1.610   1.509   2.393  0.4389 -0.0253 -0.3813
 8439SOL    HW136776   1.532   1.485   2.343  1.4844 -1.3001 -1.3988
 8439SOL    HW236777   1.617   1.452   2.469  2.1208 -0.2641 -0.7182
 8440SOL     OW36778   4.218   0.911   1.158 -0.2463  0.4725  0.8747
 8440SOL    HW136779   4.268   0.982   1.118 -0.1017 -1.2771 -2.0377
 8440SOL    HW236780   4.136   0.924   1.110  0.9081  0.1133 -1.1976
 8441SOL     OW36781   2.546   3.037   9.635  0.0265 -0.5710  0.6906
 8441SOL    HW136782   2.495   2.966   9.598  0.8160  0.5728 -2.5783
 8441SOL    HW236783   2.519   3.105   9.573  0.1678 -0.7322  0.4532
 8442SOL     OW36784   0.932   1.989   5.925 -0.1442  0.2739 -0.3821
 8442SOL    HW136785   0.902   1.961   6.011 -1.9172  1.0326 -0.7349
 8442SOL    HW236786   0.994   1.917   5.920 -0.2314  0.1419  0.4206
 8443SOL     OW36787   2.671   2.371   0.175 -0.1565  0.5864 -0.1996
 8443SOL    HW136788   2.722   2.448   0.154  1.0275 -0.2829 -0.5043
 8443SOL    HW236789   2.592   2.413   0.209  1.3319  2.8344  0.4549
 8444SOL     OW36790   3.905   3.884   6.912  0.0427 -0.2526  0.0444
 8444SOL    HW136791   3.927   3.977   6.907 -0.1089 -0.3092 -1.8886
 8444SOL    HW236792   3.875   3.862   6.824 -1.2856  1.6354  0.0246
 8445SOL     OW36793   3.499   4.019  11.697 -0.0508  0.4329  0.4242
 8445SOL    HW136794   3.467   4.108  11.681 -1.5909 -0.4797 -1.6348
 8445SOL    HW236795   3.425   3.970  11.733  1.3493 -1.1205  1.1772
 8446SOL     OW36796   0.190   3.096   6.425 -0.1599 -0.0690  0.1725
 8446SOL    HW136797   0.226   3.174   6.384 -0.1703  0.0616  0.4060
 8446SOL    HW236798   0.272   3.047   6.428 -0.1134 -0.1440 -2.3325
 8447SOL     OW36799   0.757   0.918   7.773 -0.1893 -0.1553  0.1431
 8447SOL    HW136800   0.695   0.988   7.792  0.4241  0.5621 -0.5223
 8447SOL    HW236801   0.747   0.870   7.855 -2.7407  1.4695  0.7499
 8448SOL     OW36802   4.493   0.740  13.426  0.3184 -0.1142  0.6221
 8448SOL    HW136803   4.505   0.709  13.516 -0.1161  1.2311  1.1315
 8448SOL    HW236804   4.564   0.697  13.377  0.9286  0.9323  0.6009
 8449SOL     OW36805   0.702   3.131   2.102  0.8395 -0.5414 -0.3740
 8449SOL    HW136806   0.636   3.085   2.153 -0.4980  1.0249 -0.6851
 8449SOL    HW236807   0.776   3.094   2.150  0.7636 -0.9259 -0.5497
 8450SOL     OW36808   1.323   2.346  14.862 -0.3278 -0.0365 -0.2514
 8450SOL    HW136809   1.417   2.344  14.881 -0.8142 -2.3273  1.9381
 8450SOL    HW236810   1.299   2.419  14.919  1.1182  1.6547 -1.8036
 8451SOL     OW36811   0.304   1.475   5.576  0.2344  0.3287 -0.4275
 8451SOL    HW136812   0.369   1.498   5.510 -1.8347 -0.0187 -2.5632
 8451SOL    HW236813   0.342   1.509   5.657 -0.8424  0.5961 -0.0275
 8452SOL     OW36814   1.224   3.465  14.207 -0.2099 -0.2169  0.0574
 8452SOL    HW136815   1.203   3.371  14.215 -1.6588  0.0675 -0.3134
 8452SOL    HW236816   1.188   3.506  14.286  0.6963  0.6685  0.0123
 8453SOL     OW36817   4.279   2.112   1.216  0.0297 -0.0849  0.0463
 8453SOL    HW136818   4.211   2.130   1.282 -0.6822 -1.7879 -0.2271
 8453SOL    HW236819   4.342   2.183   1.225  1.2049 -1.0244 -0.8855
 8454SOL     OW36820   0.671   1.691   0.433  0.2358 -0.1855 -0.8333
 8454SOL    HW136821   0.694   1.650   0.517 -0.2968  0.3510 -0.4303
 8454SOL    HW236822   0.703   1.624   0.373 -0.8507 -1.0290 -0.4802
 8455SOL     OW36823   1.971   2.069  14.277  0.0947  0.1025 -0.0323
 8455SOL    HW136824   1.948   2.162  14.285  0.2374  0.3116 -2.1663
 8455SOL    HW236825   2.063   2.080  14.301  0.5120 -1.3162 -1.0139
 8456SOL     OW36826   2.162   2.300  17.065 -0.0902 -0.1340 -0.0353
 8456SOL    HW136827   2.235   2.285  17.004  0.5594  0.0554  0.6938
 8456SOL    HW236828   2.087   2.290  17.006 -0.9476  0.8811  0.8932
 8457SOL     OW36829   2.817   4.193   9.311 -0.3117  0.8344  0.0323
 8457SOL    HW136830   2.757   4.258   9.348  0.1532  1.7571 -0.8246
 8457SOL    HW236831   2.861   4.239   9.240 -2.4496  1.7265 -0.6941
 8458SOL     OW36832   1.108   0.951   9.086  0.1875  0.0538  0.5542
 8458SOL    HW136833   1.152   1.035   9.098  2.9521 -1.3288  0.1500
 8458SOL    HW236834   1.185   0.902   9.058  1.4963  1.5247  1.5726
 8459SOL     OW36835   1.049   3.070   8.042  0.1766  0.4386 -0.0503
 8459SOL    HW136836   1.033   2.976   8.052  0.6441  0.1223 -2.3590
 8459SOL    HW236837   0.978   3.092   8.103  0.0803 -0.3031  0.1082
 8460SOL     OW36838   3.984   3.584   1.533  0.4247  0.2277 -0.0818
 8460SOL    HW136839   3.933   3.641   1.474 -0.9776  0.5591  1.4530
 8460SOL    HW236840   4.063   3.637   1.546  0.3806  1.0014 -2.9662
 8461SOL     OW36841   3.137   1.298   8.561 -0.1330 -0.1699  0.5614
 8461SOL    HW136842   3.092   1.327   8.640  0.3978 -1.2878  1.2601
 8461SOL    HW236843   3.200   1.367   8.538 -2.2745  1.5486 -0.2233
 8462SOL     OW36844   0.811   2.726   1.295  0.0878  0.8808 -0.5497
 8462SOL    HW136845   0.847   2.697   1.379  0.7210 -2.7777 -2.0816
 8462SOL    HW236846   0.775   2.646   1.257 -1.5824  2.1038 -1.5200
 8463SOL     OW36847   4.228   1.307   6.417 -0.4217 -0.1006  0.0063
 8463SOL    HW136848   4.206   1.225   6.461 -0.7665 -0.8908 -1.6482
 8463SOL    HW236849   4.313   1.288   6.377  0.1849  0.6075  0.9855
 8464SOL     OW36850   4.365   0.080   3.743  0.1964 -0.1059  0.2404
 8464SOL    HW136851   4.293   0.020   3.724  0.1728 -0.2555  0.7971
 8464SOL    HW236852   4.422   0.033   3.803  2.0054  0.4106 -1.0471
 8465SOL     OW36853   1.434   4.274   3.007 -0.2761  0.0878  0.4318
 8465SOL    HW136854   1.518   4.230   2.991 -1.6108 -1.6430 -1.8577
 8465SOL    HW236855   1.385   4.192   3.010  0.3187 -0.2227  1.4856
 8466SOL     OW36856   4.373   1.538   8.849 -0.1259 -0.0193 -0.2435
 8466SOL    HW136857   4.337   1.617   8.890 -2.5317  0.3879 -3.1639
 8466SOL    HW236858   4.298   1.481   8.869  0.5092 -0.4464  0.9529
 8467SOL     OW36859   4.068   0.771  13.853  0.0650  0.3864 -0.2779
 8467SOL    HW136860   3.991   0.808  13.809 -0.3554  1.3709  1.3210
 8467SOL    HW236861   4.126   0.847  13.852 -1.2071  1.3507 -1.4690
 8468SOL     OW36862   3.242   4.020   7.179  0.3153  0.4082 -0.5809
 8468SOL    HW136863   3.265   4.049   7.091  2.4284 -0.0328 -0.1747
 8468SOL    HW236864   3.235   4.104   7.224 -2.1361 -0.3651  0.4790
 8469SOL     OW36865   0.627   3.887   6.275 -0.3852 -0.1499 -0.4890
 8469SOL    HW136866   0.705   3.860   6.323 -0.3604 -1.8399 -1.4615
 8469SOL    HW236867   0.669   3.927   6.198  1.5810  1.2690  1.3368
 8470SOL     OW36868   2.064   2.651   8.986 -0.1924  0.5845  0.1542
 8470SOL    HW136869   2.110   2.702   9.052 -1.5500 -0.6990  2.1060
 8470SOL    HW236870   2.101   2.702   8.914  0.6372  0.1699  0.2850
 8471SOL     OW36871   2.392   1.795   8.406  0.1767 -0.8177 -0.3135
 8471SOL    HW136872   2.327   1.729   8.383  1.6746 -2.2325 -0.5011
 8471SOL    HW236873   2.466   1.739   8.380 -0.6788 -1.6911 -0.8682
 8472SOL     OW36874   3.519   3.164   2.814  0.1004 -0.4162 -0.1468
 8472SOL    HW136875   3.454   3.216   2.767 -0.9873 -1.2450  0.4260
 8472SOL    HW236876   3.509   3.081   2.767 -2.5620  0.8103 -1.7315
 8473SOL     OW36877   1.591   4.483   7.480  0.2486  0.3831 -0.3647
 8473SOL    HW136878   1.550   4.521   7.558  1.7245  2.3372 -0.5444
 8473SOL    HW236879   1.631   4.404   7.517  0.5832  1.5400  1.7728
 8474SOL     OW36880   2.159   4.176   4.602 -0.2481  0.1213  0.4256
 8474SOL    HW136881   2.173   4.087   4.632  1.5227  0.6733  1.2694
 8474SOL    HW236882   2.091   4.167   4.535 -1.6265 -1.1531  2.0065
 8475SOL     OW36883   1.864   1.051   5.276  0.3495  0.2946 -0.2056
 8475SOL    HW136884   1.777   1.042   5.237  0.9448 -1.7587 -1.0601
 8475SOL    HW236885   1.846   0.997   5.353  0.9676 -0.1981 -0.4018
 8476SOL     OW36886   2.913   2.676  14.975 -0.2459 -0.2682 -0.0421
 8476SOL    HW136887   2.909   2.770  14.957  2.4683 -0.1015  0.1453
 8476SOL    HW236888   2.820   2.659  14.990 -0.0477  1.3927  3.2540
 8477SOL     OW36889   1.944   1.580   3.964  0.3548 -0.3261 -0.2968
 8477SOL    HW136890   1.918   1.498   4.006 -1.6963  2.2981  3.5528
 8477SOL    HW236891   1.883   1.640   4.008  3.2541  0.6578  2.3582
 8478SOL     OW36892   3.355   1.788   6.897 -0.0580  0.6813 -0.1896
 8478SOL    HW136893   3.286   1.822   6.840  1.1697  1.0512 -1.4521
 8478SOL    HW236894   3.329   1.816   6.985 -1.3560  0.7495 -0.5934
 8479SOL     OW36895   1.272   4.464   2.512  0.3917  0.8099 -0.1640
 8479SOL    HW136896   1.209   4.517   2.561  0.4241  0.7678 -0.0758
 8479SOL    HW236897   1.329   4.427   2.580 -2.1244 -1.8531  0.4931
 8480SOL     OW36898   4.067   0.199  14.491 -0.0306 -0.5101 -0.4109
 8480SOL    HW136899   3.999   0.266  14.495  1.0715  0.4197  2.6967
 8480SOL    HW236900   4.021   0.116  14.494 -3.4091  1.3497 -0.6756
 8481SOL     OW36901   2.536   1.686   7.501  0.5207  0.6467  0.1299
 8481SOL    HW136902   2.572   1.663   7.415 -3.3728 -0.4613 -1.2183
 8481SOL    HW236903   2.457   1.736   7.478  0.3348 -0.0273 -0.7079
 8482SOL     OW36904   2.996   4.354   3.978 -0.6180 -0.2635 -0.0407
 8482SOL    HW136905   3.060   4.337   4.047  0.9192  3.8997 -0.4658
 8482SOL    HW236906   3.002   4.276   3.924  1.9700 -0.1863  0.1294
 8483SOL     OW36907   2.674   4.068   6.075 -0.3495 -0.2204  0.2024
 8483SOL    HW136908   2.592   4.117   6.084  0.3758  0.7157  1.7723
 8483SOL    HW236909   2.668   4.038   5.984 -0.6529 -2.9515  1.1220
 8484SOL     OW36910   4.514   1.396   3.864 -0.1364 -0.0624  0.0342
 8484SOL    HW136911   4.480   1.448   3.937 -0.4177 -0.5123  0.2254
 8484SOL    HW236912   4.496   1.311   3.905  0.4408  0.1830  0.7982
 8485SOL     OW36913   3.966   4.491   8.521  0.1141 -0.0890  0.2347
 8485SOL    HW136914   3.961   4.489   8.425 -1.5151  0.4518  0.3083
 8485SOL    HW236915   4.052   4.448   8.521 -0.4578 -1.2414  1.1486
 8486SOL     OW36916   2.176   3.445   2.885  0.5271 -0.6082  0.2690
 8486SOL    HW136917   2.082   3.459   2.880  0.1822 -2.6948  0.8283
 8486SOL    HW236918   2.204   3.524   2.931  1.9359 -0.4672 -0.8118
 8487SOL     OW36919   1.510   0.703   8.694 -0.0639 -0.1613  0.5336
 8487SOL    HW136920   1.433   0.698   8.751 -0.7411  0.9804 -0.2812
 8487SOL    HW236921   1.517   0.799   8.694 -0.7040 -0.1113 -0.3616
 8488SOL     OW36922   0.585   4.136  10.495  0.6051 -0.3223  0.7120
 8488SOL    HW136923   0.500   4.108  10.462  0.6875  3.3666 -2.6158
 8488SOL    HW236924   0.559   4.211  10.549 -2.1798  0.0212 -1.1118
 8489SOL     OW36925   1.382   4.653   4.293 -0.1488 -0.1346  0.3127
 8489SOL    HW136926   1.345   4.632   4.207  0.9196  2.7848 -0.8745
 8489SOL    HW236927   1.390   4.563   4.324 -3.2997 -0.4189  0.2685
 8490SOL     OW36928   3.390   3.156   7.114  0.1642  0.6118 -0.4687
 8490SOL    HW136929   3.407   3.122   7.027 -1.3476  1.2072 -1.0086
 8490SOL    HW236930   3.378   3.247   7.084  0.7807  0.5385 -0.9195
 8491SOL     OW36931   2.490   2.219  11.678  0.0747  0.0846  0.5731
 8491SOL    HW136932   2.545   2.293  11.654 -0.7316 -0.0850 -1.8263
 8491SOL    HW236933   2.438   2.244  11.755  0.2089  1.9013  0.0644
 8492SOL     OW36934   0.943   1.059  11.060  0.0593 -0.3840 -0.0347
 8492SOL    HW136935   1.003   0.999  11.018 -1.4003 -2.7221  1.2268
 8492SOL    HW236936   0.997   1.138  11.049  0.1839 -0.6485 -1.2243
 8493SOL     OW36937   4.629   3.047   3.664  0.7231  0.1185 -0.2060
 8493SOL    HW136938   4.648   3.082   3.751  3.8092 -0.6333 -0.5720
 8493SOL    HW236939   4.538   3.076   3.662  0.4683 -0.8488 -2.0247
 8494SOL     OW36940   4.109   3.631   3.550 -0.0158  0.4588  0.6125
 8494SOL    HW136941   4.169   3.688   3.502 -1.0343  1.0435  0.0316
 8494SOL    HW236942   4.133   3.544   3.518 -0.7715  0.4895 -0.0437
 8495SOL     OW36943   0.081   0.284  15.380 -0.7737  0.1132  0.4065
 8495SOL    HW136944   0.046   0.241  15.458 -0.5107 -0.3189  0.2835
 8495SOL    HW236945   4.721   0.330  15.363 -1.3174 -1.6350 -1.5464
 8496SOL     OW36946   4.391   3.315   5.244 -0.2365 -0.0946  0.0586
 8496SOL    HW136947   4.373   3.268   5.325  2.9201 -2.5557 -0.6919
 8496SOL    HW236948   4.386   3.404   5.281 -0.7947 -1.4605  3.2621
 8497SOL     OW36949   3.440   2.445   3.701 -0.0213 -0.2559  0.0476
 8497SOL    HW136950   3.359   2.395   3.713  2.1066 -3.2827  1.4008
 8497SOL    HW236951   3.445   2.433   3.606  1.4043  0.4070  0.0442
 8498SOL     OW36952   3.581   2.370   6.124 -0.2936 -0.0121  0.2483
 8498SOL    HW136953   3.653   2.431   6.141 -0.6738  1.1564 -2.4640
 8498SOL    HW236954   3.564   2.387   6.032  0.8998 -0.3710 -0.0390
 8499SOL     OW36955   2.173   4.090   1.214  0.0079  0.1691 -0.1850
 8499SOL    HW136956   2.190   4.021   1.278  0.6028  0.4206 -0.0756
 8499SOL    HW236957   2.136   4.157   1.271 -0.2936  0.1746 -0.3892
 8500SOL     OW36958   1.827   3.815   2.405  0.3400 -0.0159 -0.4766
 8500SOL    HW136959   1.883   3.893   2.412 -0.3049  0.1696  2.5166
 8500SOL    HW236960   1.746   3.860   2.383 -0.1340 -1.5328 -1.8022
 8501SOL     OW36961   0.088   4.013   9.400 -0.0442 -0.3619 -0.3230
 8501SOL    HW136962   0.170   4.019   9.450  0.7110 -1.1813 -1.4405
 8501SOL    HW236963   0.094   4.079   9.331 -1.6067  1.0046  0.8912
 8502SOL     OW36964   1.744   0.767   3.964 -0.2769  0.6938 -1.2744
 8502SOL    HW136965   1.747   0.712   3.886 -3.2942 -0.0993 -0.8011
 8502SOL    HW236966   1.817   0.719   4.005 -1.9884 -1.6238 -0.9399
 8503SOL     OW36967   2.159   0.573  13.285 -0.1971  0.4666 -0.1009
 8503SOL    HW136968   2.243   0.553  13.245  0.9850  1.4600  1.8354
 8503SOL    HW236969   2.099   0.535  13.221  0.6359 -1.5319  0.3174
 8504SOL     OW36970   0.714   1.662  13.770  0.0832 -0.1993  0.4878
 8504SOL    HW136971   0.769   1.623  13.838  0.2495  1.3791  1.2833
 8504SOL    HW236972   0.628   1.650  13.809  0.7380 -0.9489  1.7238
 8505SOL     OW36973   1.060   2.816  14.322  0.2312  0.1518  0.4127
 8505SOL    HW136974   1.084   2.860  14.241  1.3705 -0.9398  0.1587
 8505SOL    HW236975   1.002   2.748  14.290 -1.3581  0.9291  1.6191
 8506SOL     OW36976   2.747   1.908  15.204  0.2285 -0.2229 -0.1286
 8506SOL    HW136977   2.843   1.917  15.205  0.1569  0.5595 -0.9718
 8506SOL    HW236978   2.716   1.969  15.270  0.2829  0.3045 -0.5933
 8507SOL     OW36979   1.226   1.896   3.828  0.2962 -0.0057  0.3828
 8507SOL    HW136980   1.266   1.983   3.825  1.9321 -0.8418 -1.4886
 8507SOL    HW236981   1.303   1.848   3.858  0.4965  1.1668  1.7679
 8508SOL     OW36982   1.263   0.440  13.808 -0.2373 -1.0263 -0.2623
 8508SOL    HW136983   1.191   0.398  13.760 -2.0255  1.6033  0.1325
 8508SOL    HW236984   1.315   0.467  13.732  0.3670  0.2448  0.6031
 8509SOL     OW36985   1.821   0.864   2.410 -0.0323  0.3787 -0.1965
 8509SOL    HW136986   1.850   0.944   2.365 -1.3158  0.2188 -1.3239
 8509SOL    HW236987   1.884   0.800   2.378  0.6097  1.1516 -0.4772
 8510SOL     OW36988   0.666   4.466   7.511  0.0776  0.0116  0.0687
 8510SOL    HW136989   0.603   4.535   7.491  1.8559  1.9930  1.2762
 8510SOL    HW236990   0.694   4.449   7.421 -0.9063  0.5490 -0.3383
 8511SOL     OW36991   2.863   1.452   6.082  0.3095 -0.3167  0.0259
 8511SOL    HW136992   2.820   1.528   6.121  3.6226  2.4665 -1.7582
 8511SOL    HW236993   2.887   1.490   5.998 -3.6232 -0.5411 -1.2070
 8512SOL     OW36994   3.889   2.275   1.975 -0.5656 -0.0829 -0.3987
 8512SOL    HW136995   3.883   2.368   1.996 -1.9651 -0.5778  1.3802
 8512SOL    HW236996   3.918   2.240   2.060 -0.3875 -0.6348 -0.6880
 8513SOL     OW36997   0.747   1.021  10.863 -0.0824 -0.4947  0.0258
 8513SOL    HW136998   0.733   0.926  10.859  1.7442 -0.8776  2.3828
 8513SOL    HW236999   0.806   1.036  10.937 -1.8977  0.3590  1.2957
 8514SOL     OW37000   4.406   2.952   6.953  0.3337 -0.0274 -0.0783
 8514SOL    HW137001   4.369   3.039   6.936 -1.0300 -1.0800 -2.4938
 8514SOL    HW237002   4.399   2.926   6.861 -1.1958 -1.0375  0.3363
 8515SOL     OW37003   0.903   0.335   5.271 -0.2877  0.4625 -0.1190
 8515SOL    HW137004   0.835   0.384   5.317 -0.0711  0.4293  0.2348
 8515SOL    HW237005   0.970   0.310   5.335 -1.3219  0.2260  0.8744
 8516SOL     OW37006   3.027   1.155   2.729 -0.0400  0.4972  0.0434
 8516SOL    HW137007   3.108   1.113   2.757  0.5615  0.9124 -1.0537
 8516SOL    HW237008   3.032   1.130   2.636 -0.1845 -1.7659  0.6613
 8517SOL     OW37009   4.342   0.653   9.237 -0.0202 -0.0596 -0.0220
 8517SOL    HW137010   4.389   0.713   9.178  0.6761 -0.1358  0.4594
 8517SOL    HW237011   4.391   0.666   9.319 -1.9500  0.6859  1.0072
 8518SOL     OW37012   3.640   3.557  17.387 -0.5840 -0.2141  0.0009
 8518SOL    HW137013   3.553   3.531  17.356 -0.6275 -2.8995  2.3892
 8518SOL    HW237014   3.619   3.647  17.412  0.8008 -0.2661  1.3696
 8519SOL     OW37015   1.920   3.525   1.640  0.2339 -0.1917 -0.4417
 8519SOL    HW137016   2.010   3.552   1.624 -0.2881  0.9225 -1.5697
 8519SOL    HW237017   1.880   3.554   1.557 -0.2887  0.8031  0.1521
 8520SOL     OW37018   4.405   2.594   7.986  0.4998  0.0381 -0.1408
 8520SOL    HW137019   4.410   2.603   7.891  1.0613  1.5989  0.0454
 8520SOL    HW237020   4.315   2.562   7.983  0.2200  0.9552 -1.7090
 8521SOL     OW37021   0.779   4.277   0.983 -0.1727  0.4331 -0.0536
 8521SOL    HW137022   0.802   4.245   0.896 -0.6057 -1.8282  0.6756
 8521SOL    HW237023   0.737   4.197   1.015  0.2976  0.1244 -0.2235
 8522SOL     OW37024   3.198   0.810   2.772 -0.0098 -0.1513 -0.2621
 8522SOL    HW137025   3.263   0.766   2.717  1.5133 -0.3054  1.6678
 8522SOL    HW237026   3.117   0.782   2.730 -0.5245 -0.5887  1.0325
 8523SOL     OW37027   2.227   0.482   9.013 -0.0420  0.3391  0.2116
 8523SOL    HW137028   2.247   0.427   9.089  1.0387 -1.1775 -1.1580
 8523SOL    HW237029   2.136   0.455   9.001  0.5559 -2.3299  1.5533
 8524SOL     OW37030   1.799   4.314   3.934 -0.7041 -0.1901  0.4216
 8524SOL    HW137031   1.757   4.228   3.931 -1.1129  0.0454 -0.6932
 8524SOL    HW237032   1.882   4.291   3.893 -1.8482 -2.0661 -0.8441
 8525SOL     OW37033   0.663   1.081  11.255  0.2675  0.2899 -0.0679
 8525SOL    HW137034   0.729   1.047  11.194 -1.8742  0.4957 -2.5131
 8525SOL    HW237035   0.654   1.173  11.230 -0.3403  0.1732 -0.2689
 8526SOL     OW37036   2.242   1.987   8.260 -0.2990  0.3814 -0.2501
 8526SOL    HW137037   2.267   1.976   8.351 -0.8230  0.9600 -0.0371
 8526SOL    HW237038   2.242   1.894   8.238 -1.2582  0.5869 -1.1005
 8527SOL     OW37039   0.903   2.173   7.201  0.4023 -0.4715 -0.2389
 8527SOL    HW137040   0.935   2.101   7.255  0.7846 -0.6119 -0.6452
 8527SOL    HW237041   0.816   2.137   7.183 -1.0593  2.8939  0.0554
 8528SOL     OW37042   2.417   3.302  15.997  0.8258 -0.4565  0.0755
 8528SOL    HW137043   2.458   3.299  15.910  0.0511  1.7378 -0.3528
 8528SOL    HW237044   2.391   3.394  15.999  0.8271 -0.5011  1.8532
 8529SOL     OW37045   2.080   1.022   4.477 -0.3637  0.6702  0.3046
 8529SOL    HW137046   2.026   1.049   4.403  0.1628  0.9355  0.0208
 8529SOL    HW237047   2.057   1.090   4.540 -3.6767  0.2801 -0.4926
 8530SOL     OW37048   3.392   3.863   9.780  0.7551  0.2459  0.4532
 8530SOL    HW137049   3.472   3.851   9.730  0.6388 -1.1508  0.5970
 8530SOL    HW237050   3.329   3.908   9.724  3.0030  0.2756 -2.0076
 8531SOL     OW37051   3.395   3.311  11.591  0.5312 -0.4412  0.2254
 8531SOL    HW137052   3.319   3.318  11.650  0.2667  2.6444 -0.4904
 8531SOL    HW237053   3.407   3.406  11.583 -2.4315 -0.2472 -2.0905
 8532SOL     OW37054   2.292   2.850   7.583 -0.0755  0.3899 -0.0914
 8532SOL    HW137055   2.359   2.837   7.515 -0.6734 -2.3862 -0.1331
 8532SOL    HW237056   2.305   2.777   7.644 -1.1638  0.0188 -0.3209
 8533SOL     OW37057   2.410   0.455   9.599  0.1978  0.8503  0.8070
 8533SOL    HW137058   2.388   0.536   9.554  0.0314  0.0023 -0.6295
 8533SOL    HW237059   2.387   0.480   9.689 -2.8151  0.3229  0.1662
 8534SOL     OW37060   2.641   4.348   9.440 -0.2143  0.3506  0.1390
 8534SOL    HW137061   2.550   4.364   9.467 -0.5242  0.4227 -0.9435
 8534SOL    HW237062   2.691   4.373   9.517 -0.1787  0.4482  0.0844
 8535SOL     OW37063   2.200   3.248   0.451  0.3524  0.1250 -0.1918
 8535SOL    HW137064   2.122   3.191   0.449  0.5693 -0.2631  2.6487
 8535SOL    HW237065   2.262   3.176   0.443 -1.1135 -0.9550 -1.8761
 8536SOL     OW37066   2.449   0.981   4.346 -0.0940 -0.3144 -0.4376
 8536SOL    HW137067   2.446   0.905   4.288  3.6559 -1.7881  1.2954
 8536SOL    HW237068   2.497   0.944   4.420  0.5124 -2.6143 -2.0071
 8537SOL     OW37069   2.575   3.684   0.867 -0.1581 -0.0272 -0.3761
 8537SOL    HW137070   2.561   3.758   0.926  1.2794 -0.5571  0.6135
 8537SOL    HW237071   2.488   3.643   0.865 -0.8934  1.6429 -1.7065
 8538SOL     OW37072   0.756   1.894   5.049  0.2066 -0.1298 -0.2671
 8538SOL    HW137073   0.693   1.930   5.112 -0.7781  1.6180 -2.2208
 8538SOL    HW237074   0.741   1.941   4.967  0.4005 -0.9199 -0.7452
 8539SOL     OW37075   3.236   0.364   8.686  0.2328  0.2698  0.3105
 8539SOL    HW137076   3.252   0.286   8.739 -1.5776  0.6190  1.3796
 8539SOL    HW237077   3.143   0.376   8.702 -0.3480 -0.5699 -2.5287
 8540SOL     OW37078   3.752   2.986  11.268  0.0700  0.5665  0.3400
 8540SOL    HW137079   3.674   2.982  11.324 -0.0076 -0.9492  0.1107
 8540SOL    HW237080   3.816   3.029  11.325 -0.1128  0.6725  0.4661
 8541SOL     OW37081   0.246   0.552  17.165  0.4198  0.0957 -0.0297
 8541SOL    HW137082   0.168   0.499  17.151 -0.0235  0.9309 -0.7035
 8541SOL    HW237083   0.224   0.631  17.116 -1.0501 -0.6052 -0.5039
 8542SOL     OW37084   2.000   1.806   8.498 -0.3136  0.7332  0.1801
 8542SOL    HW137085   2.015   1.711   8.493  2.9302  1.2370  0.0695
 8542SOL    HW237086   2.082   1.837   8.538  0.9686  1.2529 -2.8089
 8543SOL     OW37087   4.672   1.286   6.110  0.4332  0.2808 -0.1973
 8543SOL    HW137088   0.002   1.277   6.030 -0.9171 -0.1289 -1.0264
 8543SOL    HW237089   0.005   1.255   6.181  0.9020 -3.4842 -2.2384
 8544SOL     OW37090   2.457   2.188   2.248 -0.5195 -0.1508  0.0803
 8544SOL    HW137091   2.471   2.164   2.157  1.4461  2.4938 -0.3089
 8544SOL    HW237092   2.466   2.099   2.281  1.0622 -0.3824 -0.9860
 8545SOL     OW37093   2.945   2.834  16.147  0.0855 -0.6441 -0.1871
 8545SOL    HW137094   2.857   2.864  16.123  1.1895  2.4325 -0.3622
 8545SOL    HW237095   2.949   2.862  16.239  1.8537  0.9032 -0.7195
 8546SOL     OW37096   1.403   1.371   1.449 -0.2696  0.6783 -0.0098
 8546SOL    HW137097   1.354   1.427   1.510  1.5846  0.4942  1.6270
 8546SOL    HW237098   1.431   1.439   1.389 -0.9602 -0.2786 -1.4232
 8547SOL     OW37099   0.540   4.125  13.198  0.2752 -0.1682  0.5389
 8547SOL    HW137100   0.455   4.097  13.231  0.5968 -0.1826  1.3363
 8547SOL    HW237101   0.585   4.045  13.224 -0.1605 -0.4728  0.3689
 8548SOL     OW37102   4.720   2.627   2.655  1.0160 -0.4794 -0.3345
 8548SOL    HW137103   4.690   2.677   2.731  1.1265  0.2678 -0.7829
 8548SOL    HW237104   0.086   2.613   2.688  0.4750  0.0878  1.3260
 8549SOL     OW37105   3.185   2.338   7.037 -0.0949 -0.6733 -0.5893
 8549SOL    HW137106   3.144   2.422   7.058 -0.3743 -1.3188  1.5200
 8549SOL    HW237107   3.137   2.316   6.957  1.2749  0.9874 -1.8655
 8550SOL     OW37108   2.324   0.881  13.748  1.0297  1.3041 -0.0633
 8550SOL    HW137109   2.343   0.973  13.726  1.0590  0.7498 -2.3390
 8550SOL    HW237110   2.237   0.861  13.715  0.2533 -0.0138  2.8009
 8551SOL     OW37111   1.028   0.315   5.910  0.2206 -0.2730  0.0480
 8551SOL    HW137112   1.020   0.253   5.838  2.4089 -0.4520 -0.0178
 8551SOL    HW237113   1.030   0.257   5.987 -2.1442 -0.8549 -0.3014
 8552SOL     OW37114   0.349   0.280   9.826  0.0942  0.2035 -0.0534
 8552SOL    HW137115   0.312   0.269   9.914  1.6753 -0.7577  0.4782
 8552SOL    HW237116   0.271   0.266   9.773 -0.8921 -1.2472  1.7729
 8553SOL     OW37117   3.895   1.132   3.159  0.3358 -0.6087  0.4331
 8553SOL    HW137118   3.894   1.038   3.144 -3.1041 -0.6023  0.4326
 8553SOL    HW237119   3.918   1.165   3.072 -0.9524 -1.5773 -0.2762
 8554SOL     OW37120   1.229   3.728   3.880 -0.1928 -0.4740  0.2724
 8554SOL    HW137121   1.256   3.713   3.971  0.2883 -0.3590  0.1481
 8554SOL    HW237122   1.280   3.657   3.839 -0.1571 -0.1714 -0.2061
 8555SOL     OW37123   0.022   2.391  10.554 -0.3039 -0.3062  0.0267
 8555SOL    HW137124   0.075   2.346  10.619  3.0367  0.4029 -2.1927
 8555SOL    HW237125   4.657   2.384  10.593  0.5578 -0.0411  2.0198
 8556SOL     OW37126   1.071   1.910   7.011 -0.4352 -0.3476  0.6550
 8556SOL    HW137127   1.130   1.949   7.076 -0.3050 -0.4189  0.5803
 8556SOL    HW237128   0.989   1.898   7.059 -0.0361  3.5862  2.3150
 8557SOL     OW37129   1.937   4.039   6.764  0.0595 -0.0678 -0.2593
 8557SOL    HW137130   1.952   4.004   6.852 -0.3501 -3.2602 -1.4545
 8557SOL    HW237131   1.941   3.958   6.712 -1.0255  0.7025 -1.5502
 8558SOL     OW37132   2.631   2.343  15.900  0.2089  0.2443  0.8048
 8558SOL    HW137133   2.597   2.359  15.988 -0.1256 -0.1319  0.7433
 8558SOL    HW237134   2.563   2.284  15.866 -0.2833  0.7355  0.9303
 8559SOL     OW37135   2.578   2.394   6.255 -0.3224  0.5204 -0.1758
 8559SOL    HW137136   2.659   2.419   6.300 -1.9019  0.3231  2.7821
 8559SOL    HW237137   2.516   2.414   6.324 -0.3669  0.9859 -0.3557
 8560SOL     OW37138   1.674   1.140  10.620  0.1415  0.0223  0.1588
 8560SOL    HW137139   1.757   1.093  10.617  0.4807  0.6280  0.1491
 8560SOL    HW237140   1.641   1.100  10.539  0.2386 -2.5959  1.4226
 8561SOL     OW37141   3.279   2.976   2.736 -0.7855 -0.0398  0.1852
 8561SOL    HW137142   3.248   2.885   2.738  1.8794 -0.9461 -0.5346
 8561SOL    HW237143   3.359   2.968   2.684 -0.8638  1.6006 -0.1728
 8562SOL     OW37144   3.464   2.677   4.161 -0.4195 -0.2644  0.1580
 8562SOL    HW137145   3.394   2.699   4.222 -0.6507  2.2255 -0.9769
 8562SOL    HW237146   3.499   2.596   4.197 -3.3535 -1.5965 -0.0779
 8563SOL     OW37147   4.218   1.000   2.364 -0.0770 -0.2519  0.2956
 8563SOL    HW137148   4.188   0.979   2.453  0.0235 -2.2188 -0.1432
 8563SOL    HW237149   4.254   1.088   2.379 -0.0369 -0.3754  0.9403
 8564SOL     OW37150   1.417   0.344   6.833 -0.0926 -0.4490  0.5129
 8564SOL    HW137151   1.461   0.281   6.890 -0.1567 -1.3224 -0.4052
 8564SOL    HW237152   1.472   0.358   6.756  0.4578 -0.5790  0.8823
 8565SOL     OW37153   3.253   3.553   5.536 -0.2367 -0.1718 -0.6738
 8565SOL    HW137154   3.216   3.638   5.558  0.6813 -0.0430  0.3662
 8565SOL    HW237155   3.258   3.561   5.440 -4.1117  1.0449 -0.7700
 8566SOL     OW37156   0.861   0.525  11.497  0.0878 -0.2567  0.0145
 8566SOL    HW137157   0.944   0.568  11.474 -0.4240  1.1613  0.8134
 8566SOL    HW237158   0.865   0.523  11.593  1.3027 -0.4069 -0.0446
 8567SOL     OW37159   0.265   0.382  12.086  0.4061  0.1396  0.2192
 8567SOL    HW137160   0.312   0.340  12.159  1.4858  0.0095 -0.5386
 8567SOL    HW237161   0.190   0.324  12.080 -0.0478  0.8325 -0.7013
 8568SOL     OW37162   3.585   2.305   5.526 -0.1247 -0.8151 -0.2037
 8568SOL    HW137163   3.658   2.325   5.585 -0.4410 -2.3039  0.6844
 8568SOL    HW237164   3.517   2.360   5.565  2.0277  0.9630  1.0389
 8569SOL     OW37165   2.523   2.639   2.372  0.6822  0.4077 -0.4800
 8569SOL    HW137166   2.537   2.691   2.293  1.0831 -0.4932 -1.0052
 8569SOL    HW237167   2.592   2.677   2.426 -0.2546  0.0253  1.0040
 8570SOL     OW37168   2.226   2.491   6.165  0.2267  0.1424  0.2192
 8570SOL    HW137169   2.230   2.403   6.202 -0.4141  0.9457  2.1894
 8570SOL    HW237170   2.240   2.537   6.248  1.4678  0.7249 -0.3103
 8571SOL     OW37171   4.601   2.430   8.987  1.0463 -0.0357 -0.6183
 8571SOL    HW137172   4.641   2.370   8.925  1.5141 -1.0608  0.6821
 8571SOL    HW237173   4.520   2.452   8.940 -1.2794  0.0750  3.4177
 8572SOL     OW37174   3.644   2.194   4.198  0.0374 -0.0883  0.3141
 8572SOL    HW137175   3.604   2.108   4.187 -0.6522  0.2618  0.0473
 8572SOL    HW237176   3.660   2.221   4.107  1.5947 -1.1860  0.2712
 8573SOL     OW37177   1.300   0.844  14.890 -0.3902 -0.0109 -0.2766
 8573SOL    HW137178   1.274   0.890  14.970 -0.9684 -3.6919  1.6406
 8573SOL    HW237179   1.223   0.854  14.835  0.4909  2.2706 -1.1007
 8574SOL     OW37180   3.477   1.513  10.822  0.1583 -0.5858  0.1636
 8574SOL    HW137181   3.536   1.443  10.796  0.1292 -0.3425 -0.5529
 8574SOL    HW237182   3.410   1.516  10.754  0.0955 -0.3152  0.2365
 8575SOL     OW37183   3.802   2.208   0.127  0.0097 -0.3185  0.3391
 8575SOL    HW137184   3.747   2.263   0.181 -2.6971 -0.6256 -2.1291
 8575SOL    HW237185   3.887   2.213   0.172  0.4087  1.2048 -0.5663
 8576SOL     OW37186   3.285   1.502  10.115  0.4272 -0.4891 -0.1988
 8576SOL    HW137187   3.266   1.582  10.165  1.7688 -0.0329 -0.3914
 8576SOL    HW237188   3.199   1.469  10.091 -0.0855  0.2149  0.6894
 8577SOL     OW37189   2.690   2.506   3.899  0.6061  0.4325 -0.0772
 8577SOL    HW137190   2.732   2.558   3.968  2.2888  0.2249 -0.9327
 8577SOL    HW237191   2.682   2.583   3.841 -4.1587  0.3014  0.4690
 8578SOL     OW37192   2.683   1.381   9.146  0.3286  0.2226  0.1121
 8578SOL    HW137193   2.778   1.391   9.142  0.0841  1.6989 -2.0429
 8578SOL    HW237194   2.653   1.436   9.219 -1.7567 -1.5275  0.5425
 8579SOL     OW37195   2.739   1.453   2.537 -0.0244  0.2418  0.0664
 8579SOL    HW137196   2.778   1.384   2.483 -1.0891  0.4705 -0.9886
 8579SOL    HW237197   2.806   1.451   2.605  1.4421 -1.8715 -1.4471
 8580SOL     OW37198   3.508   2.665  12.041  0.6770 -0.7718  0.2060
 8580SOL    HW137199   3.603   2.662  12.057  0.8407  0.6071 -0.5170
 8580SOL    HW237200   3.493   2.583  11.994  0.8570  1.4526 -3.7367
 8581SOL     OW37201   1.723   1.710   9.117  0.4053  0.4411 -0.2737
 8581SOL    HW137202   1.815   1.687   9.127  0.5872  1.3053 -0.0054
 8581SOL    HW237203   1.679   1.625   9.122  1.0481  0.1828  0.9483
 8582SOL     OW37204   2.095   2.046   5.006  0.2282  0.0108 -0.1195
 8582SOL    HW137205   2.108   2.102   5.082 -2.2672 -0.0580  0.3396
 8582SOL    HW237206   2.182   2.013   4.984  0.7918 -0.9929  3.6108
 8583SOL     OW37207   1.002   4.320  15.162 -0.5127 -0.5695 -0.7548
 8583SOL    HW137208   0.952   4.261  15.106  1.2702 -0.9084 -1.9807
 8583SOL    HW237209   0.979   4.401  15.117  0.9591  0.9012  1.1057
 8584SOL     OW37210   2.934   0.997   0.510 -0.3477  0.1929  0.6969
 8584SOL    HW137211   2.884   0.916   0.517  0.3751 -0.5093 -2.3076
 8584SOL    HW237212   3.023   0.966   0.527 -0.7460 -1.8376 -1.0687
 8585SOL     OW37213   1.795   3.302   9.013  0.5035  1.0508 -0.1660
 8585SOL    HW137214   1.859   3.372   9.023  1.0460  0.6587 -0.8770
 8585SOL    HW237215   1.712   3.337   9.046  0.7432  0.4776  1.0608
 8586SOL     OW37216   4.027   4.384   6.799 -0.4582 -0.2750 -0.4057
 8586SOL    HW137217   3.967   4.311   6.781  0.6996 -1.7589  1.7113
 8586SOL    HW237218   3.998   4.446   6.733  0.1531  1.6212  1.1007
 8587SOL     OW37219   1.967   4.649   5.199  0.0105 -0.3323 -0.1585
 8587SOL    HW137220   1.965   4.685   5.110  1.8122  1.1019  0.3822
 8587SOL    HW237221   1.910   4.713   5.241  1.0064  1.4506 -1.5028
 8588SOL     OW37222   3.000   4.722   6.192 -0.4469  0.2881 -0.4295
 8588SOL    HW137223   3.094   0.016   6.198 -0.6114  0.9550  0.3358
 8588SOL    HW237224   2.963   0.088   6.197  1.6119  1.0611  1.3270
 8589SOL     OW37225   2.789   1.834   8.044 -0.0799  0.7056  0.0902
 8589SOL    HW137226   2.844   1.778   8.098  1.7062  0.0076 -2.4705
 8589SOL    HW237227   2.770   1.904   8.106 -0.6408  1.5676 -1.0537
 8590SOL     OW37228   2.199   0.279   5.330  0.1349 -0.1550 -0.3104
 8590SOL    HW137229   2.237   0.363   5.306  0.4768  0.0044  0.7874
 8590SOL    HW237230   2.134   0.297   5.398 -0.5969  0.9467 -1.3005
 8591SOL     OW37231   0.158   2.023   5.172 -0.4608  0.3980  0.2284
 8591SOL    HW137232   0.182   2.030   5.264  1.4551 -1.2295 -0.1424
 8591SOL    HW237233   0.124   1.933   5.171 -3.0586  1.3797 -1.0712
 8592SOL     OW37234   2.241   1.231   7.627 -0.4393  0.0837  0.3021
 8592SOL    HW137235   2.316   1.290   7.634 -0.5921  0.1249  1.6972
 8592SOL    HW237236   2.274   1.159   7.681  1.4958  1.2703  0.7250
 8593SOL     OW37237   3.200   3.205   8.647  0.1573 -0.2264 -0.4648
 8593SOL    HW137238   3.144   3.218   8.570  0.1810  1.4937 -0.1830
 8593SOL    HW237239   3.180   3.280   8.703  1.2116  1.2363 -2.0282
 8594SOL     OW37240   2.461   4.380   5.232  0.4701 -0.6227  0.2977
 8594SOL    HW137241   2.447   4.428   5.150  0.5154 -1.3780 -0.1457
 8594SOL    HW237242   2.549   4.413   5.253 -0.3022  0.5497  1.7003
 8595SOL     OW37243   4.491   2.636   0.511  0.2462 -0.2086 -0.2802
 8595SOL    HW137244   4.558   2.704   0.516 -0.4627  0.5831 -1.3143
 8595SOL    HW237245   4.488   2.622   0.416 -0.2562  1.0858 -0.4657
 8596SOL     OW37246   1.885   1.347   5.300 -0.1507 -0.1637  0.0356
 8596SOL    HW137247   1.821   1.346   5.371  1.0985 -0.3831  1.1557
 8596SOL    HW237248   1.895   1.253   5.284 -2.5516 -0.6699  1.6009
 8597SOL     OW37249   3.856   4.552   9.327 -0.6238 -0.0319 -0.1350
 8597SOL    HW137250   3.897   4.616   9.385  2.4229 -0.0245 -2.2916
 8597SOL    HW237251   3.813   4.614   9.268  1.4449  0.5351 -1.0565
 8598SOL     OW37252   1.776   3.867   0.894 -0.1916 -0.1683  0.1463
 8598SOL    HW137253   1.797   3.775   0.910 -0.7239 -0.7148 -2.3925
 8598SOL    HW237254   1.780   3.870   0.798  1.8735  0.2248  0.2306
 8599SOL     OW37255   4.701   4.011   7.605  0.2219 -0.1747 -0.2855
 8599SOL    HW137256   0.058   3.964   7.629 -0.7192 -1.4389  0.3223
 8599SOL    HW237257   0.012   4.061   7.531  1.1727 -1.7066 -0.8746
 8600SOL     OW37258   1.920   4.403   9.156  0.2686 -0.0693 -0.5440
 8600SOL    HW137259   1.832   4.437   9.140  0.3518  0.9840  1.1456
 8600SOL    HW237260   1.954   4.474   9.212  1.3811 -1.5168  0.6372
 8601SOL     OW37261   3.734   1.879  13.394  0.7255  0.1022 -0.3842
 8601SOL    HW137262   3.650   1.869  13.348 -0.8369 -0.5994  2.6731
 8601SOL    HW237263   3.777   1.948  13.343  0.9298 -0.9224 -1.5967
 8602SOL     OW37264   0.371   0.649   7.031 -0.2167  0.5606  0.1242
 8602SOL    HW137265   0.296   0.617   7.080 -0.1373  0.8542  0.4361
 8602SOL    HW237266   0.328   0.669   6.948 -1.2199 -1.0320  0.2570
 8603SOL     OW37267   1.727   3.624   6.678  0.0255 -0.2858  0.1415
 8603SOL    HW137268   1.656   3.685   6.698  0.3202 -0.4534  1.6749
 8603SOL    HW237269   1.798   3.658   6.732 -1.0979  0.2822  1.2638
 8604SOL     OW37270   2.754   0.594   3.387 -0.4958  0.1182 -0.1562
 8604SOL    HW137271   2.803   0.636   3.316 -1.1212  1.3631  0.1545
 8604SOL    HW237272   2.666   0.626   3.370 -0.9491 -0.2486  1.5128
 8605SOL     OW37273   3.239   0.494   2.033  0.4866  0.2080 -0.5307
 8605SOL    HW137274   3.264   0.434   1.963 -0.7432 -0.9992  0.0520
 8605SOL    HW237275   3.269   0.575   1.994  0.2539  0.1571 -0.8090
 8606SOL     OW37276   1.018   1.480   4.498  0.6206  0.7359  0.3034
 8606SOL    HW137277   1.022   1.517   4.410  0.1226 -1.2623 -0.5722
 8606SOL    HW237278   0.965   1.547   4.541  1.2276  1.2027  0.3241
 8607SOL     OW37279   3.670   2.322  15.661 -0.1836  0.0106  0.0187
 8607SOL    HW137280   3.707   2.278  15.584 -1.4485 -1.8776  0.5035
 8607SOL    HW237281   3.711   2.267  15.729 -0.4156  1.0324  0.9840
 8608SOL     OW37282   0.372   1.481  10.903  0.0938 -0.2167 -0.4242
 8608SOL    HW137283   0.282   1.481  10.872  0.2260  6.0786 -0.9444
 8608SOL    HW237284   0.421   1.446  10.829 -0.3122 -1.7917  0.0690
 8609SOL     OW37285   1.025   2.349   5.065 -0.4423 -0.4502  0.1954
 8609SOL    HW137286   1.110   2.380   5.035 -0.3722 -1.0551 -0.2373
 8609SOL    HW237287   1.033   2.255   5.049  2.6989 -0.0680 -0.3764
 8610SOL     OW37288   1.466   3.346   1.589  0.4565 -0.0517 -0.5593
 8610SOL    HW137289   1.510   3.369   1.507 -0.5788  1.0819 -0.7888
 8610SOL    HW237290   1.428   3.430   1.614  0.7663 -0.5935  1.7159
 8611SOL     OW37291   0.094   3.106   0.264 -0.2045  0.1271  0.4180
 8611SOL    HW137292   0.118   3.035   0.204 -1.1642  0.9385 -0.9487
 8611SOL    HW237293   0.177   3.126   0.305 -0.2387 -0.0664  0.5785
 8612SOL     OW37294   4.409   2.125   5.091  0.5304  0.3569  0.1515
 8612SOL    HW137295   4.459   2.119   5.009 -1.4312 -1.6022 -0.8997
 8612SOL    HW237296   4.410   2.217   5.117  0.2290  0.4381 -0.1140
 8613SOL     OW37297   2.458   2.881   2.569  0.1158 -0.0742 -0.4336
 8613SOL    HW137298   2.395   2.809   2.576 -1.4064  1.3895  0.6900
 8613SOL    HW237299   2.416   2.935   2.502 -1.0020 -0.3420  0.0584
 8614SOL     OW37300   0.953   4.180   6.557  0.5196 -0.2688 -0.2706
 8614SOL    HW137301   0.888   4.238   6.517  1.9641  0.3559 -1.7368
 8614SOL    HW237302   0.987   4.143   6.476 -0.6135 -0.3568 -0.7127
 8615SOL     OW37303   2.151   0.986   3.561 -0.2806 -0.5010 -0.1240
 8615SOL    HW137304   2.120   0.915   3.618  1.0670  0.5472  1.8949
 8615SOL    HW237305   2.101   0.959   3.484 -3.9506  1.5402  1.5197
 8616SOL     OW37306   0.424   4.499  15.020  0.4840  0.1908  0.3956
 8616SOL    HW137307   0.486   4.508  14.949  0.7367  0.0998  0.6057
 8616SOL    HW237308   0.340   4.493  14.974  0.0435 -0.0477  1.2330
 8617SOL     OW37309   2.606   0.797  10.094 -0.0641 -0.8790 -0.1459
 8617SOL    HW137310   2.646   0.710  10.101  0.7190 -0.4939  0.0674
 8617SOL    HW237311   2.544   0.788  10.022 -0.0139 -0.7894 -0.1997
 8618SOL     OW37312   1.436   2.025   8.713 -0.3659  0.4190  0.3200
 8618SOL    HW137313   1.490   1.985   8.781  0.5908  0.5923 -0.3472
 8618SOL    HW237314   1.366   1.960   8.719  1.3630 -1.7752 -3.0575
 8619SOL     OW37315   4.274   4.645   1.888  0.1261  0.5565 -0.0185
 8619SOL    HW137316   4.313   0.008   1.865  2.3328 -0.0815  1.3307
 8619SOL    HW237317   4.343   4.579   1.884 -1.3623 -0.9169 -1.3264
 8620SOL     OW37318   2.222   2.770   5.420  0.0009 -0.0252 -0.1433
 8620SOL    HW137319   2.236   2.716   5.342  0.0818  0.7388 -0.6614
 8620SOL    HW237320   2.163   2.837   5.385 -0.0105  0.2574  0.4249
 8621SOL     OW37321   0.726   1.725   6.009  1.3554  1.1043  0.0755
 8621SOL    HW137322   0.752   1.649   6.061  2.7691  1.7577  0.3381
 8621SOL    HW237323   0.772   1.697   5.929 -1.5717  0.8731 -1.5138
 8622SOL     OW37324   1.393   1.508  11.838  0.2868 -0.6373  0.0970
 8622SOL    HW137325   1.393   1.416  11.864 -0.3789 -0.5995  0.2177
 8622SOL    HW237326   1.320   1.504  11.777 -0.9551 -1.5873  1.6467
 8623SOL     OW37327   1.337   0.057   3.585 -0.5081  0.0267  0.5982
 8623SOL    HW137328   1.383   0.113   3.647  1.6323 -0.3887 -0.6334
 8623SOL    HW237329   1.393   0.065   3.508 -0.4233 -3.0876  0.3040
 8624SOL     OW37330   4.085   0.373   7.754  0.3929 -0.0896 -0.3645
 8624SOL    HW137331   4.120   0.290   7.721 -0.7115 -0.9114  0.5078
 8624SOL    HW237332   4.002   0.345   7.793  0.2967  1.5227  0.5884
 8625SOL     OW37333   1.760   1.093   4.064 -0.5155  0.2439  0.0668
 8625SOL    HW137334   1.771   1.038   3.987 -2.4757  1.0885 -0.8159
 8625SOL    HW237335   1.696   1.160   4.038 -1.9036 -2.4951 -3.5317
 8626SOL     OW37336   1.571   4.228   8.261 -0.1824 -0.5926 -0.8976
 8626SOL    HW137337   1.527   4.171   8.324  0.8552  1.9828  2.1746
 8626SOL    HW237338   1.507   4.218   8.191 -2.2194 -2.5284  1.2126
 8627SOL     OW37339   2.702   1.940   3.597 -0.5966 -0.1055  0.1835
 8627SOL    HW137340   2.732   1.956   3.687  0.2152 -1.1490  0.1030
 8627SOL    HW237341   2.728   1.849   3.582  1.3077  0.2330  1.3034
 8628SOL     OW37342   4.140   2.652   9.020 -0.0490 -0.7134 -0.8969
 8628SOL    HW137343   4.205   2.591   9.054 -2.1900 -2.1701  0.6118
 8628SOL    HW237344   4.183   2.732   8.991  1.4062 -0.6230  1.4909
 8629SOL     OW37345   0.303   3.757  16.906  0.4026 -0.2129 -0.2678
 8629SOL    HW137346   0.292   3.834  16.962  1.8281 -0.2058  0.0052
 8629SOL    HW237347   0.257   3.787  16.828  0.8641 -2.0804 -1.2603
 8630SOL     OW37348   1.345   0.309   8.173 -0.2815  0.1673  0.0319
 8630SOL    HW137349   1.335   0.224   8.215  2.4483  0.1708  0.6902
 8630SOL    HW237350   1.319   0.292   8.083  0.0491  1.4274 -0.3077
 8631SOL     OW37351   1.161   4.090   3.242 -0.2404  0.2092 -0.2101
 8631SOL    HW137352   1.142   4.176   3.279  0.2965  1.3501 -2.6221
 8631SOL    HW237353   1.174   4.118   3.152  2.5221  0.3537  0.2267
 8632SOL     OW37354   1.958   2.433  11.174  0.2597  0.1665  0.1059
 8632SOL    HW137355   1.949   2.519  11.216  0.3883 -0.8633  2.2020
 8632SOL    HW237356   1.933   2.383  11.251  0.1913 -2.0701 -1.3514
 8633SOL     OW37357   3.838   4.286  11.239 -0.3563 -0.1025  0.1859
 8633SOL    HW137358   3.834   4.192  11.258 -1.0071 -0.4912 -1.9143
 8633SOL    HW237359   3.870   4.285  11.149 -0.8647 -1.0916  0.0187
 8634SOL     OW37360   1.413   1.544   5.860 -0.3512  0.6618 -0.0835
 8634SOL    HW137361   1.506   1.562   5.851 -0.4760  1.2339 -0.2105
 8634SOL    HW237362   1.386   1.472   5.803  0.6715  0.7487 -0.6592
 8635SOL     OW37363   2.179   3.879  13.830  0.4001 -0.0544 -0.0727
 8635SOL    HW137364   2.122   3.803  13.829  1.3491 -0.7500 -1.6619
 8635SOL    HW237365   2.195   3.896  13.737  4.0562 -0.8821  0.4122
 8636SOL     OW37366   1.468   3.184  12.719 -0.1323  0.8023  0.0227
 8636SOL    HW137367   1.375   3.170  12.736 -0.0325  0.7577  0.5368
 8636SOL    HW237368   1.470   3.279  12.709  0.5797  0.6564 -1.2383
 8637SOL     OW37369   3.363   4.501   6.656  0.1142 -0.2864  0.4692
 8637SOL    HW137370   3.280   4.505   6.704  1.5453  2.6404  2.7033
 8637SOL    HW237371   3.370   4.407   6.643 -2.3625 -0.4370  0.3097
 8638SOL     OW37372   0.345   1.999  14.373 -0.4482 -0.0326 -0.5283
 8638SOL    HW137373   0.365   2.060  14.444  2.1736 -0.7906 -0.5829
 8638SOL    HW237374   0.285   1.942  14.422  0.8801  0.9487  2.2395
 8639SOL     OW37375   1.660   1.999  17.444 -0.3169 -0.1460 -0.2241
 8639SOL    HW137376   1.717   1.955  17.381 -0.2994 -1.3918  0.6648
 8639SOL    HW237377   1.588   1.936  17.451  1.3928 -2.0965 -0.1578
 8640SOL     OW37378   1.635   3.292   2.756  0.1654  0.1023  0.0006
 8640SOL    HW137379   1.686   3.221   2.719  0.8262  0.6041 -0.0569
 8640SOL    HW237380   1.546   3.260   2.742  0.8411 -2.2838  1.2319
 8641SOL     OW37381   4.179   2.115   5.809 -0.1482  0.0798  0.4577
 8641SOL    HW137382   4.139   2.032   5.782  0.5918 -0.5326  1.2404
 8641SOL    HW237383   4.107   2.178   5.815 -0.6269 -0.3425 -0.7873
 8642SOL     OW37384   4.500   0.212   5.981 -0.0933 -0.4921 -0.2801
 8642SOL    HW137385   4.460   0.229   6.066  0.4897 -1.9840  0.2972
 8642SOL    HW237386   4.483   0.121   5.958 -0.2983 -0.3636 -0.6401
 8643SOL     OW37387   1.513   4.371   3.269  0.4438 -0.1932  0.2125
 8643SOL    HW137388   1.588   4.319   3.298  0.4829  1.6435  3.3444
 8643SOL    HW237389   1.529   4.382   3.175  0.5687  1.9769  0.4920
 8644SOL     OW37390   2.748   2.348   0.563 -0.2049 -0.0697  0.6130
 8644SOL    HW137391   2.823   2.292   0.542  0.6149  1.1034  0.4110
 8644SOL    HW237392   2.718   2.301   0.641  0.0428 -2.8497 -0.9608
 8645SOL     OW37393   4.415   3.927  17.681 -0.0882  0.5347  0.1216
 8645SOL    HW137394   4.479   3.857  17.667  0.0794  1.1233 -1.9952
 8645SOL    HW237395   4.335   3.876  17.668 -1.0647  2.7065 -2.3306
 8646SOL     OW37396   4.646   0.714   6.518  0.1676  0.3977  0.1581
 8646SOL    HW137397   4.716   0.765   6.478  0.3693 -0.4166 -0.5272
 8646SOL    HW237398   4.685   0.695   6.603  0.5192 -0.5368 -0.2089
 8647SOL     OW37399   1.862   4.134   4.849 -0.0094 -0.2761 -0.7791
 8647SOL    HW137400   1.934   4.076   4.823 -0.1029 -0.5085 -0.5242
 8647SOL    HW237401   1.882   4.157   4.939 -1.6695  1.5840 -0.8843
 8648SOL     OW37402   2.790   1.843   0.808 -0.3046  0.5036 -0.0816
 8648SOL    HW137403   2.790   1.834   0.903 -1.8133  1.7474  0.0320
 8648SOL    HW237404   2.838   1.926   0.799 -0.0403  0.2975 -0.5660
 8649SOL     OW37405   1.971   0.508   2.972 -0.5862  0.3900 -0.2085
 8649SOL    HW137406   1.995   0.585   2.922 -0.5822  1.6722  1.7627
 8649SOL    HW237407   2.060   0.475   2.979  0.0844  2.4245  0.7068
 8650SOL     OW37408   1.086   4.412  14.630  0.2538  0.7907 -0.3374
 8650SOL    HW137409   1.113   4.493  14.585 -1.9269  1.9032  0.3721
 8650SOL    HW237410   1.123   4.343  14.575  2.3010  1.4368  0.2117
 8651SOL     OW37411   3.969   4.540   5.526 -0.5105 -0.1578 -0.2234
 8651SOL    HW137412   4.032   4.596   5.480 -3.6424  2.0840 -1.8088
 8651SOL    HW237413   3.992   4.549   5.619 -1.5260 -0.2653  0.0337
 8652SOL     OW37414   2.830   4.035   3.622  0.2984 -0.3313  0.2479
 8652SOL    HW137415   2.804   4.012   3.533 -2.7299 -0.0783  1.0614
 8652SOL    HW237416   2.891   4.105   3.598 -1.2903  1.0830  0.3312
 8653SOL     OW37417   2.907   4.370  16.878 -0.6225 -0.0310 -0.0724
 8653SOL    HW137418   2.899   4.275  16.889  0.5268 -0.2619 -1.1801
 8653SOL    HW237419   3.001   4.376  16.858 -0.4802 -0.0394  0.5956
 8654SOL     OW37420   2.676   2.227   1.200  0.1931 -0.3343 -0.3440
 8654SOL    HW137421   2.718   2.313   1.208  2.0174 -1.1161 -1.4399
 8654SOL    HW237422   2.658   2.220   1.107 -0.8933 -0.6688 -0.1065
 8655SOL     OW37423   0.521   3.451   7.128  0.0703 -0.1834  0.3101
 8655SOL    HW137424   0.558   3.377   7.177 -1.5568 -0.6328  0.8759
 8655SOL    HW237425   0.467   3.498   7.191 -1.9738  0.3243 -1.8163
 8656SOL     OW37426   1.882   2.669   8.705 -0.0726 -0.3820 -0.1432
 8656SOL    HW137427   1.808   2.616   8.675 -1.1881  0.3234  1.3564
 8656SOL    HW237428   1.919   2.627   8.783  1.6377 -2.2467 -1.9793
 8657SOL     OW37429   2.152   2.382   5.111 -0.7183  0.6389  0.0484
 8657SOL    HW137430   2.135   2.421   5.026  0.3196 -0.0814 -0.4857
 8657SOL    HW237431   2.097   2.442   5.161 -0.1286  0.3164  1.1072
 8658SOL     OW37432   1.709   2.913   4.339  0.1797  0.3128 -0.0574
 8658SOL    HW137433   1.720   2.839   4.278 -1.3457 -0.0960  0.1758
 8658SOL    HW237434   1.801   2.941   4.332 -0.3662  1.9223 -0.8918
 8659SOL     OW37435   3.766   1.084   5.652 -0.5473 -0.2507  0.5210
 8659SOL    HW137436   3.728   1.111   5.736 -0.3188 -2.7174  1.4269
 8659SOL    HW237437   3.715   1.006   5.630 -0.7098 -0.3330  1.1983
 8660SOL     OW37438   0.732   3.691   0.219 -0.2210  0.3491 -0.3126
 8660SOL    HW137439   0.798   3.728   0.160 -0.4214  2.1628  0.6341
 8660SOL    HW237440   0.677   3.767   0.235  1.8321  1.4442  1.6293
 8661SOL     OW37441   3.650   0.719  16.621  0.3556 -0.2144  0.3399
 8661SOL    HW137442   3.736   0.696  16.586  0.0656  1.2208 -1.2869
 8661SOL    HW237443   3.656   0.815  16.621 -0.9313 -0.1415  0.0669
 8662SOL     OW37444   4.462   2.214   5.495  0.6779  0.4775 -0.2934
 8662SOL    HW137445   4.506   2.133   5.469  0.1509 -0.8680  2.9695
 8662SOL    HW237446   4.472   2.260   5.412  0.2835 -0.7054 -1.0122
 8663SOL     OW37447   4.135   4.702   3.138  0.8691 -0.2489  0.2059
 8663SOL    HW137448   4.060   0.038   3.131  2.2021  1.3211 -1.1837
 8663SOL    HW237449   4.142   4.693   3.233 -0.1538 -0.6446  0.2417
 8664SOL     OW37450   4.721   0.582   4.856  0.9703 -0.2461  0.1075
 8664SOL    HW137451   4.713   0.640   4.780  0.4095  0.1013  0.4301
 8664SOL    HW237452   4.682   0.506   4.813 -0.2356 -0.6455  1.9389
 8665SOL     OW37453   4.530   3.584   7.121 -0.0897 -0.1876 -0.6451
 8665SOL    HW137454   4.541   3.502   7.168 -0.6362 -0.2257 -0.5800
 8665SOL    HW237455   4.587   3.556   7.050  1.0864  1.3661 -0.3194
 8666SOL     OW37456   0.940   2.147  17.094  0.7559 -0.1193  0.6485
 8666SOL    HW137457   1.021   2.115  17.135  0.8686 -0.1146  0.4302
 8666SOL    HW237458   0.980   2.168  17.009 -1.0066 -0.4590 -0.2732
 8667SOL     OW37459   1.493   3.845   0.870 -0.3167 -0.2639 -0.2043
 8667SOL    HW137460   1.563   3.885   0.921  0.2828  0.6176 -1.7287
 8667SOL    HW237461   1.532   3.760   0.846  1.0822  0.9439 -2.2506
 8668SOL     OW37462   2.835   3.632   2.777  0.0272 -0.4008  0.1479
 8668SOL    HW137463   2.749   3.641   2.737 -0.8252 -1.5923  1.7403
 8668SOL    HW237464   2.846   3.537   2.774  0.8904 -0.3048  0.1800
 8669SOL     OW37465   1.433   0.388   2.092 -0.1747  0.0056 -0.2670
 8669SOL    HW137466   1.399   0.385   2.181  1.8470 -0.4816  0.4980
 8669SOL    HW237467   1.413   0.477   2.064  4.1427  1.4284  1.1446
 8670SOL     OW37468   4.568   2.320   9.246  0.2137  0.0756 -0.0107
 8670SOL    HW137469   4.476   2.295   9.251  0.5255 -0.9363  0.9788
 8670SOL    HW237470   4.575   2.330   9.152  0.7098  1.0763  0.1349
 8671SOL     OW37471   4.056   1.600   3.650 -0.2480  0.3102  0.2444
 8671SOL    HW137472   3.969   1.565   3.634  0.2631 -1.0748  0.5079
 8671SOL    HW237473   4.038   1.692   3.668  0.3288  0.3619  0.5839
 8672SOL     OW37474   0.456   2.229   3.409  0.0618 -0.2374  0.5184
 8672SOL    HW137475   0.381   2.219   3.467  1.9337 -1.9875  2.6105
 8672SOL    HW237476   0.540   2.202   3.446 -0.3306 -0.5585  1.1720
 8673SOL     OW37477   1.060   1.999  11.378  0.2868  0.0311  0.2726
 8673SOL    HW137478   1.052   2.072  11.316 -2.9151 -1.0522 -0.5895
 8673SOL    HW237479   0.967   1.979  11.389  1.0678 -3.5602  0.1488
 8674SOL     OW37480   4.323   4.578   8.097 -0.8573  0.4334 -0.3401
 8674SOL    HW137481   4.235   4.566   8.131 -0.2704 -1.1726  0.6283
 8674SOL    HW237482   4.376   4.597   8.175 -1.4855  0.3428  0.1104
 8675SOL     OW37483   1.354   2.893   2.179 -0.2590 -0.0807  0.2146
 8675SOL    HW137484   1.434   2.922   2.223 -1.4004 -0.2275  2.4260
 8675SOL    HW237485   1.376   2.806   2.146 -1.3340 -0.2319 -0.0906
 8676SOL     OW37486   0.826   3.773   8.236 -0.0648 -0.2371 -0.4554
 8676SOL    HW137487   0.733   3.753   8.244  0.2151 -1.2443  0.2321
 8676SOL    HW237488   0.831   3.865   8.211 -0.7937  0.2109  1.0534
 8677SOL     OW37489   2.343   1.302   6.873 -0.6376 -0.6480  0.5837
 8677SOL    HW137490   2.286   1.369   6.835  0.5760 -0.0372 -0.1704
 8677SOL    HW237491   2.280   1.231   6.890 -0.1379 -0.7693  1.9615
 8678SOL     OW37492   0.588   3.666   1.933  0.4921 -0.3569  0.5272
 8678SOL    HW137493   0.681   3.652   1.953  0.4555 -0.6317  0.5004
 8678SOL    HW237494   0.554   3.665   2.022 -0.5806 -1.0742  0.1001
 8679SOL     OW37495   3.659   3.905   7.500  0.7839  0.1983 -0.5149
 8679SOL    HW137496   3.590   3.877   7.441 -1.0379  1.6348  0.9367
 8679SOL    HW237497   3.733   3.865   7.454 -0.3026 -1.6455 -0.6463
 8680SOL     OW37498   1.229   2.706   2.854  0.0866 -0.2167 -0.0517
 8680SOL    HW137499   1.313   2.660   2.855 -0.9641 -2.1273  1.9132
 8680SOL    HW237500   1.201   2.684   2.765  0.4551 -2.4167  0.3735
 8681SOL     OW37501   4.148   2.063  12.359  0.3363 -0.5440 -0.6280
 8681SOL    HW137502   4.133   1.981  12.406  0.2605 -0.5493 -0.6618
 8681SOL    HW237503   4.241   2.076  12.378  0.0061  0.3547  0.3429
 8682SOL     OW37504   3.470   1.227   2.462  0.1928 -0.4691 -0.5271
 8682SOL    HW137505   3.510   1.252   2.378 -1.2492 -1.9399 -1.6478
 8682SOL    HW237506   3.430   1.140   2.456  0.9802 -0.8541 -0.2915
 8683SOL     OW37507   2.353   1.029   5.070  0.2102  0.5292 -0.4432
 8683SOL    HW137508   2.259   1.044   5.057  0.2211 -0.2996 -1.5120
 8683SOL    HW237509   2.381   1.082   4.995 -1.3164  0.6261 -0.9512
 8684SOL     OW37510   3.777   1.585   6.278  0.7711 -0.0739  0.0135
 8684SOL    HW137511   3.718   1.531   6.225 -1.6775  1.7133  0.9426
 8684SOL    HW237512   3.742   1.672   6.259 -1.9244 -1.5496 -1.6849
 8685SOL     OW37513   3.511   2.379   3.981 -0.9099 -0.3526  0.7491
 8685SOL    HW137514   3.463   2.390   3.898  1.6645  0.9049 -0.5610
 8685SOL    HW237515   3.438   2.350   4.037 -0.3270 -1.0776  1.1303
 8686SOL     OW37516   0.959   1.614  16.415  0.0310 -0.1067 -0.1014
 8686SOL    HW137517   1.048   1.646  16.431  0.0834  1.4026 -3.3726
 8686SOL    HW237518   0.975   1.531  16.370  0.6038 -0.5622  0.9442
 8687SOL     OW37519   0.246   3.586   5.356 -0.1780 -0.3385  0.3488
 8687SOL    HW137520   0.294   3.636   5.422 -0.5982 -0.0702  0.4541
 8687SOL    HW237521   0.202   3.655   5.305 -0.3090 -0.2423  0.5918
 8688SOL     OW37522   0.288   2.235   7.464  0.7362  0.1765  0.7517
 8688SOL    HW137523   0.207   2.231   7.515 -2.4162  3.0807 -4.0135
 8688SOL    HW237524   0.357   2.221   7.529  1.9237  0.9304 -0.3663
 8689SOL     OW37525   1.247   2.410   5.878  0.2653 -0.0950  0.5583
 8689SOL    HW137526   1.156   2.395   5.902 -0.3266  1.6378 -0.5899
 8689SOL    HW237527   1.284   2.427   5.965  1.0243 -0.4446  0.3010
 8690SOL     OW37528   4.685   1.970   8.071 -0.1035  0.4150 -0.3151
 8690SOL    HW137529   4.660   1.976   7.978 -1.1629  1.5938  0.0531
 8690SOL    HW237530   4.664   2.055   8.109  0.7467  0.6563 -0.3944
 8691SOL     OW37531   2.730   2.702   0.262  0.0320  0.3947 -0.5950
 8691SOL    HW137532   2.815   2.673   0.296 -0.6674 -1.2500 -0.2921
 8691SOL    HW237533   2.670   2.687   0.334 -0.4649  0.3193 -1.0199
 8692SOL     OW37534   3.589   0.530   1.551  0.2457  0.5189  0.2911
 8692SOL    HW137535   3.641   0.567   1.623 -0.2449  0.9076  0.4470
 8692SOL    HW237536   3.516   0.591   1.561  0.2118  0.7727 -1.4903
 8693SOL     OW37537   1.225   2.257   8.067  0.0347 -0.3544 -0.5965
 8693SOL    HW137538   1.256   2.175   8.106 -1.4550 -0.3986  0.5319
 8693SOL    HW237539   1.174   2.295   8.139 -0.8955 -2.2497 -0.2455
 8694SOL     OW37540   4.444   2.843   4.847  0.0155 -0.5081 -0.2421
 8694SOL    HW137541   4.491   2.760   4.832  0.2151 -0.5348  0.5246
 8694SOL    HW237542   4.367   2.819   4.899  0.3278  0.7355  0.7930
 8695SOL     OW37543   0.213   2.086  11.465  0.0967  0.2106 -0.1296
 8695SOL    HW137544   0.265   2.043  11.397 -1.2937 -3.4569  1.1295
 8695SOL    HW237545   0.274   2.075  11.538  2.1691  0.3712 -1.8212
 8696SOL     OW37546   3.110   0.559   3.808  0.3596  0.3852  0.4035
 8696SOL    HW137547   3.179   0.545   3.873  0.2726  1.3317  0.6956
 8696SOL    HW237548   3.062   0.477   3.826  1.6438 -0.3864  0.2999
 8697SOL     OW37549   4.163   1.802  17.437  0.2856  0.6216 -0.0140
 8697SOL    HW137550   4.112   1.875  17.471 -0.3042 -0.5166  1.5519
 8697SOL    HW237551   4.204   1.778  17.520  0.1481  0.8342  0.1132
 8698SOL     OW37552   2.349   0.229   2.298 -0.5283 -0.0366  0.4475
 8698SOL    HW137553   2.367   0.303   2.355  0.1418 -0.9057  1.3514
 8698SOL    HW237554   2.263   0.206   2.333 -0.6029  0.4689  0.5910
 8699SOL     OW37555   3.158   0.370   3.379  0.7727 -0.2896 -0.3116
 8699SOL    HW137556   3.126   0.280   3.383  0.6053 -0.2182 -0.0359
 8699SOL    HW237557   3.177   0.378   3.286 -1.3322 -0.3017 -0.7495
 8700SOL     OW37558   0.660   2.328   8.752  0.0612 -0.1553 -0.0406
 8700SOL    HW137559   0.646   2.281   8.670  0.7684  1.7827 -1.2520
 8700SOL    HW237560   0.717   2.275   8.808  0.2064  0.2627  0.2057
 8701SOL     OW37561   4.250   1.679   6.373 -0.1213  0.0091 -0.6275
 8701SOL    HW137562   4.203   1.705   6.452 -0.3443  1.2427 -1.1754
 8701SOL    HW237563   4.188   1.619   6.331 -2.8347  1.3856  1.4551
 8702SOL     OW37564   1.720   4.065   3.908  0.0036 -0.2835  0.3348
 8702SOL    HW137565   1.735   3.989   3.852 -1.8998 -1.5217  1.5314
 8702SOL    HW237566   1.668   4.025   3.977 -1.4976  0.7105 -0.2252
 8703SOL     OW37567   3.283   0.420   9.324  0.4122  0.4373  0.3434
 8703SOL    HW137568   3.345   0.488   9.350 -0.5651  1.9621 -1.3040
 8703SOL    HW237569   3.283   0.376   9.409 -1.5438 -0.6616 -0.2295
 8704SOL     OW37570   4.233   4.636   1.192  0.5278 -0.0071 -0.1359
 8704SOL    HW137571   4.290   4.708   1.167  2.7020 -1.4887  0.5663
 8704SOL    HW237572   4.148   4.657   1.153  1.3208 -2.7625 -3.3674
 8705SOL     OW37573   0.890   0.997  17.663  0.2663 -0.6387 -0.5139
 8705SOL    HW137574   0.801   1.025  17.684  0.3076  0.4569 -1.8183
 8705SOL    HW237575   0.920   1.000   0.063  1.1438  1.8044 -0.8819
 8706SOL     OW37576   3.051   2.831   6.897  0.2665 -0.3224  0.3252
 8706SOL    HW137577   3.072   2.764   6.832  1.4563 -0.0100  0.3828
 8706SOL    HW237578   3.089   2.909   6.857 -0.1869  0.2353  0.9852
 8707SOL     OW37579   1.842   1.232   7.921 -0.2762  0.1670  0.4303
 8707SOL    HW137580   1.863   1.161   7.860 -1.7634  0.4869 -0.4742
 8707SOL    HW237581   1.915   1.233   7.982  0.3222  2.7035 -0.3109
 8708SOL     OW37582   4.612   1.672  10.223  0.5967  0.0378  0.0052
 8708SOL    HW137583   4.612   1.636  10.135  0.3769  0.1840 -0.0538
 8708SOL    HW237584   4.550   1.611  10.263  0.0105  0.0431 -0.9059
 8709SOL     OW37585   4.288   0.657   2.479 -0.4528  0.2227  0.9469
 8709SOL    HW137586   4.253   0.745   2.491 -2.1624 -0.5147  1.4323
 8709SOL    HW237587   4.232   0.614   2.414  0.1796 -1.8704  1.7602
 8710SOL     OW37588   1.553   0.297   4.732  0.3996 -0.0476 -0.2559
 8710SOL    HW137589   1.599   0.252   4.803 -0.6755 -2.0496 -0.7987
 8710SOL    HW237590   1.475   0.241   4.726 -1.3868  2.3384  0.5324
 8711SOL     OW37591   0.224   2.486   4.164 -0.0240 -0.3206 -0.2274
 8711SOL    HW137592   0.218   2.528   4.078  0.6133  0.7960  0.2714
 8711SOL    HW237593   0.314   2.456   4.148  0.4252 -0.1197  1.8087
 8712SOL     OW37594   1.961   1.917  13.589  0.1377 -0.9900 -0.2182
 8712SOL    HW137595   2.055   1.938  13.587 -0.7777  3.1276 -0.3644
 8712SOL    HW237596   1.937   1.952  13.503  1.6326  0.4151 -0.0626
 8713SOL     OW37597   4.129   4.344   7.202  0.3149 -0.2827 -0.2152
 8713SOL    HW137598   4.104   4.432   7.175 -1.0203 -0.4082  0.6267
 8713SOL    HW237599   4.126   4.287   7.125  1.3539  1.7481 -1.7328
 8714SOL     OW37600   0.137   4.551  12.619  0.0152 -0.3446 -0.6562
 8714SOL    HW137601   0.054   4.508  12.596 -0.1972 -1.3006  1.8951
 8714SOL    HW237602   0.193   4.528  12.544 -0.8273 -1.2127 -1.0250
 8715SOL     OW37603   1.351   2.524   6.382 -0.0195  0.0120  0.1518
 8715SOL    HW137604   1.259   2.517   6.356 -0.1150 -0.7849  0.6958
 8715SOL    HW237605   1.359   2.443   6.433  0.6594 -0.2778 -0.4301
 8716SOL     OW37606   0.956   1.762   2.299  0.5091 -0.0264  0.0673
 8716SOL    HW137607   0.918   1.674   2.307  2.5631 -1.0039 -0.9982
 8716SOL    HW237608   0.896   1.814   2.352  2.1236  0.1104  1.7203
 8717SOL     OW37609   3.095   4.316   2.874 -0.4920 -0.3826  0.6560
 8717SOL    HW137610   3.161   4.343   2.811  0.6348 -0.7700  1.6706
 8717SOL    HW237611   3.141   4.282   2.951  2.2021  1.3217 -0.2215
 8718SOL     OW37612   0.683   2.350   4.313  0.1405  0.0248 -0.2971
 8718SOL    HW137613   0.754   2.343   4.377 -0.4188  0.8869  0.4084
 8718SOL    HW237614   0.742   2.376   4.242  2.0684 -0.1292  1.2567
 8719SOL     OW37615   0.059   3.372  12.193  0.6207 -0.7345  0.2473
 8719SOL    HW137616   0.091   3.313  12.261  3.3307  1.4985  0.9331
 8719SOL    HW237617   0.127   3.438  12.208 -2.5413  2.7371 -0.6389
 8720SOL     OW37618   4.262   3.480   6.020  0.1169 -0.5747  0.3584
 8720SOL    HW137619   4.244   3.572   6.000 -3.8288 -1.2808  0.6017
 8720SOL    HW237620   4.178   3.457   6.061 -1.4132 -0.8920 -2.9174
 8721SOL     OW37621   0.296   1.125  10.546  0.0796 -0.3903  0.3086
 8721SOL    HW137622   0.256   1.205  10.513 -0.2035  0.3287  2.3696
 8721SOL    HW237623   0.355   1.096  10.476  1.3055  2.4647  0.1584
 8722SOL     OW37624   1.950   3.115  12.757  0.2092 -0.5392 -0.6029
 8722SOL    HW137625   1.987   3.177  12.694 -0.5234 -0.3691 -0.8727
 8722SOL    HW237626   1.899   3.058  12.699 -2.6524  1.3632  0.0566
 8723SOL     OW37627   1.376   3.149   2.741 -0.2634 -0.0294  0.3667
 8723SOL    HW137628   1.366   3.150   2.646 -1.0462  0.0870  0.4529
 8723SOL    HW237629   1.285   3.152   2.769  0.1286  2.1918  1.3813
 8724SOL     OW37630   0.372   4.642   5.878 -0.1734 -0.2783 -0.1951
 8724SOL    HW137631   0.337   4.553   5.887  2.2335 -1.0538  1.5102
 8724SOL    HW237632   0.392   4.665   5.969 -1.4209 -0.0865  0.0393
 8725SOL     OW37633   3.304   2.189   9.141  0.1451  0.2676  0.6008
 8725SOL    HW137634   3.231   2.251   9.145  0.0193  0.0700  1.3601
 8725SOL    HW237635   3.353   2.218   9.064  0.2710  0.3165  0.6990
 8726SOL     OW37636   3.376   2.496   9.064 -0.0806  0.0929  0.3596
 8726SOL    HW137637   3.461   2.485   9.105  0.6959 -1.8526 -1.7429
 8726SOL    HW237638   3.322   2.471   9.139  0.0706  3.6788  1.6516
 8727SOL     OW37639   2.298   1.778  13.408 -0.1497  0.4577  0.8508
 8727SOL    HW137640   2.366   1.768  13.475 -1.1226 -0.1822  1.7490
 8727SOL    HW237641   2.233   1.714  13.438  0.6430  0.1712  1.9528
 8728SOL     OW37642   2.302   2.617   8.253  0.2066  0.1499 -0.1981
 8728SOL    HW137643   2.259   2.696   8.220 -0.1467  0.5254  1.1768
 8728SOL    HW237644   2.293   2.570   8.170  0.7411 -0.1868 -0.0636
 8729SOL     OW37645   1.019   3.517  13.711 -0.6083  0.6554 -0.7669
 8729SOL    HW137646   0.928   3.500  13.688 -0.1686 -2.7869 -0.0186
 8729SOL    HW237647   1.067   3.468  13.643  1.4460 -0.4403  1.4529
 8730SOL     OW37648   0.851   1.308   7.624 -0.1754 -0.1780 -0.2418
 8730SOL    HW137649   0.865   1.400   7.644 -2.3169 -0.0099  0.4696
 8730SOL    HW237650   0.773   1.286   7.675  0.6733 -2.4808  0.0607
 8731SOL     OW37651   3.620   4.444   1.545  0.2713  0.2470 -0.0604
 8731SOL    HW137652   3.590   4.409   1.461  0.2484 -2.7399  1.2194
 8731SOL    HW237653   3.697   4.388   1.554 -0.5648 -1.0630 -1.1596
 8732SOL     OW37654   3.510   2.980  10.565  0.2718 -0.1697  0.3739
 8732SOL    HW137655   3.484   2.910  10.625 -2.7780  1.1590  0.5747
 8732SOL    HW237656   3.576   2.928  10.519 -1.4678 -1.3854 -0.7587
 8733SOL     OW37657   3.880   2.108   4.321 -0.0717 -0.3848  0.6194
 8733SOL    HW137658   3.800   2.158   4.302  0.5677  0.8510  1.1277
 8733SOL    HW237659   3.882   2.111   4.417  1.0632 -2.1474  0.6416
 8734SOL     OW37660   2.030   4.698   3.834  0.1522  0.5858  0.6148
 8734SOL    HW137661   1.946   4.661   3.860  0.0865 -0.1631 -0.6509
 8734SOL    HW237662   1.999   0.025   3.758 -1.2268 -0.9449  0.1951
 8735SOL     OW37663   2.195   1.216  10.330 -0.1465 -0.6749  0.3826
 8735SOL    HW137664   2.243   1.157  10.271 -1.1285 -1.8952  0.8136
 8735SOL    HW237665   2.197   1.160  10.407  0.3775 -0.8828  0.2171
 8736SOL     OW37666   1.484   2.986   5.386 -0.3379  0.8394 -0.7887
 8736SOL    HW137667   1.405   2.948   5.424 -0.1716  0.3986 -0.8900
 8736SOL    HW237668   1.504   3.056   5.449  0.7239 -0.4071  0.2453
 8737SOL     OW37669   3.277   3.511   4.385  0.0044 -0.1522  0.0882
 8737SOL    HW137670   3.232   3.547   4.308 -1.9588 -2.6158  0.0914
 8737SOL    HW237671   3.340   3.448   4.352 -1.8747 -2.7453  1.4130
 8738SOL     OW37672   2.219   2.804  14.974 -0.1146 -0.9165 -0.4805
 8738SOL    HW137673   2.259   2.768  14.895  2.2223  2.2828 -0.7947
 8738SOL    HW237674   2.131   2.820  14.942 -0.2879 -0.1264  0.3851
 8739SOL     OW37675   1.017   2.692  14.564  0.0323 -0.4224  0.1684
 8739SOL    HW137676   0.995   2.747  14.489  1.0600 -1.2421 -0.7360
 8739SOL    HW237677   1.110   2.681  14.545  0.0954  1.2091 -0.4682
 8740SOL     OW37678   2.725   0.056  13.094  0.0304 -0.1442  0.2729
 8740SOL    HW137679   2.668   0.132  13.086  0.4363 -0.0748 -1.9546
 8740SOL    HW237680   2.802   0.093  13.049 -3.1476  3.6690 -2.0249
 8741SOL     OW37681   3.462   0.904  15.869  0.1851 -0.4364  0.4900
 8741SOL    HW137682   3.493   0.822  15.830  0.0458 -0.2048 -0.1118
 8741SOL    HW237683   3.538   0.941  15.913  0.5896  0.5478 -1.0643
 8742SOL     OW37684   4.136   1.782   9.205 -0.3793  0.2993 -0.0078
 8742SOL    HW137685   4.176   1.797   9.291 -0.1507  2.7825 -0.5540
 8742SOL    HW237686   4.049   1.759   9.237 -0.7761  1.6219 -0.1494
 8743SOL     OW37687   2.395   2.934   8.069 -0.2888  0.2399  0.0519
 8743SOL    HW137688   2.329   2.998   8.094 -0.8197  0.6615 -2.4615
 8743SOL    HW237689   2.456   2.938   8.142 -1.1666  1.6517  0.6930
 8744SOL     OW37690   3.467   1.592  13.367 -0.3008 -0.0967  0.1894
 8744SOL    HW137691   3.413   1.618  13.441  0.9132  1.8169  0.4210
 8744SOL    HW237692   3.404   1.599  13.295  0.2317  0.3509 -0.2454
 8745SOL     OW37693   0.475   4.064   1.576 -0.3028  0.4951  0.1644
 8745SOL    HW137694   0.400   4.006   1.587  0.1328 -0.6876 -3.0733
 8745SOL    HW237695   0.470   4.109   1.660 -0.1287  3.0832 -1.1870
 8746SOL     OW37696   4.041   0.467   6.963 -0.1609  0.6824  0.3747
 8746SOL    HW137697   4.051   0.381   7.006  0.4419 -0.0983 -1.3540
 8746SOL    HW237698   4.087   0.466   6.879 -0.6105  3.5039  0.1120
 8747SOL     OW37699   3.527   3.221   8.135 -0.0558  0.1986 -0.5063
 8747SOL    HW137700   3.483   3.142   8.167 -3.7241  1.7503 -1.7655
 8747SOL    HW237701   3.495   3.285   8.198 -1.9992  0.7030 -1.9979
 8748SOL     OW37702   1.083   3.528   6.286 -0.5889 -0.0007  0.1895
 8748SOL    HW137703   1.133   3.576   6.353 -1.8949  0.6151  0.7229
 8748SOL    HW237704   1.065   3.440   6.317  0.4026  0.3751  1.8333
 8749SOL     OW37705   0.474   3.319  10.043 -0.2004  0.0710 -0.1277
 8749SOL    HW137706   0.450   3.390   9.984  0.4740 -0.7485 -1.4027
 8749SOL    HW237707   0.566   3.318  10.014  0.4360  1.3811  1.8376
 8750SOL     OW37708   2.950   4.112   7.963  0.5701  0.3942 -0.7774
 8750SOL    HW137709   2.925   4.186   7.908  0.7561  1.5962  0.7556
 8750SOL    HW237710   2.863   4.075   7.970  1.2359 -0.9476  0.5394
 8751SOL     OW37711   2.450   1.940  12.539  0.2245 -0.1521 -0.5208
 8751SOL    HW137712   2.474   1.848  12.544 -1.1307 -0.5350 -1.0399
 8751SOL    HW237713   2.420   1.960  12.627 -1.5139 -1.2269 -0.8595
 8752SOL     OW37714   4.348   4.325  10.584  0.6275  0.3828  0.2097
 8752SOL    HW137715   4.411   4.341  10.654  1.2947  1.5590 -0.6592
 8752SOL    HW237716   4.259   4.328  10.618 -0.1661 -0.5492 -1.7632
 8753SOL     OW37717   1.715   1.831   8.712 -0.1298 -0.2392 -0.4073
 8753SOL    HW137718   1.797   1.877   8.692  0.2956 -1.0312 -0.4885
 8753SOL    HW237719   1.695   1.821   8.619 -1.7309  5.2705 -0.6205
 8754SOL     OW37720   1.502   1.033   8.438 -0.1824  0.4337  0.4090
 8754SOL    HW137721   1.416   0.994   8.421 -0.0730  0.6043 -0.5694
 8754SOL    HW237722   1.532   0.977   8.509 -0.3898  2.1421  1.8292
 8755SOL     OW37723   2.480   3.819   3.321 -0.0106 -0.3911 -0.2250
 8755SOL    HW137724   2.515   3.742   3.277  0.8961  1.6262 -3.0670
 8755SOL    HW237725   2.424   3.780   3.388  1.8177 -1.2395  0.8023
 8756SOL     OW37726   0.438   4.674   8.294 -0.2165  0.5340  0.3789
 8756SOL    HW137727   0.500   0.003   8.346 -0.3556  1.2450 -0.1601
 8756SOL    HW237728   0.418   4.601   8.353 -0.1802  0.2008 -0.0223
 8757SOL     OW37729   3.872   2.280   7.006 -0.2845 -0.1525 -0.3925
 8757SOL    HW137730   3.806   2.347   6.989 -1.0650 -1.0211 -0.7724
 8757SOL    HW237731   3.842   2.203   6.956 -1.7918 -0.0630  0.3935
 8758SOL     OW37732   1.083   1.816  14.145 -0.1377 -0.9617 -0.5194
 8758SOL    HW137733   1.106   1.784  14.058 -0.4204  2.1141 -1.7285
 8758SOL    HW237734   1.124   1.903  14.142  0.4003 -1.1737  0.6796
 8759SOL     OW37735   3.314   2.549   6.150  0.3916  0.5148 -0.6460
 8759SOL    HW137736   3.391   2.548   6.094 -1.5397  1.3576 -3.3206
 8759SOL    HW237737   3.282   2.462   6.126  1.0509 -0.4353  1.8740
 8760SOL     OW37738   1.442   3.950   1.320  0.3421  0.1489  0.2949
 8760SOL    HW137739   1.455   3.940   1.415 -0.1057 -1.7240  0.1578
 8760SOL    HW237740   1.493   4.029   1.305 -3.2724  1.7928 -3.2471
 8761SOL     OW37741   3.865   4.039  15.977 -0.7770  0.1225 -0.0860
 8761SOL    HW137742   3.807   4.090  15.922 -0.8441 -2.8472 -2.7752
 8761SOL    HW237743   3.949   4.083  15.965 -1.7324  1.7626 -0.7548
 8762SOL     OW37744   2.128   3.099   9.181 -0.0684  0.1162  0.0253
 8762SOL    HW137745   2.111   3.095   9.275  0.4389  1.7751  0.1855
 8762SOL    HW237746   2.038   3.101   9.147  0.0480  1.3478 -0.2191
 8763SOL     OW37747   0.462   1.774   2.986  0.5049 -0.8377 -0.1563
 8763SOL    HW137748   0.498   1.777   2.897  3.3134 -1.3459  0.9869
 8763SOL    HW237749   0.484   1.686   3.018  0.5990 -0.8852 -0.3515
 8764SOL     OW37750   2.551   3.937  13.359  0.1530  0.6222 -0.2487
 8764SOL    HW137751   2.615   3.901  13.296  0.7554  0.2840  0.5592
 8764SOL    HW237752   2.468   3.894  13.340  0.7262 -0.3484 -0.5544
 8765SOL     OW37753   4.250   1.204   6.898 -0.0417 -0.1153  0.3670
 8765SOL    HW137754   4.259   1.252   6.815 -0.7393 -0.2350  0.2176
 8765SOL    HW237755   4.316   1.247   6.952  0.4640  0.5027 -0.7494
 8766SOL     OW37756   2.573   1.219   0.589 -0.0127 -0.2074  0.1938
 8766SOL    HW137757   2.616   1.301   0.613  0.7466 -0.2880 -0.8815
 8766SOL    HW237758   2.481   1.245   0.581 -0.3230 -1.9212 -2.0470
 8767SOL     OW37759   3.549   3.143  11.778  0.3277 -0.4460  0.2373
 8767SOL    HW137760   3.599   3.218  11.813  0.2532 -1.2234  2.0266
 8767SOL    HW237761   3.529   3.173  11.690  0.4660  0.9431  0.6698
 8768SOL     OW37762   3.384   1.274   5.831  0.5104  0.2096 -0.1559
 8768SOL    HW137763   3.302   1.241   5.795  0.7454  1.6460 -1.9659
 8768SOL    HW237764   3.349   1.360   5.852 -0.0284  0.0005 -0.2128
 8769SOL     OW37765   0.665   1.313  11.031  0.0929  0.2717  0.1584
 8769SOL    HW137766   0.591   1.324  10.971  0.1357 -0.2849  0.0020
 8769SOL    HW237767   0.625   1.338  11.114  0.1998 -0.3888  0.4059
 8770SOL     OW37768   4.263   1.434   1.814  0.0269  0.2101 -0.1923
 8770SOL    HW137769   4.334   1.452   1.752 -0.3485  1.2697 -0.3188
 8770SOL    HW237770   4.301   1.479   1.889  1.7034  0.7300 -1.3586
 8771SOL     OW37771   1.390   4.062   4.992  0.6165  0.0599 -0.1400
 8771SOL    HW137772   1.304   4.057   4.949  1.5552  1.0503 -2.1522
 8771SOL    HW237773   1.377   4.065   5.087 -0.4485 -0.3258 -0.2734
 8772SOL     OW37774   1.296   4.546   5.645  0.5295 -0.2957 -0.0293
 8772SOL    HW137775   1.300   4.531   5.739  2.2809  0.3391 -0.0043
 8772SOL    HW237776   1.333   4.634   5.636 -1.7862  0.7124  0.4763
 8773SOL     OW37777   0.706   0.039   8.716  0.0726  0.8437 -0.3233
 8773SOL    HW137778   0.697   0.064   8.808 -0.2385  0.4940 -0.2570
 8773SOL    HW237779   0.799   0.053   8.701  0.7965 -1.7908  1.7874
 8774SOL     OW37780   3.780   3.629   7.735 -0.2994 -0.0005 -0.5724
 8774SOL    HW137781   3.761   3.723   7.741  0.1433  0.0011  1.0046
 8774SOL    HW237782   3.706   3.610   7.679 -1.3529 -2.2452  1.5919
 8775SOL     OW37783   4.663   1.308  12.304  0.1197 -0.1250  0.1236
 8775SOL    HW137784   4.629   1.328  12.217  2.5122 -0.8308 -0.9669
 8775SOL    HW237785   4.703   1.391  12.328 -2.0257  0.8379  0.3387
 8776SOL     OW37786   1.670   4.298   6.072 -0.8348  0.7422  0.7361
 8776SOL    HW137787   1.730   4.373   6.074 -0.1064  0.1517  1.3306
 8776SOL    HW237788   1.727   4.223   6.086 -1.0638  0.5170  0.4530
 8777SOL     OW37789   1.786   3.370   6.050 -0.1692 -0.3570 -0.4073
 8777SOL    HW137790   1.716   3.356   5.985 -0.3111 -0.8327 -0.1565
 8777SOL    HW237791   1.763   3.298   6.109 -2.7434  1.5946  0.9907
 8778SOL     OW37792   2.237   1.236   5.582  0.9434 -0.3402  0.4658
 8778SOL    HW137793   2.259   1.214   5.491 -1.4818 -1.1990  0.0763
 8778SOL    HW237794   2.309   1.298   5.592  0.2537  0.4295  0.6224
 8779SOL     OW37795   3.328   0.451   2.858  0.0705  0.1871  0.2312
 8779SOL    HW137796   3.280   0.370   2.879  0.6091 -0.2144 -0.0653
 8779SOL    HW237797   3.314   0.457   2.764  0.0192  0.3059  0.2470
 8780SOL     OW37798   3.632   2.947   6.133 -0.3591  0.2936  0.1395
 8780SOL    HW137799   3.624   2.878   6.198 -1.6768  0.1072 -0.2093
 8780SOL    HW237800   3.724   2.927   6.116 -0.0277  1.5540  0.4838
 8781SOL     OW37801   0.437   0.085   5.652 -0.0827 -0.3263  0.1303
 8781SOL    HW137802   0.530   0.107   5.656 -0.3312  0.6062  0.6515
 8781SOL    HW237803   0.428   0.049   5.740  1.9585 -1.2817 -0.0518
 8782SOL     OW37804   4.456   3.696   0.248  0.0233 -0.1181 -0.3056
 8782SOL    HW137805   4.378   3.684   0.302  1.2572 -1.0740  1.2662
 8782SOL    HW237806   4.444   3.611   0.206 -1.1390  0.1480 -0.5258
 8783SOL     OW37807   1.952   3.149   6.655 -0.0977 -0.1895 -0.1182
 8783SOL    HW137808   1.887   3.200   6.703  0.8615 -1.4953  2.5157
 8783SOL    HW237809   2.005   3.093   6.710 -0.9168 -1.3102 -0.4766
 8784SOL     OW37810   2.435   0.064   1.553 -0.1081 -0.5453  0.3447
 8784SOL    HW137811   2.359   0.122   1.564  0.9175  0.4621  2.0403
 8784SOL    HW237812   2.409   0.014   1.476  1.5482  0.4013 -0.8242
 8785SOL     OW37813   1.057   3.710   2.761  0.0035 -0.0276 -0.0780
 8785SOL    HW137814   0.969   3.741   2.782 -0.1192 -0.5644  0.2236
 8785SOL    HW237815   1.069   3.710   2.666  1.4856  0.6367  0.1179
 8786SOL     OW37816   2.997   1.712   0.608 -0.1651 -0.5352 -1.2675
 8786SOL    HW137817   3.025   1.801   0.585 -3.2262  1.4764  2.6311
 8786SOL    HW237818   2.909   1.732   0.641 -0.3040 -0.6688 -1.5581
 8787SOL     OW37819   0.121   2.806   3.746 -0.1708 -0.3771  0.7713
 8787SOL    HW137820   0.061   2.852   3.688  1.5050  0.3038 -0.4121
 8787SOL    HW237821   0.166   2.876   3.792 -0.2599 -0.1907  0.5768
 8788SOL     OW37822   3.126   3.398  12.492 -0.0488  0.0608  0.1573
 8788SOL    HW137823   3.206   3.405  12.440  0.2261  0.5405  0.6408
 8788SOL    HW237824   3.149   3.445  12.572 -0.3763  0.4253  0.0395
 8789SOL     OW37825   2.645   2.846  16.081  0.3620  0.4670  0.6000
 8789SOL    HW137826   2.594   2.858  16.161  0.8337 -1.3115  1.1739
 8789SOL    HW237827   2.578   2.832  16.015 -0.3579  2.4214  0.9147
 8790SOL     OW37828   2.598   0.259   8.464 -0.4022 -0.3225 -0.2202
 8790SOL    HW137829   2.509   0.265   8.500 -0.0320 -2.4679  0.9953
 8790SOL    HW237830   2.622   0.349   8.485  3.2783 -1.1964 -0.7857
 8791SOL     OW37831   4.283   1.943  12.802 -0.2513  0.3115 -0.0827
 8791SOL    HW137832   4.201   1.989  12.782 -1.5908 -2.1013 -0.1640
 8791SOL    HW237833   4.252   1.861  12.764  0.8471  0.5655 -1.5256
 8792SOL     OW37834   0.593   3.545   8.443 -0.2957 -0.1192  0.5337
 8792SOL    HW137835   0.578   3.611   8.375  0.3352 -0.4253  0.0921
 8792SOL    HW237836   0.520   3.484   8.437 -2.4578  2.1688  3.4424
 8793SOL     OW37837   4.354   1.465   2.696 -1.0098  0.4783 -0.1599
 8793SOL    HW137838   4.442   1.452   2.661 -1.8914 -1.0537 -1.8299
 8793SOL    HW237839   4.295   1.415   2.639 -1.3205  1.1175 -0.4079
 8794SOL     OW37840   3.368   3.094  17.634  0.2032  0.1838  0.4927
 8794SOL    HW137841   3.316   3.015  17.616 -1.7165  1.9099 -1.5674
 8794SOL    HW237842   3.456   3.062  17.616 -1.2372 -2.9406 -1.0664
 8795SOL     OW37843   2.004   4.132  17.079  0.2505  0.7400  0.5959
 8795SOL    HW137844   1.969   4.061  17.132  0.6453 -1.2982 -1.8669
 8795SOL    HW237845   2.040   4.189  17.148 -1.6616  0.3166  1.9430
 8796SOL     OW37846   2.135   0.032   8.644 -0.3895  0.3471 -0.3993
 8796SOL    HW137847   2.107   0.120   8.668 -2.5201 -0.6654  0.8476
 8796SOL    HW237848   2.193   0.042   8.569  0.5596  1.5368  0.5074
 8797SOL     OW37849   2.906   4.656   6.568 -0.2025  0.0783  0.4787
 8797SOL    HW137850   2.996   4.680   6.549 -0.3209 -0.1535 -0.3688
 8797SOL    HW237851   2.850   0.011   6.559  0.6059  0.8274  1.9257
 8798SOL     OW37852   0.141   3.758   9.435  0.5894 -0.6937  0.3112
 8798SOL    HW137853   0.154   3.851   9.418 -0.5098 -0.5973  0.0291
 8798SOL    HW237854   0.154   3.715   9.350 -2.0796  0.1945 -0.5317
 8799SOL     OW37855   2.550   4.434   9.006  0.1195 -0.0392  0.7371
 8799SOL    HW137856   2.546   4.384   9.088  0.9802  0.4675  1.0907
 8799SOL    HW237857   2.459   4.435   8.976 -0.2007  1.4920  1.7107
 8800SOL     OW37858   1.266   2.366   5.507  0.4855  0.2043 -0.4033
 8800SOL    HW137859   1.212   2.432   5.463  1.5600  0.9976 -0.5354
 8800SOL    HW237860   1.230   2.288   5.465  1.1343 -0.8270  0.9703
 8801SOL     OW37861   3.472   0.266   8.565 -0.4434  0.6134  0.2238
 8801SOL    HW137862   3.549   0.305   8.608 -1.6039  2.6232  0.4594
 8801SOL    HW237863   3.401   0.306   8.614  0.2320  1.8526  0.2015
 8802SOL     OW37864   3.933   4.670  16.533  0.3611  0.2650  0.3258
 8802SOL    HW137865   3.907   0.038  16.553  0.4817  0.0678  1.3673
 8802SOL    HW237866   3.983   4.645  16.611 -0.5949 -0.6893  0.6302
 8803SOL     OW37867   3.907   1.677  11.302 -0.0564 -0.0554 -0.3571
 8803SOL    HW137868   3.850   1.738  11.256 -0.8460  0.4114  1.2432
 8803SOL    HW237869   3.969   1.661  11.230  0.3923  3.9843 -0.8936
 8804SOL     OW37870   1.052   0.859  14.784 -0.5600  0.7043 -0.0089
 8804SOL    HW137871   1.053   0.823  14.696  3.6659 -0.8134  0.6761
 8804SOL    HW237872   0.985   0.801  14.821  0.5069 -0.4452  0.1002
 8805SOL     OW37873   2.639   3.386   8.873  0.5970 -0.7362 -0.0220
 8805SOL    HW137874   2.643   3.459   8.812  0.4163 -0.5796  0.1558
 8805SOL    HW237875   2.545   3.390   8.885  0.4792 -1.5498 -0.6333
 8806SOL     OW37876   3.170   0.886  11.406 -0.2098  0.1418 -0.6211
 8806SOL    HW137877   3.229   0.900  11.332 -0.5127 -0.8067 -1.0427
 8806SOL    HW237878   3.093   0.850  11.362 -0.9211  2.2257 -1.0783
 8807SOL     OW37879   4.594   3.825   0.446  0.0599  0.5954 -0.6229
 8807SOL    HW137880   4.545   3.775   0.381 -0.2878 -1.8257  1.5342
 8807SOL    HW237881   4.560   3.804   0.532 -0.8279  0.8849 -0.9107
 8808SOL     OW37882   1.391   0.985   7.156 -0.1240 -0.1300 -0.6444
 8808SOL    HW137883   1.444   1.031   7.221  0.3065 -1.9628  0.3147
 8808SOL    HW237884   1.425   0.896   7.168  2.6576  1.0955  0.7019
 8809SOL     OW37885   2.463   0.948   2.403  0.6654 -0.8920  0.4934
 8809SOL    HW137886   2.516   0.903   2.468  1.7684 -1.0142 -0.5123
 8809SOL    HW237887   2.446   0.871   2.349  1.5479  0.3701 -1.5864
 8810SOL     OW37888   2.718   1.506  13.821 -0.0226  0.1880 -0.6499
 8810SOL    HW137889   2.804   1.499  13.863 -0.2655 -0.0632 -0.1908
 8810SOL    HW237890   2.703   1.414  13.802  1.8850 -0.3124  0.2307
 8811SOL     OW37891   2.020   2.003   0.309 -0.7232 -0.1965  0.1194
 8811SOL    HW137892   2.025   2.095   0.334 -0.2692  0.0856 -1.0089
 8811SOL    HW237893   2.071   1.999   0.228 -0.4217  2.9616  0.1583
 8812SOL     OW37894   4.559   0.556  10.671  0.4876  0.0554  0.7250
 8812SOL    HW137895   4.521   0.628  10.720 -1.3182 -0.6068  0.3059
 8812SOL    HW237896   4.652   0.578  10.661 -0.1046  2.0981 -0.2759
 8813SOL     OW37897   2.032   3.243   4.411 -0.1057 -0.0380  0.2309
 8813SOL    HW137898   2.007   3.173   4.351  2.0580 -0.5517 -0.0831
 8813SOL    HW237899   2.127   3.247   4.419  0.1417  0.3571 -3.0945
 8814SOL     OW37900   4.133   3.283   4.750  0.1407  0.2263 -0.1068
 8814SOL    HW137901   4.106   3.373   4.732  1.5516  0.5890 -0.4095
 8814SOL    HW237902   4.049   3.236   4.744 -1.4162  3.0863 -0.8512
 8815SOL     OW37903   2.625   1.859  17.211  1.1378  0.0781  0.1587
 8815SOL    HW137904   2.630   1.885  17.303 -3.6100  1.4381  0.0559
 8815SOL    HW237905   2.585   1.773  17.220  3.3990 -0.9288  0.5010
 8816SOL     OW37906   1.555   2.280   0.548  0.6828  0.1729 -0.2630
 8816SOL    HW137907   1.565   2.350   0.612 -1.6949 -0.6204  0.9763
 8816SOL    HW237908   1.484   2.318   0.496 -0.9839 -1.6657  0.6553
 8817SOL     OW37909   3.036   0.415  13.610 -0.4279 -0.4248 -0.6838
 8817SOL    HW137910   3.095   0.384  13.541 -1.6382 -0.6534 -1.6191
 8817SOL    HW237911   2.955   0.424  13.560 -2.0221  2.9070  2.4677
 8818SOL     OW37912   2.733   1.917   5.845 -0.5059  0.0323 -0.1657
 8818SOL    HW137913   2.640   1.909   5.864 -0.4391  0.5254  0.3517
 8818SOL    HW237914   2.728   1.947   5.754  1.1373 -1.2202 -0.6632
 8819SOL     OW37915   2.613   2.102   4.649  0.0847  0.0726 -0.2660
 8819SOL    HW137916   2.555   2.124   4.577 -0.5219  0.6886  0.4106
 8819SOL    HW237917   2.666   2.180   4.665 -2.4929  1.8646 -0.5467
 8820SOL     OW37918   4.703   0.872   4.954 -0.0914  0.0673  0.2514
 8820SOL    HW137919   0.066   0.900   4.988  0.0924 -0.1349 -0.0406
 8820SOL    HW237920   4.687   0.804   5.019  0.0317  0.7561  0.9986
 8821SOL     OW37921   0.628   2.895   1.108  0.4091  0.1461  0.1152
 8821SOL    HW137922   0.536   2.867   1.101  0.7197 -0.8421  0.0024
 8821SOL    HW237923   0.628   2.944   1.190 -1.6242  2.8085 -1.4759
 8822SOL     OW37924   3.601   1.817   5.412  0.2757 -0.6167  0.1360
 8822SOL    HW137925   3.575   1.902   5.375  0.1137 -0.2431  1.1072
 8822SOL    HW237926   3.554   1.755   5.356  0.5579 -0.8344  0.1430
 8823SOL     OW37927   4.571   3.892   1.340  0.1850  0.0952  0.5799
 8823SOL    HW137928   4.538   3.979   1.363 -0.8353 -0.3305  0.7291
 8823SOL    HW237929   4.640   3.866   1.401  0.2748  0.3186  0.5767
 8824SOL     OW37930   4.261   4.165  10.321 -0.1245  0.0250  0.0524
 8824SOL    HW137931   4.299   4.227  10.383  1.7160 -0.0482 -1.0021
 8824SOL    HW237932   4.203   4.120  10.382  0.5706 -0.0776  0.6427
 8825SOL     OW37933   3.258   4.360  11.164  0.1543  0.5148  0.5252
 8825SOL    HW137934   3.165   4.356  11.142  0.3558 -1.0624  0.0145
 8825SOL    HW237935   3.294   4.383  11.078 -0.4430  0.5682  0.2907
 8826SOL     OW37936   1.320   1.076   4.236  0.4367  0.1564  0.5539
 8826SOL    HW137937   1.309   1.094   4.143  0.2982  0.2247  0.5842
 8826SOL    HW237938   1.284   1.157   4.274  2.1535  0.6275  1.1955
 8827SOL     OW37939   1.875   0.379   5.173 -0.4886 -0.0187 -0.0807
 8827SOL    HW137940   1.959   0.378   5.127  0.3363  1.6574  1.3910
 8827SOL    HW237941   1.902   0.432   5.247 -0.8473 -0.7856  0.6013
 8828SOL     OW37942   0.599   2.834   2.535 -0.1310 -0.0843  0.0654
 8828SOL    HW137943   0.648   2.876   2.464 -2.3501  0.0700 -1.3889
 8828SOL    HW237944   0.524   2.810   2.481 -0.8111  0.6425  0.7037
 8829SOL     OW37945   1.386   1.574  17.576  0.0811 -0.0692 -0.0475
 8829SOL    HW137946   1.295   1.588  17.547 -0.6051 -2.7781  0.7735
 8829SOL    HW237947   1.424   1.552  17.492  0.7612 -0.2745  0.3159
 8830SOL     OW37948   0.738   4.312   3.276 -0.1340  0.4866  0.3130
 8830SOL    HW137949   0.658   4.365   3.274  0.6789  1.6325 -1.9631
 8830SOL    HW237950   0.807   4.379   3.270  1.1605 -0.8209  0.7581
 8831SOL     OW37951   4.459   0.410   5.795 -0.1740  0.1630 -0.1285
 8831SOL    HW137952   4.481   0.347   5.863  0.2980  0.9994  0.4970
 8831SOL    HW237953   4.421   0.478   5.850 -3.3379 -1.3916 -0.4361
 8832SOL     OW37954   4.098   4.471   6.258 -0.0158 -0.6096  0.2099
 8832SOL    HW137955   4.141   4.492   6.176 -1.7667 -3.0012 -1.3195
 8832SOL    HW237956   4.137   4.543   6.307 -0.6639 -1.7210  2.3798
 8833SOL     OW37957   1.516   2.137   1.328 -0.6784 -0.4925 -0.0712
 8833SOL    HW137958   1.473   2.095   1.402  2.2305 -2.1633  0.6549
 8833SOL    HW237959   1.483   2.092   1.250  1.1211 -2.6968  0.4560
 8834SOL     OW37960   3.487   1.472   8.260  0.3744 -0.7884  0.1491
 8834SOL    HW137961   3.433   1.459   8.338  0.9686  2.1323  1.0403
 8834SOL    HW237962   3.567   1.504   8.302 -0.1857  1.2729 -0.3751
 8835SOL     OW37963   0.143   3.279  13.673  0.6456  0.1024 -0.0818
 8835SOL    HW137964   0.055   3.255  13.642  1.1150  0.0477 -1.3387
 8835SOL    HW237965   0.151   3.212  13.741  0.8301 -3.0908 -3.2615
 8836SOL     OW37966   4.146   2.462   8.500 -0.0640  0.7656 -0.0048
 8836SOL    HW137967   4.139   2.530   8.434 -3.8726 -1.0412 -1.4849
 8836SOL    HW237968   4.241   2.448   8.501 -0.3434 -1.1681  0.2053
 8837SOL     OW37969   4.658   3.044   9.425  0.1979  0.4333  0.1659
 8837SOL    HW137970   4.677   3.137   9.424 -1.3841  0.7656  0.3455
 8837SOL    HW237971   4.649   3.021   9.518  1.9778  1.6613  0.6315
 8838SOL     OW37972   4.522   3.782   6.057 -0.4017 -0.1720 -0.7222
 8838SOL    HW137973   4.593   3.835   6.092 -0.7400  0.3714 -0.8639
 8838SOL    HW237974   4.534   3.777   5.962 -2.5973  0.2428 -1.0151
 8839SOL     OW37975   4.551   1.204   7.383 -0.2413 -0.3451  0.8164
 8839SOL    HW137976   4.626   1.249   7.423  0.4272 -2.0663  1.5167
 8839SOL    HW237977   4.506   1.286   7.364 -0.7578 -0.3764  1.9202
 8840SOL     OW37978   0.830   0.854  11.641 -0.2759 -0.0771 -0.5370
 8840SOL    HW137979   0.738   0.837  11.661 -0.3192 -0.8225 -1.4080
 8840SOL    HW237980   0.855   0.764  11.620  1.5103  0.6496 -1.4907
 8841SOL     OW37981   4.475   4.597  12.128  0.0354 -0.2275  0.2446
 8841SOL    HW137982   4.444   4.515  12.165  0.2986 -0.5646 -0.2831
 8841SOL    HW237983   4.505   4.650  12.202 -0.4124  0.0178  0.2519
 8842SOL     OW37984   0.554   2.029  17.631 -0.3594 -0.3151  0.2224
 8842SOL    HW137985   0.577   2.060   0.028 -2.3652  1.0865  0.2402
 8842SOL    HW237986   0.624   2.061  17.575 -1.4467  0.9488 -0.4010
 8843SOL     OW37987   3.516   1.732  15.228 -0.5328 -0.2986 -0.2091
 8843SOL    HW137988   3.599   1.766  15.197  0.5551 -0.7441  2.2427
 8843SOL    HW237989   3.535   1.639  15.214 -0.0924 -0.0968 -0.9115
 8844SOL     OW37990   1.453   1.810  11.597  0.1902 -0.4775  0.1099
 8844SOL    HW137991   1.474   1.773  11.683  0.2106 -0.2151  0.2189
 8844SOL    HW237992   1.533   1.851  11.565  1.0472 -0.3068  2.4131
 8845SOL     OW37993   3.876   0.462   6.325 -0.2235  0.1086 -0.1915
 8845SOL    HW137994   3.782   0.477   6.335 -0.3681 -0.4647 -0.6579
 8845SOL    HW237995   3.899   0.448   6.233  0.6264  0.8445 -0.0867
 8846SOL     OW37996   4.070   2.082  12.696 -0.3655 -0.3048  0.4840
 8846SOL    HW137997   3.988   2.051  12.735  0.0012 -2.0062 -0.1409
 8846SOL    HW237998   4.039   2.142  12.627  0.6889 -1.4504 -0.9704
 8847SOL     OW37999   4.300   3.747   7.200 -0.7254  0.0350 -0.5105
 8847SOL    HW138000   4.295   3.791   7.115  0.1201 -2.0634 -1.6641
 8847SOL    HW238001   4.372   3.685   7.182 -0.3906  1.3323 -3.6517
 8848SOL     OW38002   4.546   2.013   9.391  0.2482 -0.1478  0.0394
 8848SOL    HW138003   4.472   2.039   9.336 -0.3743  0.4859  1.1704
 8848SOL    HW238004   4.617   1.998   9.328  0.8899 -1.8980  1.1885
 8849SOL     OW38005   2.413   3.003   7.211 -0.5336  0.3228 -0.4775
 8849SOL    HW138006   2.416   2.956   7.295  0.3251  1.4990  0.1684
 8849SOL    HW238007   2.419   2.928   7.152  0.0558 -0.5778  0.7209
 8850SOL     OW38008   0.536   4.078   8.317  0.1378  0.3340  0.3230
 8850SOL    HW138009   0.452   4.074   8.270  0.0189 -0.1177  0.5730
 8850SOL    HW238010   0.496   4.060   8.402 -2.7148  0.0452 -1.0786
 8851SOL     OW38011   0.529   3.065  12.634 -0.0729 -0.1176 -0.4768
 8851SOL    HW138012   0.545   3.003  12.706  0.1512  1.9804  1.2819
 8851SOL    HW238013   0.530   3.000  12.564 -2.1364 -0.1977 -0.4254
 8852SOL     OW38014   2.082   1.837  13.847 -0.8340  0.3344  0.6820
 8852SOL    HW138015   2.161   1.811  13.894 -2.1294 -1.0336  2.0933
 8852SOL    HW238016   2.038   1.880  13.921  0.2482  1.2056  0.8273
 8853SOL     OW38017   0.555   1.403   3.731  0.3512 -0.2616 -0.1807
 8853SOL    HW138018   0.531   1.340   3.663  0.7206 -0.6407  0.0434
 8853SOL    HW238019   0.636   1.438   3.694  0.1440 -0.6230 -0.9772
 8854SOL     OW38020   4.637   2.284   6.670 -0.6139  0.9288 -0.0891
 8854SOL    HW138021   4.700   2.353   6.652  0.6797  0.3165  2.0487
 8854SOL    HW238022   4.678   2.200   6.650 -0.1454  1.3548 -0.8922
 8855SOL     OW38023   4.367   3.133   9.413  0.2711  0.2501 -0.4213
 8855SOL    HW138024   4.444   3.083   9.386 -1.7245 -2.3211 -1.4018
 8855SOL    HW238025   4.390   3.143   9.505 -1.9356 -1.1195  0.2836
 8856SOL     OW38026   4.580   0.087   6.578 -0.1821 -0.2120 -0.2733
 8856SOL    HW138027   4.566   0.033   6.656  0.3378 -0.5126 -0.3913
 8856SOL    HW238028   4.486   0.086   6.559 -0.4217 -2.1041  0.9423
 8857SOL     OW38029   0.165   0.065   8.170 -0.0782  0.5957  0.1524
 8857SOL    HW138030   0.123   0.037   8.252 -2.1525 -2.2267 -1.9008
 8857SOL    HW238031   0.156   0.161   8.166  1.6921  0.6499 -2.2668
 8858SOL     OW38032   0.889   2.476   1.813  0.4169  0.2913  0.2752
 8858SOL    HW138033   0.975   2.436   1.799  0.6770  0.1645  2.2264
 8858SOL    HW238034   0.856   2.491   1.724 -0.7832 -0.2615  0.6419
 8859SOL     OW38035   3.341   2.136  17.477  0.2724  0.3630 -0.3531
 8859SOL    HW138036   3.368   2.065  17.418  0.7519 -0.4870  0.8873
 8859SOL    HW238037   3.385   2.212  17.441  1.5562 -0.9373 -1.5593
 8860SOL     OW38038   4.021   4.059   6.278  0.2226  0.1548 -0.1683
 8860SOL    HW138039   3.928   4.054   6.256  0.2824 -2.4318  0.1418
 8860SOL    HW238040   4.013   4.078   6.372  0.1146 -1.4324  0.1429
 8861SOL     OW38041   1.424   3.487  15.289  0.1406 -0.0892  0.0262
 8861SOL    HW138042   1.480   3.455  15.359 -1.8438 -2.2400  0.6444
 8861SOL    HW238043   1.408   3.410  15.236  0.1003 -0.2092  0.2112
 8862SOL     OW38044   1.785   4.469   4.148 -0.0032 -0.3081 -0.1002
 8862SOL    HW138045   1.781   4.422   4.065  2.5629 -1.0321  0.1729
 8862SOL    HW238046   1.723   4.537   4.122  0.6953  0.4311  0.1568
 8863SOL     OW38047   1.258   4.080   5.814 -0.4826 -0.0018 -0.6948
 8863SOL    HW138048   1.193   4.142   5.848 -0.3548 -0.1288 -0.2172
 8863SOL    HW238049   1.338   4.131   5.830  0.1134 -1.0384 -0.4020
 8864SOL     OW38050   4.584   3.804   0.726  0.5833  0.0405 -0.2602
 8864SOL    HW138051   4.539   3.869   0.781 -1.4591  0.2686 -2.2129
 8864SOL    HW238052   4.665   3.849   0.701 -0.6627  1.8963 -0.9869
 8865SOL     OW38053   1.137   1.458   3.259  0.0323 -0.0004  0.4048
 8865SOL    HW138054   1.169   1.509   3.333 -0.6443  1.1010 -0.0600
 8865SOL    HW238055   1.129   1.528   3.194  2.8900 -0.3295 -0.3238
 8866SOL     OW38056   3.127   0.583  16.874 -0.1138 -0.0558 -0.2612
 8866SOL    HW138057   3.169   0.567  16.790  1.7723 -0.7808  0.8145
 8866SOL    HW238058   3.051   0.630  16.840 -0.7065 -0.6154  0.2746
 8867SOL     OW38059   2.584   0.213   3.946  0.0980 -0.2205 -0.0863
 8867SOL    HW138060   2.494   0.192   3.918 -0.5938  0.1628  1.8339
 8867SOL    HW238061   2.629   0.238   3.866  0.4959 -1.3540 -0.2158
 8868SOL     OW38062   2.808   1.238   1.750 -0.6218  0.1895 -0.6656
 8868SOL    HW138063   2.900   1.252   1.775 -0.1715  1.3327 -3.0188
 8868SOL    HW238064   2.800   1.144   1.767 -3.6313  0.7349  1.0451
 8869SOL     OW38065   2.968   0.232   7.369 -1.0142  0.1643 -0.3632
 8869SOL    HW138066   2.887   0.209   7.414  0.3886  0.3211  2.2773
 8869SOL    HW238067   3.023   0.178   7.426  0.9992  1.8032 -0.7604
 8870SOL     OW38068   4.322   0.680   6.814  0.1700 -0.1576  0.2313
 8870SOL    HW138069   4.281   0.667   6.728  1.0394 -0.0712 -0.1919
 8870SOL    HW238070   4.346   0.772   6.801  0.2347 -0.2547 -0.3473
 8871SOL     OW38071   3.967   4.143   1.919 -0.0604  0.2573  0.6612
 8871SOL    HW138072   3.887   4.109   1.959 -1.1876 -1.2277 -2.8575
 8871SOL    HW238073   4.036   4.112   1.977 -0.3469 -2.8321 -0.6537
 8872SOL     OW38074   3.896   2.785  10.872 -0.2904 -0.0807 -0.0225
 8872SOL    HW138075   3.912   2.778  10.966 -0.0249  0.3285 -0.0356
 8872SOL    HW238076   3.801   2.770  10.873 -0.3780  0.6544  2.1603
 8873SOL     OW38077   0.777   1.928   1.440  0.1162  0.3989  0.0645
 8873SOL    HW138078   0.724   2.002   1.410  0.2450  0.0492 -1.0456
 8873SOL    HW238079   0.819   1.913   1.355  3.0723  1.3813  1.3722
 8874SOL     OW38080   0.517   1.009  11.567 -0.2720  0.3851 -0.2999
 8874SOL    HW138081   0.530   0.914  11.561  1.1010  0.3624  3.1049
 8874SOL    HW238082   0.483   1.038  11.482  2.1978 -0.4707 -1.5803
 8875SOL     OW38083   1.273   2.070  10.189  0.1086 -0.3475  0.4084
 8875SOL    HW138084   1.292   2.105  10.276  3.2832 -3.9610  1.2162
 8875SOL    HW238085   1.266   1.975  10.201 -0.3018 -0.1236  1.8768
 8876SOL     OW38086   2.053   0.690  12.581 -0.3441  0.1237 -0.4371
 8876SOL    HW138087   2.115   0.633  12.627 -0.9855 -0.6474 -0.5339
 8876SOL    HW238088   1.990   0.724  12.644 -1.2668 -2.0748 -0.1761
 8877SOL     OW38089   3.101   3.395   8.825  0.1778  0.0324 -0.0246
 8877SOL    HW138090   3.133   3.430   8.908 -3.1638  0.2418  1.1828
 8877SOL    HW238091   3.020   3.445   8.813 -0.0414 -0.5401 -0.9451
 8878SOL     OW38092   4.392   3.150   4.167  0.9879 -0.3383 -0.2093
 8878SOL    HW138093   4.378   3.173   4.075 -0.1611  0.8469  0.2663
 8878SOL    HW238094   4.310   3.109   4.194  1.6948  0.1190  2.5856
 8879SOL     OW38095   2.644   1.035  13.571  0.9120 -0.3679 -0.2899
 8879SOL    HW138096   2.623   1.084  13.491 -0.8177 -0.0934  0.3168
 8879SOL    HW238097   2.575   0.969  13.561 -0.1849  0.8901 -1.1271
 8880SOL     OW38098   1.614   4.231  16.726 -0.4557  0.5094  0.0880
 8880SOL    HW138099   1.622   4.310  16.673  0.7985 -0.7094 -1.5186
 8880SOL    HW238100   1.681   4.243  16.793 -0.6852  3.8683 -0.3045
 8881SOL     OW38101   3.833   0.520   5.364 -0.1321 -0.4896 -0.2435
 8881SOL    HW138102   3.756   0.465   5.379 -0.0735  0.0892  2.1884
 8881SOL    HW238103   3.840   0.553   5.454 -0.6981  0.1660 -0.4397
 8882SOL     OW38104   3.736   1.375   4.615 -0.7904  0.2498 -0.0037
 8882SOL    HW138105   3.665   1.426   4.575 -1.2059  0.2508  0.7238
 8882SOL    HW238106   3.706   1.357   4.704  0.6280  2.9304  0.9854
 8883SOL     OW38107   0.508   1.930  16.310  0.1213  0.1081 -0.7602
 8883SOL    HW138108   0.561   2.004  16.341 -0.6701  0.9099 -1.2999
 8883SOL    HW238109   0.574   1.863  16.325  0.1939  0.8331  2.1696
 8884SOL     OW38110   4.004   4.366   7.710  0.2313 -0.1486 -0.2408
 8884SOL    HW138111   3.948   4.299   7.750  0.2546  1.8000  3.0326
 8884SOL    HW238112   4.054   4.301   7.661 -1.7628 -1.4850 -0.5276
 8885SOL     OW38113   3.353   4.565   5.363 -0.0384  0.3662  0.0524
 8885SOL    HW138114   3.315   4.650   5.385  1.7856  0.8670  1.2918
 8885SOL    HW238115   3.311   4.507   5.428 -1.0042 -0.4843 -1.3325
 8886SOL     OW38116   0.619   4.041   1.030 -0.4737 -0.3037  0.5323
 8886SOL    HW138117   0.622   3.980   0.957  1.6876  0.2633  0.1500
 8886SOL    HW238118   0.643   3.981   1.100  0.0580  1.7689  2.1383
 8887SOL     OW38119   0.065   3.944   3.476  0.1310 -0.5564  0.5918
 8887SOL    HW138120   4.707   3.974   3.518 -0.7144 -0.5915 -0.9898
 8887SOL    HW238121   0.114   3.924   3.555 -0.8723  0.4398  1.4666
 8888SOL     OW38122   4.101   4.710  11.665  0.4569  0.0417 -0.2034
 8888SOL    HW138123   4.137   4.685  11.750 -0.4128 -0.1800  0.0895
 8888SOL    HW238124   4.184   0.022  11.630  0.3333  1.6640  1.0739
 8889SOL     OW38125   1.635   0.717   0.857 -0.6362  0.2057 -0.2893
 8889SOL    HW138126   1.600   0.757   0.937 -1.6670 -1.9349  0.3257
 8889SOL    HW238127   1.728   0.712   0.879 -1.1395  0.4211  1.9630
 8890SOL     OW38128   0.594   1.328  17.604  0.9821 -0.1830 -0.1613
 8890SOL    HW138129   0.566   1.318  17.513 -1.5008  2.3257  0.3190
 8890SOL    HW238130   0.600   1.422  17.620  0.1283  0.1517 -1.7855
 8891SOL     OW38131   2.680   1.394  16.414 -0.1382  0.3418 -0.6174
 8891SOL    HW138132   2.684   1.352  16.500  3.1891  0.6414 -0.6347
 8891SOL    HW238133   2.586   1.415  16.414  0.0393  1.2498  2.0182
 8892SOL     OW38134   4.282   2.022  12.023  0.3372 -0.0069  0.0526
 8892SOL    HW138135   4.224   2.078  12.074  1.3106  1.1884 -0.1426
 8892SOL    HW238136   4.264   2.045  11.932  1.4022  1.8667  0.3090
 8893SOL     OW38137   0.042   4.458  12.256  0.1695  0.3306  0.4550
 8893SOL    HW138138   0.048   4.394  12.185  3.0824 -0.1219  1.0866
 8893SOL    HW238139   4.678   4.432  12.287  0.9218 -2.0088  0.6349
 8894SOL     OW38140   1.621   4.462  10.222 -0.3427  0.0788  0.2131
 8894SOL    HW138141   1.609   4.506  10.306  2.1922 -1.0071  1.1461
 8894SOL    HW238142   1.716   4.474  10.214 -0.2280 -1.2209 -0.3980
 8895SOL     OW38143   1.321   2.503   8.330  0.3358 -0.1346  0.4610
 8895SOL    HW138144   1.327   2.597   8.349 -0.9029 -0.2649  1.5398
 8895SOL    HW238145   1.374   2.494   8.251  0.6747 -0.9892  0.7871
 8896SOL     OW38146   2.146   3.764   1.146 -0.2105  0.3515  0.1762
 8896SOL    HW138147   2.188   3.764   1.232  0.0235 -1.4995  0.0736
 8896SOL    HW238148   2.136   3.856   1.121 -2.8838 -0.6367 -2.4750
 8897SOL     OW38149   3.512   3.523   4.787  0.0495 -0.3720  0.0116
 8897SOL    HW138150   3.566   3.444   4.784  0.3987 -0.1389  0.0797
 8897SOL    HW238151   3.580   3.588   4.805  0.3411 -0.4197 -0.8976
 8898SOL     OW38152   2.747   1.999   3.311 -0.0226  0.1397 -0.0928
 8898SOL    HW138153   2.744   2.015   3.406  0.3104 -1.8278  0.2428
 8898SOL    HW238154   2.842   1.997   3.296 -0.2911 -0.3968 -1.7253
 8899SOL     OW38155   1.752   3.840  14.718 -0.5394 -0.0514  0.3540
 8899SOL    HW138156   1.692   3.832  14.793 -0.8102 -0.2176  0.1211
 8899SOL    HW238157   1.840   3.846  14.753  0.1339 -1.7694 -1.0386
 8900SOL     OW38158   2.637   2.194   0.760 -0.0052 -0.0172 -0.0996
 8900SOL    HW138159   2.586   2.129   0.809 -1.3045 -0.9199 -2.6990
 8900SOL    HW238160   2.721   2.191   0.806  0.7750 -0.3597 -1.5424
 8901SOL     OW38161   2.474   4.633   0.507  0.8060  0.2113 -0.1344
 8901SOL    HW138162   2.551   4.582   0.487  0.1054 -0.2958 -1.4926
 8901SOL    HW238163   2.448   4.657   0.418  0.2196 -1.5870 -0.4531
 8902SOL     OW38164   3.762   3.702  16.327  0.2867 -0.2511 -0.6378
 8902SOL    HW138165   3.717   3.684  16.244 -0.1942 -0.4251 -0.3392
 8902SOL    HW238166   3.753   3.797  16.326 -0.9275 -0.3783 -3.5770
 8903SOL     OW38167   3.288   3.655   9.033  0.4675  0.3788 -0.0060
 8903SOL    HW138168   3.317   3.716   8.965  0.0019  0.8551  0.2244
 8903SOL    HW238169   3.319   3.701   9.112  0.7224 -1.5467  1.0118
 8904SOL     OW38170   2.512   2.193  12.444 -0.7704 -1.0518 -0.1381
 8904SOL    HW138171   2.530   2.100  12.460 -1.5978 -1.2684 -0.4818
 8904SOL    HW238172   2.491   2.224  12.532  0.3337  0.6572 -0.4901
 8905SOL     OW38173   3.877   3.903   3.306  0.4324 -0.3553 -0.1905
 8905SOL    HW138174   3.945   3.966   3.284 -1.6887  2.2030  0.6333
 8905SOL    HW238175   3.807   3.959   3.339  0.3915 -1.5771  1.8279
 8906SOL     OW38176   4.638   1.711   6.256  0.4942 -0.1290 -0.5386
 8906SOL    HW138177   4.577   1.784   6.264  0.5138 -0.4872  2.9273
 8906SOL    HW238178   4.620   1.669   6.172  0.2051  1.0111 -1.0385
 8907SOL     OW38179   0.846   2.295   1.576 -0.5680 -0.2452 -0.3902
 8907SOL    HW138180   0.780   2.252   1.522 -1.9568  2.3283 -0.6876
 8907SOL    HW238181   0.809   2.271   1.661 -0.1185  1.7665  0.3778
 8908SOL     OW38182   2.326   1.148   6.335 -0.6173  0.0470 -0.0235
 8908SOL    HW138183   2.307   1.174   6.425 -0.0430  1.5372 -0.3259
 8908SOL    HW238184   2.243   1.110   6.308 -0.9028 -0.7390  1.9947
 8909SOL     OW38185   2.007   0.078   4.970  0.5792  0.5639 -0.0723
 8909SOL    HW138186   2.065   0.154   4.972 -0.8479  1.6626 -0.0430
 8909SOL    HW238187   1.937   0.130   4.931 -0.5146 -0.1006  0.9998
 8910SOL     OW38188   1.616   3.587  15.869 -0.0558 -0.0508  0.6642
 8910SOL    HW138189   1.651   3.665  15.912 -0.5377  2.5400 -3.6182
 8910SOL    HW238190   1.582   3.625  15.788 -2.6647 -2.1427  0.8095
 8911SOL     OW38191   3.426   3.654   8.410 -0.2771  0.3378 -0.3254
 8911SOL    HW138192   3.398   3.678   8.322  0.0768  0.1259 -0.4923
 8911SOL    HW238193   3.350   3.692   8.454 -0.3231 -1.4983  1.1704
 8912SOL     OW38194   4.597   2.120  12.939  0.0317  0.3732  1.3711
 8912SOL    HW138195   4.588   2.200  12.991 -1.9731  2.3481 -2.0526
 8912SOL    HW238196   4.558   2.056  12.999 -0.6113 -0.8597 -0.3384
 8913SOL     OW38197   2.304   0.115   5.120  0.8531 -0.1065 -0.1513
 8913SOL    HW138198   2.225   0.113   5.174 -0.3910 -1.7250 -2.0240
 8913SOL    HW238199   2.337   0.204   5.133  2.0308 -0.6564  0.6845
 8914SOL     OW38200   2.285   0.708  10.174 -0.0174 -0.2577 -0.4625
 8914SOL    HW138201   2.339   0.728  10.250 -0.7543  0.0758 -0.0318
 8914SOL    HW238202   2.289   0.612  10.173 -1.9555 -0.3301  0.7036
 8915SOL     OW38203   4.682   1.352   7.822 -0.0143 -0.3462 -0.0890
 8915SOL    HW138204   4.592   1.352   7.789  0.8812 -0.8966 -2.4857
 8915SOL    HW238205   0.014   1.370   7.745 -0.1492 -1.6658 -0.4881
 8916SOL     OW38206   3.573   1.561   8.938  0.2701  0.7182  0.1784
 8916SOL    HW138207   3.618   1.513   9.006 -1.1028 -1.3266 -0.3614
 8916SOL    HW238208   3.585   1.650   8.972 -0.1284  0.9436 -0.2489
 8917SOL     OW38209   0.822   0.397   7.540 -0.1934  0.4163 -0.6674
 8917SOL    HW138210   0.739   0.398   7.588 -0.2321  0.4399 -0.7359
 8917SOL    HW238211   0.798   0.387   7.448 -1.6216  1.8096 -0.4370
 8918SOL     OW38212   4.580   0.407  10.998 -0.3040 -0.2863  0.0381
 8918SOL    HW138213   4.638   0.480  10.978  1.6524 -1.4120  1.7475
 8918SOL    HW238214   4.634   0.341  10.956 -0.2595 -1.2110  1.5729
 8919SOL     OW38215   0.948   0.387   8.573 -0.1582 -0.0035 -0.1818
 8919SOL    HW138216   0.874   0.326   8.566  0.7345 -1.2929  1.4367
 8919SOL    HW238217   0.983   0.385   8.485 -1.5217  0.7199 -0.7437
 8920SOL     OW38218   4.336   3.865  17.349  0.1038 -0.0371 -0.1859
 8920SOL    HW138219   4.251   3.830  17.376  1.0983 -2.8744 -0.6760
 8920SOL    HW238220   4.393   3.831  17.418  1.2796  2.4230  0.0329
 8921SOL     OW38221   1.451   3.216   8.591 -0.3448  0.1224 -0.1054
 8921SOL    HW138222   1.488   3.193   8.506 -0.2857 -1.8819  0.4618
 8921SOL    HW238223   1.493   3.142   8.634 -0.5061 -1.0618 -1.9870
 8922SOL     OW38224   0.654   3.457  15.052 -0.5012 -0.1466 -0.4802
 8922SOL    HW138225   0.578   3.448  14.993 -1.4800  0.8517  0.6418
 8922SOL    HW238226   0.621   3.531  15.102 -0.4641 -0.9267  0.7014
 8923SOL     OW38227   0.689   2.098   5.362  0.4354  0.2615 -0.4561
 8923SOL    HW138228   0.607   2.129   5.400  1.1131  0.7291  0.6011
 8923SOL    HW238229   0.685   2.126   5.270 -0.3575 -3.3380 -1.5175
 8924SOL     OW38230   2.836   1.426   5.805 -0.0588 -0.3396  0.3151
 8924SOL    HW138231   2.876   1.377   5.734  1.3926 -0.3884  1.1671
 8924SOL    HW238232   2.787   1.482   5.745 -0.7109 -2.3783 -1.0096
 8925SOL     OW38233   0.399   2.119   7.250 -0.0405 -0.0722  0.2722
 8925SOL    HW138234   0.359   2.166   7.323  1.2556 -3.4920  3.2015
 8925SOL    HW238235   0.337   2.046   7.241 -0.9429  0.4933  1.9339
 8926SOL     OW38236   0.772   0.251   8.434  0.2993  0.0940 -0.2163
 8926SOL    HW138237   0.710   0.301   8.380 -1.2166  1.3954  2.7525
 8926SOL    HW238238   0.725   0.169   8.448  0.4544  0.3763  1.9777
 8927SOL     OW38239   3.223   4.202   4.833  0.8548  0.1309 -0.5582
 8927SOL    HW138240   3.255   4.146   4.904  0.2645  0.0672 -0.3462
 8927SOL    HW238241   3.238   4.135   4.766  0.5982 -0.9350  0.4438
 8928SOL     OW38242   0.020   2.881   6.035  0.3030  0.4349  0.4298
 8928SOL    HW138243   0.009   2.968   6.072  0.2508  0.4288  0.4287
 8928SOL    HW238244   0.031   2.845   6.122  0.9900 -0.2679  0.0544
 8929SOL     OW38245   2.946   4.338   6.640  0.5354 -0.3629  0.2412
 8929SOL    HW138246   2.949   4.404   6.570 -0.0351 -0.2169  0.3620
 8929SOL    HW238247   3.017   4.377   6.691  0.8830 -0.6781 -0.0015
 8930SOL     OW38248   0.893   1.274  13.028 -0.0136 -0.4103  0.1558
 8930SOL    HW138249   0.938   1.358  13.030 -0.0958 -0.4593  3.6938
 8930SOL    HW238250   0.912   1.247  12.938 -0.8919 -0.6366  0.0405
 8931SOL     OW38251   2.455   4.289   2.485 -0.5799 -0.7817  0.2256
 8931SOL    HW138252   2.431   4.357   2.423 -1.3105 -0.3984  0.9306
 8931SOL    HW238253   2.500   4.231   2.424 -1.2701 -1.2048  0.1257
 8932SOL     OW38254   4.163   2.867   4.100  0.4921  0.3733  0.0127
 8932SOL    HW138255   4.105   2.791   4.104  0.5554  0.2922 -0.6836
 8932SOL    HW238256   4.240   2.827   4.060  0.2661 -3.2885  3.1897
 8933SOL     OW38257   0.510   2.178   7.605 -0.0264 -0.0806  0.7691
 8933SOL    HW138258   0.489   2.169   7.698 -1.8395  0.5578  0.4246
 8933SOL    HW238259   0.595   2.135   7.600  0.0905  0.1234  0.9802
 8934SOL     OW38260   1.619   4.722   2.418 -0.0285  0.0278 -0.8093
 8934SOL    HW138261   1.689   0.006   2.352  1.2389  0.5950  0.6081
 8934SOL    HW238262   1.643   0.078   2.467  0.2787 -0.0122 -0.8962
 8935SOL     OW38263   2.915   2.862   7.403  0.0589  0.2762 -0.1799
 8935SOL    HW138264   2.899   2.876   7.496 -2.0738 -0.2215 -0.4727
 8935SOL    HW238265   2.975   2.787   7.411 -0.6337 -0.0771  1.8602
 8936SOL     OW38266   4.267   4.623  10.089  0.1243  0.4290 -0.3854
 8936SOL    HW138267   4.235   4.624  10.179  2.3174  3.3165  0.3768
 8936SOL    HW238268   4.349   4.673  10.094 -0.1054  0.5732  1.8787
 8937SOL     OW38269   1.119   4.006   6.778  0.6042  0.1578  0.1207
 8937SOL    HW138270   1.041   3.961   6.747  0.5793  0.8451 -0.8050
 8937SOL    HW238271   1.090   4.093   6.751  0.3684 -0.1446 -0.5756
 8938SOL     OW38272   1.538   1.926   1.582 -0.0635 -0.4091 -0.1295
 8938SOL    HW138273   1.574   1.976   1.654  0.0132  2.3928 -2.1052
 8938SOL    HW238274   1.616   1.912   1.529  0.6929 -1.9281  1.3923
 8939SOL     OW38275   2.651   4.306   1.967  0.0726  0.2470 -0.1582
 8939SOL    HW138276   2.567   4.259   1.966  0.7550 -0.8217 -3.9917
 8939SOL    HW238277   2.710   4.243   2.009 -0.2087  0.0728 -0.0219
 8940SOL     OW38278   1.069   4.322   5.056  0.4171  0.0862 -0.1991
 8940SOL    HW138279   1.131   4.379   5.100 -0.4875  1.0816 -0.2263
 8940SOL    HW238280   1.110   4.325   4.969 -4.2800  0.3777 -2.4267
 8941SOL     OW38281   2.888   3.165  10.748 -0.2599  0.0842  0.1829
 8941SOL    HW138282   2.961   3.103  10.747 -0.1078  0.3073 -1.6273
 8941SOL    HW238283   2.863   3.157  10.840  1.9228  0.3208  0.8087
 8942SOL     OW38284   2.664   3.448   9.379 -0.2362  0.2760 -0.7066
 8942SOL    HW138285   2.746   3.435   9.427  0.4243  0.2694 -1.8235
 8942SOL    HW238286   2.684   3.427   9.287 -0.8867 -0.7835 -0.6092
 8943SOL     OW38287   1.109   3.176   2.793  0.1380 -0.0891  0.0059
 8943SOL    HW138288   1.021   3.164   2.755 -0.4963 -0.2394  1.5245
 8943SOL    HW238289   1.101   3.270   2.808 -1.7205 -0.7280  3.1257
 8944SOL     OW38290   1.649   0.294  16.369  0.1003 -0.0455  0.0128
 8944SOL    HW138291   1.569   0.316  16.417  1.7524 -0.5706  2.9848
 8944SOL    HW238292   1.617   0.233  16.302  0.6369 -1.1144  0.7233
 8945SOL     OW38293   2.288   1.447  15.810 -0.2107 -0.0815 -0.1745
 8945SOL    HW138294   2.253   1.443  15.720 -0.6762 -2.1433  0.0957
 8945SOL    HW238295   2.312   1.538  15.824  0.0360 -0.3157  0.8841
 8946SOL     OW38296   4.006   1.866   3.632  0.0946  0.1162 -0.0222
 8946SOL    HW138297   3.927   1.898   3.676  1.0032  0.5356  1.3039
 8946SOL    HW238298   4.033   1.947   3.588  2.8286 -0.4786  0.6054
 8947SOL     OW38299   4.357   0.217   2.913  0.4348  0.0741 -0.6357
 8947SOL    HW138300   4.375   0.306   2.883 -0.7151  0.3262 -0.5387
 8947SOL    HW238301   4.268   0.206   2.879  0.3637  2.2875 -1.1624
 8948SOL     OW38302   4.550   4.356  11.846 -0.4575  0.0901 -0.4620
 8948SOL    HW138303   4.602   4.338  11.768 -0.2393 -1.2217 -0.0112
 8948SOL    HW238304   4.468   4.309  11.839  0.5691 -1.5954 -1.1832
 8949SOL     OW38305   2.602   3.840   8.560  0.5712 -0.2169  0.5878
 8949SOL    HW138306   2.530   3.903   8.559  0.3530 -0.4819 -0.2930
 8949SOL    HW238307   2.677   3.897   8.579  0.4594  0.3265 -0.5675
 8950SOL     OW38308   3.789   0.830  11.213 -0.1679  0.6806  0.4780
 8950SOL    HW138309   3.877   0.847  11.248 -0.0196 -2.1031  1.4268
 8950SOL    HW238310   3.801   0.749  11.163  0.9989  0.7957  0.5580
 8951SOL     OW38311   0.320   3.385   7.855 -0.1305  0.0549 -0.4068
 8951SOL    HW138312   0.227   3.364   7.860 -0.7452  2.7846 -0.1736
 8951SOL    HW238313   0.353   3.314   7.801 -0.2690  0.3373 -0.8608
 8952SOL     OW38314   0.173   1.093   7.046  0.0524  0.1840  0.2816
 8952SOL    HW138315   0.163   1.008   7.005  1.9623 -0.6496  1.5196
 8952SOL    HW238316   0.150   1.138   6.965 -3.3627 -1.9225  0.0924
 8953SOL     OW38317   1.400   0.903   3.634 -0.2594  0.0343 -0.6404
 8953SOL    HW138318   1.490   0.871   3.624 -0.2213 -0.2247  0.5906
 8953SOL    HW238319   1.394   0.981   3.578  1.0867 -0.7887 -1.9459
 8954SOL     OW38320   2.592   2.356   8.205  0.8984 -0.3873  0.2844
 8954SOL    HW138321   2.615   2.281   8.260 -0.6963  0.3172  1.9275
 8954SOL    HW238322   2.569   2.420   8.272 -1.1453 -0.4178 -0.3582
 8955SOL     OW38323   3.044   3.210   6.894  0.1042  0.1800  0.1298
 8955SOL    HW138324   3.014   3.146   6.959 -1.5475  0.6281 -0.1902
 8955SOL    HW238325   2.982   3.282   6.906 -0.0238  0.1416 -0.3277
 8956SOL     OW38326   0.883   0.097   1.841  0.2473 -0.2323  0.4563
 8956SOL    HW138327   0.895   0.170   1.902 -2.0154 -0.6528  1.4226
 8956SOL    HW238328   0.788   0.101   1.830  0.2133 -1.4450  0.3599
 8957SOL     OW38329   3.425   3.608   9.615  0.3020  0.1318 -0.2257
 8957SOL    HW138330   3.501   3.643   9.662 -1.7404  2.1363  1.5911
 8957SOL    HW238331   3.465   3.539   9.561  3.0987  2.0714 -0.6159
 8958SOL     OW38332   2.781   2.554   2.080  0.3246  0.0944 -0.0698
 8958SOL    HW138333   2.812   2.468   2.107 -0.5401 -0.0030  0.6051
 8958SOL    HW238334   2.809   2.601   2.158  1.4632 -1.3948  0.4058
 8959SOL     OW38335   0.107   3.441   3.188 -0.2864 -0.7374 -0.5746
 8959SOL    HW138336   0.110   3.525   3.234  1.3216 -0.0603 -1.9272
 8959SOL    HW238337   0.200   3.416   3.189 -0.4604 -1.3920  0.1080
 8960SOL     OW38338   4.403   0.444   2.766  0.2413  0.2082 -0.4410
 8960SOL    HW138339   4.420   0.385   2.693  0.3372 -2.0956  1.4335
 8960SOL    HW238340   4.484   0.494   2.766  0.2191  0.2703  2.9924
 8961SOL     OW38341   0.669   4.191   2.389 -0.2273 -0.4287 -0.3105
 8961SOL    HW138342   0.646   4.280   2.414  1.5910  0.0678 -0.4421
 8961SOL    HW238343   0.745   4.160   2.437 -2.9555 -2.6257  2.5888
 8962SOL     OW38344   4.361   0.481  11.313 -0.8135 -0.7957  0.1403
 8962SOL    HW138345   4.385   0.403  11.264 -1.3014  0.7843 -2.5964
 8962SOL    HW238346   4.277   0.506  11.274 -0.6620 -0.1634  0.2154
 8963SOL     OW38347   1.381   4.515   8.496  0.4445  0.2130 -0.3513
 8963SOL    HW138348   1.336   4.500   8.413  2.2550 -0.0172 -1.3012
 8963SOL    HW238349   1.471   4.505   8.464  0.4042  0.6053 -0.5923
 8964SOL     OW38350   0.268   2.373   1.975 -0.1576  0.1524  0.3969
 8964SOL    HW138351   0.354   2.363   2.016 -1.2547 -1.0237  2.3848
 8964SOL    HW238352   0.241   2.281   1.979 -0.5387  0.2404 -0.3039
 8965SOL     OW38353   1.417   1.868   7.493  0.4234 -0.1985 -0.1780
 8965SOL    HW138354   1.423   1.772   7.485 -0.0549 -0.1729 -0.8926
 8965SOL    HW238355   1.361   1.859   7.570  0.6863  0.3567  0.0736
 8966SOL     OW38356   2.288   3.136   2.616  0.3657 -0.0604 -0.2284
 8966SOL    HW138357   2.341   3.176   2.547 -1.7326  2.3014 -0.4699
 8966SOL    HW238358   2.210   3.106   2.571 -1.0172 -1.2830  3.0002
 8967SOL     OW38359   1.590   0.989   6.280  0.2911  0.1223  0.0724
 8967SOL    HW138360   1.592   0.956   6.370 -0.4458 -0.0398  0.0278
 8967SOL    HW238361   1.669   1.043   6.276  1.4100 -1.3379  2.1136
 8968SOL     OW38362   1.905   1.369   4.119 -0.6380  0.0931  0.2852
 8968SOL    HW138363   1.820   1.350   4.160  0.6854 -2.5897  1.7592
 8968SOL    HW238364   1.953   1.287   4.128 -1.1897 -0.4856 -2.0360
 8969SOL     OW38365   0.694   0.407   7.303  0.2706 -0.2791  0.4961
 8969SOL    HW138366   0.661   0.480   7.250  1.3486 -0.3375 -0.2661
 8969SOL    HW238367   0.726   0.349   7.233 -1.1921 -0.1128 -0.3064
 8970SOL     OW38368   4.602   4.050   1.714 -0.1020  0.1098 -0.3284
 8970SOL    HW138369   4.676   4.038   1.773 -0.6234  0.6524  0.4395
 8970SOL    HW238370   4.571   3.960   1.707  3.0131 -1.0235  0.4969
 8971SOL     OW38371   2.869   2.048   6.564  0.5927 -0.3326 -0.2308
 8971SOL    HW138372   2.953   2.004   6.555  0.5412 -0.7257  1.0562
 8971SOL    HW238373   2.864   2.049   6.660 -2.0296 -2.4353 -0.3400
 8972SOL     OW38374   0.336   3.980   7.756  0.4468 -0.1013 -0.5804
 8972SOL    HW138375   0.268   3.914   7.744 -0.1805  0.1415  1.7770
 8972SOL    HW238376   0.408   3.927   7.789 -0.0362 -0.5878 -0.3103
 8973SOL     OW38377   2.884   0.721   7.584 -0.6236  0.2210  0.4282
 8973SOL    HW138378   2.817   0.740   7.651  0.4867  3.2397  0.7210
 8973SOL    HW238379   2.931   0.666   7.646 -0.2624  2.1468  1.8940
 8974SOL     OW38380   4.360   2.197   1.593  0.1566  0.3143  0.3792
 8974SOL    HW138381   4.348   2.278   1.542  2.2915  0.8905  0.7995
 8974SOL    HW238382   4.284   2.144   1.568 -0.9240  2.7163 -1.4906
 8975SOL     OW38383   3.519   1.594   3.350 -0.9525 -0.2667 -0.0719
 8975SOL    HW138384   3.516   1.688   3.331  0.3770  0.2478  2.2750
 8975SOL    HW238385   3.437   1.561   3.314 -1.4533 -0.0456  0.8790
 8976SOL     OW38386   0.129   3.427   3.850 -0.1699  0.1978 -0.2183
 8976SOL    HW138387   0.152   3.482   3.925 -0.7328 -1.9013  1.4977
 8976SOL    HW238388   0.128   3.496   3.784 -1.4322  1.7131  1.3649
 8977SOL     OW38389   0.366   1.918  11.273 -0.0169  0.1279  0.1434
 8977SOL    HW138390   0.458   1.906  11.250  0.2086  1.7929  0.1257
 8977SOL    HW238391   0.356   1.841  11.329  3.9037  1.0121  2.0819
 8978SOL     OW38392   2.781   1.024   7.214  0.4581 -0.2994 -0.5225
 8978SOL    HW138393   2.734   0.976   7.282 -1.4880  1.3975 -0.6725
 8978SOL    HW238394   2.871   1.017   7.247  0.1226 -0.5911  0.3251
 8979SOL     OW38395   0.049   2.945   9.713 -0.1569  0.4990 -0.4746
 8979SOL    HW138396   0.136   2.923   9.679  0.2613  2.3186 -0.5701
 8979SOL    HW238397   0.049   3.040   9.706 -0.8638  0.5063 -0.3244
 8980SOL     OW38398   3.205   0.947   4.881  0.4487 -0.3093  0.5434
 8980SOL    HW138399   3.262   0.997   4.939 -0.5288  2.2597 -0.7035
 8980SOL    HW238400   3.223   0.979   4.792  0.7239 -0.9100  0.3807
 8981SOL     OW38401   4.584   0.703   2.708  0.0259  0.0715  0.0996
 8981SOL    HW138402   4.624   0.748   2.633  2.7394 -1.0715  0.8367
 8981SOL    HW238403   4.492   0.724   2.696  0.1290 -0.5822 -1.7880
 8982SOL     OW38404   3.635   3.781   0.712 -0.4687 -0.6009  0.4803
 8982SOL    HW138405   3.564   3.802   0.651  0.0804 -1.4368 -0.4310
 8982SOL    HW238406   3.655   3.692   0.683  2.3639  0.8055 -1.8954
 8983SOL     OW38407   3.478   3.469   3.571  0.3213 -0.1456 -0.0197
 8983SOL    HW138408   3.491   3.442   3.480  0.3479  2.9602 -0.9414
 8983SOL    HW238409   3.422   3.399   3.606  0.9353 -1.0451 -0.8301
 8984SOL     OW38410   3.420   0.982   6.000  0.0884 -0.7798  0.2217
 8984SOL    HW138411   3.449   1.030   6.077  1.7591  0.2425 -1.0317
 8984SOL    HW238412   3.502   0.935   5.983 -0.4446 -0.8688 -2.1553
 8985SOL     OW38413   0.998   4.342  13.792 -0.1028 -0.0855 -0.2740
 8985SOL    HW138414   1.015   4.417  13.736  2.3088 -1.2743 -1.1458
 8985SOL    HW238415   0.926   4.388  13.835 -0.3272 -1.3572  0.7357
 8986SOL     OW38416   2.162   4.193   2.730 -0.7118  0.0479  0.2396
 8986SOL    HW138417   2.143   4.194   2.636 -2.2366  0.4402  0.5550
 8986SOL    HW238418   2.255   4.169   2.730 -0.8774 -0.5890 -1.1945
 8987SOL     OW38419   4.006   0.527   1.929  1.2332  0.1750  0.5509
 8987SOL    HW138420   3.978   0.556   1.842 -0.2112  1.1778  1.3594
 8987SOL    HW238421   4.005   0.612   1.973 -0.1121 -0.3034  1.4399
 8988SOL     OW38422   1.564   3.971  14.282  0.0633 -0.4655 -0.7379
 8988SOL    HW138423   1.548   3.926  14.365 -0.6438  1.9684  0.4610
 8988SOL    HW238424   1.591   3.896  14.230 -1.2247 -0.6924 -1.0774
 8989SOL     OW38425   4.194   4.612  11.331 -0.3148 -0.6623  0.1270
 8989SOL    HW138426   4.241   4.668  11.394 -0.6623 -0.7637  0.4765
 8989SOL    HW238427   4.240   4.530  11.347  2.6667  1.1554  1.0522
 8990SOL     OW38428   2.279   4.442   2.051  0.2503  0.6812 -0.3165
 8990SOL    HW138429   2.343   4.438   1.980 -2.2929 -2.6821 -2.4087
 8990SOL    HW238430   2.202   4.416   1.999  1.2504  0.6946 -1.8100
 8991SOL     OW38431   0.072   2.748   5.121 -0.4411  0.4267 -0.4259
 8991SOL    HW138432   0.123   2.667   5.125  0.4754  0.9711 -0.9541
 8991SOL    HW238433   4.705   2.715   5.112 -0.4226  0.1909  0.2297
 8992SOL     OW38434   2.403   1.257   7.996 -0.1436  1.0894  0.3380
 8992SOL    HW138435   2.438   1.257   8.085  0.3295 -1.4755  0.1607
 8992SOL    HW238436   2.350   1.335   8.009 -0.3406  0.7567  1.5185
 8993SOL     OW38437   2.499   3.824  15.291  0.4172 -0.4573  0.0511
 8993SOL    HW138438   2.559   3.807  15.364 -0.0088 -2.3562 -0.0370
 8993SOL    HW238439   2.413   3.800  15.324 -0.6161  1.9212 -0.9689
 8994SOL     OW38440   0.738   0.762   4.016 -0.0262 -0.1862 -0.2062
 8994SOL    HW138441   0.790   0.718   3.948  0.1457 -1.4549  0.7542
 8994SOL    HW238442   0.669   0.801   3.962 -0.3952 -0.1604  0.2881
 8995SOL     OW38443   2.740   0.770   3.623  0.4805 -0.2017 -0.7941
 8995SOL    HW138444   2.757   0.772   3.529  0.4767 -1.8127 -0.8271
 8995SOL    HW238445   2.774   0.684   3.646 -0.0652 -0.1812  0.1363
 8996SOL     OW38446   1.010   0.322  14.632 -0.0272  0.5902 -0.1780
 8996SOL    HW138447   1.045   0.253  14.689  0.4583  0.5129 -0.5658
 8996SOL    HW238448   1.078   0.317  14.564  0.3155  0.9987  0.1325
 8997SOL     OW38449   3.810   0.242  17.146 -0.7124 -0.2463  0.3981
 8997SOL    HW138450   3.737   0.300  17.124 -0.1224 -0.1406 -1.2770
 8997SOL    HW238451   3.862   0.300  17.201 -1.2403 -0.0924  0.7385
 8998SOL     OW38452   2.059   3.233   1.712  0.4360 -0.1882  0.1659
 8998SOL    HW138453   2.065   3.212   1.619  1.5048 -1.4113  0.5224
 8998SOL    HW238454   2.034   3.151   1.754  3.2769  0.2581  2.7721
 8999SOL     OW38455   2.558   2.617   9.413 -0.2413 -0.0111 -0.2070
 8999SOL    HW138456   2.491   2.567   9.367 -1.3256  1.3503 -0.0934
 8999SOL    HW238457   2.577   2.684   9.348  1.5701 -1.6243 -1.3585
 9000SOL     OW38458   0.278   0.224   8.445  0.0145  0.9103  0.2096
 9000SOL    HW138459   0.361   0.259   8.478 -0.3144  1.1014  0.8457
 9000SOL    HW238460   0.261   0.291   8.378 -2.6306  0.2304  0.1927
 9001SOL     OW38461   0.196   2.855   9.230  0.1222  0.2976 -0.6547
 9001SOL    HW138462   0.131   2.922   9.252 -0.4929 -0.9890  1.4167
 9001SOL    HW238463   0.179   2.830   9.139  1.2518  0.5148 -0.9282
 9002SOL     OW38464   0.910   1.956  10.711  0.4102  0.5554  0.0133
 9002SOL    HW138465   0.850   1.972  10.783 -0.3571 -0.2978 -0.4209
 9002SOL    HW238466   0.980   2.021  10.717  0.1321  0.9557 -1.0371
 9003SOL     OW38467   1.532   1.843  13.293 -0.0413  0.0711 -0.3633
 9003SOL    HW138468   1.528   1.878  13.382  0.0087 -1.5654  0.2709
 9003SOL    HW238469   1.515   1.921  13.240  1.2350 -0.2045 -1.1758
 9004SOL     OW38470   3.056   2.348  16.512 -0.7671 -0.7408 -0.4571
 9004SOL    HW138471   3.008   2.273  16.549 -0.2120 -0.5219  0.6890
 9004SOL    HW238472   3.126   2.352  16.577  0.0338 -2.5366 -1.2031
 9005SOL     OW38473   3.688   0.063   1.705  0.4461 -0.0360 -0.7110
 9005SOL    HW138474   3.661   0.155   1.711  0.5037  0.0269 -1.4041
 9005SOL    HW238475   3.734   0.037   1.786  0.2685 -3.6880 -1.7894
 9006SOL     OW38476   1.271   3.408   5.220  0.0533 -0.0881 -0.7799
 9006SOL    HW138477   1.309   3.410   5.308 -1.0444  0.2487 -0.3101
 9006SOL    HW238478   1.321   3.334   5.183  3.1944  1.3138  0.6933
 9007SOL     OW38479   3.353   3.934   5.629  0.4039 -0.1729 -0.8062
 9007SOL    HW138480   3.396   4.005   5.677 -1.6142  0.4986  0.0002
 9007SOL    HW238481   3.285   3.914   5.693  1.1228  0.5889  0.1900
 9008SOL     OW38482   3.330   3.982   4.709 -0.2144  0.1365  0.6447
 9008SOL    HW138483   3.414   3.938   4.719  0.9122  2.0051 -0.6097
 9008SOL    HW238484   3.274   3.927   4.656  0.4597 -0.8383  0.9537
 9009SOL     OW38485   0.579   1.901   4.768 -0.3193 -0.3603 -0.4445
 9009SOL    HW138486   0.597   1.832   4.832 -2.4854  2.9476  3.7643
 9009SOL    HW238487   0.651   1.880   4.708  0.4751  1.5331 -0.1681
 9010SOL     OW38488   1.123   0.252   8.729  0.0398  0.2360 -0.0090
 9010SOL    HW138489   1.056   0.306   8.687 -0.4600 -1.3161 -1.1652
 9010SOL    HW238490   1.070   0.177   8.758 -1.7289  1.0335 -1.1504
 9011SOL     OW38491   1.948   4.577  14.933 -0.1883  0.0341 -1.0108
 9011SOL    HW138492   1.889   4.587  14.858 -1.9673  4.0585  0.9009
 9011SOL    HW238493   2.030   4.544  14.897  0.7297 -0.9516  1.9823
 9012SOL     OW38494   1.282   3.548   0.303  0.1012  0.4419 -0.8327
 9012SOL    HW138495   1.305   3.499   0.382  0.2248 -1.3012 -1.9405
 9012SOL    HW238496   1.192   3.517   0.308 -0.0879  0.7665 -2.4071
 9013SOL     OW38497   4.660   0.177  14.043  1.2282 -0.0294 -0.4070
 9013SOL    HW138498   4.570   0.202  14.064  1.9099  1.8667  0.2322
 9013SOL    HW238499   4.658   0.082  14.050 -2.1688 -0.1193 -2.4503
 9014SOL     OW38500   3.761   2.328   4.741 -0.0785  0.3661 -0.7641
 9014SOL    HW138501   3.710   2.260   4.784  0.9724  0.0425 -0.0301
 9014SOL    HW238502   3.725   2.408   4.781 -0.2847  0.5576 -1.3313
 9015SOL     OW38503   0.525   4.224   2.666  0.3198  0.2800  0.6313
 9015SOL    HW138504   0.433   4.250   2.669  0.7899  1.7447  2.2904
 9015SOL    HW238505   0.563   4.309   2.691 -1.0659  0.9884  0.3575
 9016SOL     OW38506   2.028   0.200   8.294  0.3129  0.1199  0.1472
 9016SOL    HW138507   2.082   0.268   8.334 -1.6543  2.4913 -1.1995
 9016SOL    HW238508   1.982   0.163   8.370 -0.2341 -2.2648 -1.3389
 9017SOL     OW38509   2.965   1.485   9.079  0.0874 -0.2532 -0.1202
 9017SOL    HW138510   2.960   1.394   9.110  1.1155 -0.6181 -1.0141
 9017SOL    HW238511   3.056   1.506   9.101  0.6958 -0.0346 -2.7703
 9018SOL     OW38512   4.532   1.677  17.486  0.2922 -0.2530  0.0213
 9018SOL    HW138513   4.505   1.747  17.545  3.2032  0.7749  0.1315
 9018SOL    HW238514   4.591   1.628  17.543 -0.2086  2.9480  3.3263
 9019SOL     OW38515   4.583   0.666   2.392  0.2594 -0.3028  0.0023
 9019SOL    HW138516   4.490   0.667   2.415  0.1105 -0.8469 -0.5801
 9019SOL    HW238517   4.619   0.588   2.434  3.0661 -0.3499 -2.4244
 9020SOL     OW38518   0.903   4.482  10.670  0.2129  0.3473 -0.6608
 9020SOL    HW138519   0.934   4.472  10.580 -0.9616  1.7239 -1.2264
 9020SOL    HW238520   0.873   4.392  10.685 -3.0977  1.4562 -0.5671
 9021SOL     OW38521   0.556   0.544   3.134  0.4997 -0.1739  0.6294
 9021SOL    HW138522   0.571   0.637   3.147 -1.6449  0.3720 -0.7198
 9021SOL    HW238523   0.621   0.523   3.068  0.4961  0.9855  0.2695
 9022SOL     OW38524   0.723   4.681   7.122  0.3321 -0.4864  0.4154
 9022SOL    HW138525   0.780   4.702   7.048  0.3699 -0.9036  0.3233
 9022SOL    HW238526   0.655   4.632   7.078  0.3590 -0.4478  0.3316
 9023SOL     OW38527   3.476   1.197   8.827 -0.2360  0.2054  0.0836
 9023SOL    HW138528   3.541   1.253   8.785  1.0669 -0.2612  1.4778
 9023SOL    HW238529   3.523   1.159   8.901  1.1578  1.4266 -0.1766
 9024SOL     OW38530   3.340   0.389   6.667  0.2971 -0.3187  0.6751
 9024SOL    HW138531   3.404   0.422   6.603 -2.8377  1.4784 -1.5689
 9024SOL    HW238532   3.286   0.347   6.600  0.3276 -1.3547  1.3153
 9025SOL     OW38533   1.705   1.341   6.993  0.1395 -0.1673 -0.1755
 9025SOL    HW138534   1.692   1.304   7.080 -1.4314  1.4268  0.2653
 9025SOL    HW238535   1.627   1.303   6.952 -0.5591  0.4483  0.5886
 9026SOL     OW38536   3.365   2.683   2.109 -0.0857  0.5486  0.4642
 9026SOL    HW138537   3.401   2.758   2.156 -0.0039 -0.3504  1.8186
 9026SOL    HW238538   3.386   2.710   2.020 -2.1668 -1.9366 -0.7812
 9027SOL     OW38539   4.183   3.871   8.005 -0.1953 -0.4273  0.2030
 9027SOL    HW138540   4.202   3.961   8.032 -0.0048 -0.7400  1.1301
 9027SOL    HW238541   4.144   3.827   8.081  2.7924 -2.2182  0.6910
 9028SOL     OW38542   2.444   3.879   2.893 -0.1852  0.3317  0.7311
 9028SOL    HW138543   2.467   3.953   2.837 -0.8558 -0.3274 -0.4156
 9028SOL    HW238544   2.439   3.914   2.982  1.1798  0.2243  0.8394
 9029SOL     OW38545   2.026   0.795   8.280  0.2862  0.1143  0.6191
 9029SOL    HW138546   2.065   0.785   8.367 -0.7137 -1.5461  0.8900
 9029SOL    HW238547   1.993   0.885   8.287  0.8313  0.1633  2.7155
 9030SOL     OW38548   3.071   0.977   9.152  0.8410 -0.7767  0.0191
 9030SOL    HW138549   3.057   0.923   9.074  0.6137 -0.7923  0.0704
 9030SOL    HW238550   3.054   0.917   9.224  1.9277  0.1777  1.0798
 9031SOL     OW38551   1.340   2.402  16.796  0.0277  0.5554  0.0388
 9031SOL    HW138552   1.353   2.336  16.728 -0.6888  1.2084 -0.7396
 9031SOL    HW238553   1.413   2.386  16.856 -2.0642 -3.6623  1.3896
 9032SOL     OW38554   1.484   3.019  11.386  0.1566  0.0269 -0.5258
 9032SOL    HW138555   1.453   2.995  11.473 -0.9639 -1.8642 -1.4211
 9032SOL    HW238556   1.422   2.970  11.331 -1.5582  1.0197  0.5526
 9033SOL     OW38557   2.514   0.621   5.979 -0.0796  0.0822 -0.1435
 9033SOL    HW138558   2.538   0.639   6.069 -1.8113 -1.2128  0.5863
 9033SOL    HW238559   2.596   0.645   5.936  0.0598 -0.7467 -0.3428
 9034SOL     OW38560   2.448   1.548   4.488 -0.0511 -1.1575  0.4610
 9034SOL    HW138561   2.409   1.579   4.406 -0.9522  0.1755  1.3975
 9034SOL    HW238562   2.485   1.630   4.521  0.7709  0.0149 -3.3214
 9035SOL     OW38563   3.733   0.415   3.394  0.0791 -0.2976  0.3358
 9035SOL    HW138564   3.828   0.404   3.401  0.3311  1.1786 -0.6471
 9035SOL    HW238565   3.714   0.370   3.312  0.1997 -2.3784  1.4500
 9036SOL     OW38566   2.978   1.825  12.867 -0.4344  0.0699 -0.0683
 9036SOL    HW138567   3.035   1.750  12.850  2.0193  2.2477 -1.7450
 9036SOL    HW238568   2.910   1.829  12.800  0.7752  0.4944 -1.2749
 9037SOL     OW38569   3.878   0.474   2.699 -0.1142  0.4827 -0.1042
 9037SOL    HW138570   3.938   0.521   2.756 -1.6948  1.8469  0.4185
 9037SOL    HW238571   3.842   0.413   2.763  0.7749  0.2777  0.1905
 9038SOL     OW38572   0.304   2.719   5.981  0.1316 -0.4062  0.0369
 9038SOL    HW138573   0.232   2.676   6.028 -2.7393  1.3765 -2.7924
 9038SOL    HW238574   0.339   2.644   5.933 -0.7337 -2.0836  1.9919
 9039SOL     OW38575   2.950   3.235  17.159  0.0857 -0.4906 -0.1600
 9039SOL    HW138576   3.037   3.210  17.127  0.0209 -1.2796  0.2620
 9039SOL    HW238577   2.917   3.278  17.081 -0.6469  0.7857  0.8417
 9040SOL     OW38578   0.726   0.502   0.434 -0.8949 -0.4338 -0.0999
 9040SOL    HW138579   0.656   0.467   0.489 -0.6885  0.7924  0.9435
 9040SOL    HW238580   0.756   0.417   0.402  0.1127 -0.3443  0.6117
 9041SOL     OW38581   0.682   2.610  14.036  0.4055  0.0007  0.1988
 9041SOL    HW138582   0.600   2.658  14.027  0.0256 -0.8683 -0.9179
 9041SOL    HW238583   0.699   2.600  13.942  0.2743 -0.7780  0.2563
 9042SOL     OW38584   1.605   0.972  14.848 -0.2642 -0.8006  0.3957
 9042SOL    HW138585   1.512   0.979  14.871  0.3771 -0.6861  2.8963
 9042SOL    HW238586   1.615   1.035  14.776  0.1645 -2.3292 -0.8831
 9043SOL     OW38587   0.907   3.685  11.673 -0.1457  0.1044  0.2243
 9043SOL    HW138588   0.842   3.723  11.731 -1.5948 -2.2243  0.1374
 9043SOL    HW238589   0.925   3.600  11.713 -0.9092  0.8039  2.0239
 9044SOL     OW38590   2.725   3.873   8.216 -0.1829 -0.3004  0.2210
 9044SOL    HW138591   2.696   3.816   8.144  1.1179 -0.5877 -0.0778
 9044SOL    HW238592   2.639   3.885   8.257 -0.2635  0.1640 -0.0773
 9045SOL     OW38593   0.051   4.651   5.457 -0.4031  0.0459  0.0495
 9045SOL    HW138594   0.086   4.684   5.540 -0.3221 -0.7783  0.3390
 9045SOL    HW238595   0.024   0.012   5.419  0.0782 -0.1881 -0.7924
 9046SOL     OW38596   2.371   2.440  16.624  0.1091 -0.1608 -0.2550
 9046SOL    HW138597   2.411   2.489  16.552 -1.9498  1.3354 -0.3837
 9046SOL    HW238598   2.376   2.508  16.692  0.1568  1.1882 -1.5872
 9047SOL     OW38599   1.944   3.570   3.122 -0.0706 -0.4013  0.3597
 9047SOL    HW138600   2.036   3.591   3.107 -0.3418  0.6299  0.1643
 9047SOL    HW238601   1.908   3.537   3.039  1.4252 -1.0501 -0.0269
 9048SOL     OW38602   3.586   3.506   7.314 -0.4877  0.2452 -0.3942
 9048SOL    HW138603   3.615   3.416   7.299 -0.5755 -0.2534  2.3280
 9048SOL    HW238604   3.652   3.563   7.275 -0.1345 -0.4240 -0.7797
 9049SOL     OW38605   3.046   2.192  15.414 -0.2120  0.3158 -0.1251
 9049SOL    HW138606   3.108   2.237  15.472  2.1818 -1.3233 -1.4723
 9049SOL    HW238607   2.995   2.269  15.389 -1.1640 -0.0819  0.5688
 9050SOL     OW38608   0.494   2.882  15.287 -0.4932  0.0031  0.0422
 9050SOL    HW138609   0.469   2.972  15.307 -1.7136 -0.2755 -0.2451
 9050SOL    HW238610   0.584   2.878  15.255 -0.7297  0.9220 -0.7395
 9051SOL     OW38611   4.000   2.317  16.462 -0.3894  0.3310  0.2581
 9051SOL    HW138612   4.084   2.363  16.457  0.0279 -0.4358  0.3323
 9051SOL    HW238613   4.021   2.225  16.452 -1.7872  0.4307 -3.2906
 9052SOL     OW38614   0.489   2.497   0.957 -0.3435  0.2579 -0.7809
 9052SOL    HW138615   0.474   2.482   0.864 -0.6744 -0.9092 -0.5423
 9052SOL    HW238616   0.395   2.503   0.974 -0.2668  0.2467 -0.3386
 9053SOL     OW38617   0.114   4.232   9.220  0.1091 -0.0299  0.1983
 9053SOL    HW138618   0.144   4.281   9.296  0.0157 -1.7776  1.3560
 9053SOL    HW238619   0.200   4.213   9.181 -0.0745 -0.9706  0.2577
 9054SOL     OW38620   2.284   3.620   1.984 -0.2447 -0.1518 -0.3630
 9054SOL    HW138621   2.232   3.556   1.935 -2.5650  0.9396  0.6568
 9054SOL    HW238622   2.322   3.563   2.050  0.9648  2.1718  0.9597
 9055SOL     OW38623   3.190   3.845   6.534 -0.2385 -0.1265 -0.9306
 9055SOL    HW138624   3.275   3.889   6.536 -0.1089 -0.3015 -2.3998
 9055SOL    HW238625   3.164   3.848   6.442 -1.4073  1.4538 -0.5466
 9056SOL     OW38626   2.723   1.046   9.082 -0.2844 -0.2060 -0.4113
 9056SOL    HW138627   2.719   0.958   9.118 -2.0267  0.2226  0.4278
 9056SOL    HW238628   2.704   1.025   8.990 -1.9177  0.4737 -0.2286
 9057SOL     OW38629   4.181   3.108   6.513  0.4239  0.0834 -0.1296
 9057SOL    HW138630   4.162   3.200   6.528  0.9000  0.0133  0.9509
 9057SOL    HW238631   4.274   3.093   6.530  0.5915  1.0645 -0.2295
 9058SOL     OW38632   1.421   3.063   3.250 -0.1164 -0.1983  0.4174
 9058SOL    HW138633   1.430   3.135   3.188 -1.0808 -1.9242 -1.7218
 9058SOL    HW238634   1.351   3.097   3.307 -0.4937  0.5924 -0.5214
 9059SOL     OW38635   4.563   4.568   3.855 -0.5557  0.0778 -0.6423
 9059SOL    HW138636   4.600   4.558   3.943 -0.2874 -1.1891 -0.9069
 9059SOL    HW238637   4.472   4.541   3.869 -0.7477  0.2744 -1.5055
 9060SOL     OW38638   2.990   3.304   3.040 -0.3215 -0.0451  0.2905
 9060SOL    HW138639   2.899   3.316   3.016 -0.9322 -1.5147  1.8344
 9060SOL    HW238640   2.992   3.216   3.078  0.1352 -0.2183 -0.1388
 9061SOL     OW38641   0.941   4.389   9.463 -0.5766 -0.3398 -0.3594
 9061SOL    HW138642   0.997   4.315   9.490  1.6705  1.2678 -0.6345
 9061SOL    HW238643   0.861   4.347   9.493  0.0898 -2.0567 -0.9730
 9062SOL     OW38644   4.613   1.984   7.547  0.0538 -0.3007 -0.4433
 9062SOL    HW138645   4.667   1.913   7.581 -0.0231 -0.7385 -1.2184
 9062SOL    HW238646   4.669   2.055   7.577  2.5919 -1.3687 -2.6584
 9063SOL     OW38647   1.571   3.628   3.889 -0.7814 -0.1763 -0.1254
 9063SOL    HW138648   1.517   3.600   3.963 -0.0606  1.4550  0.9901
 9063SOL    HW238649   1.504   3.614   3.821  0.1272  0.9233 -1.2391
 9064SOL     OW38650   3.535   4.645   6.799 -0.0534 -0.0847 -0.6790
 9064SOL    HW138651   3.451   4.616   6.764 -0.0944  0.6965 -1.2371
 9064SOL    HW238652   3.598   4.597   6.746  1.0246  2.8446 -2.0798
 9065SOL     OW38653   2.060   2.522  15.805 -0.0181 -0.0747 -0.1112
 9065SOL    HW138654   2.045   2.439  15.760 -2.0543 -0.0603  0.5379
 9065SOL    HW238655   2.156   2.522  15.802 -0.0317  2.8552 -0.2283
 9066SOL     OW38656   2.375   0.463  10.655  0.0884  0.3923 -0.0759
 9066SOL    HW138657   2.312   0.407  10.609 -0.3900  0.3287  0.6543
 9066SOL    HW238658   2.403   0.396  10.717 -0.2768 -0.9570 -1.3846
 9067SOL     OW38659   0.883   1.239   6.977 -0.1560 -0.0273 -0.2059
 9067SOL    HW138660   0.945   1.210   6.909 -0.3129 -0.1993 -0.2763
 9067SOL    HW238661   0.849   1.154   7.003 -2.0259  0.7126 -0.2167
 9068SOL     OW38662   2.762   4.720   0.245 -0.6820 -0.1566 -0.7577
 9068SOL    HW138663   2.711   4.676   0.314 -0.5432 -0.7569 -1.0342
 9068SOL    HW238664   2.792   0.082   0.277  1.7305 -0.1328 -3.0578
 9069SOL     OW38665   1.789   2.555   1.533 -0.8057 -0.3180  0.1543
 9069SOL    HW138666   1.707   2.530   1.489 -0.9842 -0.2541  0.4505
 9069SOL    HW238667   1.840   2.491   1.484 -0.6970  0.4394 -0.7085
 9070SOL     OW38668   2.523   4.667   9.687  0.1075  0.1421 -0.2041
 9070SOL    HW138669   2.487   4.655   9.599  1.6042 -0.8130 -0.6642
 9070SOL    HW238670   2.601   4.613   9.692 -0.4268 -0.6446 -0.3740
 9071SOL     OW38671   4.076   1.258   3.790 -0.0246 -0.0772 -0.0014
 9071SOL    HW138672   4.107   1.303   3.711 -0.2250 -0.6495 -0.4063
 9071SOL    HW238673   4.070   1.327   3.856  1.1522 -1.5260  1.6167
 9072SOL     OW38674   4.647   2.980   9.143 -0.4244  0.0519 -0.0629
 9072SOL    HW138675   4.654   3.017   9.231  0.8016  0.3223 -0.2622
 9072SOL    HW238676   4.620   2.892   9.168  0.2590 -0.7326 -2.0538
 9073SOL     OW38677   3.035   2.944   9.440  0.4231  0.8987 -0.3224
 9073SOL    HW138678   2.954   2.908   9.475  1.4330 -1.1715 -0.1462
 9073SOL    HW238679   3.080   2.976   9.519 -0.7030 -0.7554  0.9659
 9074SOL     OW38680   1.609   3.027  12.535  0.3102 -0.5669  0.4848
 9074SOL    HW138681   1.533   3.080  12.558  1.1006  0.1124  1.5552
 9074SOL    HW238682   1.570   2.949  12.574 -1.6171 -1.7419 -3.8081
 9075SOL     OW38683   0.419   3.961   0.754 -0.5801 -0.7183 -0.1387
 9075SOL    HW138684   0.369   4.012   0.816 -1.1907 -0.6126 -0.7225
 9075SOL    HW238685   0.377   3.971   0.668 -0.6390 -0.2301 -0.0500
 9076SOL     OW38686   0.945   2.191   8.273  0.4962  0.1637 -0.1112
 9076SOL    HW138687   0.901   2.208   8.189  1.2043  2.3660 -0.0486
 9076SOL    HW238688   0.992   2.270   8.299 -0.0821  1.9239 -4.4338
 9077SOL     OW38689   4.718   1.975   4.367 -0.7267  0.1317 -0.0337
 9077SOL    HW138690   4.657   1.980   4.440  1.5859 -1.3008  1.9556
 9077SOL    HW238691   4.707   2.061   4.326  0.0684  0.9278  1.4460
 9078SOL     OW38692   4.637   4.711   7.427 -0.4487 -0.0046 -0.1475
 9078SOL    HW138693   4.616   0.081   7.441  0.4080  0.4084 -1.6622
 9078SOL    HW238694   4.631   4.696   7.333 -0.6041  0.5905 -0.2298
 9079SOL     OW38695   0.018   0.681   7.820  1.0228  0.7619 -0.1942
 9079SOL    HW138696   4.648   0.706   7.810  1.1637  2.0198  1.6944
 9079SOL    HW238697   0.015   0.650   7.911 -1.2491 -0.2981 -0.6303
 9080SOL     OW38698   4.083   2.585   7.353  0.8802  0.9872  0.6407
 9080SOL    HW138699   4.126   2.669   7.368  2.7289  0.3280 -0.9825
 9080SOL    HW238700   4.007   2.610   7.300 -1.4621 -2.3672  2.4491
 9081SOL     OW38701   3.843   1.941  12.768  0.7135 -0.1382  0.2045
 9081SOL    HW138702   3.813   1.901  12.850  0.2596 -1.0615 -0.4167
 9081SOL    HW238703   3.820   1.872  12.705 -0.2774 -0.0857  0.5031
 9082SOL     OW38704   0.790   1.200  11.524 -1.0017 -0.4164 -0.3990
 9082SOL    HW138705   0.701   1.164  11.514 -0.1526 -2.0859 -1.9411
 9082SOL    HW238706   0.795   1.261  11.598 -0.8325 -0.1514 -0.6290
 9083SOL     OW38707   0.350   2.148   8.616 -0.0884  0.8941 -0.5004
 9083SOL    HW138708   0.381   2.187   8.534  0.5965  0.4666 -0.4406
 9083SOL    HW238709   0.310   2.067   8.587  0.5406  0.4114 -0.0151
 9084SOL     OW38710   3.046   2.818   4.965  0.0907  0.0667  0.2344
 9084SOL    HW138711   3.072   2.772   5.046  2.1786  1.8768  0.5794
 9084SOL    HW238712   2.968   2.858   5.001  0.7417  1.6577 -0.1339
 9085SOL     OW38713   1.833   4.184   9.571  0.1506 -0.1967  0.8548
 9085SOL    HW138714   1.914   4.174   9.521 -0.0423 -0.5298  0.6172
 9085SOL    HW238715   1.770   4.217   9.507  0.3745 -0.2034  0.6301
 9086SOL     OW38716   0.856   3.088   7.348 -0.7260  0.0119 -0.2518
 9086SOL    HW138717   0.882   3.017   7.290  0.1427  0.6138 -0.5911
 9086SOL    HW238718   0.853   3.054   7.438 -1.6412  3.3862  1.0122
 9087SOL     OW38719   2.494   1.083   7.280  1.1023  0.2342 -0.4875
 9087SOL    HW138720   2.540   1.015   7.328 -0.4930 -1.5509 -1.4700
 9087SOL    HW238721   2.566   1.122   7.230 -0.9836  1.7912 -2.3206
 9088SOL     OW38722   1.148   2.378   1.754 -0.3664  0.0530 -0.5411
 9088SOL    HW138723   1.196   2.312   1.705 -0.1300 -1.2878  1.4682
 9088SOL    HW238724   1.203   2.455   1.738 -0.5628  0.7035  1.8322
 9089SOL     OW38725   3.709   2.330   8.694  0.1438 -0.4410 -0.6480
 9089SOL    HW138726   3.711   2.420   8.660  1.5454 -0.1019  0.3352
 9089SOL    HW238727   3.796   2.293   8.678  1.3219  2.1445 -0.3668
 9090SOL     OW38728   2.453   1.781   9.273 -0.1107  0.0890  0.2399
 9090SOL    HW138729   2.428   1.823   9.355 -1.2742  1.4578 -0.8100
 9090SOL    HW238730   2.548   1.784   9.286  0.0566  1.4935 -1.2840
 9091SOL     OW38731   3.378   0.311   7.234  0.0035  0.1303  0.0631
 9091SOL    HW138732   3.407   0.341   7.147  0.6137  0.4863  0.3910
 9091SOL    HW238733   3.295   0.267   7.216  1.8235 -3.4710  0.5083
 9092SOL     OW38734   1.389   1.545   0.310 -0.5124 -0.1576  0.0631
 9092SOL    HW138735   1.427   1.630   0.290 -0.4607 -0.5954 -1.7142
 9092SOL    HW238736   1.300   1.553   0.277 -0.5648 -0.4129  0.1426
 9093SOL     OW38737   1.337   3.696  11.509 -0.1865 -0.1520  0.0575
 9093SOL    HW138738   1.276   3.629  11.478  0.2182 -0.4126 -0.1770
 9093SOL    HW238739   1.343   3.746  11.427 -0.9258 -0.4247 -0.1621
 9094SOL     OW38740   1.078   4.142   4.352 -0.2145 -0.1046 -0.4014
 9094SOL    HW138741   1.005   4.178   4.303  0.3928  0.1453 -1.1077
 9094SOL    HW238742   1.103   4.199   4.425  0.1792 -2.2879  1.2024
 9095SOL     OW38743   3.470   4.297   1.982  0.1074  0.0749 -0.0914
 9095SOL    HW138744   3.508   4.296   2.070 -2.3727  1.1717  1.0072
 9095SOL    HW238745   3.494   4.383   1.946  0.5310 -0.0772 -0.1747
 9096SOL     OW38746   2.829   3.328   8.557 -0.2893  0.8105 -0.2715
 9096SOL    HW138747   2.739   3.356   8.538 -0.5373  0.7000  0.7225
 9096SOL    HW238748   2.808   3.246   8.602  1.6354  0.4150 -0.0762
 9097SOL     OW38749   3.480   4.553   3.735 -0.3158 -0.5746 -0.5791
 9097SOL    HW138750   3.439   4.492   3.674 -0.6724  0.6785 -1.6071
 9097SOL    HW238751   3.565   4.552   3.690 -0.4332 -1.5690 -0.7811
 9098SOL     OW38752   0.096   3.722  12.034 -0.0176 -0.1281  0.2617
 9098SOL    HW138753   0.077   3.814  12.054 -1.4487 -0.3635  0.0181
 9098SOL    HW238754   0.007   3.687  12.037 -0.8912  1.9871 -1.1266
 9099SOL     OW38755   3.622   1.317   3.130 -0.6311  0.0793 -0.4680
 9099SOL    HW138756   3.624   1.282   3.041 -0.1279 -0.9320 -0.0631
 9099SOL    HW238757   3.607   1.238   3.181 -1.0321  0.3827 -0.1171
 9100SOL     OW38758   4.399   1.706  15.856 -0.0312 -0.1933 -0.3884
 9100SOL    HW138759   4.468   1.652  15.818  1.6426  1.6745  0.0140
 9100SOL    HW238760   4.438   1.792  15.838 -2.5477  0.5318 -2.3974
 9101SOL     OW38761   2.462   4.280   5.959  0.4237 -0.2555 -0.1914
 9101SOL    HW138762   2.449   4.263   5.866  2.1238  1.7647 -0.8057
 9101SOL    HW238763   2.386   4.337   5.968  2.7861  2.5398  2.0579
 9102SOL     OW38764   0.361   2.794   2.386 -0.0382  0.1567  0.2456
 9102SOL    HW138765   0.346   2.702   2.408 -0.1040  0.4121  1.2406
 9102SOL    HW238766   0.289   2.816   2.328 -1.4527 -0.5134  1.7522
 9103SOL     OW38767   1.335   2.603   1.526 -0.5876 -0.6477 -0.6104
 9103SOL    HW138768   1.379   2.653   1.595 -0.5408  0.4662 -1.4536
 9103SOL    HW238769   1.382   2.630   1.447  1.0362  0.4466  0.7217
 9104SOL     OW38770   3.023   0.807  15.195  0.1875  1.0218 -0.3207
 9104SOL    HW138771   3.010   0.842  15.283  1.5376 -1.7628  0.9892
 9104SOL    HW238772   3.104   0.850  15.167  0.4757  0.3644 -0.4870
 9105SOL     OW38773   3.406   1.930   2.777 -0.5239 -0.5532 -0.2423
 9105SOL    HW138774   3.467   2.001   2.796 -0.1869 -1.0278  0.4373
 9105SOL    HW238775   3.368   1.969   2.698  0.9163  0.0738 -0.6381
 9106SOL     OW38776   0.089   4.686   4.618  0.0527 -0.4858 -0.1371
 9106SOL    HW138777   0.052   4.630   4.686 -0.7168 -0.2853 -0.3955
 9106SOL    HW238778   0.072   4.637   4.537 -1.1504  0.0038 -0.1835
 9107SOL     OW38779   4.678   1.057   2.629 -0.0610  0.8207 -0.1997
 9107SOL    HW138780   4.588   1.024   2.632 -0.0804  1.0282  1.8313
 9107SOL    HW238781   4.719   0.972   2.611  0.5048  0.4272  2.8255
 9108SOL     OW38782   4.694   3.611  15.788  0.3085  0.3180  0.1419
 9108SOL    HW138783   0.020   3.689  15.758 -2.5773  2.0328 -0.0540
 9108SOL    HW238784   4.625   3.616  15.722  0.0521  3.6231  0.6358
 9109SOL     OW38785   1.869   2.789   1.643  0.7247 -0.0506  0.0761
 9109SOL    HW138786   1.808   2.837   1.699 -0.0071  2.0962 -2.5219
 9109SOL    HW238787   1.821   2.711   1.617  1.5058 -0.5061  0.0168
 9110SOL     OW38788   4.710   2.283   4.623 -0.5928 -0.4043 -0.2341
 9110SOL    HW138789   4.633   2.273   4.566  0.7671 -1.1367 -1.9683
 9110SOL    HW238790   0.052   2.259   4.556 -1.3077 -2.2016 -0.2863
 9111SOL     OW38791   1.205   3.840   9.051  0.4114  0.4572  0.2481
 9111SOL    HW138792   1.267   3.775   9.084 -0.2982 -0.8988 -1.0674
 9111SOL    HW238793   1.130   3.805   9.099  0.4689  1.0614  0.7819
 9112SOL     OW38794   1.698   3.727  12.965 -0.0534  0.0712  0.0422
 9112SOL    HW138795   1.741   3.813  12.963 -0.3759  0.2308  0.0393
 9112SOL    HW238796   1.781   3.679  12.966 -2.4030 -3.9469 -2.1422
 9113SOL     OW38797   1.561   3.725   0.596  0.8006  0.1879 -0.4170
 9113SOL    HW138798   1.540   3.642   0.553  2.5640 -1.8979  2.7468
 9113SOL    HW238799   1.584   3.690   0.682  0.4506  3.0410  0.8269
 9114SOL     OW38800   0.841   4.109  15.873  0.3141  0.2267 -0.7077
 9114SOL    HW138801   0.837   4.115  15.778  0.2574  0.5462 -0.6837
 9114SOL    HW238802   0.816   4.200  15.887  2.4781  0.6062  0.7563
 9115SOL     OW38803   1.500   0.144  17.691  0.7867  0.2874 -0.6512
 9115SOL    HW138804   1.547   0.083  17.634  0.3634 -1.6790  1.0987
 9115SOL    HW238805   1.444   0.082   0.047  2.9159 -0.5330  0.7933
 9116SOL     OW38806   3.939   4.149   6.904  0.2802 -0.0107  0.2041
 9116SOL    HW138807   3.885   4.170   6.980 -0.3748 -1.8619  0.2472
 9116SOL    HW238808   4.026   4.153   6.944  1.1541  1.4562 -1.8809
 9117SOL     OW38809   3.777   4.087  10.500 -0.1456  0.1037  0.2191
 9117SOL    HW138810   3.695   4.111  10.456 -0.9309  3.5186  3.6042
 9117SOL    HW238811   3.816   4.031  10.433  0.4345 -1.0047  1.4791
 9118SOL     OW38812   1.531   0.377   5.207 -0.1122 -0.0889 -0.1452
 9118SOL    HW138813   1.602   0.319   5.178  0.6711  0.4575  0.6925
 9118SOL    HW238814   1.578   0.437   5.265  1.4220 -1.1785 -0.2502
 9119SOL     OW38815   1.743   2.585   2.757 -0.4319  0.8468 -0.2836
 9119SOL    HW138816   1.731   2.492   2.778  2.7128  0.2768 -0.9379
 9119SOL    HW238817   1.795   2.614   2.831 -0.3484  1.7089 -0.6766
 9120SOL     OW38818   4.314   2.840   6.615 -0.4134 -0.6163  0.4324
 9120SOL    HW138819   4.385   2.904   6.609 -0.2982 -0.8051 -0.1591
 9120SOL    HW238820   4.239   2.893   6.642 -0.7696 -0.7742 -0.2610
 9121SOL     OW38821   2.260   0.037   8.954 -0.1892  0.1502  0.3717
 9121SOL    HW138822   2.186   4.711   8.914  1.0738 -2.2564  0.9291
 9121SOL    HW238823   2.232   0.044   9.045  1.8384  0.2289  0.9810
 9122SOL     OW38824   1.482   3.936   4.674 -0.6420  0.0058 -0.7059
 9122SOL    HW138825   1.443   4.023   4.676 -0.3771  0.1425 -1.2678
 9122SOL    HW238826   1.404   3.891   4.706 -1.4461  0.9776 -1.3449
 9123SOL     OW38827   4.492   0.615   4.299  0.6300 -0.0796 -0.6297
 9123SOL    HW138828   4.403   0.616   4.265  0.4949  2.2809 -0.1579
 9123SOL    HW238829   4.520   0.523   4.302 -1.1914 -0.4539  3.9895
 9124SOL     OW38830   1.152   2.758   7.432 -0.3904 -0.3483 -0.0532
 9124SOL    HW138831   1.086   2.784   7.497 -2.3322 -1.5368 -1.5613
 9124SOL    HW238832   1.109   2.724   7.354 -1.0762  1.0996 -0.3143
 9125SOL     OW38833   4.429   1.917   2.644  0.0602  0.1102  0.5981
 9125SOL    HW138834   4.425   1.999   2.692 -2.2243  1.5397 -2.0748
 9125SOL    HW238835   4.342   1.912   2.605  0.4825 -1.4556 -0.1550
 9126SOL     OW38836   3.605   0.471   7.189  0.0843  0.0560  0.1833
 9126SOL    HW138837   3.641   0.559   7.200 -1.3879  0.2941  2.9180
 9126SOL    HW238838   3.510   0.477   7.199  0.0298  0.3424 -0.4734
 9127SOL     OW38839   3.224   3.071   8.206 -0.3184  0.2471 -0.1697
 9127SOL    HW138840   3.273   2.991   8.185 -0.8973  0.0321 -0.6926
 9127SOL    HW238841   3.180   3.094   8.125  1.2708 -1.1126 -1.4261
 9128SOL     OW38842   4.042   2.592   3.813 -0.6901  0.3318 -0.2490
 9128SOL    HW138843   4.013   2.604   3.904  2.4341  0.2311  0.7599
 9128SOL    HW238844   4.007   2.506   3.791  1.0018 -0.2048 -0.8301
 9129SOL     OW38845   0.353   0.995   9.565 -0.4423  0.0560 -0.2777
 9129SOL    HW138846   0.381   0.904   9.553 -1.1355 -0.1105 -0.6594
 9129SOL    HW238847   0.379   1.041   9.486 -1.3539  2.0724  0.5760
 9130SOL     OW38848   0.354   4.716   2.519  0.2809  0.4195 -0.5677
 9130SOL    HW138849   0.446   0.008   2.543  0.4408  2.5943 -2.4192
 9130SOL    HW238850   0.337   0.081   2.483  0.0571  1.1595  1.3538
 9131SOL     OW38851   4.048   1.714   7.686 -0.0706 -0.1709  0.2112
 9131SOL    HW138852   4.024   1.747   7.599 -0.3584  0.1339  0.4097
 9131SOL    HW238853   3.976   1.656   7.712 -2.3378  2.4003 -0.2918
 9132SOL     OW38854   1.477   4.211   3.644  0.3406 -0.4320 -0.4985
 9132SOL    HW138855   1.470   4.120   3.673  1.6883  0.1603  1.7512
 9132SOL    HW238856   1.486   4.253   3.730  0.0947 -1.2983 -0.0439
 9133SOL     OW38857   3.752   0.504   8.127  0.2997  0.0039  0.5516
 9133SOL    HW138858   3.797   0.514   8.212  1.1005 -0.9101  0.2369
 9133SOL    HW238859   3.818   0.545   8.071 -2.4700  1.6592 -1.4813
 9134SOL     OW38860   4.017   0.809  17.389  0.7401  0.3593 -0.2717
 9134SOL    HW138861   4.084   0.843  17.449  1.2607 -3.2769  1.1755
 9134SOL    HW238862   4.071   0.750  17.337 -2.8466 -3.1186 -0.0231
 9135SOL     OW38863   2.961   3.378   4.002  0.1820  0.4966 -0.3430
 9135SOL    HW138864   2.886   3.322   4.019  1.3888 -1.5258 -1.6817
 9135SOL    HW238865   3.008   3.340   4.076 -1.8110 -0.7014  0.2910
 9136SOL     OW38866   0.853   0.626   7.044 -0.0203 -0.1525 -0.3912
 9136SOL    HW138867   0.761   0.616   7.068 -0.0508 -1.4911 -0.9990
 9136SOL    HW238868   0.850   0.606   6.950 -0.2766  1.6335 -0.7640
 9137SOL     OW38869   2.298   0.756   5.927 -0.4855  0.3071  0.4832
 9137SOL    HW138870   2.381   0.712   5.945  1.1895  2.7587 -1.1899
 9137SOL    HW238871   2.320   0.841   5.965  1.0540  0.5200 -0.8537
 9138SOL     OW38872   1.995   0.974  12.737 -0.1577  0.5740 -0.0545
 9138SOL    HW138873   1.968   1.062  12.761 -0.5975  0.1559  1.0146
 9138SOL    HW238874   1.908   0.941  12.716  0.4654 -1.7094  0.9412
 9139SOL     OW38875   2.122   0.722   2.876 -0.3295  0.3843 -0.3637
 9139SOL    HW138876   2.206   0.751   2.840  0.4033 -1.5999 -0.2150
 9139SOL    HW238877   2.081   0.743   2.793 -0.5282  0.6358 -0.2030
 9140SOL     OW38878   4.045   2.492  10.326  0.2576  0.0777  0.8196
 9140SOL    HW138879   4.118   2.551  10.305 -0.5291 -0.0728 -2.3307
 9140SOL    HW238880   4.075   2.423  10.385  0.0850 -1.9791 -1.5019
 9141SOL     OW38881   2.772   4.537   1.915 -0.2886 -0.3658  0.3914
 9141SOL    HW138882   2.731   4.541   1.829  2.2579  0.5731 -0.7849
 9141SOL    HW238883   2.741   4.450   1.941  0.5960 -1.4601 -2.2715
 9142SOL     OW38884   1.457   0.813   2.782 -0.0343  0.3391 -0.3787
 9142SOL    HW138885   1.381   0.863   2.812  1.1542  1.3575  0.9883
 9142SOL    HW238886   1.409   0.765   2.715  2.2168  0.8892 -2.3811
 9143SOL     OW38887   3.604   3.948   4.801  0.8128  0.0187 -0.1151
 9143SOL    HW138888   3.672   3.881   4.811 -0.6197 -1.3467  0.3424
 9143SOL    HW238889   3.665   4.014   4.835  0.8226 -1.2084  2.2067
 9144SOL     OW38890   2.316   2.505  15.086 -0.6631 -0.1414 -0.0635
 9144SOL    HW138891   2.226   2.508  15.054 -0.2076  0.1288 -1.3461
 9144SOL    HW238892   2.331   2.598  15.104 -0.9462 -0.4544  1.7648
 9145SOL     OW38893   1.418   4.467  11.586  0.4923 -0.5793  0.0492
 9145SOL    HW138894   1.377   4.553  11.575 -1.5921 -1.2049  2.8110
 9145SOL    HW238895   1.505   4.491  11.618  0.6627 -0.6597 -0.3559
 9146SOL     OW38896   0.762   2.183   5.819 -0.3913 -0.1006 -0.8015
 9146SOL    HW138897   0.831   2.121   5.843 -1.3352 -1.1304 -0.7573
 9146SOL    HW238898   0.724   2.185   5.907  0.1600  1.4351 -0.5876
 9147SOL     OW38899   0.184   1.253   6.231 -0.0082  0.4496 -0.3028
 9147SOL    HW138900   0.224   1.309   6.165 -0.1419 -0.2967 -1.0153
 9147SOL    HW238901   0.221   1.292   6.310 -1.9219  0.9234  0.3593
 9148SOL     OW38902   3.425   2.550  17.559  0.0686  0.1336  0.5051
 9148SOL    HW138903   3.478   2.502  17.624 -1.1155 -1.6623  0.1533
 9148SOL    HW238904   3.411   2.482  17.493  0.1269  0.4095  0.2143
 9149SOL     OW38905   2.855   3.370  12.553 -0.2350 -0.0247  0.3444
 9149SOL    HW138906   2.864   3.315  12.631 -0.1581 -1.3132 -0.5803
 9149SOL    HW238907   2.948   3.369  12.531  0.0353  0.8349  1.4268
 9150SOL     OW38908   0.099   3.210  11.956 -0.2406 -0.6234 -0.0013
 9150SOL    HW138909   0.073   3.238  12.044 -0.3906 -0.4963 -0.0872
 9150SOL    HW238910   0.037   3.262  11.905 -0.9396 -0.0776  1.4097
 9151SOL     OW38911   3.053   2.141  15.827 -0.2005  0.1574 -0.2240
 9151SOL    HW138912   3.144   2.155  15.853 -0.0230  1.5654 -1.6185
 9151SOL    HW238913   3.033   2.053  15.859  0.9140 -0.6314 -1.6848
 9152SOL     OW38914   0.892   3.535   5.429  0.1015  0.4419 -0.3249
 9152SOL    HW138915   0.977   3.576   5.413  0.3743  0.3576  0.9071
 9152SOL    HW238916   0.864   3.512   5.340  0.3537  1.5562 -0.6954
 9153SOL     OW38917   3.694   3.780  10.451  0.2584  0.0738 -0.3373
 9153SOL    HW138918   3.618   3.736  10.413 -0.7143  0.6381  0.9181
 9153SOL    HW238919   3.741   3.704  10.485  2.8529  0.2154 -3.6472
 9154SOL     OW38920   4.308   1.432  14.318  0.7364 -0.5235 -0.2680
 9154SOL    HW138921   4.240   1.488  14.355  0.0131 -1.3492 -0.3507
 9154SOL    HW238922   4.322   1.369  14.389  0.1125 -3.9411 -3.1686
 9155SOL     OW38923   2.167   3.807   2.835  0.3525  0.3828  0.3366
 9155SOL    HW138924   2.165   3.899   2.863 -0.7290 -0.1412  1.9830
 9155SOL    HW238925   2.247   3.770   2.871 -1.4286 -2.1301  1.6623
 9156SOL     OW38926   1.999   3.005   1.832 -0.4068  0.0216 -0.0689
 9156SOL    HW138927   1.917   2.973   1.794 -0.8307  0.0724  0.8116
 9156SOL    HW238928   2.059   2.931   1.820  0.2123  0.4460  0.3988
 9157SOL     OW38929   1.591   0.406  11.566 -0.3965  0.1547  0.1738
 9157SOL    HW138930   1.650   0.430  11.637 -2.0406 -1.5618  2.1113
 9157SOL    HW238931   1.523   0.474  11.572 -1.7227 -1.0162 -1.4456
 9158SOL     OW38932   2.073   1.148  14.908  0.2678 -0.4867 -0.3180
 9158SOL    HW138933   1.991   1.130  14.953 -0.4820  0.9142 -1.1408
 9158SOL    HW238934   2.063   1.234  14.868  0.7429  0.5753  1.8701
 9159SOL     OW38935   4.170   4.333   8.518  0.1356  0.0893 -0.0420
 9159SOL    HW138936   4.237   4.310   8.583  0.7390 -0.6142 -0.9167
 9159SOL    HW238937   4.216   4.314   8.436 -1.4306  0.0240 -0.9100
 9160SOL     OW38938   2.740   4.493   9.692  0.0020 -0.2791  0.0507
 9160SOL    HW138939   2.782   4.540   9.621 -2.5110 -2.5901 -2.9577
 9160SOL    HW238940   2.812   4.451   9.740  0.4492  0.6565  0.1955
 9161SOL     OW38941   0.421   2.626   7.744  0.1261 -0.2485  0.8803
 9161SOL    HW138942   0.335   2.608   7.781 -1.1779 -0.3144 -2.1169
 9161SOL    HW238943   0.478   2.620   7.820 -1.4202 -2.9468  1.8155
 9162SOL     OW38944   4.143   1.036  10.464  0.2622 -0.3367 -0.5043
 9162SOL    HW138945   4.133   0.942  10.452  1.4365 -0.4472 -0.6483
 9162SOL    HW238946   4.208   1.064  10.399 -0.1818  1.4104 -0.2089
 9163SOL     OW38947   2.597   2.596   6.740 -0.0074  0.3897 -0.2256
 9163SOL    HW138948   2.658   2.669   6.726  0.0936  0.6467  1.4592
 9163SOL    HW238949   2.661   2.535   6.778 -0.6415 -0.2465 -0.1891
 9164SOL     OW38950   0.494   4.101  15.871 -0.4513 -0.0214  0.0853
 9164SOL    HW138951   0.537   4.027  15.914  0.8314  0.9652  0.5100
 9164SOL    HW238952   0.550   4.112  15.793  1.1742 -2.2608  0.9117
 9165SOL     OW38953   2.828   1.746   7.101  0.1423  0.4925 -0.2033
 9165SOL    HW138954   2.912   1.769   7.139  0.0010  0.7776 -0.0608
 9165SOL    HW238955   2.854   1.661   7.064  1.7728  1.8621 -2.1963
 9166SOL     OW38956   1.425   1.855   1.844  0.3557  0.1593  0.3865
 9166SOL    HW138957   1.458   1.772   1.809 -1.2125  0.4901 -1.9065
 9166SOL    HW238958   1.438   1.842   1.938 -2.0674 -3.2698  0.2546
 9167SOL     OW38959   3.483   2.596   9.395  0.2849  0.4342 -0.2227
 9167SOL    HW138960   3.541   2.593   9.319  1.8867  1.3020  0.9620
 9167SOL    HW238961   3.409   2.542   9.369  0.0865 -1.9469  5.2567
 9168SOL     OW38962   4.572   4.036   9.185  0.4069  0.1229  0.2590
 9168SOL    HW138963   4.543   4.121   9.220 -0.6175  0.1111 -0.5616
 9168SOL    HW238964   4.563   4.059   9.093  2.6469  0.3017  0.0934
 9169SOL     OW38965   1.619   1.247   6.464 -0.1525 -0.4399 -0.0798
 9169SOL    HW138966   1.668   1.329   6.455  1.1523 -0.8111  3.7980
 9169SOL    HW238967   1.538   1.274   6.507  0.1638  0.4890 -0.0706
 9170SOL     OW38968   4.203   1.742  12.311 -0.4436 -0.4747  0.6278
 9170SOL    HW138969   4.168   1.655  12.291  0.2035 -0.1667 -1.9275
 9170SOL    HW238970   4.137   1.776  12.370  0.0252  1.6511 -0.0734
 9171SOL     OW38971   0.012   3.337   2.214  0.0702  0.1494 -0.5287
 9171SOL    HW138972   0.103   3.312   2.230  0.7883  1.5588 -2.4615
 9171SOL    HW238973   4.699   3.326   2.302  1.2089 -3.7852 -0.5921
 9172SOL     OW38974   1.569   0.984   6.582  0.0949  0.3958  0.0053
 9172SOL    HW138975   1.515   0.995   6.660 -0.0002  1.0315 -0.1463
 9172SOL    HW238976   1.595   1.071   6.551  1.5787 -0.4745 -1.2292
 9173SOL     OW38977   1.951   3.415   2.084  0.6744 -0.1348  0.1880
 9173SOL    HW138978   1.956   3.494   2.137 -1.1107  0.3501 -0.3817
 9173SOL    HW238979   1.988   3.443   2.000  0.7975 -0.7149  0.0486
 9174SOL     OW38980   3.055   0.916   5.869 -0.0697  0.3464 -0.0439
 9174SOL    HW138981   3.060   0.862   5.790  0.7554  0.4000 -0.0319
 9174SOL    HW238982   2.963   0.941   5.876 -0.4409 -1.0685  0.1241
 9175SOL     OW38983   4.205   2.363   5.514 -0.3553 -0.0805  0.6672
 9175SOL    HW138984   4.274   2.296   5.517 -0.4726 -0.2903 -2.1235
 9175SOL    HW238985   4.223   2.410   5.596  0.0672 -0.8427  1.0197
 9176SOL     OW38986   3.969   2.927   4.376 -0.2775  0.2578 -0.0535
 9176SOL    HW138987   3.938   2.933   4.286  0.4775  0.6120 -0.2933
 9176SOL    HW238988   3.922   2.852   4.413 -1.0120 -0.4191 -2.3676
 9177SOL     OW38989   4.177   0.102   4.940  0.5158 -0.0179 -0.5338
 9177SOL    HW138990   4.236   0.130   5.010  1.3491 -2.9847 -0.0548
 9177SOL    HW238991   4.172   0.012   4.972 -0.0288  0.4457  0.6788
 9178SOL     OW38992   3.185   2.605   2.455 -0.0900 -0.1409 -0.0117
 9178SOL    HW138993   3.265   2.596   2.508 -0.6469  0.5614  0.9511
 9178SOL    HW238994   3.189   2.700   2.450  2.0268 -0.2561 -0.6200
 9179SOL     OW38995   1.503   2.927   4.188  0.1317  0.5077  0.0562
 9179SOL    HW138996   1.551   2.853   4.151  1.8831  1.2161  0.9593
 9179SOL    HW238997   1.555   2.943   4.266  1.5136  1.6675 -1.1118
 9180SOL     OW38998   1.364   2.392  11.441  0.0702 -0.1604 -1.2613
 9180SOL    HW138999   1.411   2.309  11.435 -0.2740 -0.4617  0.3539
 9180SOL    HW239000   1.379   2.427  11.353  0.4726 -1.2469 -1.6226
 9181SOL     OW39001   2.654   1.566  13.554 -0.1831  0.5329  1.0104
 9181SOL    HW139002   2.672   1.647  13.507  0.4101 -0.1339  0.1010
 9181SOL    HW239003   2.674   1.587  13.645  0.3596 -0.0014  1.0160
 9182SOL     OW39004   1.921   1.932  14.052  0.4447 -0.2890 -0.0605
 9182SOL    HW139005   1.938   1.983  14.131  2.0089  0.2771 -0.7624
 9182SOL    HW239006   1.829   1.959  14.042  0.4679  0.1104  0.7561
 9183SOL     OW39007   0.868   4.549  13.629  0.4039 -0.2362 -0.2988
 9183SOL    HW139008   0.779   4.544  13.593 -0.9828  0.2697  3.1200
 9183SOL    HW239009   0.869   4.635  13.671 -0.6850  0.0528 -0.8487
 9184SOL     OW39010   0.262   3.820   4.566  0.3527  0.2755 -0.3784
 9184SOL    HW139011   0.295   3.738   4.529 -1.0479  0.2000 -1.4442
 9184SOL    HW239012   0.171   3.807   4.591  0.4054  0.7849  0.0851
 9185SOL     OW39013   3.193   1.402   4.621 -0.4251 -0.5167  0.0838
 9185SOL    HW139014   3.127   1.339   4.591 -0.3321  0.1366 -1.4764
 9185SOL    HW239015   3.137   1.475   4.647  1.2042  1.3210 -1.5936
 9186SOL     OW39016   1.459   0.463   9.160  0.1650  0.1738 -0.2096
 9186SOL    HW139017   1.539   0.419   9.187  0.2163 -0.5383 -1.5117
 9186SOL    HW239018   1.483   0.555   9.169 -0.1868  0.0649  1.9774
 9187SOL     OW39019   3.535   0.533   0.169  0.2944  0.4028  0.3490
 9187SOL    HW139020   3.492   0.448   0.159  2.0988 -0.7132  2.0058
 9187SOL    HW239021   3.569   0.513   0.256 -1.8088  0.7020  1.2192
 9188SOL     OW39022   2.806   2.460   1.207  0.9421  0.1685  0.3206
 9188SOL    HW139023   2.859   2.495   1.279  0.6252  1.4674 -0.0825
 9188SOL    HW239024   2.772   2.544   1.178 -1.8704 -1.0071  0.2076
 9189SOL     OW39025   0.337   1.373   2.919  0.1068  0.0422  0.1243
 9189SOL    HW139026   0.419   1.394   2.965  1.7940 -0.0740 -2.8358
 9189SOL    HW239027   0.361   1.415   2.837  0.4147 -0.6385 -0.1338
 9190SOL     OW39028   0.870   0.549   8.770  0.1676  0.2484 -0.3448
 9190SOL    HW139029   0.905   0.487   8.706  1.3553  0.1749  0.3801
 9190SOL    HW239030   0.943   0.593   8.814 -0.6291  1.0342  0.2014
 9191SOL     OW39031   1.233   1.808  10.369 -0.2026 -0.1142  0.1996
 9191SOL    HW139032   1.294   1.767  10.308  0.6474  0.7041  0.4907
 9191SOL    HW239033   1.153   1.801  10.317  1.8072 -0.4332 -2.8595
 9192SOL     OW39034   1.167   3.261   5.830  0.0093 -0.6075 -0.2437
 9192SOL    HW139035   1.104   3.257   5.758  3.4293 -0.7254 -3.1961
 9192SOL    HW239036   1.209   3.175   5.832  1.5034  0.1290 -0.3832
 9193SOL     OW39037   4.224   0.565  10.684  0.3388 -0.3908 -0.2485
 9193SOL    HW139038   4.268   0.572  10.769 -1.9183  0.3046  0.8755
 9193SOL    HW239039   4.267   0.632  10.633  0.0209  0.9558  1.2475
 9194SOL     OW39040   3.431   4.402  16.213  0.0864  0.1808 -0.4300
 9194SOL    HW139041   3.391   4.352  16.141  0.3668 -0.7350  0.0526
 9194SOL    HW239042   3.361   4.457  16.248  0.9370  0.4807  0.7940
 9195SOL     OW39043   3.374   4.136  16.854 -0.4632  0.3260 -0.0259
 9195SOL    HW139044   3.390   4.057  16.802  0.7014 -0.4215  1.4664
 9195SOL    HW239045   3.460   4.164  16.884 -0.1720 -0.9381  0.3272
 9196SOL     OW39046   3.163   2.992   8.810 -0.1464  0.4610 -0.2540
 9196SOL    HW139047   3.201   3.050   8.745  0.1747  0.9061  0.3249
 9196SOL    HW239048   3.145   3.056   8.879  0.1968 -0.0350  0.3075
 9197SOL     OW39049   1.868   3.273  11.020  0.1852 -0.3512  0.0300
 9197SOL    HW139050   1.821   3.196  11.053  0.3349  1.0761  3.6680
 9197SOL    HW239051   1.886   3.259  10.927  1.5840 -2.3457  0.6101
 9198SOL     OW39052   2.258   0.247   3.933  0.2478 -0.2953 -0.8230
 9198SOL    HW139053   2.266   0.187   4.007 -1.3350  3.0608  2.1174
 9198SOL    HW239054   2.264   0.184   3.861 -1.6136  0.4534 -1.6534
 9199SOL     OW39055   4.017   0.606   9.715  0.2772 -0.3308  0.0233
 9199SOL    HW139056   4.109   0.588   9.696  0.6866 -0.0718  1.7050
 9199SOL    HW239057   4.008   0.697   9.685 -0.3423 -0.3873  0.0371
 9200SOL     OW39058   3.082   3.884   0.813  0.0954  0.5587 -0.0734
 9200SOL    HW139059   3.145   3.843   0.753  0.0492 -1.3493  1.1864
 9200SOL    HW239060   3.113   3.836   0.890 -0.9482 -2.5677 -1.6293
 9201SOL     OW39061   1.677   2.598   6.808  0.6787 -0.0091 -0.5597
 9201SOL    HW139062   1.744   2.569   6.870 -0.6087 -1.7698  0.0241
 9201SOL    HW239063   1.641   2.665   6.866  1.6526  0.8193 -0.9303
 9202SOL     OW39064   0.399   0.413   5.512  0.7689 -0.0894 -0.5472
 9202SOL    HW139065   0.393   0.445   5.602 -0.4851 -2.1651  0.1200
 9202SOL    HW239066   0.394   0.490   5.456  2.5853  1.5280  1.5154
 9203SOL     OW39067   0.979   2.099   1.029 -0.0839  0.0336 -0.4206
 9203SOL    HW139068   0.974   2.170   1.093  1.4860 -1.0333  0.8619
 9203SOL    HW239069   0.982   2.148   0.947  3.3873  0.6234  0.0743
 9204SOL     OW39070   1.375   4.237   4.654 -0.0849  0.5471 -0.5267
 9204SOL    HW139071   1.470   4.252   4.658  0.0520 -0.8902  1.7566
 9204SOL    HW239072   1.346   4.328   4.655 -0.0055  0.5786 -1.0040
 9205SOL     OW39073   0.589   1.104   7.894 -0.3700  0.4120 -0.0770
 9205SOL    HW139074   0.617   1.125   7.983  0.1355  1.3704 -0.4707
 9205SOL    HW239075   0.504   1.060   7.904  0.7633 -1.4156  1.5540
 9206SOL     OW39076   1.296   0.044  17.158  0.0962 -0.6262 -0.1744
 9206SOL    HW139077   1.341   0.071  17.239 -0.1784 -0.1383 -0.1808
 9206SOL    HW239078   1.351   4.701  17.115 -0.2291 -1.9546  1.4178
 9207SOL     OW39079   4.401   4.669   0.856  0.0184 -0.1445  0.2680
 9207SOL    HW139080   4.374   4.583   0.823 -0.2566  0.2378 -0.5162
 9207SOL    HW239081   4.483   4.688   0.811 -0.5703 -0.5623 -0.9894
 9208SOL     OW39082   4.428   3.096   6.619 -0.2574  0.1920 -0.0225
 9208SOL    HW139083   4.512   3.126   6.587 -0.1710 -0.4219 -0.3758
 9208SOL    HW239084   4.414   3.148   6.698  2.3972 -0.7307  1.0384
 9209SOL     OW39085   3.816   0.585   5.648 -0.1162 -0.0839 -0.6341
 9209SOL    HW139086   3.756   0.608   5.719  0.9236 -1.6147  0.7543
 9209SOL    HW239087   3.853   0.672   5.631  0.9886 -0.1226  1.5732
 9210SOL     OW39088   4.146   0.266   1.215 -0.3628 -0.3324 -0.7137
 9210SOL    HW139089   4.088   0.290   1.142 -1.9422 -3.0754 -0.3546
 9210SOL    HW239090   4.193   0.348   1.226  0.9621 -1.1870 -0.1276
 9211SOL     OW39091   0.559   4.119  15.577  0.0962  0.0408 -0.6764
 9211SOL    HW139092   0.488   4.084  15.523 -0.8427 -0.8073  1.0959
 9211SOL    HW239093   0.584   4.201  15.535 -0.1622  0.9764  0.9906
 9212SOL     OW39094   2.006   4.090   4.338  0.8398 -0.4044  0.0574
 9212SOL    HW139095   1.981   4.182   4.346  3.8559  0.3775  0.4743
 9212SOL    HW239096   1.956   4.047   4.407 -0.1712  1.0557  0.2479
 9213SOL     OW39097   2.101   3.722   8.735  0.1516  0.4446  0.1644
 9213SOL    HW139098   2.087   3.807   8.692 -1.5350  0.3796  0.5883
 9213SOL    HW239099   2.191   3.708   8.707  0.1306 -1.3415  0.9536
 9214SOL     OW39100   0.391   2.133   4.434 -0.1519 -0.2491 -0.2912
 9214SOL    HW139101   0.336   2.203   4.400 -0.1285  0.9955  2.3195
 9214SOL    HW239102   0.327   2.063   4.419  1.4149 -1.7576  0.0205
 9215SOL     OW39103   0.775   3.527  14.456 -0.9599 -0.3318  0.3137
 9215SOL    HW139104   0.766   3.558  14.365  0.8080  2.9365  1.2529
 9215SOL    HW239105   0.825   3.453  14.423  2.6014  1.5574  1.4824
 9216SOL     OW39106   1.653   4.707   1.487 -0.4198  0.4250  0.3113
 9216SOL    HW139107   1.709   4.646   1.439 -1.4399 -0.4297  0.2196
 9216SOL    HW239108   1.566   4.677   1.462  0.5864 -1.9237 -0.3284
 9217SOL     OW39109   4.444   1.002   5.034  0.2803  0.2970  0.0602
 9217SOL    HW139110   4.384   1.038   4.968  0.0801 -1.0281 -0.4672
 9217SOL    HW239111   4.511   0.954   4.986 -1.9368 -0.9961 -1.7252
 9218SOL     OW39112   1.066   3.527   9.339  0.2548  0.5948 -0.1647
 9218SOL    HW139113   1.017   3.492   9.265  0.6672  0.0319 -0.1743
 9218SOL    HW239114   0.997   3.537   9.405 -1.1079  0.7672 -1.6257
 9219SOL     OW39115   2.510   1.410  12.649 -0.0716 -0.2413  0.1373
 9219SOL    HW139116   2.543   1.324  12.676 -0.3056 -0.1833  0.6082
 9219SOL    HW239117   2.598   1.442  12.628 -0.6423 -0.2856 -2.2302
 9220SOL     OW39118   2.843   1.986   2.171 -0.1947  0.7207 -0.2895
 9220SOL    HW139119   2.912   1.950   2.227 -1.4415  0.3902  1.0376
 9220SOL    HW239120   2.886   1.967   2.088 -0.4198 -2.8983  0.4125
 9221SOL     OW39121   4.665   3.798   1.062 -0.0529 -0.0724 -0.6061
 9221SOL    HW139122   4.625   3.824   1.145 -0.1352 -2.2596  0.0471
 9221SOL    HW239123   0.009   3.730   1.078 -0.1896 -0.0532  0.0332
 9222SOL     OW39124   2.440   2.943   3.911 -0.2338  0.0414  0.3215
 9222SOL    HW139125   2.462   2.976   3.824 -1.2196 -0.7738 -0.2449
 9222SOL    HW239126   2.467   3.018   3.963  1.0043  0.4991 -0.9898
 9223SOL     OW39127   1.766   2.030   2.759 -0.5009 -0.1904  0.3837
 9223SOL    HW139128   1.717   2.044   2.841 -0.8004  0.6343  0.0604
 9223SOL    HW239129   1.837   2.094   2.765  1.0679 -1.6839 -2.2912
 9224SOL     OW39130   1.645   2.557  13.270  1.1601 -0.4278  0.6673
 9224SOL    HW139131   1.732   2.522  13.255  0.8404 -1.5040  1.2952
 9224SOL    HW239132   1.598   2.484  13.309 -0.2657 -0.1870 -0.5782
 9225SOL     OW39133   1.757   0.142   5.198 -0.0672 -0.2316  0.2476
 9225SOL    HW139134   1.788   0.133   5.289  1.0163 -2.1061 -0.3018
 9225SOL    HW239135   1.795   0.228   5.180  1.5968 -0.5602  2.1341
 9226SOL     OW39136   0.070   1.313   7.521  0.4354  0.1983  0.3851
 9226SOL    HW139137   0.086   1.223   7.550 -2.0788 -0.9938 -1.9109
 9226SOL    HW239138   0.155   1.353   7.539  0.6252 -0.6994  1.5190
 9227SOL     OW39139   4.456   3.331  12.749  0.5486 -0.3980  0.5114
 9227SOL    HW139140   4.507   3.250  12.739 -0.5077 -1.0602  0.4811
 9227SOL    HW239141   4.371   3.297  12.777  0.0834  0.9231  0.6797
 9228SOL     OW39142   4.438   4.252  10.110  0.8046 -0.8649  0.0459
 9228SOL    HW139143   4.395   4.210  10.184  0.6091 -0.9582 -0.1221
 9228SOL    HW239144   4.365   4.284  10.057  1.6604 -1.0631 -1.2698
 9229SOL     OW39145   4.534   4.249  14.239 -0.4863 -0.3652  0.7326
 9229SOL    HW139146   4.483   4.187  14.290  0.7266 -1.2010  0.9285
 9229SOL    HW239147   4.519   4.217  14.150  1.7789 -1.0762  0.5998
 9230SOL     OW39148   2.780   1.492   6.708  0.2419  0.1686  0.3385
 9230SOL    HW139149   2.751   1.472   6.797  0.4239  3.3040  1.1164
 9230SOL    HW239150   2.694   1.503   6.668  0.2445 -1.6118 -0.1492
 9231SOL     OW39151   2.244   2.017   6.950 -0.1386  0.1947 -0.2055
 9231SOL    HW139152   2.161   2.039   6.907 -0.1974 -1.2378 -0.8336
 9231SOL    HW239153   2.217   1.947   7.010  2.1133  0.8003  1.5366
 9232SOL     OW39154   3.254   4.093   1.990 -0.0288 -0.2432 -0.2782
 9232SOL    HW139155   3.168   4.133   2.004 -0.4641 -1.3709  0.2646
 9232SOL    HW239156   3.297   4.175   1.966  0.8713 -0.3366  1.0381
 9233SOL     OW39157   4.337   3.038   8.665 -0.4770 -0.3165  0.4104
 9233SOL    HW139158   4.296   3.086   8.737  2.0782 -2.3555  3.2364
 9233SOL    HW239159   4.423   3.076   8.680 -1.5134  2.4788 -0.6713
 9234SOL     OW39160   3.640   2.559   9.130  0.3549 -0.4836  0.3871
 9234SOL    HW139161   3.735   2.549   9.129  0.3480 -0.5797  1.6198
 9234SOL    HW239162   3.625   2.640   9.080  0.8510 -0.7027 -0.1136
 9235SOL     OW39163   2.662   3.871   6.587  0.2109  0.5018  0.1351
 9235SOL    HW139164   2.751   3.840   6.571 -1.0267 -3.2801  0.5657
 9235SOL    HW239165   2.631   3.842   6.673 -0.3650  2.3942  0.5611
 9236SOL     OW39166   2.130   0.470   6.107 -0.7127  0.0635 -0.2473
 9236SOL    HW139167   2.191   0.475   6.181 -1.4799  1.7301  0.2718
 9236SOL    HW239168   2.081   0.549   6.130 -2.2353 -1.0926  0.5075
 9237SOL     OW39169   3.630   2.838   3.521 -0.0517  0.7904  0.0320
 9237SOL    HW139170   3.688   2.799   3.456 -1.2035 -2.2731  0.8419
 9237SOL    HW239171   3.693   2.893   3.567 -1.8853  1.8924  1.2601
 9238SOL     OW39172   1.796   4.351   3.173 -0.9619  0.1272 -0.3039
 9238SOL    HW139173   1.760   4.292   3.106  0.6479 -0.8666 -0.2863
 9238SOL    HW239174   1.886   4.318   3.179 -1.0684  0.0625  0.9040
 9239SOL     OW39175   3.627   0.403   7.780 -0.2334 -0.6602 -0.1980
 9239SOL    HW139176   3.637   0.484   7.831 -3.0536  0.0330 -0.7439
 9239SOL    HW239177   3.676   0.439   7.707 -2.6634 -1.3023 -2.1377
 9240SOL     OW39178   3.399   0.083  15.859  0.6730 -0.3662 -0.3000
 9240SOL    HW139179   3.341   0.143  15.905  0.6619 -0.4888 -0.1556
 9240SOL    HW239180   3.385   0.007  15.915  1.8355  1.4935  2.4770
 9241SOL     OW39181   1.416   2.951  14.855 -0.6492  0.0317  0.2353
 9241SOL    HW139182   1.448   3.040  14.848  0.7775 -0.6143 -1.3145
 9241SOL    HW239183   1.481   2.913  14.797 -1.9841 -1.0821 -0.5547
 9242SOL     OW39184   1.723   3.959  11.843 -0.0040 -0.3013  0.1041
 9242SOL    HW139185   1.642   4.000  11.874 -1.3172 -0.7874 -2.6341
 9242SOL    HW239186   1.753   4.030  11.786  0.4258  1.5924  2.7374
 9243SOL     OW39187   2.487   4.113   4.072 -0.3019  0.1669  0.6147
 9243SOL    HW139188   2.423   4.178   4.042 -0.7215  0.5667  2.3619
 9243SOL    HW239189   2.494   4.053   3.998 -1.1581  0.8187 -0.0023
 9244SOL     OW39190   0.652   3.515  12.573  0.2820 -0.1588  0.0737
 9244SOL    HW139191   0.732   3.565  12.590  2.0610 -2.5365 -1.3308
 9244SOL    HW239192   0.634   3.477  12.659  0.5634  0.8338  0.5660
 9245SOL     OW39193   3.862   0.234   6.748 -0.5150 -0.4474  0.3598
 9245SOL    HW139194   3.928   0.235   6.817 -0.2936  0.6354  0.1366
 9245SOL    HW239195   3.790   0.203   6.802  1.6913 -2.1953  2.2894
 9246SOL     OW39196   3.677   4.390   2.831  0.2749  0.0476  0.3453
 9246SOL    HW139197   3.692   4.341   2.912 -1.5699  2.8838  2.3838
 9246SOL    HW239198   3.653   4.323   2.766 -1.4569  1.5562 -0.5655
 9247SOL     OW39199   0.020   4.505   4.376 -0.1908 -0.3008  0.3777
 9247SOL    HW139200   0.083   4.495   4.305 -0.1624  0.2697  0.3232
 9247SOL    HW239201   0.034   4.416   4.409  1.1180  0.2637  1.3279
 9248SOL     OW39202   3.886   3.044   7.039 -0.2008 -0.4374 -0.0898
 9248SOL    HW139203   3.845   3.041   6.952 -1.6954  0.9981  0.5701
 9248SOL    HW239204   3.801   3.031   7.082  0.6030 -1.7527  1.0718
 9249SOL     OW39205   0.008   2.734  16.333  0.0193  0.0008  0.6730
 9249SOL    HW139206   0.009   2.790  16.256  0.7358 -1.4127 -0.3306
 9249SOL    HW239207   0.041   2.651  16.300 -0.8295  0.2148 -0.6837
 9250SOL     OW39208   2.316   3.227   4.634  0.3310 -0.5444  0.3624
 9250SOL    HW139209   2.370   3.267   4.701  0.9888  0.1364 -0.5695
 9250SOL    HW239210   2.277   3.307   4.600  0.7694 -0.5579 -0.1861
 9251SOL     OW39211   0.744   2.228   5.123  0.4848 -0.3454  0.7021
 9251SOL    HW139212   0.803   2.225   5.047  0.5669 -4.0471  0.9210
 9251SOL    HW239213   0.709   2.317   5.115  4.0741  1.2351  2.3535
 9252SOL     OW39214   0.956   4.648   3.965 -0.3226 -0.1471  0.2853
 9252SOL    HW139215   1.015   4.609   3.901  0.2224 -1.7067  1.7101
 9252SOL    HW239216   1.009   4.639   4.044 -2.3506 -0.4732  1.6174
 9253SOL     OW39217   3.653   4.267  16.241 -0.0930  0.0166 -0.3456
 9253SOL    HW139218   3.583   4.328  16.216 -1.4570  0.1642  3.8393
 9253SOL    HW239219   3.614   4.198  16.294  2.6236 -1.4737 -0.2828
 9254SOL     OW39220   3.462   2.591  11.633  0.3163 -0.4856 -0.1106
 9254SOL    HW139221   3.496   2.628  11.551  0.2000 -1.8965 -0.7870
 9254SOL    HW239222   3.462   2.669  11.689  1.7406  0.1739 -1.0075
 9255SOL     OW39223   3.064   0.009   4.659  0.4858  0.3326  0.3494
 9255SOL    HW139224   3.035   4.643   4.638  2.8375 -0.7621  1.7095
 9255SOL    HW239225   3.137   4.708   4.716  0.6242  1.1808  0.5168
 9256SOL     OW39226   1.130   2.137  12.556  0.0782 -0.2124  0.2349
 9256SOL    HW139227   1.212   2.151  12.509 -0.2623 -0.4233 -0.4252
 9256SOL    HW239228   1.151   2.184  12.636  0.0031 -2.1842  1.3951
 9257SOL     OW39229   1.057   2.468   8.278 -0.1635 -0.5353  0.1227
 9257SOL    HW139230   1.019   2.473   8.366 -0.7828 -1.7985 -0.0782
 9257SOL    HW239231   1.141   2.513   8.284 -1.8049  2.3157  1.8632
 9258SOL     OW39232   4.518   3.236   8.052  0.3776  0.1354 -0.0331
 9258SOL    HW139233   4.527   3.159   7.995 -0.8862 -0.0973  0.0821
 9258SOL    HW239234   4.515   3.299   7.979 -0.3487 -1.2107 -1.1714
 9259SOL     OW39235   2.073   1.362   2.940 -0.0586 -0.0642  0.2197
 9259SOL    HW139236   2.069   1.341   2.847 -0.6492 -0.6559  0.3712
 9259SOL    HW239237   2.129   1.439   2.946 -1.7772  1.4329 -2.9589
 9260SOL     OW39238   0.064   1.612   6.472  0.3286  0.4382 -0.5889
 9260SOL    HW139239   0.138   1.576   6.423  0.1649 -2.1442  1.0611
 9260SOL    HW239240   0.013   1.645   6.398  2.4250  4.5885 -0.1809
 9261SOL     OW39241   1.289   2.670   1.979  0.1187  0.2286  0.1441
 9261SOL    HW139242   1.223   2.738   1.968  1.8077  2.1130  1.6434
 9261SOL    HW239243   1.239   2.617   2.042  0.2099 -0.9280 -0.7447
 9262SOL     OW39244   0.891   2.086   4.891  1.0282  0.2726 -0.0697
 9262SOL    HW139245   0.929   2.086   4.803 -0.3782 -1.4181 -0.6807
 9262SOL    HW239246   0.804   2.123   4.877  1.0399 -0.2936 -1.6212
 9263SOL     OW39247   2.770   3.885   7.001  0.8263 -0.4488 -0.7636
 9263SOL    HW139248   2.744   3.963   7.050  0.5456 -1.0214 -0.0171
 9263SOL    HW239249   2.864   3.879   7.016  0.9352  0.3249 -1.0917
 9264SOL     OW39250   3.415   0.409  15.777  0.3412 -0.1829  0.6361
 9264SOL    HW139251   3.362   0.459  15.839 -2.2293 -3.6438  1.2022
 9264SOL    HW239252   3.449   0.332  15.823 -0.0598 -0.7494 -0.0117
 9265SOL     OW39253   1.196   3.610   7.925 -0.3050  0.3154  0.6560
 9265SOL    HW139254   1.194   3.515   7.936  0.3907  0.3757  1.3836
 9265SOL    HW239255   1.264   3.633   7.988 -1.8425  2.8996  1.3732
 9266SOL     OW39256   1.533   4.709   4.518 -0.4849  0.4172  0.1716
 9266SOL    HW139257   1.471   4.702   4.445 -0.6719 -0.1444  0.3833
 9266SOL    HW239258   1.484   0.050   4.570 -2.3061 -2.6848  2.2371
 9267SOL     OW39259   3.350   0.117  12.696  0.1383  0.7829  0.3874
 9267SOL    HW139260   3.335   0.134  12.789  3.1589  1.3026  0.7713
 9267SOL    HW239261   3.270   0.144  12.650 -0.3645 -0.0330  0.7789
 9268SOL     OW39262   0.090   4.343  16.251  0.3566 -0.1573 -0.2432
 9268SOL    HW139263   0.127   4.318  16.166 -0.8957  0.4617 -0.9843
 9268SOL    HW239264   0.026   4.411  16.231 -0.4110 -0.4392  1.2424
 9269SOL     OW39265   1.046   3.848  17.371  0.2200  0.3838  0.8661
 9269SOL    HW139266   1.095   3.922  17.336  0.0075  0.4079  0.6197
 9269SOL    HW239267   1.092   3.769  17.343 -1.0014 -0.5738  1.5258
 9270SOL     OW39268   0.149   2.374  13.759  0.4286  0.4637 -0.0335
 9270SOL    HW139269   0.167   2.319  13.835  0.0154 -0.2445 -0.4563
 9270SOL    HW239270   0.083   2.323  13.713  0.3291 -0.9713  1.7073
 9271SOL     OW39271   4.215   2.488  12.055 -0.7992 -0.6814 -0.0858
 9271SOL    HW139272   4.265   2.413  12.085  2.8133  1.2836 -1.2582
 9271SOL    HW239273   4.282   2.544  12.017  1.4538 -2.5204  1.2000
 9272SOL     OW39274   1.883   2.621   5.474 -0.2223  0.1499 -0.0582
 9272SOL    HW139275   1.854   2.710   5.496 -0.2054  0.2293 -0.3680
 9272SOL    HW239276   1.805   2.567   5.487 -0.6008  0.7621  0.2531
 9273SOL     OW39277   0.107   3.306   4.715  0.1788  0.0544 -0.1335
 9273SOL    HW139278   0.167   3.238   4.685  0.0835 -0.0522 -0.0790
 9273SOL    HW239279   0.023   3.263   4.729 -0.8907  1.8776 -0.9923
 9274SOL     OW39280   1.960   1.285  10.485 -0.0991 -0.1998  0.3872
 9274SOL    HW139281   2.024   1.247  10.546 -1.2715 -0.6139  1.3581
 9274SOL    HW239282   2.020   1.271  10.412  0.6595  3.2843  0.3415
 9275SOL     OW39283   3.559   3.449   8.985 -0.5249 -0.4505 -0.1165
 9275SOL    HW139284   3.492   3.501   9.029  0.4879 -0.1988  1.1313
 9275SOL    HW239285   3.640   3.498   9.000  0.6293 -1.7633 -2.1159
 9276SOL     OW39286   0.396   2.650  12.679 -0.1095  0.0869  0.4632
 9276SOL    HW139287   0.429   2.688  12.598 -3.2107 -1.0812 -1.3824
 9276SOL    HW239288   0.451   2.700  12.738  1.2975 -0.1539 -0.6511
 9277SOL     OW39289   2.243   4.202   5.009  0.7728  0.2655  0.4561
 9277SOL    HW139290   2.178   4.132   5.016 -0.6449  1.4372 -0.9684
 9277SOL    HW239291   2.200   4.264   5.067  0.4047  0.5992 -0.1720
 9278SOL     OW39292   1.986   1.907  11.920  0.0078  0.2318 -0.0883
 9278SOL    HW139293   2.050   1.849  11.963  0.7265  0.1939 -1.2197
 9278SOL    HW239294   1.943   1.939  12.000  0.1884 -0.7357  0.4085
 9279SOL     OW39295   2.876   2.136  16.044 -0.0720 -0.3604 -0.5171
 9279SOL    HW139296   2.926   2.206  16.002 -0.1636  1.4943  2.4189
 9279SOL    HW239297   2.817   2.133  15.969  1.9765  0.6661 -2.1665
 9280SOL     OW39298   2.170   0.449  12.728  0.1789 -0.0911 -0.4866
 9280SOL    HW139299   2.201   0.376  12.675  2.4555 -0.0235  0.7354
 9280SOL    HW239300   2.234   0.443  12.799  1.7245  0.6314 -1.8181
 9281SOL     OW39301   2.773   1.141  15.844  0.2681 -0.3396 -0.3933
 9281SOL    HW139302   2.711   1.189  15.789  0.3268  0.6789  0.4401
 9281SOL    HW239303   2.796   1.210  15.906  0.4011 -0.0766 -0.7410
 9282SOL     OW39304   0.031   2.003   5.627 -0.4400 -0.3427 -0.1648
 9282SOL    HW139305   0.009   1.994   5.720  1.9468  3.0913  0.7379
 9282SOL    HW239306   0.053   2.096   5.629  2.7808 -1.0712 -0.2108
 9283SOL     OW39307   2.727   2.278   6.587 -0.4684  0.3702  0.0465
 9283SOL    HW139308   2.752   2.192   6.551 -0.2543  0.4819 -0.0702
 9283SOL    HW239309   2.764   2.337   6.521  0.6555 -1.8842 -1.3569
 9284SOL     OW39310   4.098   1.865   0.386  0.1298 -0.1919 -0.0708
 9284SOL    HW139311   4.079   1.956   0.409 -0.0655  0.1242 -1.4458
 9284SOL    HW239312   4.089   1.857   0.291 -3.0459 -1.6126  0.3311
 9285SOL     OW39313   1.477   0.401  15.232  0.7270  0.1489 -0.0498
 9285SOL    HW139314   1.449   0.448  15.311 -0.0992 -1.8665  0.8643
 9285SOL    HW239315   1.423   0.452  15.172  0.0252  0.0516  0.4997
 9286SOL     OW39316   4.707   3.166   3.904  0.1493  0.0192 -0.3903
 9286SOL    HW139317   0.020   3.248   3.867  0.4938  0.0601  0.0286
 9286SOL    HW239318   4.631   3.203   3.947  1.1417  1.4766  0.1175
 9287SOL     OW39319   3.447   4.484   1.748 -0.1766  0.6622 -0.3108
 9287SOL    HW139320   3.405   4.407   1.709 -0.8106 -0.7030  3.0133
 9287SOL    HW239321   3.516   4.496   1.684 -0.1150 -1.1760 -0.6045
 9288SOL     OW39322   3.284   2.999  16.164 -0.4447 -0.0828 -0.1340
 9288SOL    HW139323   3.265   3.088  16.193  0.1332  0.2410 -0.7621
 9288SOL    HW239324   3.239   2.990  16.080  0.3364 -3.0289 -0.2401
 9289SOL     OW39325   4.520   2.745   8.633 -0.0555 -0.0196  0.1000
 9289SOL    HW139326   4.466   2.824   8.631 -2.0403 -1.3265  1.4360
 9289SOL    HW239327   4.550   2.756   8.543  0.4212  2.1065  0.5205
 9290SOL     OW39328   1.607   3.929   3.141 -0.0262  0.5520  0.6420
 9290SOL    HW139329   1.611   3.835   3.124 -2.0192  0.0833  2.7752
 9290SOL    HW239330   1.517   3.927   3.173  0.5450  1.3849  2.3195
 9291SOL     OW39331   3.046   3.503   2.203 -0.3920 -0.2262  0.3587
 9291SOL    HW139332   3.021   3.480   2.114 -0.1534  0.8881 -0.0047
 9291SOL    HW239333   2.969   3.474   2.252 -1.8166  1.7180 -0.7201
 9292SOL     OW39334   0.469   0.836   5.695  0.4380  0.1061  0.0892
 9292SOL    HW139335   0.378   0.844   5.667  0.6976  0.0435 -0.7713
 9292SOL    HW239336   0.514   0.855   5.613  0.0037 -2.1497 -0.6629
 9293SOL     OW39337   2.632   2.250   3.874 -0.3860  0.1945 -0.5636
 9293SOL    HW139338   2.646   2.338   3.839  0.7578  0.6395  0.9787
 9293SOL    HW239339   2.538   2.238   3.857 -0.4737  0.7602 -0.4964
 9294SOL     OW39340   0.771   2.632  17.547 -0.4679  0.0611 -0.3028
 9294SOL    HW139341   0.739   2.550  17.509  1.7257 -1.4525  1.1522
 9294SOL    HW239342   0.800   2.682  17.470 -1.1090 -1.8108 -1.7685
 9295SOL     OW39343   1.918   3.747   6.801  0.3516  0.2372  0.9553
 9295SOL    HW139344   2.009   3.740   6.829 -0.0273 -1.1336  1.8565
 9295SOL    HW239345   1.889   3.760   6.891 -0.2294 -2.2311  1.1278
 9296SOL     OW39346   3.088   3.548   4.567 -0.2154  0.5973 -0.0893
 9296SOL    HW139347   3.049   3.461   4.573  0.7020  0.2734  1.1780
 9296SOL    HW239348   3.154   3.548   4.498  1.3400  2.3573  1.3940
 9297SOL     OW39349   2.171   2.125   5.274  0.0880  0.2048 -0.1360
 9297SOL    HW139350   2.093   2.131   5.329 -0.3848 -1.1674 -0.6553
 9297SOL    HW239351   2.214   2.205   5.305 -2.4719  1.1727  0.9022
 9298SOL     OW39352   4.049   1.833  12.499  0.8386 -0.2504  0.1180
 9298SOL    HW139353   3.955   1.837  12.516  0.8425  1.5011 -0.2118
 9298SOL    HW239354   4.075   1.804  12.586 -0.7914 -0.7571  0.4303
 9299SOL     OW39355   3.835   0.349   0.843 -0.1175  0.3027 -0.0215
 9299SOL    HW139356   3.776   0.292   0.795 -0.3776  0.1670  0.4589
 9299SOL    HW239357   3.779   0.417   0.880 -0.4590  1.5643 -2.9124
 9300SOL     OW39358   1.310   1.177   8.061 -0.5463 -0.5320  0.3407
 9300SOL    HW139359   1.295   1.083   8.051  0.0785 -0.6058  0.0944
 9300SOL    HW239360   1.400   1.178   8.028 -1.4390 -0.9014 -2.0933
 9301SOL     OW39361   2.775   2.312   4.663 -0.1873  0.2201 -0.1837
 9301SOL    HW139362   2.848   2.319   4.601  0.4821 -1.1876  0.4261
 9301SOL    HW239363   2.817   2.363   4.733  1.2206 -0.4855 -0.5000
 9302SOL     OW39364   1.539   2.104   7.471 -0.3980 -0.4212  0.3903
 9302SOL    HW139365   1.477   2.172   7.445  0.3584 -0.3701 -1.2752
 9302SOL    HW239366   1.484   2.027   7.484 -0.0653 -0.2557  2.6578
 9303SOL     OW39367   4.106   2.804   2.232 -0.0704 -0.0547  0.2137
 9303SOL    HW139368   4.108   2.711   2.257 -0.0399 -0.1300 -0.0720
 9303SOL    HW239369   4.023   2.837   2.266 -0.8033 -2.6363  0.9578
 9304SOL     OW39370   1.676   3.025  15.887  0.2017  0.5337  0.3747
 9304SOL    HW139371   1.750   3.038  15.828  0.6212  0.9519  0.9927
 9304SOL    HW239372   1.659   3.113  15.921 -0.6620 -0.1676  1.7474
 9305SOL     OW39373   2.670   2.873  13.863 -0.2939 -0.4585 -0.4855
 9305SOL    HW139374   2.605   2.824  13.913 -0.5174  0.9236  0.6069
 9305SOL    HW239375   2.691   2.941  13.928 -2.6483 -0.3526  0.1775
 9306SOL     OW39376   1.977   3.228  11.802 -0.2356 -0.4888  0.0255
 9306SOL    HW139377   1.976   3.167  11.875  2.8634 -1.2626 -0.5561
 9306SOL    HW239378   1.922   3.288  11.852 -0.9679 -2.1176  1.1955
 9307SOL     OW39379   2.361   4.546   4.073  0.4606 -0.2283 -0.0155
 9307SOL    HW139380   2.332   4.465   4.114  2.0480 -1.2271 -0.8900
 9307SOL    HW239381   2.456   4.532   4.081  1.0018  2.4902 -1.4355
 9308SOL     OW39382   4.278   2.241  15.605  0.3379  0.7177 -0.2210
 9308SOL    HW139383   4.248   2.314  15.551 -4.2678  1.3677  3.1760
 9308SOL    HW239384   4.288   2.171  15.541 -0.1855 -0.7043  1.2558
 9309SOL     OW39385   2.551   0.286  13.128  0.2393  0.1305 -0.1238
 9309SOL    HW139386   2.569   0.376  13.155  0.7515  0.3089 -1.0323
 9309SOL    HW239387   2.484   0.259  13.190  0.6060 -0.1255  0.1640
 9310SOL     OW39388   2.157   3.444  17.248 -0.0014 -0.8338  0.1840
 9310SOL    HW139389   2.173   3.384  17.175  1.5726 -0.2828  0.0825
 9310SOL    HW239390   2.228   3.412  17.303  0.3130 -1.1920 -0.4293
 9311SOL     OW39391   4.674   4.142   1.380  0.5958 -0.1797  0.6808
 9311SOL    HW139392   4.710   4.228   1.402 -1.2729  1.1147 -1.3562
 9311SOL    HW239393   0.026   4.103   1.334  0.8557 -0.9146  1.7171
 9312SOL     OW39394   1.649   1.841   4.066  0.8848 -0.2748 -0.5170
 9312SOL    HW139395   1.728   1.864   4.017  1.4161  1.6575  1.1860
 9312SOL    HW239396   1.664   1.748   4.083  1.2650  0.0968  1.2290
 9313SOL     OW39397   2.283   2.538   8.605  0.2965 -0.5653  0.0061
 9313SOL    HW139398   2.274   2.461   8.661 -1.0314 -1.6127 -1.6432
 9313SOL    HW239399   2.285   2.608   8.670  2.1813  1.0111 -1.7554
 9314SOL     OW39400   2.474   3.295  11.934  0.1838 -0.0124  0.2997
 9314SOL    HW139401   2.415   3.242  11.880  0.1508  0.0839  0.2410
 9314SOL    HW239402   2.556   3.259  11.900  0.1956  1.0730 -0.8189
 9315SOL     OW39403   3.592   1.942   8.463  0.1863  0.2441 -0.1359
 9315SOL    HW139404   3.550   2.026   8.448  2.2582  1.2934 -0.0513
 9315SOL    HW239405   3.640   1.931   8.381  2.1952  1.5208  0.8692
 9316SOL     OW39406   3.018   4.541   3.010 -0.5230 -0.0981  0.5221
 9316SOL    HW139407   3.102   4.586   3.020 -0.3164 -0.5617  0.8210
 9316SOL    HW239408   3.032   4.485   2.934  1.0049  1.4185 -0.3203
 9317SOL     OW39409   3.302   3.799  13.027  0.5720  0.3145 -0.4012
 9317SOL    HW139410   3.282   3.707  13.042  0.4241  0.3361 -0.4663
 9317SOL    HW239411   3.338   3.799  12.938 -0.5424  1.5954 -0.8466
 9318SOL     OW39412   2.682   0.032   4.298 -0.3014 -0.9882  0.2580
 9318SOL    HW139413   2.648   4.670   4.329  0.0846 -1.1120  0.3538
 9318SOL    HW239414   2.670   0.089   4.374  3.7895  1.0556 -0.5991
 9319SOL     OW39415   2.864   0.579   2.920  0.4050  0.5337  0.3484
 9319SOL    HW139416   2.813   0.600   2.999 -0.2230 -0.4390  0.2077
 9319SOL    HW239417   2.929   0.647   2.935  0.0446  1.1397 -0.8957
 9320SOL     OW39418   2.542   2.939   0.162 -0.2223  0.2800  0.3447
 9320SOL    HW139419   2.533   2.870   0.228  2.5646  1.6762  2.1547
 9320SOL    HW239420   2.630   2.919   0.128 -0.4059  0.9605 -0.5439
 9321SOL     OW39421   2.243   0.332  16.765 -0.5401 -0.3601  0.4469
 9321SOL    HW139422   2.169   0.288  16.723 -0.4621 -0.0225 -0.0407
 9321SOL    HW239423   2.230   0.423  16.737  0.9421 -0.0100  0.9318
 9322SOL     OW39424   4.704   3.562   0.801 -0.5569 -0.4590  0.0588
 9322SOL    HW139425   4.671   3.650   0.821  1.2679 -0.1475  1.7256
 9322SOL    HW239426   0.060   3.577   0.748  0.6463 -1.7263  1.4748
 9323SOL     OW39427   1.961   0.784   4.824 -0.5644  0.5282 -0.0190
 9323SOL    HW139428   1.913   0.705   4.800  0.6800 -0.2063 -0.0596
 9323SOL    HW239429   2.039   0.789   4.769 -1.4588 -0.4902 -1.3709
 9324SOL     OW39430   3.882   3.736   1.321  0.1626 -0.1242 -0.3064
 9324SOL    HW139431   3.812   3.783   1.276  1.3635  0.7597 -1.2409
 9324SOL    HW239432   3.929   3.694   1.249 -1.4450 -1.3771 -0.6138
 9325SOL     OW39433   3.436   4.637   2.565  0.2924 -1.2605  0.0636
 9325SOL    HW139434   3.523   4.636   2.606 -0.5706  2.0026  1.9814
 9325SOL    HW239435   3.409   0.004   2.587  2.7268 -0.9517  1.8798
 9326SOL     OW39436   4.547   2.837   5.841 -0.0955 -0.0645 -0.5871
 9326SOL    HW139437   4.570   2.791   5.760  0.7729 -0.5464 -0.0595
 9326SOL    HW239438   4.608   2.817   5.912 -0.8691  0.2377  0.1607
 9327SOL     OW39439   1.957   1.762  12.383 -0.3159  0.1549  0.0046
 9327SOL    HW139440   2.051   1.754  12.367 -0.3346 -0.6329  0.3062
 9327SOL    HW239441   1.952   1.793  12.473  2.6257 -0.5673  0.4048
 9328SOL     OW39442   1.933   1.000  12.462  0.1944 -0.3468 -0.3065
 9328SOL    HW139443   1.840   0.995  12.482  0.5636  2.5857  2.2411
 9328SOL    HW239444   1.985   0.999  12.543  1.2272  1.3552 -0.9470
 9329SOL     OW39445   1.406   1.854   6.758  0.0632  0.5445 -0.4935
 9329SOL    HW139446   1.363   1.785   6.809  0.7752  1.4991  1.3939
 9329SOL    HW239447   1.487   1.858   6.808  0.3718  1.2658 -1.0356
 9330SOL     OW39448   1.061   2.270  17.660  0.5643  0.3858  0.4328
 9330SOL    HW139449   0.989   2.291   0.029  0.4318 -2.4144  1.2910
 9330SOL    HW239450   1.088   2.356  17.630  2.0480  0.0878  0.9465
 9331SOL     OW39451   0.478   0.677   3.443 -0.1462  0.2974 -0.4823
 9331SOL    HW139452   0.553   0.719   3.485 -0.7404 -0.7419  1.6285
 9331SOL    HW239453   0.454   0.739   3.374  2.5429  1.3076 -0.4895
 9332SOL     OW39454   2.734   0.715   7.806 -0.0390  0.3548  0.5515
 9332SOL    HW139455   2.759   0.745   7.894  2.2401  0.9564 -0.3002
 9332SOL    HW239456   2.696   0.631   7.830  0.1709  0.2456  0.5035
 9333SOL     OW39457   0.118   1.689   8.650 -0.0024  0.1025 -0.7817
 9333SOL    HW139458   0.033   1.648   8.666 -0.4680  0.8265 -1.4294
 9333SOL    HW239459   0.164   1.670   8.732 -2.8059 -0.1080  0.7276
 9334SOL     OW39460   0.813   1.887   0.847  0.2857  0.1450  0.4985
 9334SOL    HW139461   0.888   1.942   0.869  0.2807 -0.0733  1.0546
 9334SOL    HW239462   0.791   1.841   0.928 -1.1172  0.2829  0.2033
 9335SOL     OW39463   4.223   4.117   4.418 -0.1868  0.0020  0.2437
 9335SOL    HW139464   4.129   4.123   4.402 -0.1217 -4.0522 -1.6788
 9335SOL    HW239465   4.246   4.103   4.326  2.9132 -0.8654  1.1363
 9336SOL     OW39466   2.993   1.934   1.941 -0.0992  0.1754 -0.4063
 9336SOL    HW139467   2.997   2.030   1.934 -1.0210  0.1306 -1.4401
 9336SOL    HW239468   2.933   1.905   1.873 -0.6163  0.2677  0.0119
 9337SOL     OW39469   2.526   1.594   1.640 -0.7631 -0.7580 -0.6207
 9337SOL    HW139470   2.452   1.612   1.698 -1.6084 -0.2597 -1.8363
 9337SOL    HW239471   2.487   1.519   1.594  0.6209 -1.1704 -1.1264
 9338SOL     OW39472   4.294   0.139   8.520 -0.4035 -0.2811  0.1905
 9338SOL    HW139473   4.311   0.066   8.579 -2.3205 -0.3758  0.6243
 9338SOL    HW239474   4.243   0.092   8.454  0.2646  1.0584 -1.3061
 9339SOL     OW39475   0.772   3.861   7.891  0.2348  0.2885  0.0515
 9339SOL    HW139476   0.844   3.820   7.939 -1.3874 -2.0970  0.4203
 9339SOL    HW239477   0.718   3.913   7.951 -2.3517 -0.8296 -1.3349
 9340SOL     OW39478   3.925   1.072   0.705  0.2297  0.4506 -0.6961
 9340SOL    HW139479   3.918   1.076   0.800 -1.5625  2.4018 -0.8971
 9340SOL    HW239480   3.998   1.011   0.696 -1.8184 -1.7744 -2.1900
 9341SOL     OW39481   1.050   1.545   0.456 -0.3119 -0.1424 -0.2683
 9341SOL    HW139482   0.967   1.573   0.418 -0.2730  0.4388  0.0643
 9341SOL    HW239483   1.065   1.467   0.403  0.5082  1.8732 -2.9819
 9342SOL     OW39484   4.214   1.303   8.014  0.2079  0.3383  0.2357
 9342SOL    HW139485   4.148   1.353   8.063  0.5858  1.8041 -0.7810
 9342SOL    HW239486   4.210   1.220   8.063 -0.1869  1.7157  2.5227
 9343SOL     OW39487   4.261   3.793   1.472 -0.6452 -0.0980  0.4402
 9343SOL    HW139488   4.216   3.847   1.406  1.2981 -0.4220 -1.1435
 9343SOL    HW239489   4.300   3.728   1.413 -1.8277 -0.1677 -0.2867
 9344SOL     OW39490   0.312   4.443   7.776  0.1271 -0.0252 -0.5021
 9344SOL    HW139491   0.320   4.348   7.772  1.1398  0.0465 -0.2224
 9344SOL    HW239492   0.293   4.446   7.870  1.3612  2.9808 -0.3550
 9345SOL     OW39493   0.028   2.444   7.406 -0.2169  0.2372 -0.4349
 9345SOL    HW139494   4.685   2.441   7.337  1.0509  1.1156 -1.6630
 9345SOL    HW239495   0.110   2.459   7.360  1.0483 -1.9443  1.0925
 9346SOL     OW39496   1.897   2.500   6.618 -0.2369  0.2071 -0.5850
 9346SOL    HW139497   1.826   2.510   6.681 -0.8256  0.9844 -1.3660
 9346SOL    HW239498   1.856   2.460   6.542  0.0064  0.7708 -1.0150
 9347SOL     OW39499   0.148   0.231   3.141 -0.0046  0.3533  0.3025
 9347SOL    HW139500   0.241   0.253   3.136  0.0534  0.4387  1.9590
 9347SOL    HW239501   0.119   0.308   3.190 -2.0750  1.3364 -2.4815
 9348SOL     OW39502   3.138   1.583  11.539  0.4116 -0.2686 -0.2630
 9348SOL    HW139503   3.159   1.676  11.533  0.5695 -0.4813 -3.0383
 9348SOL    HW239504   3.213   1.547  11.586 -0.1599 -0.7098  0.2978
 9349SOL     OW39505   0.629   4.181   1.955  0.5774  0.0081  0.0558
 9349SOL    HW139506   0.650   4.264   1.913 -0.6349 -1.4170 -3.3379
 9349SOL    HW239507   0.695   4.172   2.024  0.5824  0.4410  0.1085
 9350SOL     OW39508   0.728   0.681   4.953 -0.6716 -0.1454 -0.5769
 9350SOL    HW139509   0.676   0.736   4.894  0.5296 -0.4648 -1.9274
 9350SOL    HW239510   0.750   0.737   5.027  0.2095 -0.3287 -0.7041
 9351SOL     OW39511   3.755   1.461   3.315 -0.4892  0.2783 -0.0795
 9351SOL    HW139512   3.679   1.411   3.287  0.8391 -1.4147 -0.6689
 9351SOL    HW239513   3.696   1.535   3.328 -2.5240 -0.8733 -2.7818
 9352SOL     OW39514   4.608   0.751   5.943  0.1980 -0.3488 -0.4974
 9352SOL    HW139515   4.664   0.674   5.955 -0.1101 -0.2966  1.4138
 9352SOL    HW239516   4.549   0.728   6.015  0.6613 -0.5024 -0.1656
 9353SOL     OW39517   0.161   2.949   5.288  0.3324  0.3165  0.1169
 9353SOL    HW139518   0.139   2.889   5.217  0.8046  1.3787 -0.9185
 9353SOL    HW239519   0.081   3.001   5.278  1.2741  1.1937 -2.6614
 9354SOL     OW39520   4.359   3.520  10.436  0.2525 -0.0076  0.3675
 9354SOL    HW139521   4.328   3.608  10.461 -0.4418  0.1996 -1.1639
 9354SOL    HW239522   4.301   3.467  10.491  1.4859 -1.6499  0.0474
 9355SOL     OW39523   4.540   4.710  12.382 -0.2788  0.1258  0.1943
 9355SOL    HW139524   4.485   4.651  12.434  0.0837 -1.2345 -0.9526
 9355SOL    HW239525   4.517   0.069  12.427  0.1297  1.3221 -1.7800
 9356SOL     OW39526   1.632   4.462   6.534  0.4029  0.3305  0.0666
 9356SOL    HW139527   1.653   4.542   6.486 -0.3682  0.9651  0.7911
 9356SOL    HW239528   1.695   4.392   6.515 -1.3643 -0.6212 -2.1679
 9357SOL     OW39529   2.885   0.797   6.843 -0.5294  0.1232  0.4248
 9357SOL    HW139530   2.912   0.715   6.884  1.7221  0.3120 -0.6889
 9357SOL    HW239531   2.875   0.761   6.755 -1.2825  0.0039  0.5558
 9358SOL     OW39532   0.708   2.178   3.528 -0.2132 -0.1740  0.6171
 9358SOL    HW139533   0.685   2.125   3.604  1.4174  1.2298  2.0679
 9358SOL    HW239534   0.803   2.178   3.537 -0.2432  0.4252  0.9031
 9359SOL     OW39535   3.764   4.295   0.351  0.1961 -0.1824  0.1650
 9359SOL    HW139536   3.742   4.208   0.317  0.3285 -1.4405  3.3168
 9359SOL    HW239537   3.850   4.315   0.316  1.3654 -1.3511  2.3640
 9360SOL     OW39538   1.820   2.052   3.685 -0.4186 -0.3165 -0.4718
 9360SOL    HW139539   1.861   1.999   3.754  0.1289  2.4104  1.3014
 9360SOL    HW239540   1.755   2.089   3.745  0.0734 -2.2970  1.2954
 9361SOL     OW39541   4.101   2.830   6.866  0.2483 -0.0201  0.1709
 9361SOL    HW139542   4.012   2.811   6.894 -0.4046  1.3298 -0.9778
 9361SOL    HW239543   4.126   2.741   6.843 -1.8258 -0.9980  1.7394
 9362SOL     OW39544   4.115   0.202   7.217  0.0305  0.1637  0.0880
 9362SOL    HW139545   4.021   0.210   7.199 -0.7047 -2.6529  2.4451
 9362SOL    HW239546   4.118   0.108   7.238  0.8079  0.4674  1.3338
 9363SOL     OW39547   0.291   0.417   3.783 -0.5675  0.2162 -0.5644
 9363SOL    HW139548   0.374   0.388   3.747  0.0297  0.8315  0.3302
 9363SOL    HW239549   0.254   0.460   3.706  1.5236  1.9477 -0.5877
 9364SOL     OW39550   1.189   0.971  12.093 -0.3251 -0.8407  0.5325
 9364SOL    HW139551   1.154   0.997  12.008 -1.3522  0.3140  1.3239
 9364SOL    HW239552   1.274   1.015  12.089 -0.1451 -1.1724  0.6712
 9365SOL     OW39553   3.564   3.577   2.830 -0.0507 -0.5544 -0.1872
 9365SOL    HW139554   3.531   3.593   2.742 -0.0376  0.7634  0.0509
 9365SOL    HW239555   3.478   3.594   2.869  0.1192 -1.8544  0.7570
 9366SOL     OW39556   2.880   4.141  10.097 -0.2720  0.5723  0.2040
 9366SOL    HW139557   2.876   4.070  10.162  0.8627 -0.0158 -0.3773
 9366SOL    HW239558   2.911   4.088  10.024 -0.9159  1.5253 -0.7528
 9367SOL     OW39559   4.371   3.102   3.358 -0.1143  0.0425 -0.3704
 9367SOL    HW139560   4.385   3.177   3.300  1.4590 -0.2010 -0.3193
 9367SOL    HW239561   4.429   3.111   3.433  0.5108 -4.4996 -0.3258
 9368SOL     OW39562   3.267   2.409   2.232  0.5132  0.3714  0.2332
 9368SOL    HW139563   3.309   2.488   2.200  1.4961  0.0406  0.7107
 9368SOL    HW239564   3.195   2.452   2.279  1.6698 -0.0456  2.4255
 9369SOL     OW39565   1.563   4.641   5.049  0.3965 -0.0927  0.6203
 9369SOL    HW139566   1.562   4.684   5.134  0.5369 -0.3140  0.7328
 9369SOL    HW239567   1.541   4.550   5.065 -0.4783 -0.1918 -1.1134
 9370SOL     OW39568   2.184   3.611   8.332 -0.3584 -0.3459 -0.1244
 9370SOL    HW139569   2.222   3.589   8.247 -1.2074 -0.7375 -0.3976
 9370SOL    HW239570   2.247   3.588   8.401 -0.5624 -0.3556  0.0569
 9371SOL     OW39571   2.365   2.294   8.756  0.0869 -0.2221  0.1541
 9371SOL    HW139572   2.420   2.360   8.799 -1.9565 -0.4487  3.0916
 9371SOL    HW239573   2.372   2.230   8.827  1.9888  0.5639  0.6780
 9372SOL     OW39574   4.498   3.796   1.636 -0.6408  0.2451 -0.1151
 9372SOL    HW139575   4.496   3.703   1.658  1.5008 -0.0849 -1.3710
 9372SOL    HW239576   4.422   3.819   1.582  1.4017 -2.2767 -4.1255
 9373SOL     OW39577   0.289   0.679   6.748  0.0649  0.4757 -0.3910
 9373SOL    HW139578   0.343   0.755   6.728  0.9713  0.2272  1.1517
 9373SOL    HW239579   0.346   0.610   6.713 -2.4633 -0.4728 -2.6926
 9374SOL     OW39580   4.241   4.659  12.720  0.0197  0.3988 -0.4444
 9374SOL    HW139581   4.217   0.026  12.747 -0.9547  0.5713 -1.9102
 9374SOL    HW239582   4.188   4.611  12.783 -0.0613 -2.0551 -2.4064
 9375SOL     OW39583   1.574   4.477   7.811 -0.0754 -0.0069 -0.2126
 9375SOL    HW139584   1.624   4.407   7.852  3.0103  2.1554 -0.3317
 9375SOL    HW239585   1.500   4.420   7.787  0.3497 -1.6140  2.3413
 9376SOL     OW39586   2.187   0.834   4.633 -0.1706 -0.3828  0.1152
 9376SOL    HW139587   2.144   0.903   4.582  0.2550  0.3498  0.7612
 9376SOL    HW239588   2.258   0.879   4.678  0.9330 -0.9946 -1.0162
 9377SOL     OW39589   2.766   4.211  13.022 -0.0531  0.5097 -0.5789
 9377SOL    HW139590   2.775   4.291  13.074 -0.4137 -0.6003  1.1708
 9377SOL    HW239591   2.689   4.169  13.062  0.3971  0.6810  0.4542
 9378SOL     OW39592   2.973   3.473   9.831  0.3899 -0.5758  0.3407
 9378SOL    HW139593   3.063   3.502   9.845 -0.0430  1.2392 -0.7046
 9378SOL    HW239594   2.919   3.544   9.865  0.0401  0.1415 -1.7381
 9379SOL     OW39595   0.132   1.791   9.406 -0.1727 -0.3200  0.5865
 9379SOL    HW139596   0.073   1.861   9.379  0.1889  0.6161  2.2183
 9379SOL    HW239597   0.178   1.836   9.477  0.1370  0.7872 -0.3212
 9380SOL     OW39598   3.038   3.499   8.505  0.4645  0.8941 -0.1167
 9380SOL    HW139599   3.058   3.422   8.453  3.7689  0.2180  2.1349
 9380SOL    HW239600   2.959   3.469   8.550  1.2878  0.5730  1.1109
 9381SOL     OW39601   2.109   1.829   9.292 -0.0543 -0.2967 -0.5827
 9381SOL    HW139602   2.173   1.861   9.356  1.6708 -2.1559 -1.3656
 9381SOL    HW239603   2.032   1.881   9.316  0.5281 -0.6174  2.0177
 9382SOL     OW39604   3.162   0.722   6.980 -0.2774 -0.2296  0.5544
 9382SOL    HW139605   3.112   0.646   7.010 -0.2762  0.5457  2.5707
 9382SOL    HW239606   3.174   0.770   7.063  1.3642 -1.3294  0.9492
 9383SOL     OW39607   4.386   1.225   2.441  0.3361 -0.3079  0.5860
 9383SOL    HW139608   4.451   1.272   2.494 -0.2986  1.3996 -0.1209
 9383SOL    HW239609   4.318   1.293   2.443 -0.1351 -0.7227 -0.9432
 9384SOL     OW39610   4.298   2.473   0.909  0.4370  0.1596 -0.1756
 9384SOL    HW139611   4.372   2.511   0.862  0.1236  0.7560 -0.1972
 9384SOL    HW239612   4.247   2.451   0.831  0.7318  0.2859 -0.4015
 9385SOL     OW39613   2.115   2.029  14.817  0.2183  0.3183  0.4699
 9385SOL    HW139614   2.024   2.011  14.795  0.3584 -0.5749  0.6081
 9385SOL    HW239615   2.132   2.114  14.777 -0.8377  0.0066 -0.6285
 9386SOL     OW39616   2.915   3.419   3.419  0.3598 -0.2290 -0.5309
 9386SOL    HW139617   2.988   3.457   3.369  0.4034  2.4868  1.6454
 9386SOL    HW239618   2.847   3.413   3.352  0.4788  0.5044 -0.7147
 9387SOL     OW39619   0.324   2.246   6.892 -0.3657  0.0947 -0.7178
 9387SOL    HW139620   0.275   2.194   6.956  0.9895  1.0873  1.1420
 9387SOL    HW239621   0.351   2.322   6.944  0.8606 -1.7877  1.3860
 9388SOL     OW39622   3.806   0.633   7.583  0.5314 -0.1476 -0.3024
 9388SOL    HW139623   3.886   0.607   7.536  2.2716  1.8746  1.5296
 9388SOL    HW239624   3.746   0.563   7.558  1.6097 -1.2443  0.1952
 9389SOL     OW39625   3.211   2.462   0.479  0.0893 -0.5149  0.0478
 9389SOL    HW139626   3.299   2.484   0.510  0.0364  1.2667 -1.0792
 9389SOL    HW239627   3.181   2.547   0.444 -2.4949 -0.8759  1.4044
 9390SOL     OW39628   0.156   3.407  14.611 -0.0525 -0.4077 -0.1204
 9390SOL    HW139629   0.179   3.389  14.520 -1.2612 -0.4462 -0.4176
 9390SOL    HW239630   0.232   3.387  14.667 -0.6539 -1.0347  0.4693
 9391SOL     OW39631   1.005   3.692  17.580  0.3007 -0.6506  0.0850
 9391SOL    HW139632   0.914   3.667  17.564  0.6436 -1.2996 -0.8508
 9391SOL    HW239633   1.021   3.762  17.517  1.5676 -0.0996  1.0125
 9392SOL     OW39634   2.042   3.171   6.399  0.1853  0.7149 -0.2185
 9392SOL    HW139635   2.116   3.111   6.403  0.3431  0.9025 -0.3005
 9392SOL    HW239636   2.013   3.169   6.490  0.0901 -0.0971 -0.2697
 9393SOL     OW39637   2.402   0.202  16.617 -0.0980  0.2265  1.2415
 9393SOL    HW139638   2.356   0.262  16.675 -0.9327  0.9191 -0.1512
 9393SOL    HW239639   2.403   0.120  16.667 -2.1490  0.4612  1.6370
 9394SOL     OW39640   2.721   0.286   7.148  0.0876 -0.0772 -0.6855
 9394SOL    HW139641   2.724   0.381   7.147  0.6163 -0.0918 -0.9048
 9394SOL    HW239642   2.770   0.260   7.225  1.4670  0.5013 -1.3654
 9395SOL     OW39643   4.020   4.143   2.784  0.4861 -0.5532  0.2969
 9395SOL    HW139644   3.936   4.104   2.810 -0.7241  2.6851  1.2117
 9395SOL    HW239645   4.063   4.134   2.869 -2.2698 -0.8939  1.6831
 9396SOL     OW39646   0.466   4.346   4.545 -0.0614  0.0013 -0.1080
 9396SOL    HW139647   0.377   4.345   4.581  0.7540  2.3238  1.9607
 9396SOL    HW239648   0.477   4.436   4.514  2.8660 -0.0248  0.9479
 9397SOL     OW39649   1.342   3.540   1.379  0.3303  0.2865  0.5055
 9397SOL    HW139650   1.419   3.597   1.380 -0.0288  0.7575  1.6402
 9397SOL    HW239651   1.319   3.562   1.469 -0.6906 -1.6376  0.7172
 9398SOL     OW39652   2.336   3.080   8.764 -0.4605  0.4283 -0.2626
 9398SOL    HW139653   2.261   3.139   8.769 -0.7384  0.0925 -0.4544
 9398SOL    HW239654   2.300   3.010   8.818  1.0501  1.3830  1.9625
 9399SOL     OW39655   0.476   2.068   8.941 -0.7088 -0.1687 -0.2771
 9399SOL    HW139656   0.538   2.114   8.884 -1.1598  2.1975  1.1450
 9399SOL    HW239657   0.463   1.985   8.895  1.0041 -0.6281  0.0493
 9400SOL     OW39658   1.364   1.333   4.342 -0.2707 -0.4353 -0.2079
 9400SOL    HW139659   1.290   1.393   4.342 -0.7058 -0.9551  2.5913
 9400SOL    HW239660   1.429   1.402   4.358  0.0583 -0.8935  0.4560
 9401SOL     OW39661   1.146   0.095   8.446 -0.1028 -0.4757 -0.4341
 9401SOL    HW139662   1.198   0.173   8.463  0.3956 -0.6861 -0.9892
 9401SOL    HW239663   1.076   0.094   8.511  0.7568  0.3388  0.5094
 9402SOL     OW39664   0.109   0.089  15.181  0.1883 -0.7593 -0.0156
 9402SOL    HW139665   0.146   0.117  15.265  1.7049 -0.5745 -0.7390
 9402SOL    HW239666   0.188   0.053  15.140 -0.5599 -4.2050  1.5476
 9403SOL     OW39667   2.239   1.913   8.572 -0.8847 -0.1988 -0.2153
 9403SOL    HW139668   2.283   1.942   8.652 -0.7677 -1.5064  0.1942
 9403SOL    HW239669   2.307   1.870   8.519 -3.0207 -3.3811 -0.3804
 9404SOL     OW39670   1.403   3.203   4.544  0.0098  0.1343  0.4296
 9404SOL    HW139671   1.489   3.246   4.540  1.1273 -2.1080  0.0600
 9404SOL    HW239672   1.424   3.120   4.588  1.9755  0.9139  0.9875
 9405SOL     OW39673   0.283   2.917   6.886 -0.1325 -0.0548 -0.1307
 9405SOL    HW139674   0.225   2.980   6.842 -1.4795 -2.4167 -1.7362
 9405SOL    HW239675   0.297   2.960   6.970  0.7506 -0.3223 -0.1361
 9406SOL     OW39676   3.609   3.860  12.981 -0.4876  0.0693 -0.3600
 9406SOL    HW139677   3.642   3.941  13.019 -0.7192  0.4564 -0.9851
 9406SOL    HW239678   3.696   3.835  12.949  0.2973  2.2155  0.1088
 9407SOL     OW39679   3.718   2.877   1.906 -0.0925  0.0145  0.3182
 9407SOL    HW139680   3.777   2.952   1.899 -1.9372  1.3884 -0.4212
 9407SOL    HW239681   3.757   2.827   1.978  0.1342  1.6694  1.3485
 9408SOL     OW39682   2.143   2.292   3.675 -0.2545 -0.4608 -0.1614
 9408SOL    HW139683   2.173   2.379   3.650 -1.8655  0.3085  0.6151
 9408SOL    HW239684   2.074   2.272   3.613  0.7895 -2.1236 -0.7817
 9409SOL     OW39685   1.456   0.397   5.542  0.1223  0.2393  0.3722
 9409SOL    HW139686   1.533   0.450   5.521  0.1508 -0.5111 -1.4445
 9409SOL    HW239687   1.477   0.392   5.635  1.9581  0.0633 -0.0561
 9410SOL     OW39688   0.094   4.550   3.111  0.5582 -0.4171 -0.3805
 9410SOL    HW139689   0.069   4.515   3.025 -1.3767  0.4810 -0.1910
 9410SOL    HW239690   0.158   4.613   3.078  1.1375  0.0082  1.5514
 9411SOL     OW39691   3.100   1.159   4.439  0.1861 -0.4803  0.2812
 9411SOL    HW139692   3.152   1.114   4.506 -0.0207 -1.6328 -0.3340
 9411SOL    HW239693   3.120   1.113   4.358 -2.9504  0.2881 -0.9178
 9412SOL     OW39694   0.887   2.977   2.219 -0.0197  0.2728  0.1612
 9412SOL    HW139695   0.918   3.024   2.296  1.4911 -0.2633 -0.1284
 9412SOL    HW239696   0.969   2.964   2.171  1.2253  2.9814  1.5058
 9413SOL     OW39697   1.202   4.094   3.968 -0.8367 -0.5670 -0.4139
 9413SOL    HW139698   1.288   4.124   3.999 -1.1055 -0.5459  0.2923
 9413SOL    HW239699   1.175   4.029   4.032  2.0546 -0.8175  0.5708
 9414SOL     OW39700   1.716   3.392   8.763  0.8195  0.1210 -0.0148
 9414SOL    HW139701   1.718   3.487   8.778 -0.4148 -0.1221  1.7284
 9414SOL    HW239702   1.747   3.348   8.842  1.0405  0.0243 -0.1562
 9415SOL     OW39703   0.528   0.217   8.555  0.3011  0.5704  0.1941
 9415SOL    HW139704   0.556   0.291   8.609  1.3102  0.3234  0.0068
 9415SOL    HW239705   0.569   0.135   8.584  2.2393  2.3144  2.4095
 9416SOL     OW39706   2.139   1.434   6.402  0.2940 -0.1382  0.1099
 9416SOL    HW139707   2.161   1.520   6.366 -1.1466 -0.2599 -1.0823
 9416SOL    HW239708   2.177   1.446   6.489 -0.1341 -0.3217  0.3208
 9417SOL     OW39709   3.657   2.383  11.003 -0.3402  0.7277  0.7392
 9417SOL    HW139710   3.567   2.362  10.979 -0.1222  0.2167  0.3430
 9417SOL    HW239711   3.694   2.299  11.031 -0.3877  1.1177  1.9646
 9418SOL     OW39712   0.871   4.109   4.664  0.1533  0.1417  0.0620
 9418SOL    HW139713   0.894   4.200   4.645 -0.3732  0.5921  1.5645
 9418SOL    HW239714   0.794   4.104   4.608  0.4652  2.2478 -0.5537
 9419SOL     OW39715   4.145   1.535   4.559 -0.5958  0.7603 -0.2082
 9419SOL    HW139716   4.236   1.504   4.569 -0.9830  0.8789  3.7036
 9419SOL    HW239717   4.100   1.469   4.612 -0.1081  0.4054 -0.2269
 9420SOL     OW39718   0.443   0.151   6.710  0.0745  0.4007  0.0717
 9420SOL    HW139719   0.388   0.199   6.648 -0.4746  0.2763  0.4597
 9420SOL    HW239720   0.420   0.199   6.790 -1.2657  0.8908 -0.5936
 9421SOL     OW39721   4.108   4.413  10.667  0.4013 -0.8863  0.0687
 9421SOL    HW139722   4.018   4.443  10.658  1.3582  2.7774  2.5859
 9421SOL    HW239723   4.126   4.455  10.752 -0.5095 -0.1137 -0.1233
 9422SOL     OW39724   1.738   2.474  10.734  0.0738  0.0519  0.3962
 9422SOL    HW139725   1.748   2.563  10.768 -1.0025 -0.3366  1.7643
 9422SOL    HW239726   1.720   2.423  10.814  0.8226  0.7154  0.9818
 9423SOL     OW39727   3.847   3.438   3.315 -0.0487 -0.1865  0.4828
 9423SOL    HW139728   3.871   3.440   3.223 -1.6804  0.4045  0.0704
 9423SOL    HW239729   3.767   3.489   3.306  1.1511  1.4950 -0.6119
 9424SOL     OW39730   1.909   2.096   6.159 -0.1962 -0.0387  0.8998
 9424SOL    HW139731   1.935   2.181   6.122  1.1057 -1.4662 -1.4729
 9424SOL    HW239732   1.931   2.038   6.086  0.3113  0.6911  0.4736
 9425SOL     OW39733   0.237   0.569   3.113  0.5841  0.5744  0.4124
 9425SOL    HW139734   0.282   0.639   3.066  0.3419  1.3315  1.3124
 9425SOL    HW239735   0.309   0.528   3.161 -1.5646 -1.7098  1.6918
 9426SOL     OW39736   0.918   2.917  17.558  0.2093 -0.6213 -0.3851
 9426SOL    HW139737   0.915   2.843  17.496  1.2791  0.0884 -1.2819
 9426SOL    HW239738   0.834   2.960  17.538 -0.8898 -1.3355  2.7333
 9427SOL     OW39739   2.461   4.601   6.349 -0.3535 -0.0738  0.1642
 9427SOL    HW139740   2.457   4.656   6.427 -0.1083  1.2016 -0.7324
 9427SOL    HW239741   2.523   4.541   6.392  1.0856  0.6427 -0.9188
 9428SOL     OW39742   1.056   4.580   8.056 -0.4016 -0.1951 -0.1022
 9428SOL    HW139743   1.005   4.507   8.021  0.2219 -1.2741  1.2499
 9428SOL    HW239744   1.055   4.645   7.985 -3.2241 -0.0535  0.0753
 9429SOL     OW39745   2.893   2.578  13.143  0.1103  0.4352 -0.1392
 9429SOL    HW139746   2.822   2.641  13.132  2.4704  3.0246 -0.6828
 9429SOL    HW239747   2.956   2.619  13.083 -0.3274 -1.3095 -1.7784
 9430SOL     OW39748   2.811   1.958   7.789  0.4792  0.0741 -0.9080
 9430SOL    HW139749   2.809   2.049   7.816  1.1973 -0.0693 -0.3918
 9430SOL    HW239750   2.810   1.918   7.876 -0.3647  0.5330 -0.7065
 9431SOL     OW39751   3.611   0.795   5.624 -0.1710 -0.0272 -0.3505
 9431SOL    HW139752   3.569   0.711   5.606  1.2597 -0.8378  0.0839
 9431SOL    HW239753   3.545   0.827   5.685 -0.0620 -0.4039 -0.0354
 9432SOL     OW39754   1.425   0.395  16.478  0.4132  0.4487  0.4285
 9432SOL    HW139755   1.450   0.475  16.431  0.6432  0.3873  0.4465
 9432SOL    HW239756   1.337   0.412  16.512  0.3805  1.3943 -0.1367
 9433SOL     OW39757   2.501   3.065   3.662 -0.5005  0.4157 -0.1129
 9433SOL    HW139758   2.506   3.160   3.673  2.4904  0.2643 -0.0610
 9433SOL    HW239759   2.566   3.053   3.592 -0.2575  0.3900  0.1166
 9434SOL     OW39760   2.277   2.360   7.489 -0.5395 -0.1852 -0.0033
 9434SOL    HW139761   2.190   2.391   7.465  0.5615  2.2817 -0.8377
 9434SOL    HW239762   2.256   2.332   7.578  1.3055 -3.6187 -0.6517
 9435SOL     OW39763   3.725   4.519   5.982 -0.1933  0.1755  0.0767
 9435SOL    HW139764   3.756   4.607   5.961 -1.2087  0.3463 -0.7104
 9435SOL    HW239765   3.655   4.493   5.922 -1.0398 -1.8246  1.9449
 9436SOL     OW39766   0.651   2.087   1.045  0.1841 -0.3797  0.6427
 9436SOL    HW139767   0.669   2.083   1.139  0.3167  3.9101  0.8100
 9436SOL    HW239768   0.656   1.992   1.038  0.8599 -0.1715 -1.5782
 9437SOL     OW39769   3.723   2.010  16.659 -0.3268  0.3607  0.0506
 9437SOL    HW139770   3.661   1.937  16.655  3.3270 -2.7927  0.5254
 9437SOL    HW239771   3.698   2.045  16.745  1.3901  2.0642 -0.1471
 9438SOL     OW39772   3.531   3.177   3.777 -0.0983 -0.0983 -0.0246
 9438SOL    HW139773   3.518   3.267   3.809 -0.6761 -0.7895  1.6722
 9438SOL    HW239774   3.450   3.156   3.730 -1.0327  0.9420  1.1230
 9439SOL     OW39775   1.125   3.204  14.228  0.2791  0.4117 -0.2707
 9439SOL    HW139776   1.205   3.194  14.279 -1.0500 -0.6245  1.5864
 9439SOL    HW239777   1.134   3.122  14.179 -1.0424  0.5685 -0.7725
 9440SOL     OW39778   3.182   2.665   5.146  0.6457 -0.8013  0.5018
 9440SOL    HW139779   3.154   2.715   5.222  1.0997  0.7681 -0.3671
 9440SOL    HW239780   3.141   2.578   5.152  0.2043 -0.7000 -0.9760
 9441SOL     OW39781   0.485   3.087   2.553  0.4941  0.1181 -0.1909
 9441SOL    HW139782   0.549   3.153   2.526 -0.3471  1.3317  0.8169
 9441SOL    HW239783   0.530   3.020   2.605 -0.6059  1.0144  1.8878
 9442SOL     OW39784   2.735   3.582   8.337 -0.4496 -0.0836 -0.4009
 9442SOL    HW139785   2.740   3.677   8.347 -0.1684 -0.3682  2.1772
 9442SOL    HW239786   2.801   3.580   8.268  2.0494  0.6944  1.9839
 9443SOL     OW39787   4.107   0.952   5.455  0.0835 -0.9264 -0.1417
 9443SOL    HW139788   4.134   0.950   5.363 -1.3915  1.4720 -0.6287
 9443SOL    HW239789   4.188   0.939   5.504 -1.1023 -0.9745  1.7668
 9444SOL     OW39790   3.480   2.413   6.706 -0.7867 -0.2733 -0.0331
 9444SOL    HW139791   3.536   2.338   6.686 -1.0540 -0.8793  1.4945
 9444SOL    HW239792   3.473   2.401   6.800  2.2196  0.6117  0.2919
 9445SOL     OW39793   1.321   4.696   6.845 -0.0960  0.2016  0.6039
 9445SOL    HW139794   1.325   0.014   6.758 -2.4570 -1.7250 -0.4018
 9445SOL    HW239795   1.407   4.654   6.844 -0.6180 -0.8268 -1.3517
 9446SOL     OW39796   0.174   1.857  16.569 -0.4634 -0.4197 -0.1743
 9446SOL    HW139797   0.251   1.878  16.622 -0.1029  1.8804 -1.5932
 9446SOL    HW239798   0.150   1.769  16.597 -3.1323  0.3970  0.0606
 9447SOL     OW39799   3.717   0.565   4.873 -0.1531 -0.2030 -0.2795
 9447SOL    HW139800   3.697   0.613   4.792 -3.7898 -3.4366 -1.3014
 9447SOL    HW239801   3.812   0.557   4.874 -0.2730 -0.9482  3.2341
 9448SOL     OW39802   3.111   3.490   9.425 -0.1029  0.6402  0.4330
 9448SOL    HW139803   3.061   3.440   9.360  0.5655 -1.2218  1.3620
 9448SOL    HW239804   3.147   3.563   9.374  2.0544 -0.6772  0.0892
 9449SOL     OW39805   2.339   0.647  13.095 -0.4037 -0.5463 -0.4515
 9449SOL    HW139806   2.264   0.683  13.046  1.1240 -0.8944 -3.0093
 9449SOL    HW239807   2.353   0.574  13.035  0.5036  1.0305 -2.1604
 9450SOL     OW39808   3.246   0.477   4.610 -0.7284  0.2874  0.0083
 9450SOL    HW139809   3.318   0.525   4.651  0.0808 -0.8173 -0.1072
 9450SOL    HW239810   3.294   0.432   4.541 -2.0524 -0.1808 -0.6015
 9451SOL     OW39811   4.102   4.503  17.254  0.2304  0.1276  0.4028
 9451SOL    HW139812   4.051   4.426  17.281  2.7115 -1.5786  0.2691
 9451SOL    HW239813   4.112   4.555  17.333  0.9286  0.8938 -0.1958
 9452SOL     OW39814   0.854   4.340   2.088  0.2897 -0.4491 -0.1712
 9452SOL    HW139815   0.920   4.278   2.117  0.8034  1.1555  2.0397
 9452SOL    HW239816   0.907   4.402   2.038  0.9028 -1.1187 -0.3551
 9453SOL     OW39817   1.636   1.053  12.202  0.2069  0.3828 -0.3660
 9453SOL    HW139818   1.717   1.073  12.156  0.6754  1.7353  1.0335
 9453SOL    HW239819   1.659   1.049  12.295  2.6964 -1.0085 -1.0372
 9454SOL     OW39820   1.265   3.433   1.161 -0.2107  0.2083 -0.1619
 9454SOL    HW139821   1.324   3.468   1.227  0.9256 -0.9221 -0.5930
 9454SOL    HW239822   1.315   3.446   1.080 -3.1549  0.2929 -1.9766
 9455SOL     OW39823   0.561   4.504  14.786  0.6141 -0.2472 -0.0576
 9455SOL    HW139824   0.531   4.454  14.710  2.3365 -1.6225  0.1645
 9455SOL    HW239825   0.651   4.501  14.753  0.2916 -3.0958 -0.7478
 9456SOL     OW39826   2.055   3.976   7.000 -0.3054 -0.2208 -0.0912
 9456SOL    HW139827   2.064   4.067   6.974  0.5318 -0.3317 -0.1984
 9456SOL    HW239828   2.092   3.969   7.088 -0.9491  2.7460  0.3919
 9457SOL     OW39829   3.160   4.391   2.386 -0.1785 -0.0131  0.1153
 9457SOL    HW139830   3.143   4.320   2.448 -0.2960 -2.2145 -2.4051
 9457SOL    HW239831   3.099   4.349   2.325  0.7451  0.2753 -1.0075
 9458SOL     OW39832   3.890   0.049   5.946  0.2270 -0.1075 -0.4263
 9458SOL    HW139833   3.941   4.700   5.908  1.3252  0.5191 -0.1022
 9458SOL    HW239834   3.904   0.118   5.881  0.3293  0.3124  0.0442
 9459SOL     OW39835   3.410   1.704   7.437 -0.1791  0.2837  0.7129
 9459SOL    HW139836   3.335   1.682   7.494  0.3341  0.9149  1.6374
 9459SOL    HW239837   3.373   1.783   7.397  0.4660  0.1404 -0.1395
 9460SOL     OW39838   1.922   4.580  10.006  0.1813 -0.0767  0.5144
 9460SOL    HW139839   1.851   4.554   9.948 -1.0826 -1.2244  2.5897
 9460SOL    HW239840   1.937   4.495  10.047 -3.3820 -1.7312 -1.6355
 9461SOL     OW39841   0.923   4.458   6.345 -0.2370 -0.2587 -0.9599
 9461SOL    HW139842   0.832   4.475   6.370 -0.4434 -1.3825 -0.9768
 9461SOL    HW239843   0.966   4.542   6.363 -1.7324  0.5184 -1.0837
 9462SOL     OW39844   2.189   2.086   3.358  0.0815  0.3323 -0.4616
 9462SOL    HW139845   2.210   2.024   3.428  0.6077  0.7639 -0.2334
 9462SOL    HW239846   2.096   2.101   3.373  0.4203 -0.8842  2.8885
 9463SOL     OW39847   3.534   2.790   9.036  0.0873 -0.9404  1.0439
 9463SOL    HW139848   3.439   2.794   9.044  0.0338  0.8819 -0.3941
 9463SOL    HW239849   3.553   2.882   9.019  0.8010 -1.1884  0.4972
 9464SOL     OW39850   0.009   3.674  14.374  0.1992 -0.0277 -0.1662
 9464SOL    HW139851   4.671   3.632  14.313  2.8779 -0.3403 -2.6089
 9464SOL    HW239852   4.682   3.659  14.454  1.4676 -1.3629  0.3713
 9465SOL     OW39853   3.161   4.572   3.829 -0.5693  0.6764 -0.5261
 9465SOL    HW139854   3.167   4.643   3.893 -1.1715 -0.0001  0.2845
 9465SOL    HW239855   3.117   4.509   3.886  0.1128  0.6707 -0.0104
 9466SOL     OW39856   1.215   3.068  11.291 -0.0767  0.1557 -0.0437
 9466SOL    HW139857   1.263   3.149  11.274 -1.1902  0.9000  0.3550
 9466SOL    HW239858   1.157   3.092  11.363 -1.8768 -5.1300  0.2251
 9467SOL     OW39859   4.586   0.246   7.515 -0.2452  0.1133 -0.7934
 9467SOL    HW139860   4.491   0.256   7.508 -0.2900 -0.7365 -1.3852
 9467SOL    HW239861   4.621   0.300   7.444  0.5972  2.2722  1.2417
 9468SOL     OW39862   2.026   4.371   4.727  0.5125  0.1135  0.7594
 9468SOL    HW139863   2.066   4.303   4.673  1.3150  0.8603  0.4002
 9468SOL    HW239864   1.984   4.310   4.787  0.0976 -1.2523 -0.9327
 9469SOL     OW39865   2.248   1.909  12.973  0.3238 -0.3017  0.1034
 9469SOL    HW139866   2.181   1.928  13.038  0.4248 -0.9528  0.3899
 9469SOL    HW239867   2.206   1.834  12.930  0.9325 -1.1282  0.9848
 9470SOL     OW39868   4.042   3.623   1.122 -0.1282 -0.7339  0.0295
 9470SOL    HW139869   4.084   3.540   1.098  1.2165  0.5210 -1.9953
 9470SOL    HW239870   3.953   3.603   1.093  0.1133 -0.0836 -1.1495
 9471SOL     OW39871   1.350   4.177  17.071 -0.0536 -0.0780  0.2896
 9471SOL    HW139872   1.376   4.269  17.077  0.9973 -0.4249  0.9136
 9471SOL    HW239873   1.431   4.131  17.091  0.9367  0.9501 -1.3465
 9472SOL     OW39874   3.708   3.473   9.958 -0.1987 -0.5299 -0.0671
 9472SOL    HW139875   3.676   3.500  10.044  3.2278  2.0359  0.3889
 9472SOL    HW239876   3.749   3.553   9.926  0.1562  0.2423  2.3439
 9473SOL     OW39877   3.182   4.486   0.336  0.0931  0.4344 -0.2524
 9473SOL    HW139878   3.218   4.411   0.288 -1.0279 -0.2624  0.0087
 9473SOL    HW239879   3.258   4.506   0.392 -2.2706 -0.7993  3.4328
 9474SOL     OW39880   3.941   1.198  10.382  0.1290  0.0989  0.0629
 9474SOL    HW139881   3.872   1.140  10.350 -1.4262  0.8075  2.1048
 9474SOL    HW239882   3.983   1.134  10.439 -2.3384 -1.1147  0.5462
 9475SOL     OW39883   1.836   2.776  15.682 -0.0990  0.1255 -0.5900
 9475SOL    HW139884   1.864   2.867  15.673 -0.7265  0.3017 -0.7855
 9475SOL    HW239885   1.756   2.770  15.630 -1.1190  1.3435  0.8142
 9476SOL     OW39886   1.352   0.209  15.558 -0.4519  0.6129 -0.1290
 9476SOL    HW139887   1.294   0.179  15.488 -1.3818  0.1604  0.8405
 9476SOL    HW239888   1.384   0.291  15.520 -1.2788  1.3076  0.6642
 9477SOL     OW39889   2.632   4.514   2.296 -0.2482  0.6937 -0.1636
 9477SOL    HW139890   2.642   4.574   2.222  0.3511  1.4506  0.5266
 9477SOL    HW239891   2.549   4.537   2.338  1.2243 -0.1281  3.2436
 9478SOL     OW39892   1.753   1.868   1.427  0.2865 -0.4090 -0.4209
 9478SOL    HW139893   1.832   1.922   1.424 -0.8811  1.3476  0.4476
 9478SOL    HW239894   1.722   1.882   1.337  0.1751  0.5324 -0.2402
 9479SOL     OW39895   2.933   4.169   9.738 -0.4431 -0.5508 -0.3385
 9479SOL    HW139896   2.935   4.144   9.646  0.9302  1.6576 -0.9157
 9479SOL    HW239897   2.954   4.093   9.793  0.2402  0.6675  1.0930
 9480SOL     OW39898   0.072   1.706   2.890  0.2674 -0.0891  0.0916
 9480SOL    HW139899   0.115   1.639   2.943 -1.1292  2.3866  4.2840
 9480SOL    HW239900   0.154   1.743   2.855 -0.8186  1.6180 -0.6466
 9481SOL     OW39901   0.130   0.150   8.903  0.0560  0.5621  0.3436
 9481SOL    HW139902   0.104   0.081   8.842  1.0520  0.7152 -0.2466
 9481SOL    HW239903   0.046   0.192   8.925  1.4843  3.1193  0.9401
 9482SOL     OW39904   3.014   1.685   7.915 -0.0102 -0.3399  0.0356
 9482SOL    HW139905   3.020   1.695   8.010  0.3183  0.6079 -0.0817
 9482SOL    HW239906   2.939   1.744   7.903 -1.5110 -1.7710  2.4360
 9483SOL     OW39907   0.407   0.975  11.167  0.2533  0.3372 -0.6882
 9483SOL    HW139908   0.395   1.068  11.144  0.3564  0.6440  0.5113
 9483SOL    HW239909   0.485   0.986  11.221 -0.8039  3.0385  0.2754
 9484SOL     OW39910   4.527   3.823   4.596  0.3816  0.0439  0.2786
 9484SOL    HW139911   4.593   3.788   4.536 -0.0657  1.1879 -0.8817
 9484SOL    HW239912   4.457   3.842   4.533  0.4230 -0.5650  0.0496
 9485SOL     OW39913   2.974   3.834   4.241  0.3624  0.3423  0.0914
 9485SOL    HW139914   2.910   3.891   4.284  0.3438  1.3310 -1.2418
 9485SOL    HW239915   2.992   3.786   4.321 -0.7195 -1.7790 -0.9365
 9486SOL     OW39916   3.753   2.009   7.517 -0.1254  0.1578 -0.7097
 9486SOL    HW139917   3.689   1.944   7.546  0.9716  0.2283  1.8594
 9486SOL    HW239918   3.763   2.060   7.597 -0.5987 -0.8373 -0.0159
 9487SOL     OW39919   1.129   2.299  10.120  0.5375  0.2577 -0.5333
 9487SOL    HW139920   1.197   2.241  10.153  0.0336  0.1036  0.2398
 9487SOL    HW239921   1.080   2.323  10.198 -0.8907  0.0282 -1.3477
 9488SOL     OW39922   1.149   3.266  17.224 -0.3676  0.4476 -0.2211
 9488SOL    HW139923   1.243   3.281  17.211 -0.1685  0.0166  0.7417
 9488SOL    HW239924   1.131   3.177  17.193  0.1741  0.2514  0.0411
 9489SOL     OW39925   0.198   1.000   3.929  0.2000 -0.3162 -0.0614
 9489SOL    HW139926   0.172   1.042   3.847 -0.4707 -0.2648  0.1789
 9489SOL    HW239927   0.237   1.074   3.975 -0.6494 -0.7879  1.4174
 9490SOL     OW39928   3.857   0.664   7.204  0.0442 -0.4298 -0.0971
 9490SOL    HW139929   3.918   0.591   7.212  0.7375 -0.0256 -1.7587
 9490SOL    HW239930   3.867   0.700   7.116  0.6218 -1.5896 -0.5024
 9491SOL     OW39931   4.195   3.431   6.903 -0.2730  0.7372  0.4192
 9491SOL    HW139932   4.136   3.504   6.922 -1.3116 -0.2183  0.8484
 9491SOL    HW239933   4.172   3.379   6.980  1.8292  1.0771  1.2781
 9492SOL     OW39934   0.643   4.437   1.789  0.1647  0.0195 -0.3063
 9492SOL    HW139935   0.657   4.530   1.808  2.4829 -0.3051 -0.3260
 9492SOL    HW239936   0.676   4.430   1.700  0.6386  0.3885 -0.1657
 9493SOL     OW39937   4.242   1.315  12.756 -0.3374  0.2299 -0.3083
 9493SOL    HW139938   4.173   1.378  12.737 -0.1220  0.7935  0.7951
 9493SOL    HW239939   4.278   1.351  12.837 -0.3610  2.0530 -1.1210
 9494SOL     OW39940   1.472   0.119  17.361 -0.1297 -0.3387 -0.3292
 9494SOL    HW139941   1.413   0.193  17.352  0.6550  0.1818 -1.2400
 9494SOL    HW239942   1.427   0.063  17.424  0.6577 -0.8653 -0.2392
 9495SOL     OW39943   1.182   2.924   5.806 -0.4784  0.1860 -0.4629
 9495SOL    HW139944   1.168   2.829   5.803  1.3930 -0.0857 -0.9320
 9495SOL    HW239945   1.097   2.950   5.840 -1.1063 -2.6458  0.1949
 9496SOL     OW39946   0.019   3.095   0.797 -0.6007 -0.0716  0.2414
 9496SOL    HW139947   0.050   3.086   0.887  1.1028 -0.2431 -0.3685
 9496SOL    HW239948   4.706   3.183   0.807  2.3657  1.0316  0.7399
 9497SOL     OW39949   0.192   1.864  11.824 -0.3534  0.0748  0.2368
 9497SOL    HW139950   0.198   1.769  11.810  2.8610  0.2792  0.2306
 9497SOL    HW239951   0.110   1.880  11.871  1.3001 -1.1544  3.5022
 9498SOL     OW39952   4.179   1.684   7.123  0.2837  0.1081  0.5209
 9498SOL    HW139953   4.272   1.702   7.139  0.5870 -1.1071  0.0600
 9498SOL    HW239954   4.175   1.661   7.030 -0.0716 -0.4753  0.6823
 9499SOL     OW39955   4.403   0.256  17.111 -0.3813 -0.1436  0.0023
 9499SOL    HW139956   4.476   0.209  17.149 -1.5136 -0.8645  1.2798
 9499SOL    HW239957   4.439   0.344  17.097 -2.4129  0.6720 -0.1848
 9500SOL     OW39958   1.596   3.168   5.595 -0.5322 -0.0286 -0.1310
 9500SOL    HW139959   1.588   3.087   5.645 -1.7622 -1.4158 -2.5491
 9500SOL    HW239960   1.598   3.229   5.669  2.0233  0.8431 -0.9237
 9501SOL     OW39961   1.200   2.962  17.594  0.3209  0.0301 -0.4243
 9501SOL    HW139962   1.240   2.952  17.507  0.7482  1.9055 -0.4538
 9501SOL    HW239963   1.107   2.957  17.573  0.9712 -2.5463 -2.6795
 9502SOL     OW39964   0.847   1.314   2.556  0.2814 -0.1104 -0.5795
 9502SOL    HW139965   0.897   1.352   2.484 -1.6143 -0.3434 -2.0006
 9502SOL    HW239966   0.770   1.283   2.509  1.0456 -0.8330 -1.3551
 9503SOL     OW39967   0.014   0.304  11.874  0.5571 -0.0141 -0.0143
 9503SOL    HW139968   0.066   0.229  11.902  0.5414  0.3000  0.8519
 9503SOL    HW239969   0.016   0.292  11.779  2.7165  0.4554 -0.0212
 9504SOL     OW39970   0.595   0.413   6.891 -0.3265 -0.4022  0.8244
 9504SOL    HW139971   0.499   0.414   6.895 -0.3537  1.6889 -0.0173
 9504SOL    HW239972   0.616   0.487   6.948  1.1452  0.1989 -0.4998
 9505SOL     OW39973   3.816   1.820   5.097  0.1393 -0.4906  0.2511
 9505SOL    HW139974   3.871   1.871   5.036 -0.1894 -0.8626 -0.3557
 9505SOL    HW239975   3.877   1.762   5.143  0.2178 -0.0146  0.7443
 9506SOL     OW39976   0.600   0.532   6.307 -0.4298  0.3055  0.0740
 9506SOL    HW139977   0.544   0.610   6.307  0.3574  0.8539  1.3647
 9506SOL    HW239978   0.631   0.544   6.217  0.0556 -2.7679 -0.1570
 9507SOL     OW39979   0.103   4.040   7.944 -0.1206 -0.2778  0.3838
 9507SOL    HW139980   0.011   4.026   7.968  0.3717 -3.2163  0.5897
 9507SOL    HW239981   0.090   4.113   7.884 -0.0742  0.9353  1.8360
 9508SOL     OW39982   3.692   4.021   5.092  0.3599  0.4009 -0.0978
 9508SOL    HW139983   3.772   4.006   5.042 -0.6581  1.4750 -2.0640
 9508SOL    HW239984   3.646   3.938   5.104 -0.6756  1.1444  1.0313
 9509SOL     OW39985   0.169   3.171   1.055  0.3637 -0.3104 -0.1901
 9509SOL    HW139986   0.191   3.200   1.143  1.7722 -0.7594 -0.3986
 9509SOL    HW239987   0.200   3.232   0.987 -0.5572  0.3620 -0.0030
 9510SOL     OW39988   2.485   2.215   7.352  0.1190 -0.1706 -0.0252
 9510SOL    HW139989   2.470   2.186   7.262  1.0177 -0.8733  0.0503
 9510SOL    HW239990   2.392   2.233   7.369  0.7220  2.7120  0.2225
 9511SOL     OW39991   3.799   2.720   4.726  0.4498 -0.6477 -0.1418
 9511SOL    HW139992   3.724   2.661   4.723 -0.4530  0.5646 -1.7032
 9511SOL    HW239993   3.851   2.701   4.648 -0.9004 -1.3916 -0.8562
 9512SOL     OW39994   2.047   2.830   8.512 -0.7994 -0.0729 -0.0781
 9512SOL    HW139995   1.995   2.753   8.533  0.1254 -0.8293 -0.5923
 9512SOL    HW239996   2.003   2.898   8.564  0.1264  1.2799 -1.0518
 9513SOL     OW39997   3.115   2.043   8.215  0.3746 -0.1561 -0.2626
 9513SOL    HW139998   3.047   2.094   8.172  1.4591  0.5913 -1.0776
 9513SOL    HW239999   3.073   2.021   8.298  0.6861  0.3710  0.0295
 9514SOL     OW40000   1.255   3.818   4.816  0.1031 -0.1721 -0.3779
 9514SOL    HW140001   1.219   3.746   4.866  0.2028  1.1356  1.5863
 9514SOL    HW240002   1.182   3.839   4.758 -0.7623 -0.1178  0.7268
 9515SOL     OW40003   0.836   4.633   6.858 -0.3529  0.0442 -0.1051
 9515SOL    HW140004   0.909   4.604   6.803 -0.8799 -0.6571 -0.4430
 9515SOL    HW240005   0.880   4.717   6.867 -0.4724  0.0228  0.6710
 9516SOL     OW40006   0.204   2.229   5.854 -0.0195  0.1738 -0.4136
 9516SOL    HW140007   0.162   2.237   5.769  0.0374  2.9237 -0.1880
 9516SOL    HW240008   0.276   2.171   5.829  0.8861  1.1290  0.0170
 9517SOL     OW40009   2.790   0.067   4.047  0.1420 -0.0385  0.1783
 9517SOL    HW140010   2.765   0.063   4.139  1.6809 -0.3348  0.5834
 9517SOL    HW240011   2.711   0.109   4.013 -0.3560 -0.1736  1.1628
 9518SOL     OW40012   0.184   0.800   8.818  0.1626 -0.0728  0.0078
 9518SOL    HW140013   0.264   0.766   8.777  0.4241  0.3033  0.2058
 9518SOL    HW240014   0.177   0.734   8.886  2.3508  2.9466  3.1345
 9519SOL     OW40015   4.722   3.185  16.846  0.3185  0.1629 -0.2110
 9519SOL    HW140016   0.009   3.269  16.801 -2.8339  0.7411  0.1775
 9519SOL    HW240017   4.627   3.189  16.858 -0.0581 -1.8774 -2.4336
 9520SOL     OW40018   4.031   0.717  15.663 -0.5702 -0.3240 -0.2339
 9520SOL    HW140019   4.017   0.787  15.727 -1.7634 -2.5283  1.8837
 9520SOL    HW240020   4.002   0.764  15.585 -0.6784  2.0342  1.2265
 9521SOL     OW40021   3.116   2.313  17.492  0.4612 -1.4735  0.2599
 9521SOL    HW140022   3.157   2.399  17.499  2.7174 -2.4965 -0.0591
 9521SOL    HW240023   3.186   2.247  17.499  0.1523 -1.7945  0.3108
 9522SOL     OW40024   3.454   3.447   3.847  0.7861 -0.0901 -0.0843
 9522SOL    HW140025   3.395   3.489   3.783  0.8764 -0.0933 -0.1702
 9522SOL    HW240026   3.476   3.525   3.898  1.2291 -0.8536  0.8881
 9523SOL     OW40027   2.890   1.124  14.529  0.3146  0.1929  0.2102
 9523SOL    HW140028   2.808   1.164  14.555 -1.0018 -1.1098 -1.9254
 9523SOL    HW240029   2.857   1.069  14.458  0.3837  0.8509 -0.3293
 9524SOL     OW40030   2.459   3.593   8.249 -0.2309  0.3017 -0.2138
 9524SOL    HW140031   2.550   3.618   8.267 -0.2051  2.3464 -3.2150
 9524SOL    HW240032   2.466   3.557   8.161 -0.6601 -0.4816  0.0732
 9525SOL     OW40033   0.491   2.514   4.397 -0.2902 -0.2786 -0.1485
 9525SOL    HW140034   0.536   2.435   4.369 -1.2142 -1.4278  1.6054
 9525SOL    HW240035   0.558   2.581   4.380  0.5045 -1.2725 -0.9462
 9526SOL     OW40036   3.710   4.100   2.048  0.6339 -0.5234  0.4548
 9526SOL    HW140037   3.645   4.160   2.010  2.0879  0.7803  0.0612
 9526SOL    HW240038   3.722   4.147   2.131 -0.6805  0.7947 -0.1016
 9527SOL     OW40039   3.297   3.208   0.267  0.1076 -0.4234  0.4841
 9527SOL    HW140040   3.219   3.175   0.311 -0.3440 -2.7905 -2.1295
 9527SOL    HW240041   3.361   3.162   0.321  0.3094  0.6209  1.1476
 9528SOL     OW40042   3.880   3.514   7.965  0.1841  1.1758 -0.0781
 9528SOL    HW140043   3.824   3.549   7.896 -0.0331  1.8312  0.4271
 9528SOL    HW240044   3.952   3.470   7.920 -0.3209 -2.4548  2.6769
 9529SOL     OW40045   4.691   2.198   4.190 -0.3521 -0.1128  0.4597
 9529SOL    HW140046   0.041   2.209   4.127  1.6989 -0.1623  2.8175
 9529SOL    HW240047   4.617   2.197   4.129  0.9745  2.3632 -1.1950
 9530SOL     OW40048   0.065   2.701   0.882 -0.0250  0.5565 -0.3341
 9530SOL    HW140049   4.710   2.732   0.834 -1.6003 -1.6207  0.8139
 9530SOL    HW240050   0.127   2.774   0.873  0.0125  1.1401  4.3355
 9531SOL     OW40051   3.925   0.881   3.052 -0.4739  0.0073  0.3438
 9531SOL    HW140052   3.987   0.848   3.117  0.1629  0.6631  0.0733
 9531SOL    HW240053   3.909   0.796   3.011  1.4325 -1.1944  2.0881
 9532SOL     OW40054   1.835   4.361   2.756  0.6454 -0.3548  0.2652
 9532SOL    HW140055   1.815   4.275   2.794 -0.6732  1.4506  3.6807
 9532SOL    HW240056   1.790   4.414   2.822  2.3492  1.6509 -0.1670
 9533SOL     OW40057   3.082   4.307   1.682  0.1597 -0.0837 -0.2234
 9533SOL    HW140058   3.008   4.284   1.625 -0.8160  0.9933  0.6066
 9533SOL    HW240059   3.050   4.270   1.764 -0.6658  0.1142 -0.4535
 9534SOL     OW40060   2.697   0.449   7.867 -0.0334 -0.2103  0.0053
 9534SOL    HW140061   2.641   0.374   7.888 -0.4359 -0.0007 -0.3250
 9534SOL    HW240062   2.736   0.455   7.954 -3.6663 -1.9720  1.7439
 9535SOL     OW40063   2.544   4.073   6.441 -0.3283  0.1968  0.7511
 9535SOL    HW140064   2.569   3.981   6.451  1.9851  0.5664 -1.6797
 9535SOL    HW240065   2.545   4.093   6.535 -1.6558  1.2374  0.5460
 9536SOL     OW40066   3.091   0.728   4.131  0.2027 -0.0083 -0.4131
 9536SOL    HW140067   3.059   0.805   4.084 -0.8233  0.1369  0.5294
 9536SOL    HW240068   3.088   0.656   4.067 -0.3408 -1.2723  1.0504
 9537SOL     OW40069   2.886   1.041   3.644  0.8601  0.1021  0.1270
 9537SOL    HW140070   2.868   1.005   3.557  2.0757  1.3563 -0.6331
 9537SOL    HW240071   2.927   0.967   3.689 -1.2916 -1.8309 -1.1002
 9538SOL     OW40072   4.208   4.604   9.066  0.6977 -0.6450 -1.1500
 9538SOL    HW140073   4.135   4.626   9.124  1.2943 -0.8568 -0.3247
 9538SOL    HW240074   4.170   4.565   8.988 -0.4936  0.4654 -1.1230
 9539SOL     OW40075   1.963   0.652   9.458 -0.1142  0.5036  0.7899
 9539SOL    HW140076   1.923   0.629   9.542 -2.0219 -0.9041 -0.4977
 9539SOL    HW240077   1.961   0.561   9.429 -1.1602  0.1338  2.0247
 9540SOL     OW40078   2.217   4.324   1.551 -0.0046 -0.3333 -0.4202
 9540SOL    HW140079   2.150   4.307   1.484  1.0753 -1.0863 -1.3129
 9540SOL    HW240080   2.253   4.410   1.528 -0.7217  0.2497  0.6360
 9541SOL     OW40081   4.107   3.062  16.759 -0.3230  0.2775  0.2209
 9541SOL    HW140082   4.137   3.049  16.669  0.2044 -0.1673  0.4630
 9541SOL    HW240083   4.161   3.133  16.794  0.2125  0.6382 -1.3337
 9542SOL     OW40084   3.133   0.543   6.726 -0.2482  0.2731  0.7982
 9542SOL    HW140085   3.140   0.570   6.817 -1.1645 -2.0677  1.5591
 9542SOL    HW240086   3.208   0.490   6.699 -0.4743  1.0383 -1.3813
 9543SOL     OW40087   3.376   2.068   8.150 -0.0380  0.4904 -0.1604
 9543SOL    HW140088   3.286   2.059   8.179  0.1087 -0.1064  0.1278
 9543SOL    HW240089   3.381   2.159   8.123  0.1088  1.2875  2.5469
 9544SOL     OW40090   4.057   4.456   7.965  0.4591  0.2868  0.1073
 9544SOL    HW140091   4.042   4.381   7.908  0.3473  1.9833 -2.1022
 9544SOL    HW240092   4.009   4.529   7.925  1.1877 -0.1050 -1.5091
 9545SOL     OW40093   0.741   3.753  12.104 -0.2448 -0.0570  0.1807
 9545SOL    HW140094   0.756   3.730  12.195  0.6226 -2.8467 -0.6361
 9545SOL    HW240095   0.818   3.719  12.058 -0.3159 -1.0955  0.8149
 9546SOL     OW40096   4.120   1.131   4.949  0.3065  0.3749 -0.5891
 9546SOL    HW140097   4.155   1.051   4.909  1.1694  0.9140 -0.9156
 9546SOL    HW240098   4.084   1.096   5.030 -1.9767  3.3544 -0.3308
 9547SOL     OW40099   0.475   3.070   0.226  0.3081  0.2243 -0.0664
 9547SOL    HW140100   0.526   3.016   0.286 -1.1793 -0.4526  0.5649
 9547SOL    HW240101   0.424   3.106   0.297  0.5976  0.6953 -0.0980
 9548SOL     OW40102   0.107   0.838  11.113  0.5415 -0.3405 -0.0024
 9548SOL    HW140103   0.030   0.792  11.147 -0.0877  1.0650  0.4817
 9548SOL    HW240104   0.073   0.878  11.033 -2.2122  0.4117  1.5152
 9549SOL     OW40105   4.582   0.363   7.270 -0.0416 -0.0446  0.3101
 9549SOL    HW140106   4.617   0.369   7.181 -1.5820  2.4297 -0.1183
 9549SOL    HW240107   4.489   0.341   7.259 -0.8338  2.8745  1.4497
 9550SOL     OW40108   1.523   0.446   3.327  0.0186  0.3780  0.7454
 9550SOL    HW140109   1.598   0.475   3.276 -0.3776  0.9215  0.4754
 9550SOL    HW240110   1.565   0.371   3.369  1.3897  1.1793  0.7702
 9551SOL     OW40111   2.182   2.088  15.905  0.0326 -0.3242 -0.0053
 9551SOL    HW140112   2.182   2.140  15.985  1.2620  2.1357 -1.6123
 9551SOL    HW240113   2.141   2.142  15.838  0.2571 -1.7005 -1.2572
 9552SOL     OW40114   4.329   2.724   1.722  0.5257 -0.0002 -0.2032
 9552SOL    HW140115   4.404   2.755   1.672  0.4904 -0.0241 -0.2718
 9552SOL    HW240116   4.320   2.791   1.789 -0.6111 -2.2566  1.9087
 9553SOL     OW40117   3.798   0.899   2.483 -0.3424  0.1518  0.7401
 9553SOL    HW140118   3.850   0.821   2.501 -1.9347 -1.1040 -0.0451
 9553SOL    HW240119   3.831   0.919   2.395 -0.2477 -3.5705 -0.0987
 9554SOL     OW40120   3.459   3.288   6.594 -0.0092  0.5645  0.1928
 9554SOL    HW140121   3.481   3.302   6.687 -2.7091 -2.0335  1.2181
 9554SOL    HW240122   3.449   3.193   6.592 -1.5218  0.7660 -1.1212
 9555SOL     OW40123   2.342   4.178   4.298  0.4366 -0.2792  0.2351
 9555SOL    HW140124   2.410   4.159   4.233  0.7762  0.2157  0.4452
 9555SOL    HW240125   2.272   4.227   4.255 -0.1535  0.2568  1.7992
 9556SOL     OW40126   2.453   4.131   2.701  0.1964 -0.2717 -0.4353
 9556SOL    HW140127   2.484   4.210   2.746  0.9763 -1.3419  0.9112
 9556SOL    HW240128   2.432   4.159   2.613 -2.0815  0.4915  0.3476
 9557SOL     OW40129   0.996   2.878   3.312 -0.3533 -0.1205  0.2391
 9557SOL    HW140130   0.917   2.826   3.326  1.7295 -3.4697 -0.2919
 9557SOL    HW240131   1.070   2.820   3.330  0.6795  0.0159 -3.6591
 9558SOL     OW40132   2.613   3.255   6.948 -0.7768 -0.0754 -0.5616
 9558SOL    HW140133   2.537   3.240   7.004  0.1881  2.6959  1.5080
 9558SOL    HW240134   2.572   3.318   6.889 -0.2145 -2.6063 -3.6889
 9559SOL     OW40135   0.094   1.251   6.826 -0.1445 -0.7850 -0.6663
 9559SOL    HW140136   0.189   1.263   6.821 -0.6095  1.8916 -2.7395
 9559SOL    HW240137   0.066   1.339   6.803  2.7219  0.2689 -0.1742
 9560SOL     OW40138   2.685   2.449   8.728  0.5238 -0.2642 -0.1237
 9560SOL    HW140139   2.755   2.505   8.761 -2.0036  0.8246  3.3558
 9560SOL    HW240140   2.609   2.484   8.774 -0.9962 -1.2479 -1.8676
 9561SOL     OW40141   0.519   3.928   2.100  0.3355  0.1932 -0.0903
 9561SOL    HW140142   0.476   3.973   2.174 -1.2422 -0.3825 -0.6692
 9561SOL    HW240143   0.466   3.849   2.093  0.5892  0.1833 -1.9044
 9562SOL     OW40144   3.635   0.931   1.721  0.1106 -0.3935 -0.6600
 9562SOL    HW140145   3.668   0.886   1.799 -0.4823 -0.9095 -0.7071
 9562SOL    HW240146   3.688   0.900   1.647 -1.5920 -0.9867 -1.6166
 9563SOL     OW40147   0.293   1.089  14.038  1.1387 -0.3004 -0.3507
 9563SOL    HW140148   0.297   1.079  13.943  1.3214  0.0945 -0.3847
 9563SOL    HW240149   0.208   1.049  14.058  1.1688 -1.1009 -1.8488
 9564SOL     OW40150   0.411   4.391   6.282  0.0075  0.3870  0.2051
 9564SOL    HW140151   0.391   4.298   6.286 -1.7449  0.7670  0.3272
 9564SOL    HW240152   0.432   4.416   6.372  0.7606 -0.0856  0.1639
 9565SOL     OW40153   2.651   1.629   7.261  0.1101 -0.0265 -0.0780
 9565SOL    HW140154   2.696   1.685   7.198 -0.0572 -0.4169 -0.5436
 9565SOL    HW240155   2.661   1.542   7.224  1.5011  0.2108 -0.2410
   4.72221   4.72221  17.69096
