Membrane in water
40155
    1TCq1    O1    1   3.820   3.478  11.049 -0.1097 -0.6342  0.5509
    1TCq1    C1    2   3.853   3.380  11.134 -0.0439  0.1830 -0.2661
    1TCq1    O2    3   3.913   3.276  11.108 -0.1079 -0.3435 -0.9243
    1TCq1    C2    4   3.776   3.390  11.246 -0.3535 -0.5224 -0.2124
    1TCq1    C3    5   3.789   3.502  11.323 -0.4570  1.3346  0.0510
    1TCq1    C4    6   3.689   3.532  11.404 -0.1703 -0.0687  0.3650
    1TCq1    C5    7   3.575   3.463  11.419 -0.2972  0.8111 -0.1439
    1TCq1    C6    8   3.565   3.349  11.342 -0.5897 -0.1558 -0.2788
    1TCq1    C7    9   3.667   3.313  11.251  0.1405 -0.0023 -0.2539
    1TCq1    C8   10   3.446   3.270  11.345 -0.2608  0.1707  0.1264
    1TCq1    O4   11   3.334   3.309  11.369 -0.0746 -0.0482  0.0060
    1TCq1    C9   12   3.709   3.655  11.478 -0.4364  0.6363 -0.4752
    1TCq1    O5   13   3.619   3.686  11.560 -0.1259 -0.0839  0.0841
    1TCq1    O6   14   3.806   3.724  11.443  0.1659 -0.3995  0.5359
    1TCq1    H1   15   3.774   3.549  11.098 -3.6487 -4.0926  2.3242
    1TCq1    H2   16   3.878   3.564  11.313  0.2658  0.8697  3.4423
    1TCq1    H3   17   3.504   3.504  11.490 -1.5812 -0.3018 -0.7809
    1TCq1    H4   18   3.659   3.226  11.188  3.7551 -0.2041 -0.4599
    2MPD2     C   19   3.243   2.800  11.379  0.4023  0.0707 -0.9510
    2MPD2    C1   20   3.184   2.922  11.372 -0.3548 -0.4356 -0.3464
    2MPD2    C2   21   3.268   3.032  11.374  0.3085  0.2876  0.0244
    2MPD2    C3   22   3.401   3.026  11.362 -0.3610 -0.3497  0.1871
    2MPD2    C4   23   3.461   2.904  11.348 -0.4725 -0.2367  0.1777
    2MPD2    C5   24   3.384   2.788  11.371  0.1382  0.4762  0.1531
    2MPD2     H   25   3.222   3.125  11.405  0.2463  0.7538 -1.4432
    2MPD2    H1   26   3.569   2.898  11.339 -0.4703  2.1623 -1.3231
    2MPD2    H2   27   3.191   2.709  11.405 -0.4616  1.3834  1.8900
    2MPD2    H3   28   3.432   2.691  11.373  1.4132  1.1363  1.5918
    2MPD2     N   29   3.487   3.141  11.358  0.4868  0.5498  0.2611
    2MPD2    H5   30   3.587   3.124  11.357  0.1757 -1.3374  1.9503
    2MPD2    N1   31   3.047   2.949  11.399  0.0507  0.4929  0.3055
    2MPD2    H7   32   3.023   3.046  11.384  3.4419  0.8099 -2.8866
    3TCq1    O1   33   2.191   3.727  10.274 -0.0027  0.3513 -0.1567
    3TCq1    C1   34   2.193   3.678  10.399  0.5111 -0.5986  0.2069
    3TCq1    O2   35   2.132   3.577  10.422  0.2424  0.3381 -0.2278
    3TCq1    C2   36   2.194   3.796  10.488 -0.5791  0.0549  0.4653
    3TCq1    C3   37   2.280   3.896  10.453 -0.0310 -0.1548  0.1559
    3TCq1    C4   38   2.254   4.019  10.505 -0.1806  0.0702 -0.1747
    3TCq1    C5   39   2.148   4.046  10.589 -0.3830 -0.0356 -0.7168
    3TCq1    C6   40   2.074   3.937  10.629  0.2762 -0.1694  0.4029
    3TCq1    C7   41   2.096   3.816  10.578  0.7203  0.5504  0.3400
    3TCq1    C8   42   1.966   3.943  10.726  0.0444  1.0475  0.1179
    3TCq1    O4   43   1.896   3.849  10.749  0.6902  0.1869  0.4725
    3TCq1    C9   44   2.339   4.131  10.469  0.3322  0.2810 -0.4986
    3TCq1    O5   45   2.316   4.243  10.512 -0.1848  0.2860 -0.1132
    3TCq1    O6   46   2.432   4.102  10.387 -0.0547  0.3403 -0.2645
    3TCq1    H1   47   2.224   3.817  10.253  0.4371  1.0605  3.5247
    3TCq1    H2   48   2.349   3.872  10.374  0.5592  0.3922  0.5040
    3TCq1    H3   49   2.124   4.148  10.619 -0.9221 -0.6392  0.9589
    3TCq1    H4   50   2.030   3.732  10.597  1.3713 -0.5584 -2.4371
    4MPD2     C   51   1.665   4.248  11.015  0.3394 -0.0160  0.0733
    4MPD2    C1   52   1.742   4.321  10.932  0.0443 -1.0353  0.5493
    4MPD2    C2   53   1.840   4.258  10.860 -0.6311  0.2027 -0.2681
    4MPD2    C3   54   1.852   4.121  10.856  0.0542  0.3465 -0.2094
    4MPD2    C4   55   1.763   4.046  10.933 -0.4716 -0.0262 -0.0377
    4MPD2    C5   56   1.680   4.111  11.019  0.3907 -0.4149  0.3651
    4MPD2     H   57   1.906   4.326  10.806  0.2968  1.4462  2.4301
    4MPD2    H1   58   1.744   3.941  10.916  1.3322 -0.2778 -0.5560
    4MPD2    H2   59   1.596   4.290  11.087  0.0815 -0.4114  0.0606
    4MPD2    H3   60   1.617   4.059  11.090 -2.0546  2.6529  0.4449
    4MPD2     N   61   1.949   4.072  10.771 -0.6258  0.3754  0.4873
    4MPD2    H5   62   2.016   4.134  10.726 -2.3156  2.4201  0.7868
    4MPD2    N1   63   1.720   4.461  10.913 -0.6550 -0.5213  0.0028
    4MPD2    H7   64   1.792   4.511  10.863 -2.4485  0.4172 -1.6397
    5TCq1    O1   65   2.566   0.714  12.043  0.6380 -0.4344  0.0217
    5TCq1    C1   66   2.443   0.657  12.062 -0.2009  0.6619 -0.7213
    5TCq1    O2   67   2.381   0.665  12.167 -0.2253 -0.7835  0.2093
    5TCq1    C2   68   2.406   0.558  11.953 -0.1289 -0.2230  0.5009
    5TCq1    C3   69   2.316   0.465  11.994  0.2443  0.2659 -0.2760
    5TCq1    C4   70   2.285   0.367  11.901  0.1877  0.5079  0.4601
    5TCq1    C5   71   2.330   0.375  11.769 -0.0396  0.8007 -0.1980
    5TCq1    C6   72   2.408   0.482  11.733 -0.0779 -0.3382  0.3504
    5TCq1    C7   73   2.454   0.574  11.824  0.2589 -0.4784  0.4947
    5TCq1    C8   74   2.396   0.535  11.600  0.5307 -0.0290  0.3048
    5TCq1    O4   75   2.463   0.628  11.563  1.1366 -0.5015 -0.2248
    5TCq1    C9   76   2.226   0.240  11.948  0.2966 -0.4079 -0.9098
    5TCq1    O5   77   2.246   0.140  11.878 -0.2726  0.1885  0.0307
    5TCq1    O6   78   2.217   0.240  12.071  0.3915  0.4215  0.8343
    5TCq1    H1   79   2.618   0.687  11.964 -0.8565  1.0884 -1.4633
    5TCq1    H2   80   2.299   0.450  12.100  0.8031  1.1493 -0.0608
    5TCq1    H3   81   2.331   0.293  11.698  0.5564  0.9807 -0.3929
    5TCq1    H4   82   2.516   0.659  11.797 -0.1369 -0.0347  0.9816
    6MPD2     C   83   2.091   0.545  11.416  0.3391  0.4866  0.0741
    6MPD2    C1   84   2.228   0.557  11.428 -0.4520 -0.1744  0.1095
    6MPD2    C2   85   2.306   0.614  11.332  0.2710 -0.3818 -0.2109
    6MPD2    C3   86   2.247   0.655  11.218  0.1285  0.4568 -0.8375
    6MPD2    C4   87   2.113   0.636  11.204  0.7927  0.0477 -0.5337
    6MPD2    C5   88   2.029   0.583  11.301  0.5720  0.4217  0.6770
    6MPD2     H   89   2.412   0.632  11.347 -0.1546 -0.7687  3.2700
    6MPD2    H1   90   2.056   0.666  11.117 -1.1333  0.7681  0.9492
    6MPD2    H2   91   2.029   0.512  11.498  1.1184 -0.0468  0.4541
    6MPD2    H3   92   1.922   0.574  11.286  0.5419  4.1625 -1.3154
    6MPD2     N   93   2.321   0.726  11.122 -0.3480  0.5171  0.4424
    6MPD2    H5   94   2.417   0.754  11.137  0.2135 -0.4549 -1.4799
    6MPD2    N1   95   2.273   0.511  11.558 -0.8130 -0.3774  0.2716
    6MPD2    H7   96   2.204   0.465  11.617 -0.1345 -1.5353  0.1694
    7TCq1    O1   97   4.467   1.275  13.274 -0.4922  0.2093 -0.0290
    7TCq1    C1   98   4.585   1.270  13.207 -0.0149  0.6502  0.1435
    7TCq1    O2   99   4.605   1.207  13.102 -0.2778  0.4255 -0.2855
    7TCq1    C2  100   4.676   1.268  13.312 -0.7725  0.5894  0.6339
    7TCq1    C3  101   4.666   1.361  13.413 -0.1926  0.1789 -0.4061
    7TCq1    C4  102   0.008   1.340  13.534  0.0632 -0.0108  0.7505
    7TCq1    C5  103   0.085   1.237  13.558  0.0603 -0.2145  0.2936
    7TCq1    C6  104   0.089   1.142  13.450 -0.2099  0.1195 -0.2014
    7TCq1    C7  105   0.032   1.159  13.329  0.1223 -0.8234 -0.0791
    7TCq1    C8  106   0.132   1.010  13.475  0.9829 -0.5147  0.3032
    7TCq1    O4  107   0.098   0.918  13.406  0.2996 -0.2778  0.4811
    7TCq1    C9  108   4.718   1.440  13.638 -0.1419  0.9616 -0.5338
    7TCq1    O5  109   0.061   1.430  13.744  0.5779 -1.1369  0.4420
    7TCq1    O6  110   4.599   1.492  13.635  0.4799 -0.2995 -0.2750
    7TCq1    H1  111   4.480   1.303  13.367  1.8701 -0.3857 -0.1830
    7TCq1    H2  112   4.604   1.450  13.415  0.9432  1.0291 -3.0644
    7TCq1    H3  113   0.103   1.212  13.661 -0.4639  0.5057  0.5578
    7TCq1    H4  114   0.046   1.087  13.249  0.5481  0.6797 -1.3600
    8MPD2     C  115   0.445   0.676  13.721 -0.8751 -0.0359  0.3905
    8MPD2    C1  116   0.332   0.661  13.646  0.0799 -0.5338  0.2128
    8MPD2    C2  117   0.266   0.772  13.598 -0.2633  0.1950 -0.3998
    8MPD2    C3  118   0.302   0.905  13.635 -0.2533  0.2893 -0.0370
    8MPD2    C4  119   0.409   0.910  13.719 -0.4389  0.5888  0.1560
    8MPD2    C5  120   0.476   0.803  13.762 -0.1972 -0.0847 -0.1122
    8MPD2     H  121   0.188   0.747  13.527 -0.0923  2.9473 -1.5554
    8MPD2    H1  122   0.437   1.007  13.757 -2.2564 -0.3787  3.9702
    8MPD2    H2  123   0.510   0.594  13.750 -0.7900 -0.8113 -1.9770
    8MPD2    H3  124   0.566   0.810  13.821  0.1789 -1.1147 -0.5706
    8MPD2     N  125   0.230   1.018  13.578 -0.4722 -0.0216  0.0779
    8MPD2    H5  126   0.256   1.113  13.603  1.9350 -0.8498  0.7164
    8MPD2    N1  127   0.293   0.529  13.626  0.1407  0.3225  0.1565
    8MPD2    H7  128   0.359   0.463  13.665 -1.2634  0.4497  2.7655
    9TCq1    O1  129   3.781   4.312  10.612 -0.3335 -0.2146  0.6260
    9TCq1    C1  130   3.688   4.321  10.710  0.4034  0.1186 -0.5552
    9TCq1    O2  131   3.620   4.232  10.758  0.1217 -0.3661 -0.7444
    9TCq1    C2  132   3.650   4.467  10.714  0.2306 -0.1393  0.2933
    9TCq1    C3  133   3.738   4.567  10.717  0.1629  0.0952  0.5188
    9TCq1    C4  134   3.699   4.697  10.717 -0.1697  0.8910 -0.6993
    9TCq1    C5  135   3.564   0.003  10.719  1.0176  0.0943  0.0010
    9TCq1    C6  136   3.483   4.623  10.716 -0.2867 -0.0250  0.0157
    9TCq1    C7  137   3.520   4.494  10.714  0.1275  0.4170 -0.4431
    9TCq1    C8  138   3.342   4.657  10.750  0.3563 -0.8071 -0.7279
    9TCq1    O4  139   3.302   0.046  10.716 -0.2077 -0.4321 -0.2413
    9TCq1    C9  140   3.797   0.082  10.722 -0.3606  0.8218 -0.2200
    9TCq1    O5  141   3.752   0.192  10.763  0.4882  0.0216 -0.1196
    9TCq1    O6  142   3.922   0.059  10.722 -0.4249 -0.5814 -0.4857
    9TCq1    H1  143   3.813   4.399  10.579  3.0449 -2.5574 -2.2651
    9TCq1    H2  144   3.844   4.547  10.719  0.3634  1.0016 -0.5486
    9TCq1    H3  145   3.523   0.103  10.723 -3.1683 -1.5980 -0.8125
    9TCq1    H4  146   3.447   4.415  10.733  1.0757 -0.3690 -0.0364
   10MPD2     C  147   3.053   4.656  10.834  0.4404  0.3302  0.3738
   10MPD2    C1  148   3.146   4.557  10.873  0.3425  0.3090 -0.7158
   10MPD2    C2  149   3.110   4.454  10.952 -0.3117 -0.6440 -0.1994
   10MPD2    C3  150   2.978   4.441  11.004  0.1644 -0.3674 -0.0689
   10MPD2    C4  151   2.891   4.542  10.983  0.2789 -0.5006 -0.2274
   10MPD2    C5  152   2.933   4.645  10.898  0.3571  0.3062 -0.2784
   10MPD2     H  153   3.189   4.384  10.978  0.4961 -0.2444 -1.6154
   10MPD2    H1  154   2.791   4.540  11.025 -0.0016  0.8187 -0.8432
   10MPD2    H2  155   3.074   0.015  10.766  2.2067  0.7362  1.3886
   10MPD2    H3  156   2.855   4.720  10.892  0.6637  0.6330 -0.1810
   10MPD2     N  157   2.940   4.339  11.100  0.1758  0.2602  0.0854
   10MPD2    H5  158   2.842   4.321  11.117  0.0818  1.0380  0.3852
   10MPD2    N1  159   3.279   4.556  10.822  0.1673  0.3081  0.7817
   10MPD2    H7  160   3.347   4.489  10.855 -0.8821 -1.1320 -0.0069
   11TCq1    O1  161   3.796   4.348  14.216 -0.4335 -0.5194 -0.6200
   11TCq1    C1  162   3.771   4.219  14.212  0.4135  0.3510 -0.4754
   11TCq1    O2  163   3.777   4.143  14.119  0.7245  0.2224 -0.1222
   11TCq1    C2  164   3.764   4.177  14.350  0.6397 -0.1617  0.6768
   11TCq1    C3  165   3.850   4.244  14.437  0.0379 -0.3256 -0.0801
   11TCq1    C4  166   3.818   4.230  14.568  0.4831  0.3320  0.2045
   11TCq1    C5  167   3.725   4.144  14.614 -0.4484 -0.4931 -0.4005
   11TCq1    C6  168   3.652   4.068  14.523 -0.7493 -0.6837  0.1967
   11TCq1    C7  169   3.673   4.082  14.389  1.0237  0.1110  0.0869
   11TCq1    C8  170   3.541   3.983  14.559  0.5768 -1.0068 -0.1854
   11TCq1    O4  171   3.527   3.969  14.678 -0.4852 -0.0573  0.2452
   11TCq1    C9  172   3.885   4.309  14.666 -0.1608  0.0224  0.1935
   11TCq1    O5  173   3.942   4.412  14.624 -0.0834  0.4956 -0.6377
   11TCq1    O6  174   3.891   4.271  14.786  0.1997 -0.5328 -0.1331
   11TCq1    H1  175   3.763   4.376  14.304  3.5246 -0.4057  0.8413
   11TCq1    H2  176   3.929   4.301  14.390  1.2306 -0.4268  1.8207
   11TCq1    H3  177   3.702   4.144  14.720 -2.2530  1.5159 -0.8031
   11TCq1    H4  178   3.609   4.047  14.308  1.9723 -0.9652 -0.1995
   12MPD2     C  179   3.338   3.771  14.594  0.5025 -0.3365 -0.6885
   12MPD2    C1  180   3.404   3.791  14.472 -0.4621  0.0505  0.0691
   12MPD2    C2  181   3.381   3.715  14.361  0.1303  0.6204 -0.4067
   12MPD2    C3  182   3.285   3.614  14.370 -0.0872 -0.2567 -0.6845
   12MPD2    C4  183   3.207   3.599  14.486 -0.0335 -0.6546 -0.3350
   12MPD2    C5  184   3.246   3.666  14.602  0.0389 -0.3502 -0.5232
   12MPD2     H  185   3.429   3.731  14.266  0.8980 -0.3389 -0.1804
   12MPD2    H1  186   3.133   3.520  14.492  1.9129 -2.5063 -1.0612
   12MPD2    H2  187   3.351   3.830  14.684  1.0421 -3.4763  1.2903
   12MPD2    H3  188   3.206   3.656  14.702 -0.4354  1.2078 -0.5432
   12MPD2     N  189   3.264   3.520  14.265  0.4345 -0.0497 -0.4103
   12MPD2    H5  190   3.187   3.456  14.278  0.4082  0.1346  0.3803
   12MPD2    N1  191   3.492   3.899  14.455 -0.7032 -0.0429 -0.0354
   12MPD2    H7  192   3.522   3.920  14.361  0.4814  0.8005  0.5278
   13TCq1    O1  193   3.016   3.970  10.851 -0.3087 -0.3054 -0.2509
   13TCq1    C1  194   3.023   3.878  10.749  0.0641  0.1181 -0.0795
   13TCq1    O2  195   3.116   3.810  10.707  0.1016 -0.0654  0.3908
   13TCq1    C2  196   2.903   3.910  10.662 -0.7415 -0.7637 -0.0492
   13TCq1    C3  197   2.910   3.880  10.532  0.5851  0.4521 -0.0024
   13TCq1    C4  198   2.794   3.882  10.460 -0.1091  1.1666  0.1358
   13TCq1    C5  199   2.669   3.924  10.512 -0.0181  0.5864  0.2553
   13TCq1    C6  200   2.669   3.928  10.652  0.5306 -0.0528 -0.4118
   13TCq1    C7  201   2.783   3.925  10.725 -0.1783  0.1406 -0.6087
   13TCq1    C8  202   2.545   3.918  10.721 -0.4683  0.2591  0.2059
   13TCq1    O4  203   2.510   4.005  10.802 -0.9925  0.3980  0.0635
   13TCq1    C9  204   2.798   3.847  10.322  0.7970  0.2405  0.9783
   13TCq1    O5  205   2.905   3.862  10.259  0.3840  0.1769  0.0460
   13TCq1    O6  206   2.691   3.802  10.267  0.1408  0.1055  0.8311
   13TCq1    H1  207   2.932   4.021  10.840 -0.2235 -0.1823 -0.3356
   13TCq1    H2  208   3.004   3.869  10.479  0.0010  1.9147 -1.3306
   13TCq1    H3  209   2.579   3.920  10.452 -0.0704 -1.4847  0.4840
   13TCq1    H4  210   2.776   3.909  10.832  0.5633  0.7853 -0.4651
   14MPD2     C  211   2.361   3.595  10.737 -0.2873  0.4484  0.3610
   14MPD2    C1  212   2.390   3.729  10.766  0.2359  0.9090 -0.1607
   14MPD2    C2  213   2.311   3.795  10.859  0.9552 -0.1860 -0.2364
   14MPD2    C3  214   2.206   3.727  10.917 -0.7015  0.1374 -0.8488
   14MPD2    C4  215   2.189   3.595  10.903  0.4590  0.6987  0.0387
   14MPD2    C5  216   2.265   3.534  10.804  0.8102  0.6843 -0.7465
   14MPD2     H  217   2.317   3.900  10.888  1.2253  0.4615 -2.6370
   14MPD2    H1  218   2.108   3.536  10.943 -0.8191  2.8204  0.5523
   14MPD2    H2  219   2.417   3.550  10.657  0.6249 -2.2122  2.5036
   14MPD2    H3  220   2.245   3.431  10.777 -2.4271  0.9950  0.4439
   14MPD2     N  221   2.129   3.804  11.000  0.5957 -0.4464  0.2968
   14MPD2    H5  222   2.155   3.898  11.026  0.3869 -0.1613 -0.5397
   14MPD2    N1  223   2.496   3.790  10.701  0.1902  0.3894  0.2518
   14MPD2    H7  224   2.543   3.733  10.632 -0.2885  0.3085 -0.0043
   15TCq1    O1  225   0.658   2.245   2.773  0.2390  0.0245  0.3828
   15TCq1    C1  226   0.557   2.173   2.808  0.3799  1.0827  0.1080
   15TCq1    O2  227   0.542   2.135   2.923 -0.0633 -0.3594 -0.1335
   15TCq1    C2  228   0.441   2.203   2.727  0.1936 -0.3277  0.2425
   15TCq1    C3  229   0.334   2.252   2.794  0.4388  0.5785  1.0561
   15TCq1    C4  230   0.231   2.306   2.713 -0.2921  0.4765 -0.9952
   15TCq1    C5  231   0.237   2.290   2.578 -0.1145 -0.6590 -0.3681
   15TCq1    C6  232   0.342   2.223   2.523  0.0036 -1.2759 -0.4987
   15TCq1    C7  233   0.451   2.182   2.599 -0.0881  0.2045 -0.3111
   15TCq1    C8  234   0.363   2.208   2.381 -0.0364 -0.4569 -0.2133
   15TCq1    O4  235   0.471   2.164   2.337  0.0604  0.3458  0.1383
   15TCq1    C9  236   0.122   2.383   2.764 -0.2975  0.1513  0.5260
   15TCq1    O5  237   0.058   2.456   2.682 -0.1841  0.3135 -0.0817
   15TCq1    O6  238   0.120   2.393   2.890  0.5915  0.5406  0.2708
   15TCq1    H1  239   0.646   2.298   2.691  1.5784  1.7075  1.2578
   15TCq1    H2  240   0.348   2.276   2.899  2.9297  2.4082  0.3018
   15TCq1    H3  241   0.151   2.328   2.524 -0.1526 -0.6038 -0.2670
   15TCq1    H4  242   0.550   2.154   2.566  0.8054  0.7563  1.8804
   16MPD2     C  243   0.151   2.381   2.129 -0.4978 -0.1667  1.2229
   16MPD2    C1  244   0.266   2.316   2.179 -0.3442  0.4317  0.0249
   16MPD2    C2  245   0.373   2.296   2.096 -0.3113 -0.0525  0.2642
   16MPD2    C3  246   0.378   2.369   1.978  0.3596  0.9225 -0.2793
   16MPD2    C4  247   0.271   2.441   1.939 -0.2944 -0.8010 -0.5284
   16MPD2    C5  248   0.151   2.444   2.011 -0.0086  0.4109  0.4326
   16MPD2     H  249   0.464   2.246   2.126 -0.1332  0.1106 -0.0043
   16MPD2    H1  250   0.267   2.500   1.848 -0.5077  0.5584  0.3527
   16MPD2    H2  251   0.060   2.377   2.187  0.7951  2.3322  3.4096
   16MPD2    H3  252   0.065   2.492   1.965  1.5000 -0.6224 -3.4761
   16MPD2     N  253   0.493   2.349   1.902  0.2774 -0.5300 -0.7657
   16MPD2    H5  254   0.555   2.272   1.924 -2.1065 -1.1160  3.7389
   16MPD2    N1  255   0.260   2.266   2.313  0.5815  0.3005 -0.0389
   16MPD2    H7  256   0.172   2.276   2.362  0.1314  1.2001 -1.0175
   17TCq1    O1  257   3.127   3.803  11.155 -0.6867  0.6926  0.0841
   17TCq1    C1  258   3.132   3.707  11.244  0.1466  0.0565 -0.0108
   17TCq1    O2  259   3.039   3.635  11.278  0.1612  0.7461 -0.0466
   17TCq1    C2  260   3.262   3.652  11.211  0.6038 -0.1148  0.4430
   17TCq1    C3  261   3.370   3.734  11.207  0.2716  0.7013 -0.7045
   17TCq1    C4  262   3.479   3.686  11.139 -0.7527 -0.4239  0.0965
   17TCq1    C5  263   3.470   3.566  11.068 -0.1488 -0.0261 -0.9119
   17TCq1    C6  264   3.358   3.496  11.080 -0.0955  0.3002  0.2869
   17TCq1    C7  265   3.254   3.527  11.159 -0.0865  0.2305 -0.2900
   17TCq1    C8  266   3.340   3.372  11.006 -0.9364 -0.3675  0.3475
   17TCq1    O4  267   3.242   3.305  11.035 -0.0123 -0.2938 -0.0156
   17TCq1    C9  268   3.602   3.763  11.133 -0.1742 -0.0692  0.0848
   17TCq1    O5  269   3.590   3.878  11.184  0.2842  0.1345  0.0648
   17TCq1    O6  270   3.717   3.711  11.117  0.1710  0.3486  0.1324
   17TCq1    H1  271   3.210   3.829  11.110 -1.0558 -0.1246 -1.0525
   17TCq1    H2  272   3.369   3.827  11.263 -0.4502 -0.7667  1.7040
   17TCq1    H3  273   3.560   3.532  11.019  0.5809 -0.3394  0.6247
   17TCq1    H4  274   3.162   3.469  11.154  0.3473 -0.4626 -0.2430
   18MPD2     C  275   3.352   3.120  10.828  0.8497 -0.1429 -0.0234
   18MPD2    C1  276   3.435   3.234  10.826 -0.4623  0.0024  0.4266
   18MPD2    C2  277   3.529   3.228  10.721  0.5033  0.2480 -0.3135
   18MPD2    C3  278   3.540   3.122  10.634  0.0045 -0.1138  0.0286
   18MPD2    C4  279   3.451   3.018  10.651  0.7407  0.0036  0.3740
   18MPD2    C5  280   3.360   3.013  10.745  0.8827  0.4764  0.2327
   18MPD2     H  281   3.601   3.308  10.714 -1.6047  2.0658 -1.0076
   18MPD2    H1  282   3.450   2.937  10.580  2.9806 -0.4100  0.8347
   18MPD2    H2  283   3.276   3.124  10.906  0.9336  3.0715 -0.1075
   18MPD2    H3  284   3.293   2.929  10.749  2.8700 -1.1243 -0.3144
   18MPD2     N  285   3.644   3.110  10.533 -0.5843 -0.3401  0.2870
   18MPD2    H5  286   3.655   3.019  10.491  0.1483  0.2788 -0.8686
   18MPD2    N1  287   3.432   3.349  10.907  0.2086  0.1340 -0.0068
   18MPD2    H7  288   3.504   3.418  10.889  0.8657 -1.2829 -2.9389
   19TMC2    C1  289   3.974   3.722  13.781 -0.1553 -0.1033 -0.3255
   19TMC2    C2  290   3.856   3.747  13.708  0.3057 -0.2980  0.2930
   19TMC2    C3  291   3.822   3.652  13.610  0.4489 -0.5168 -0.3686
   19TMC2    C4  292   4.065   3.632  13.736 -0.0102  0.2430 -0.9462
   19TMC2    C5  293   4.037   3.556  13.624  0.4669  0.2712 -0.0054
   19TMC2    C6  294   3.916   3.565  13.563  0.2644  0.5962 -0.0249
   19TMC2     C  295   4.031   3.829  13.861 -0.1820 -0.5682 -0.2135
   19TMC2     O  296   3.983   3.939  13.851  0.7472 -0.1213 -1.0356
   19TMC2     H  297   3.784   3.825  13.731 -1.3922 -1.7073 -0.2629
   19TMC2    H1  298   4.168   3.636  13.768 -0.2300  1.2845 -0.3904
   19TMC2    H2  299   3.897   3.504  13.475 -1.4276  0.4476  0.4406
   19TMC2    C7  300   4.116   3.446  13.587 -1.4157  0.7568  0.1687
   19TMC2    C8  301   3.695   3.656  13.544  0.0010  0.8437 -0.7135
   19TMC2    O1  302   4.084   3.388  13.481  0.3527  0.4484 -0.0925
   19TMC2    O2  303   3.683   3.638  13.426 -0.2888 -0.0310  1.0328
   19TMC2    O5  304   3.608   3.739  13.608  0.4058 -0.1716 -0.3516
   19TMC2    H5  305   3.611   3.741  13.706  3.5162 -2.6101 -0.3771
   20MPD2     C  306   4.176   3.982  14.094 -0.2067  1.0408 -0.0027
   20MPD2    C1  307   4.158   3.842  14.087  0.2820 -0.0849 -0.2735
   20MPD2    C2  308   4.217   3.760  14.182 -0.3945  0.2532  0.0092
   20MPD2    C3  309   4.294   3.811  14.286 -0.3562  0.2066  0.2218
   20MPD2    C4  310   4.309   3.947  14.297 -0.3126  0.3670  0.6158
   20MPD2    C5  311   4.246   4.024  14.201  0.4650  0.0253  0.2499
   20MPD2     H  312   4.200   3.655  14.162 -0.6186  0.3678 -0.4109
   20MPD2    H1  313   4.363   3.982  14.384 -0.7949 -0.0187  1.0693
   20MPD2    H2  314   4.133   4.053  14.024  0.4993  0.9410 -0.5375
   20MPD2    H3  315   4.251   4.132  14.208  0.9208 -0.0727  1.4738
   20MPD2     N  316   4.359   3.731  14.385  0.5748  0.1945  0.3230
   20MPD2    H5  317   4.422   3.781  14.447  1.8795 -1.1044  0.0431
   20MPD2    N1  318   4.100   3.781  13.973 -0.6480 -0.0132 -0.3031
   20MPD2    H7  319   4.115   3.680  13.970  1.3437  0.2547  0.7156
   21MPD2     C  320   2.028   4.171  14.511  0.1766  0.0254  0.0094
   21MPD2    C1  321   2.053   4.040  14.548  0.5192 -0.7631  0.0092
   21MPD2    C2  322   1.961   3.962  14.609 -0.6274  0.8201 -0.4475
   21MPD2    C3  323   1.839   4.013  14.640 -0.0207 -0.0901  0.7957
   21MPD2    C4  324   1.809   4.143  14.603  0.2916 -0.1676  0.3243
   21MPD2    C5  325   1.900   4.215  14.531 -0.2896 -0.1456 -0.0002
   21MPD2     H  326   1.990   3.861  14.635  0.1028  1.9205  3.0512
   21MPD2    H1  327   1.718   4.186  14.643  0.2202  1.0104 -1.0844
   21MPD2    H2  328   2.101   4.233  14.461  1.6349  0.1633  2.3123
   21MPD2    H3  329   1.876   4.317  14.506 -1.3581 -0.3659  0.1058
   21MPD2     N  330   1.741   3.935  14.701  0.4875 -0.6294 -0.3646
   21MPD2    H5  331   1.645   3.963  14.685  0.4327 -0.9395 -0.5922
   21MPD2    N1  332   2.179   3.974  14.518  0.5680 -0.1986 -0.3512
   21MPD2    H7  333   2.177   3.877  14.548  1.1485  0.6332  2.3569
   22TCq2    C1  334   1.769   3.831  14.787  0.4533 -0.7263 -0.1753
   22TCq2    O2  335   1.877   3.800  14.829 -0.7666  0.3546  0.1653
   22TCq2    C2  336   1.653   3.747  14.831 -0.2093 -0.0651  0.6841
   22TCq2    C3  337   1.688   3.624  14.878  0.0331 -0.1606  0.0632
   22TCq2    C4  338   1.589   3.540  14.922  0.3706 -0.0247  0.7651
   22TCq2    C5  339   1.461   3.584  14.931 -0.0785 -0.4060 -0.4318
   22TCq2    C6  340   1.422   3.707  14.876  0.4575 -0.1888  0.1336
   22TCq2    C7  341   1.519   3.791  14.832  0.1798 -0.2698 -0.1810
   22TCq2    C8  342   1.290   3.758  14.913  0.6129 -0.6615  1.7914
   22TCq2    O4  343   1.238   3.730  15.020  0.1943  0.0220 -0.1552
   22TCq2    C9  344   1.610   3.403  14.962 -0.6792 -1.0550  0.0259
   22TCq2    O5  345   1.725   3.357  14.941  0.2601  0.5146 -0.1656
   22TCq2    O6  346   1.516   3.354  15.028  0.0712 -0.4276 -0.2057
   22TCq2    H2  347   1.785   3.576  14.870  0.4805  0.8288 -0.3729
   22TCq2    H3  348   1.387   3.517  14.974  0.1134 -0.7921 -0.7075
   22TCq2    H4  349   1.491   3.892  14.803 -1.2474 -0.1679  1.5807
   23MPD2     C  350   3.441   0.090  14.824 -0.3584 -0.2647  0.1656
   23MPD2    C1  351   3.397   4.695  14.868 -0.0464  0.2756 -0.0132
   23MPD2    C2  352   3.291   4.633  14.805 -0.1912  0.5671 -0.5951
   23MPD2    C3  353   3.227   4.702  14.704  0.3966 -0.2809 -0.0830
   23MPD2    C4  354   3.271   0.107  14.661 -0.4483  0.4319  0.2644
   23MPD2    C5  355   3.372   0.163  14.730  0.2229  0.1678  0.4438
   23MPD2     H  356   3.259   4.537  14.843 -1.8219  0.8805 -1.1828
   23MPD2    H1  357   3.216   0.162  14.586 -0.1954 -0.6095 -0.6704
   23MPD2    H2  358   3.519   0.152  14.866 -3.0384  1.4137  2.6715
   23MPD2    H3  359   3.396   0.264  14.699 -0.9197 -0.5212 -2.7128
   23MPD2     N  360   3.115   4.657  14.629 -0.3248  0.5782  0.1337
   23MPD2    H5  361   3.072   0.004  14.570 -0.0706 -1.0540 -1.9686
   23MPD2    N1  362   3.458   4.635  14.985  0.3489 -0.2855 -0.5721
   23MPD2    H7  363   3.424   4.543  15.010  2.1771 -0.6479  0.6163
   24TCq2    C1  364   3.050   4.538  14.635 -0.1891  0.2242 -0.1302
   24TCq2    O2  365   3.067   4.443  14.709  0.1061  0.2294  0.3620
   24TCq2    C2  366   2.928   4.546  14.563  0.9553  0.1405 -0.4508
   24TCq2    C3  367   2.922   4.619  14.446  0.6149  0.5137 -0.0529
   24TCq2    C4  368   2.806   4.627  14.380  0.4386 -0.6213 -0.1908
   24TCq2    C5  369   2.693   4.562  14.420  0.1346 -0.0300  0.1584
   24TCq2    C6  370   2.709   4.486  14.534 -0.0885 -0.4086 -0.5032
   24TCq2    C7  371   2.823   4.469  14.600  0.2004  0.6976 -0.2122
   24TCq2    C8  372   2.606   4.404  14.586  0.0339  0.8447  0.3940
   24TCq2    O4  373   2.634   4.306  14.652  0.4544 -0.0358 -0.0287
   24TCq2    C9  374   2.790   4.707  14.259 -0.4006 -0.2156  0.0442
   24TCq2    O5  375   2.677   0.013  14.227  0.4255  0.1537 -0.6795
   24TCq2    O6  376   2.894   0.041  14.219 -0.3289  0.7100  0.3716
   24TCq2    H2  377   3.011   4.667  14.406 -0.3228  1.8636 -0.5232
   24TCq2    H3  378   2.599   4.571  14.367 -0.7007 -1.1352  1.4446
   24TCq2    H4  379   2.833   4.399  14.682 -0.4298  0.6091 -0.2117
   25TMC2    C1  380   2.709   1.746  11.704  0.0846 -0.8501 -0.1095
   25TMC2    C2  381   2.763   1.650  11.784 -0.4084  0.6700 -0.5923
   25TMC2    C3  382   2.747   1.665  11.923 -0.7250 -0.1119 -0.0844
   25TMC2    C4  383   2.646   1.851  11.753  0.5481 -0.1057 -0.4833
   25TMC2    C5  384   2.636   1.864  11.891  0.5075 -0.1611 -0.1624
   25TMC2    C6  385   2.677   1.768  11.978 -0.7585 -0.6552 -0.2178
   25TMC2     C  386   2.685   1.712  11.562 -0.4613 -0.1673 -0.2380
   25TMC2     O  387   2.764   1.639  11.506  0.6926 -0.0476 -0.0549
   25TMC2     H  388   2.807   1.561  11.739  1.0553  0.8851  0.4300
   25TMC2    H1  389   2.603   1.919  11.680 -3.6679 -0.8186  1.3304
   25TMC2    H2  390   2.652   1.772  12.083 -0.6017 -0.7837 -0.1748
   25TMC2    C7  391   2.569   1.971  11.948 -0.2818  1.0939 -0.5442
   25TMC2    C8  392   2.758   1.545  12.011  0.2091 -0.4206  0.1723
   25TMC2    O1  393   2.534   1.967  12.068 -0.8277  0.1055  0.4127
   25TMC2    O2  394   2.861   1.497  12.049  0.3018 -0.4092  0.1298
   25TMC2    O5  395   2.672   1.474  11.937  0.5763  0.3330 -0.9471
   25TMC2    H5  396   2.598   1.522  11.894  0.1889 -0.3795 -1.0800
   26MPD2     C  397   2.425   1.729  11.109 -1.2759  1.0037  0.1266
   26MPD2    C1  398   2.353   1.800  11.200  0.3733 -0.0491 -0.0635
   26MPD2    C2  399   2.404   1.799  11.332  0.6008  0.2488  0.0717
   26MPD2    C3  400   2.528   1.744  11.367  0.2144 -0.6565 -0.3742
   26MPD2    C4  401   2.602   1.682  11.271 -1.2334  1.3255  0.8155
   26MPD2    C5  402   2.547   1.674  11.140  0.7307  0.6131  0.0096
   26MPD2     H  403   2.353   1.865  11.402  1.5783  0.3634  0.6763
   26MPD2    H1  404   2.695   1.632  11.294 -2.2876 -0.9716  0.0292
   26MPD2    H2  405   2.397   1.720  11.004 -1.2914 -1.0101  0.3054
   26MPD2    H3  406   2.607   1.617  11.069  1.3425  1.1656  0.0791
   26MPD2     N  407   2.571   1.759  11.505 -0.1746  0.2622  0.2505
   26MPD2    H5  408   2.509   1.814  11.564 -0.0808  0.5408  0.0891
   26MPD2    N1  409   2.239   1.868  11.162  0.5803 -0.1228 -0.0983
   26MPD2    H7  410   2.220   1.872  11.062 -0.7124 -0.8988  0.1089
   27TMC2    C1  411   1.131   0.029  12.004 -0.2897 -0.2846 -0.5049
   27TMC2    C2  412   1.051   0.121  11.940 -0.0938  1.1778 -0.6217
   27TMC2    C3  413   1.112   0.225  11.878  0.2360  0.7154  0.1756
   27TMC2    C4  414   1.267   0.037  12.017 -0.6994 -0.0103  0.7945
   27TMC2    C5  415   1.328   0.147  11.959 -0.3501 -0.0373 -0.0645
   27TMC2    C6  416   1.249   0.238  11.887 -0.9505 -0.2284  0.0986
   27TMC2     C  417   1.066   4.662  12.097 -0.1813 -0.4006 -0.1890
   27TMC2     O  418   1.146   4.591  12.163  0.4495 -0.4857 -0.1618
   27TMC2     H  419   0.943   0.113  11.926 -0.0059  0.3308 -0.8359
   27TMC2    H1  420   1.320   4.688  12.079 -1.1122 -1.3816 -0.4115
   27TMC2    H2  421   1.296   0.323  11.840  0.7862 -0.6919  0.9800
   27TMC2    C7  422   1.430   0.205  12.054 -0.7338 -0.0384  0.1470
   27TMC2    C8  423   1.018   0.323  11.818 -0.6072  0.1089 -0.2626
   27TMC2    O1  424   1.502   0.299  12.019  0.2247 -0.4363 -0.5403
   27TMC2    O2  425   0.962   0.304  11.709 -0.4310 -0.9716 -0.0926
   27TMC2    O5  426   1.015   0.432  11.899  0.5427  0.1871 -0.0956
   27TMC2    H5  427   1.056   0.406  11.984 -1.3277 -0.7360  0.5414
   28MPD2     C  428   0.664   4.496  12.374  0.1085  0.3051  1.2433
   28MPD2    C1  429   0.627   4.610  12.307 -0.3057  0.6163  0.5186
   28MPD2    C2  430   0.715   4.663  12.206 -0.4658  0.8865 -0.4696
   28MPD2    C3  431   0.835   4.600  12.185 -0.2054  0.2497  0.1311
   28MPD2    C4  432   0.872   4.496  12.271  0.0017 -0.1069 -0.0695
   28MPD2    C5  433   0.790   4.445  12.363 -0.1726  0.3818 -0.2987
   28MPD2     H  434   0.693   0.033  12.153  1.8233  0.6800 -1.7642
   28MPD2    H1  435   0.974   4.461  12.278 -0.1956 -1.2820 -3.1909
   28MPD2    H2  436   0.599   4.446  12.445 -0.9465  0.0919  0.1286
   28MPD2    H3  437   0.818   4.373  12.439 -1.8203  1.5683  1.4055
   28MPD2     N  438   0.930   4.665  12.102 -0.6870  0.0362 -0.6565
   28MPD2    H5  439   0.892   0.015  12.041 -2.1284  0.1585  0.3729
   28MPD2    N1  440   0.497   4.662  12.334 -0.0422  0.3449 -0.7568
   28MPD2    H7  441   0.440   4.614  12.402  0.5714  2.6340  1.3637
   29MPD2     C  442   0.248   1.901  14.003 -1.0712  0.0649 -0.1819
   29MPD2    C1  443   0.343   1.891  14.105 -0.3363  0.2058  0.4682
   29MPD2    C2  444   0.411   2.002  14.156 -0.8366 -0.6623 -0.2132
   29MPD2    C3  445   0.379   2.127  14.110 -0.3259  0.0179 -0.0742
   29MPD2    C4  446   0.277   2.136  14.018  0.1891  0.2128  0.3130
   29MPD2    C5  447   0.210   2.029  13.960 -0.3210  0.4945  0.1912
   29MPD2     H  448   0.482   2.004  14.238 -1.3873 -1.2906  0.2865
   29MPD2    H1  449   0.254   2.232  13.973 -0.4573 -0.1945 -0.2393
   29MPD2    H2  450   0.194   1.818  13.960 -1.7075  1.0707 -1.3444
   29MPD2    H3  451   0.142   2.034  13.876 -1.0001 -0.0008  0.7148
   29MPD2     N  452   0.446   2.242  14.163  0.2878 -0.5325  0.0230
   29MPD2    H5  453   0.523   2.220  14.224  0.5660 -3.7597 -1.4808
   29MPD2    N1  454   0.386   1.765  14.163 -0.3960  0.3502  0.1870
   29MPD2    H7  455   0.457   1.775  14.235 -0.9622  2.8736  0.3918
   30TCq2    C1  456   0.394   2.363  14.170 -0.1972  0.6633  0.1081
   30TCq2    O2  457   0.276   2.401  14.156 -0.1172  0.3847 -0.4353
   30TCq2    C2  458   0.490   2.455  14.224 -0.3090 -0.1394 -0.5915
   30TCq2    C3  459   0.438   2.569  14.290  0.0742 -0.1115 -0.3324
   30TCq2    C4  460   0.518   2.679  14.304  0.6799 -0.0455  0.1783
   30TCq2    C5  461   0.647   2.683  14.269 -0.2190  0.1315 -0.4682
   30TCq2    C6  462   0.685   2.579  14.187 -0.4380  0.2309 -0.5441
   30TCq2    C7  463   0.611   2.459  14.165  0.6020  0.7171  0.6628
   30TCq2    C8  464   0.803   2.596  14.108 -0.2460  0.3767 -0.4478
   30TCq2    O4  465   0.804   2.540  13.997 -0.2809  0.1466 -0.1283
   30TCq2    C9  466   0.453   2.794  14.358  0.4018 -0.1006 -0.4547
   30TCq2    O5  467   0.504   2.909  14.338  0.7099 -0.1825  0.3237
   30TCq2    O6  468   0.331   2.775  14.386 -0.1048 -0.4313  0.3810
   30TCq2    H2  469   0.340   2.572  14.337 -0.0062 -0.4712 -0.4757
   30TCq2    H3  470   0.700   2.778  14.272 -1.0683  0.5326  2.0545
   30TCq2    H4  471   0.635   2.401  14.077  1.1246  0.9790  0.6314
   31MPD2     C  472   3.388   1.078  14.746 -0.2228 -0.9766 -0.3497
   31MPD2    C1  473   3.267   1.102  14.687 -0.1385  0.5170 -0.1482
   31MPD2    C2  474   3.166   1.008  14.710  0.4398  0.7701 -0.3824
   31MPD2    C3  475   3.176   0.906  14.803  1.5612  0.2660 -0.0948
   31MPD2    C4  476   3.290   0.893  14.874 -0.1482  0.4175  0.1832
   31MPD2    C5  477   3.396   0.982  14.843  0.1918 -0.2807  0.9943
   31MPD2     H  478   3.075   1.011  14.651  0.9996 -2.6306 -1.4584
   31MPD2    H1  479   3.286   0.831  14.964  0.6438 -0.4890 -0.4075
   31MPD2    H2  480   3.479   1.137  14.739 -0.7539 -0.0387  0.4873
   31MPD2    H3  481   3.490   0.964  14.893  1.6358 -1.4849 -2.1210
   31MPD2     N  482   3.087   0.805  14.817 -0.3524 -0.7014  0.2633
   31MPD2    H5  483   3.109   0.737  14.889 -0.3841 -1.6479 -0.6224
   31MPD2    N1  484   3.264   1.206  14.588  0.3231  0.2217 -0.3528
   31MPD2    H7  485   3.356   1.241  14.561  0.4504  0.3177  0.1965
   32TCq2    C1  486   2.960   0.797  14.750 -0.8923 -1.0243  0.2887
   32TCq2    O2  487   2.914   0.860  14.659  0.3918  0.0799 -0.2283
   32TCq2    C2  488   2.873   0.697  14.805 -0.0488 -0.4310 -0.1694
   32TCq2    C3  489   2.745   0.685  14.744 -0.0734 -0.3064  0.0313
   32TCq2    C4  490   2.664   0.600  14.812  0.8811 -0.6504 -0.4095
   32TCq2    C5  491   2.695   0.533  14.931 -0.1416  0.2858 -0.4992
   32TCq2    C6  492   2.822   0.547  14.987 -0.9528  0.1388 -0.1423
   32TCq2    C7  493   2.906   0.625  14.921  0.3636 -0.8971  0.6159
   32TCq2    C8  494   2.829   0.528  15.131 -0.3678 -0.5948 -0.0728
   32TCq2    O4  495   2.936   0.509  15.181 -0.0839  0.9238 -1.0494
   32TCq2    C9  496   2.539   0.568  14.755 -0.3748 -0.4558 -0.5540
   32TCq2    O5  497   2.466   0.490  14.817 -0.0215  0.3129  0.1674
   32TCq2    O6  498   2.506   0.639  14.654 -0.1915 -0.0895  0.6145
   32TCq2    H2  499   2.715   0.725  14.648  2.3179  0.0326 -0.5601
   32TCq2    H3  500   2.641   0.446  14.966  0.8309 -1.0879 -2.3937
   32TCq2    H4  501   3.001   0.637  14.973  0.0703 -2.1793  1.4647
   33MPD2     C  502   4.059   3.575   9.881 -0.1361  0.2340 -0.2060
   33MPD2    C1  503   3.957   3.545   9.964  0.0680  0.0504  0.8567
   33MPD2    C2  504   3.847   3.625   9.971 -0.4442  0.4556 -0.0280
   33MPD2    C3  505   3.835   3.736   9.892 -0.8670  0.3960  0.5148
   33MPD2    C4  506   3.946   3.775   9.811 -0.2986 -0.4175 -0.4407
   33MPD2    C5  507   4.053   3.686   9.805 -0.1418  0.0866  0.5897
   33MPD2     H  508   3.769   3.597  10.042  0.3506 -1.0468  0.2481
   33MPD2    H1  509   3.949   3.861   9.745  1.1014  0.2584  0.5077
   33MPD2    H2  510   4.145   3.511   9.868 -0.6816 -0.7640  1.1305
   33MPD2    H3  511   4.125   3.692   9.724 -2.1489  1.0297 -1.0897
   33MPD2     N  512   3.715   3.814   9.891  0.7781 -0.8084  0.6511
   33MPD2    H5  513   3.715   3.903   9.842 -2.0231  0.0811  2.2839
   33MPD2    N1  514   3.968   3.422  10.039  0.1418 -0.0255  0.3443
   33MPD2    H7  515   4.063   3.389  10.041  0.7088  1.6010  0.6931
   34TCq2    C1  516   3.591   3.785   9.942 -0.2277  0.2716 -0.0768
   34TCq2    O2  517   3.559   3.690  10.009  0.1355  0.5553 -0.1674
   34TCq2    C2  518   3.488   3.877   9.891 -0.0354  0.8329  0.7237
   34TCq2    C3  519   3.361   3.841   9.921  0.6066 -0.4056  0.3504
   34TCq2    C4  520   3.266   3.931   9.891  0.2573 -0.1576 -0.9808
   34TCq2    C5  521   3.297   4.052   9.836 -0.4348 -0.1444 -0.5161
   34TCq2    C6  522   3.421   4.078   9.802  0.0489 -0.4649  0.0848
   34TCq2    C7  523   3.526   3.993   9.837  0.3746  0.5675  0.0286
   34TCq2    C8  524   3.451   4.216   9.767 -0.3640  0.2397  0.7750
   34TCq2    O4  525   3.567   4.248   9.788  0.0336 -0.0854 -0.1692
   34TCq2    C9  526   3.130   3.891   9.923  0.4867 -0.4689 -0.1772
   34TCq2    O5  527   3.115   3.776   9.979 -0.3013  0.0297  0.3019
   34TCq2    O6  528   3.039   3.975   9.925 -0.7832  0.2827 -0.0532
   34TCq2    H2  529   3.337   3.747   9.968 -3.1025  0.8325  0.9265
   34TCq2    H3  530   3.221   4.123   9.802  1.5386  1.4657 -1.5601
   34TCq2    H4  531   3.628   4.011   9.806  0.8306  0.4082  1.4126
   35MPD2     C  532   0.255   0.600  11.485  0.0641 -0.1601  0.0382
   35MPD2    C1  533   0.192   0.501  11.552  0.2399 -0.2952  0.5305
   35MPD2    C2  534   0.076   0.446  11.507 -0.6094 -0.2855 -0.1545
   35MPD2    C3  535   0.024   0.488  11.388  0.1962  0.2063  0.3957
   35MPD2    C4  536   0.084   0.589  11.317  0.2200  0.3094 -0.2042
   35MPD2    C5  537   0.199   0.644  11.366  0.1041  0.0973 -0.3240
   35MPD2     H  538   0.024   0.371  11.566  1.5729 -0.5906  1.3970
   35MPD2    H1  539   0.051   0.639  11.227 -1.0625  0.0114  0.0930
   35MPD2    H2  540   0.347   0.641  11.524  0.5574 -0.0230 -1.2859
   35MPD2    H3  541   0.257   0.720  11.314 -0.7870  0.2314 -1.1200
   35MPD2     N  542   4.623   0.420  11.349 -0.1718  0.0749 -0.1296
   35MPD2    H5  543   4.584   0.355  11.415 -3.0161  0.8060 -1.1011
   35MPD2    N1  544   0.247   0.465  11.682 -0.6214 -0.4609 -0.1549
   35MPD2    H7  545   0.297   0.541  11.726 -3.3811  2.6350 -2.4074
   36TCq2    C1  546   4.555   0.428  11.230  0.6486  0.6390  0.8805
   36TCq2    O2  547   4.582   0.479  11.121 -0.5972 -0.0980 -0.2745
   36TCq2    C2  548   4.452   0.328  11.227 -0.7114  0.3201  0.4763
   36TCq2    C3  549   4.355   0.340  11.139  0.3894  0.3355 -0.2502
   36TCq2    C4  550   4.289   0.238  11.083  0.3403  0.3484 -0.2081
   36TCq2    C5  551   4.315   0.111  11.122 -0.7192 -0.0776 -0.2390
   36TCq2    C6  552   4.415   0.101  11.213 -0.0760  0.7073  0.1305
   36TCq2    C7  553   4.489   0.199  11.265 -0.2695  0.1978  0.5536
   36TCq2    C8  554   4.415   4.693  11.278 -0.3738 -0.2217  0.0062
   36TCq2    O4  555   4.387   4.599  11.206  0.1767 -0.6227 -0.0552
   36TCq2    C9  556   4.180   0.260  10.989  0.2874 -1.2474  0.1502
   36TCq2    O5  557   4.141   0.377  10.981  0.1219  0.3536 -0.3953
   36TCq2    O6  558   4.130   0.165  10.924  0.4348 -0.1529 -0.0435
   36TCq2    H2  559   4.333   0.438  11.098  1.2342  1.1942  1.3647
   36TCq2    H3  560   4.252   0.033  11.080 -2.2282  0.8490  0.2891
   36TCq2    H4  561   4.582   0.171  11.313 -0.7248 -1.9174  0.1932
   37TMC2    C1  562   2.019   0.324  11.049  0.8716  0.4168 -0.1898
   37TMC2    C2  563   2.012   0.392  10.929 -0.0340  0.0117  0.2725
   37TMC2    C3  564   2.125   0.408  10.854  1.1057 -0.4746  0.5810
   37TMC2    C4  565   2.138   0.286  11.099 -0.5590 -0.4181  0.3969
   37TMC2    C5  566   2.257   0.316  11.032 -1.0221 -0.1416  0.2235
   37TMC2    C6  567   2.241   0.364  10.904  0.0681 -0.1060 -0.4738
   37TMC2     C  568   1.903   0.299  11.131  0.1456  0.0729  0.1781
   37TMC2     O  569   1.803   0.368  11.113 -0.2109 -0.0588  0.1545
   37TMC2     H  570   1.920   0.437  10.892  0.2628 -0.7795 -1.4434
   37TMC2    H1  571   2.160   0.241  11.195  0.1140  0.9374  0.8825
   37TMC2    H2  572   2.327   0.352  10.839  2.4189  0.6481  2.5001
   37TMC2    C7  573   2.372   0.230  11.060  0.1023  0.5637  0.2811
   37TMC2    C8  574   2.134   0.491  10.740  0.1580 -0.0287 -0.5541
   37TMC2    O1  575   2.346   0.117  11.097 -0.0817  0.4261  0.2061
   37TMC2    O2  576   2.242   0.526  10.691  0.3118 -0.0164  0.6936
   37TMC2    O5  577   2.031   0.446  10.665 -0.1870  0.7606  0.9010
   37TMC2    H5  578   1.953   0.410  10.712 -0.1189  0.1475  0.5497
   38MPD2     C  579   1.708   0.101  11.564  0.1895 -0.2421 -0.0903
   38MPD2    C1  580   1.816   0.026  11.526  0.0091  0.5337 -0.4073
   38MPD2    C2  581   1.894   0.065  11.414 -0.8639  0.6221 -0.4218
   38MPD2    C3  582   1.852   0.172  11.337 -0.1760 -0.0015  0.1093
   38MPD2    C4  583   1.734   0.245  11.376  0.2377  0.0411 -0.3086
   38MPD2    C5  584   1.673   0.210  11.487 -0.2448  0.0504 -0.0105
   38MPD2     H  585   1.978   0.003  11.385 -2.1580 -1.2246 -0.2280
   38MPD2    H1  586   1.694   0.328  11.318 -0.3352 -0.8634 -1.2143
   38MPD2    H2  587   1.656   0.083  11.658  0.8244 -1.5275  0.0251
   38MPD2    H3  588   1.583   0.261  11.519  0.2376  1.2573 -0.5678
   38MPD2     N  589   1.928   0.200  11.225  0.0151 -0.0626 -0.5094
   38MPD2    H5  590   2.009   0.140  11.209 -0.5505 -0.9403 -0.0494
   38MPD2    N1  591   1.843   4.628  11.595 -0.0328 -0.2911  0.1660
   38MPD2    H7  592   1.925   4.576  11.566 -0.5800 -1.4765  0.6927
   39MPD2     C  593   0.375   1.409   1.732  0.0729 -0.3645 -0.4008
   39MPD2    C1  594   0.405   1.541   1.747  0.3897  0.1800  0.4754
   39MPD2    C2  595   0.355   1.641   1.668 -0.1018  0.5312  0.5412
   39MPD2    C3  596   0.284   1.598   1.559  0.2623  0.0432 -0.2939
   39MPD2    C4  597   0.264   1.464   1.533 -0.1700  0.7405 -0.8329
   39MPD2    C5  598   0.309   1.367   1.625  0.1787 -0.7138  0.8782
   39MPD2     H  599   0.363   1.744   1.701  0.1403  0.9726 -0.9047
   39MPD2    H1  600   0.197   1.440   1.451 -0.5121 -0.9003 -0.0590
   39MPD2    H2  601   0.409   1.330   1.797 -2.7951 -0.4736  0.9440
   39MPD2    H3  602   0.301   1.260   1.611  0.3306 -0.3091 -2.4876
   39MPD2     N  603   0.228   1.696   1.467 -0.1440  0.0921  0.1903
   39MPD2    H5  604   0.171   1.659   1.392  1.6871  1.3495 -1.8053
   39MPD2    N1  605   0.481   1.557   1.867  0.0622 -0.5828  0.6518
   39MPD2    H7  606   0.508   1.473   1.917  0.9227 -2.3870 -2.9164
   40TCq2    C1  607   0.535   1.676   1.899  0.3621  0.7487 -0.7321
   40TCq2    O2  608   0.539   1.784   1.833  0.3356  0.2666  0.0838
   40TCq2    C2  609   0.612   1.664   2.022  0.3742  0.3775 -0.4027
   40TCq2    C3  610   0.620   1.546   2.085  0.2398 -0.9849  0.0714
   40TCq2    C4  611   0.725   1.520   2.166  0.3778  0.7651 -0.2033
   40TCq2    C5  612   0.828   1.614   2.189  0.0165 -0.2173  0.4155
   40TCq2    C6  613   0.821   1.739   2.131 -1.3369  0.2035  0.6695
   40TCq2    C7  614   0.712   1.760   2.044  0.0538 -0.1201 -0.1481
   40TCq2    C8  615   0.947   1.814   2.111 -0.1786 -0.3442 -0.8258
   40TCq2    O4  616   1.045   1.755   2.151  0.2171  0.9264  0.4511
   40TCq2    C9  617   0.716   1.406   2.255 -0.1592 -0.5674 -1.1672
   40TCq2    O5  618   0.621   1.327   2.222 -0.5387  0.4426 -0.0612
   40TCq2    O6  619   0.793   1.385   2.354  0.2535  0.0630 -0.1150
   40TCq2    H2  620   0.531   1.485   2.090 -0.5781  0.3705  1.9575
   40TCq2    H3  621   0.896   1.602   2.274  1.2734  0.6563 -0.4600
   40TCq2    H4  622   0.723   1.844   1.976  1.9407 -1.3628 -1.3859
   41TMC2    C1  623   4.060   0.381  13.558  0.6249 -0.0554  0.3007
   41TMC2    C2  624   4.160   0.429  13.490  0.2048 -0.0322  0.1654
   41TMC2    C3  625   4.158   0.408  13.352  0.6688  0.1666 -0.5339
   41TMC2    C4  626   3.962   0.304  13.499  0.0147  0.2948 -0.0718
   41TMC2    C5  627   3.964   0.285  13.366  0.2976 -0.3328  0.5218
   41TMC2    C6  628   4.057   0.341  13.284  0.5083 -0.7163  0.3542
   41TMC2     C  629   4.046   0.403  13.703  0.1448  0.0403  0.3260
   41TMC2     O  630   3.939   0.366  13.747  0.0762 -0.2687 -0.7054
   41TMC2     H  631   4.241   0.477  13.543  1.1178 -0.1930 -1.0782
   41TMC2    H1  632   3.891   0.252  13.562 -0.2514 -0.7454 -1.2205
   41TMC2    H2  633   4.063   0.326  13.177 -3.4076 -0.6429  0.1150
   41TMC2    C7  634   3.875   0.188  13.306 -0.0742 -0.3755 -0.2665
   41TMC2    C8  635   4.257   0.484  13.272 -0.5505 -0.3689 -0.2185
   41TMC2    O1  636   3.805   0.129  13.385 -0.6330  0.0649  0.1376
   41TMC2    O2  637   4.294   0.439  13.167 -0.2968 -0.0962 -0.0986
   41TMC2    O5  638   4.261   0.615  13.312  0.1133  0.4744 -0.2773
   41TMC2    H5  639   4.218   0.634  13.398 -1.3392  2.1952 -1.3803
   42MPD2     C  640   4.296   0.537  13.925 -0.7091 -0.5214 -0.2018
   42MPD2    C1  641   4.176   0.488  13.891  0.0239  0.1390 -0.4707
   42MPD2    C2  642   4.081   0.446  13.988  0.3230 -0.7378 -0.0104
   42MPD2    C3  643   4.124   0.444  14.120 -0.3601  1.0049 -0.6911
   42MPD2    C4  644   4.251   0.487  14.162 -0.1697  0.5595 -0.3454
   42MPD2    C5  645   4.340   0.524  14.060 -0.4537  0.1264 -0.1299
   42MPD2     H  646   3.978   0.422  13.966 -0.1625  0.0035  1.4409
   42MPD2    H1  647   4.280   0.474  14.266  3.2359  1.4261 -1.1800
   42MPD2    H2  648   4.363   0.580  13.851  1.1183 -0.3284  1.5656
   42MPD2    H3  649   4.439   0.563  14.080 -1.1986  1.9662 -0.0714
   42MPD2     N  650   4.046   0.402  14.225  0.3389 -0.3359 -0.4896
   42MPD2    H5  651   4.095   0.424  14.311  0.1188 -0.4492 -0.3349
   42MPD2    N1  652   4.152   0.474  13.758 -0.3131 -0.2021  0.9273
   42MPD2    H7  653   4.222   0.508  13.694  1.1318 -3.5162  0.7563
   43MPD2     C  654   0.850   2.890   0.563 -0.0770 -0.2749  0.6147
   43MPD2    C1  655   0.975   2.872   0.611  0.6070  0.3928 -0.3658
   43MPD2    C2  656   0.996   2.898   0.743  1.3798  0.5731 -0.7025
   43MPD2    C3  657   0.899   2.920   0.827 -0.1996 -0.3587 -0.5886
   43MPD2    C4  658   0.771   2.938   0.782 -0.0305  0.1553  0.0459
   43MPD2    C5  659   0.745   2.926   0.648 -0.1557  0.5086  0.2706
   43MPD2     H  660   1.098   2.880   0.775  0.9688 -0.8163 -0.2017
   43MPD2    H1  661   0.695   2.969   0.852  0.9362  1.7043  0.3962
   43MPD2    H2  662   0.823   2.894   0.458 -0.6093 -0.9697  0.7227
   43MPD2    H3  663   0.652   2.950   0.598 -1.0321 -3.4076  0.0169
   43MPD2     N  664   0.922   2.944   0.964  0.1035 -0.1678  0.4942
   43MPD2    H5  665   0.836   2.978   1.006 -1.1907 -0.1008 -2.1731
   43MPD2    N1  666   1.085   2.831   0.535 -0.0142  0.2757 -0.2967
   43MPD2    H7  667   1.167   2.815   0.592 -0.1710 -2.0117 -0.7184
   44TCq2    C1  668   1.005   2.791   1.486 -0.0140  0.1751  0.1969
   44TCq2    O2  669   1.095   2.713   1.455 -0.2842 -0.8538  0.6369
   44TCq2    C2  670   0.964   2.890   1.394  0.4322  0.1506 -0.1875
   44TCq2    C3  671   0.869   2.984   1.418  0.4881 -0.1244 -0.0121
   44TCq2    C4  672   0.858   3.082   1.323  0.5831 -0.0788  0.5517
   44TCq2    C5  673   0.929   3.079   1.204 -0.9908  0.3876 -0.0509
   44TCq2    C6  674   1.007   2.966   1.173  0.2348 -0.7011 -0.0601
   44TCq2    C7  675   1.033   2.876   1.273 -0.0873 -0.1833  0.9877
   44TCq2    C8  676   1.032   2.924   1.039 -0.7302  0.1460  0.4137
   44TCq2    O4  677   1.137   2.864   1.021  0.2296 -0.2319  0.1999
   44TCq2    C9  678   0.761   3.183   1.353 -0.1209 -0.3689 -0.0702
   44TCq2    O5  679   0.708   3.196   1.465 -0.2588 -0.4947  0.3625
   44TCq2    O6  680   0.732   3.257   1.254 -0.3208 -0.2862  0.2166
   44TCq2    H2  681   0.815   2.996   1.511  0.7920 -2.3213  0.4454
   44TCq2    H3  682   0.910   3.154   1.129 -2.6528  2.3551  2.3393
   44TCq2    H4  683   1.100   2.792   1.261  0.1839  0.0801  0.6621
   45TMC2    C1  684   1.685   0.773   9.523  0.2163  0.6218 -0.6708
   45TMC2    C2  685   1.674   0.709   9.399  0.0981  0.4199 -0.3170
   45TMC2    C3  686   1.774   0.738   9.313  0.8252  0.4789  0.0924
   45TMC2    C4  687   1.802   0.842   9.566 -0.1565 -0.4077  0.1864
   45TMC2    C5  688   1.903   0.857   9.468  0.0640 -0.6969  0.0607
   45TMC2    C6  689   1.881   0.807   9.341 -0.2235  0.7654  0.7437
   45TMC2     C  690   1.605   0.727   9.633  0.4357 -0.4371  0.0076
   45TMC2     O  691   1.620   0.778   9.744  0.0815  0.1820  0.3327
   45TMC2     H  692   1.587   0.665   9.353  1.3456 -1.8236 -0.5167
   45TMC2    H1  693   1.814   0.877   9.668 -3.2978  1.0297  0.0554
   45TMC2    H2  694   1.955   0.828   9.265 -0.4464 -0.3713  0.2261
   45TMC2    C7  695   2.013   0.953   9.480 -1.1636 -0.7378  0.7738
   45TMC2    C8  696   1.740   0.713   9.172 -0.9554  0.0553  0.4503
   45TMC2    O1  697   2.080   0.971   9.380 -0.0659 -0.8918 -0.7666
   45TMC2    O2  698   1.704   0.600   9.139 -0.2158 -0.4288 -0.5141
   45TMC2    O5  699   1.748   0.832   9.099 -0.8555  0.5114  0.1908
   45TMC2    H5  700   1.759   0.909   9.159 -0.6928 -0.8174  1.8678
   46MPD2     C  701   1.558   0.492   9.809  0.0473  0.1184 -0.3763
   46MPD2    C1  702   1.479   0.522   9.698 -0.6464  0.0748  0.1372
   46MPD2    C2  703   1.362   0.446   9.682  0.2847 -0.4688 -0.0551
   46MPD2    C3  704   1.336   0.325   9.746  0.2410  0.5697  0.4411
   46MPD2    C4  705   1.418   0.299   9.857  0.9554 -0.8471 -0.1717
   46MPD2    C5  706   1.524   0.382   9.889 -0.2449 -0.5731 -0.6447
   46MPD2     H  707   1.295   0.461   9.599  0.1315 -0.9877 -0.0290
   46MPD2    H1  708   1.398   0.221   9.929  0.9422 -0.9638 -0.3032
   46MPD2    H2  709   1.646   0.552   9.831 -0.1003 -0.6880  2.3926
   46MPD2    H3  710   1.579   0.358   9.979  0.4946 -1.6279 -1.3906
   46MPD2     N  711   1.223   0.244   9.716  0.4995  0.0249  0.1298
   46MPD2    H5  712   1.164   0.273   9.639 -0.4451 -0.6896  0.5850
   46MPD2    N1  713   1.522   0.626   9.600  0.2838 -0.5583 -0.4723
   46MPD2    H7  714   1.478   0.631   9.508 -0.7692 -0.8127  0.0190
   47TMC2    C1  715   3.403   1.227   9.288  0.5323 -0.0520 -0.2394
   47TMC2    C2  716   3.362   1.206   9.159  0.3182 -0.1987 -0.3630
   47TMC2    C3  717   3.238   1.149   9.143 -0.5067 -0.0499 -1.4815
   47TMC2    C4  718   3.334   1.185   9.400 -0.0302  0.0714 -0.2367
   47TMC2    C5  719   3.216   1.118   9.373  0.0178  0.5618 -0.1169
   47TMC2    C6  720   3.170   1.092   9.246  0.3935 -0.3170 -1.1614
   47TMC2     C  721   3.514   1.318   9.304 -0.1689  0.6912  0.6505
   47TMC2     O  722   3.488   1.418   9.371  0.2412  0.1270 -0.2736
   47TMC2     H  723   3.424   1.234   9.074  0.4596 -2.0539 -0.8613
   47TMC2    H1  724   3.381   1.192   9.497 -0.8630 -2.9584  0.3950
   47TMC2    H2  725   3.078   1.040   9.223  1.5737 -2.8818 -0.0980
   47TMC2    C7  726   3.132   1.062   9.479 -0.0913  0.6148 -0.8842
   47TMC2    C8  727   3.192   1.116   9.019  0.8574 -0.2989 -0.3263
   47TMC2    O1  728   3.036   0.995   9.446  0.1955 -0.1942 -0.3574
   47TMC2    O2  729   3.146   1.010   8.985 -0.2095  0.1086 -0.0576
   47TMC2    O5  730   3.183   1.226   8.938  0.2126  0.2630 -0.1379
   47TMC2    H5  731   3.194   1.308   8.990  1.3408 -0.5188  0.8441
   48MPD2     C  732   3.758   1.469   9.266 -0.9529 -0.1692 -0.8021
   48MPD2    C1  733   3.754   1.334   9.235 -0.1545 -0.3452 -0.6251
   48MPD2    C2  734   3.858   1.263   9.188  0.0131 -0.5938 -0.4644
   48MPD2    C3  735   3.980   1.328   9.185  0.6148 -0.5605 -0.1818
   48MPD2    C4  736   3.993   1.464   9.207 -0.1533  0.4591 -0.5988
   48MPD2    C5  737   3.877   1.535   9.239 -0.1635  0.9734 -0.6087
   48MPD2     H  738   3.853   1.155   9.175  3.2078 -0.9965  1.6615
   48MPD2    H1  739   4.089   1.511   9.195 -0.1745  0.5329 -0.4668
   48MPD2    H2  740   3.680   1.533   9.306  1.1431  1.1673  1.2184
   48MPD2    H3  741   3.889   1.642   9.248 -1.1878  1.1137 -0.8540
   48MPD2     N  742   4.087   1.241   9.169 -0.0491 -0.5227 -0.3802
   48MPD2    H5  743   4.071   1.141   9.162 -2.4784 -0.0121 -1.8914
   48MPD2    N1  744   3.626   1.265   9.246 -0.2696  0.2576  1.2879
   48MPD2    H7  745   3.624   1.171   9.207  1.2223  0.9312 -0.3986
   49MPD2     C  746   2.011   3.255  10.502  0.6164 -0.4004  0.0515
   49MPD2    C1  747   2.015   3.119  10.512 -1.0667  0.2261  0.4146
   49MPD2    C2  748   2.015   3.064  10.636 -0.0946  0.0063  0.5251
   49MPD2    C3  749   2.028   3.144  10.750  0.4137  0.0470  0.5972
   49MPD2    C4  750   2.019   3.285  10.740  0.6828 -0.1064  0.2130
   49MPD2    C5  751   2.001   3.335  10.612  0.4651 -0.7547 -0.4967
   49MPD2     H  752   2.000   2.958  10.656  0.5713  0.0276  1.1641
   49MPD2    H1  753   2.019   3.365  10.813  0.3165 -0.5340  0.6883
   49MPD2    H2  754   1.979   3.308  10.413  0.3733  0.9159  0.9176
   49MPD2    H3  755   1.985   3.440  10.589  0.3974 -0.6477  0.0427
   49MPD2     N  756   2.025   3.089  10.880 -0.1609  0.0013  0.4631
   49MPD2    H5  757   2.008   3.148  10.961 -4.1282 -0.8937  0.2555
   49MPD2    N1  758   2.018   3.028  10.406  0.0027 -0.4326  0.1780
   49MPD2    H7  759   2.021   2.930  10.434 -0.0004 -0.2861  0.6858
   50TCq2    C1  760   2.000   3.062  10.274  0.5209  0.0975  0.3843
   50TCq2    O2  761   2.000   3.171  10.217  0.6851 -0.3955 -0.9482
   50TCq2    C2  762   1.985   2.939  10.186  0.2561  0.2882  0.1175
   50TCq2    C3  763   1.955   2.970  10.058  0.2156  0.0765  0.2467
   50TCq2    C4  764   1.924   2.866   9.970  0.0932 -0.9178  0.2316
   50TCq2    C5  765   1.899   2.737  10.025  0.1423 -0.0631  0.0247
   50TCq2    C6  766   1.931   2.711  10.158  0.2131 -0.8086 -0.0060
   50TCq2    C7  767   1.984   2.810  10.236 -0.0495  0.1703 -0.2589
   50TCq2    C8  768   1.920   2.580  10.222  0.0676  0.2661 -0.0305
   50TCq2    O4  769   1.937   2.572  10.344 -0.2749 -0.3438 -0.0912
   50TCq2    C9  770   1.893   2.890   9.835  0.0978  0.7755 -0.6882
   50TCq2    O5  771   1.833   2.801   9.771 -0.2177 -0.1033  0.2750
   50TCq2    O6  772   1.936   3.000   9.795  0.2375 -0.1562  0.2880
   50TCq2    H2  773   1.968   3.068  10.013 -0.6785  0.4461  0.7941
   50TCq2    H3  774   1.863   2.658   9.960 -1.4306  0.0926  0.7153
   50TCq2    H4  775   2.037   2.782  10.326 -0.1189 -0.2814 -0.3569
   51MPD2     C  776   1.861   1.618   0.453 -0.2322 -0.0331  0.0064
   51MPD2    C1  777   1.876   1.506   0.528  0.1015  0.1702  0.4403
   51MPD2    C2  778   1.971   1.504   0.630  0.1110  0.6716  0.2244
   51MPD2    C3  779   2.049   1.613   0.657  0.8337  0.3155  0.3890
   51MPD2    C4  780   2.016   1.733   0.593 -0.0497  0.0477 -0.0922
   51MPD2    C5  781   1.919   1.730   0.493  0.2025  0.1067 -0.5339
   51MPD2     H  782   1.989   1.418   0.693  3.1672  1.5203  0.5073
   51MPD2    H1  783   2.070   1.822   0.624 -0.9647  1.4027 -2.3747
   51MPD2    H2  784   1.780   1.619   0.382  0.6155 -0.1394 -0.9709
   51MPD2    H3  785   1.897   1.824   0.443 -0.5113  0.3902  0.3002
   51MPD2     N  786   2.152   1.619   0.758  0.0933  0.2050 -0.1856
   51MPD2    H5  787   2.178   1.714   0.784 -1.9291  1.1174 -1.4546
   51MPD2    N1  788   1.793   1.398   0.500  0.2951 -0.1084 -0.1110
   51MPD2    H7  789   1.742   1.388   0.413  0.5863 -1.9799 -0.0731
   52TCq2    C1  790   2.206   1.511   0.819  0.1369  0.0595  0.7555
   52TCq2    O2  791   2.167   1.396   0.793  0.3594 -0.1391  0.0929
   52TCq2    C2  792   2.317   1.526   0.909 -0.2369  0.4603 -0.8286
   52TCq2    C3  793   2.336   1.416   0.994  0.0504  0.1245  0.0104
   52TCq2    C4  794   2.434   1.422   1.086 -0.4917 -0.5637  0.1715
   52TCq2    C5  795   2.506   1.535   1.111  0.3403  0.1671  0.1604
   52TCq2    C6  796   2.471   1.650   1.033 -0.3790 -0.1412 -0.3491
   52TCq2    C7  797   2.378   1.648   0.933  0.4112 -0.1092 -0.0303
   52TCq2    C8  798   2.531   1.782   1.057 -0.4729 -0.0079 -0.0008
   52TCq2    O4  799   2.543   1.864   0.971  0.5054 -0.0879 -0.4573
   52TCq2    C9  800   2.438   1.311   1.184  0.0620  0.8747  0.1442
   52TCq2    O5  801   2.380   1.207   1.142  0.2349  0.2337 -0.4176
   52TCq2    O6  802   2.465   1.339   1.306 -0.1271  0.5094 -0.4267
   52TCq2    H2  803   2.282   1.325   0.973  0.1955  0.0623 -0.0933
   52TCq2    H3  804   2.584   1.529   1.186  1.0449 -0.0669 -0.5904
   52TCq2    H4  805   2.362   1.741   0.880 -0.2510 -0.2295 -0.0488
   53TMC2    C1  806   2.760   4.512  11.454  0.0954 -0.2597  0.5828
   53TMC2    C2  807   2.851   4.425  11.507 -0.0622  0.0316  0.6586
   53TMC2    C3  808   2.817   4.363  11.623  1.3851  0.4918 -0.7570
   53TMC2    C4  809   2.642   4.531  11.518  0.0406 -1.2699 -0.7112
   53TMC2    C5  810   2.606   4.453  11.628 -0.1119 -0.0652  0.0829
   53TMC2    C6  811   2.700   4.377  11.694 -0.0809 -0.2846  0.0747
   53TMC2     C  812   2.819   4.608  11.366 -0.4203 -0.7910  0.2091
   53TMC2     O  813   2.937   4.625  11.380  0.1319  0.7395  0.6061
   53TMC2     H  814   2.950   4.418  11.464 -0.9194 -0.9780 -1.1621
   53TMC2    H1  815   2.566   4.590  11.469  1.0002  0.7004  0.1704
   53TMC2    H2  816   2.694   4.335  11.794  1.7949 -1.3686 -0.2781
   53TMC2    C7  817   2.476   4.481  11.697 -0.2104  0.3593 -0.1544
   53TMC2    C8  818   2.938   4.351  11.704  0.2783  0.6088  0.9655
   53TMC2    O1  819   2.404   4.577  11.668 -0.3550  0.2873 -0.9780
   53TMC2    O2  820   3.042   4.314  11.657 -0.0317 -0.2293 -0.4393
   53TMC2    O5  821   2.921   4.440  11.800  0.1184  0.3660 -0.1672
   53TMC2    H5  822   2.853   4.508  11.782 -0.2881  0.6326  2.3684
   54MPD2     C  823   2.847   0.143  11.211  0.5933 -0.1651 -0.0743
   54MPD2    C1  824   2.733   0.071  11.224  0.1238  0.0148  0.2648
   54MPD2    C2  825   2.625   0.119  11.155  0.0937 -0.5578 -0.8834
   54MPD2    C3  826   2.618   0.245  11.095  0.1065  0.4049  0.5360
   54MPD2    C4  827   2.740   0.322  11.093  0.9274  0.2196 -0.0385
   54MPD2    C5  828   2.850   0.258  11.134 -0.0317 -0.3193 -0.2866
   54MPD2     H  829   2.534   0.061  11.164  0.2200 -0.4634  0.9864
   54MPD2    H1  830   2.739   0.421  11.047  2.8182 -0.0956 -0.7280
   54MPD2    H2  831   2.941   0.114  11.254  1.3597  0.0057 -1.6467
   54MPD2    H3  832   2.942   0.315  11.131  0.0174 -0.3775  0.0859
   54MPD2     N  833   2.493   0.300  11.054  0.0773  0.1918  0.1003
   54MPD2    H5  834   2.490   0.396  11.023  0.8516  0.0326 -0.4932
   54MPD2    N1  835   2.721   4.671  11.291 -0.6075  0.1848  0.4133
   54MPD2    H7  836   2.634   4.619  11.286  0.2028 -1.2239  0.7386
   55MPD2     C  837   3.585   2.070   0.067 -0.0559  0.6171 -0.8859
   55MPD2    C1  838   3.506   1.991   0.141 -0.0772  0.2045 -0.2416
   55MPD2    C2  839   3.391   2.048   0.190  0.2222  0.0212  0.2580
   55MPD2    C3  840   3.360   2.181   0.164  0.4348 -0.0429 -0.3160
   55MPD2    C4  841   3.443   2.268   0.089 -0.2445 -0.2547 -0.2774
   55MPD2    C5  842   3.554   2.205   0.046  0.0505  0.0542  0.2512
   55MPD2     H  843   3.310   1.995   0.240 -0.3889  2.2491  1.6342
   55MPD2    H1  844   3.428   2.372   0.060 -0.0005 -0.2712 -0.4692
   55MPD2    H2  845   3.677   2.031   0.024  0.4854  0.3726  0.5001
   55MPD2    H3  846   3.617   2.272  17.679  0.8369 -0.4432  0.5222
   55MPD2     N  847   3.236   2.226   0.222 -0.2866 -0.0241 -0.6183
   55MPD2    H5  848   3.198   2.164   0.294  0.4040  0.6672  0.3406
   55MPD2    N1  849   3.560   1.862   0.181 -0.3196  0.1289  0.9002
   55MPD2    H7  850   3.653   1.841   0.145 -0.8596  0.0735 -0.4517
   56TCq2    C1  851   3.501   1.767   0.266 -0.1805  0.0590 -0.8575
   56TCq2    O2  852   3.386   1.768   0.309 -0.2203 -0.1943 -0.2033
   56TCq2    C2  853   3.565   1.632   0.267  0.4996  0.6680  0.3537
   56TCq2    C3  854   3.672   1.613   0.189  0.0252  0.1153 -0.5444
   56TCq2    C4  855   3.737   1.493   0.197  0.2948  0.2157 -0.0960
   56TCq2    C5  856   3.699   1.402   0.287 -0.3652  0.6157 -0.3363
   56TCq2    C6  857   3.600   1.430   0.376 -0.0919  0.1133  0.2528
   56TCq2    C7  858   3.522   1.540   0.359  0.5307  0.2514 -0.0288
   56TCq2    C8  859   3.554   1.321   0.459  0.5516 -0.5473  0.5860
   56TCq2    O4  860   3.620   1.220   0.472  0.2762  0.3587  0.0934
   56TCq2    C9  861   3.851   1.466   0.104  0.3002  0.3282 -0.4957
   56TCq2    O5  862   3.906   1.568   0.057 -0.4036 -0.3783 -0.3266
   56TCq2    O6  863   3.872   1.344   0.075 -0.5682  0.7277 -0.8445
   56TCq2    H2  864   3.698   1.678   0.107  0.2373  0.9187  0.1534
   56TCq2    H3  865   3.743   1.303   0.281 -1.4760  0.0862  0.2298
   56TCq2    H4  866   3.444   1.561   0.430  1.3531  1.4289  0.5277
   57TMC2    C1  867   2.460   3.460  13.609 -0.1226 -0.0287 -0.0101
   57TMC2    C2  868   2.590   3.499  13.630  0.3556 -0.2935 -0.3588
   57TMC2    C3  869   2.688   3.438  13.562  0.8139 -0.9403  0.4291
   57TMC2    C4  870   2.423   3.376  13.508  0.2346 -0.2394 -0.5739
   57TMC2    C5  871   2.522   3.324  13.436  0.5755 -0.2448  0.0662
   57TMC2    C6  872   2.655   3.351  13.468  0.1100  0.0145  0.1349
   57TMC2     C  873   2.367   3.480  13.715  0.4927 -0.5556  0.0634
   57TMC2     O  874   2.407   3.539  13.813  0.2376 -0.0034  0.3476
   57TMC2     H  875   2.615   3.558  13.718 -1.7664  0.2297 -0.1184
   57TMC2    H1  876   2.321   3.353  13.478 -0.1267 -0.5146  0.8853
   57TMC2    H2  877   2.738   3.322  13.404  0.1759 -1.5994  0.9506
   57TMC2    C7  878   2.489   3.231  13.329  0.0880  0.2533 -0.6243
   57TMC2    C8  879   2.820   3.492  13.556 -0.2275  0.3993  0.1473
   57TMC2    O1  880   2.371   3.213  13.304 -0.9137  0.9804  0.5257
   57TMC2    O2  881   2.913   3.436  13.496  0.3454  0.5045 -0.4917
   57TMC2    O5  882   2.808   3.630  13.575 -0.2864  0.0970 -0.3055
   57TMC2    H5  883   2.717   3.662  13.597  0.0713  1.0620 -0.2231
   58MPD2     C  884   1.896   3.415  13.920 -0.1625  0.3398  0.1774
   58MPD2    C1  885   2.000   3.499  13.954 -0.1098 -0.0760  0.2557
   58MPD2    C2  886   2.120   3.493  13.881 -0.1488 -0.0726 -0.6630
   58MPD2    C3  887   2.138   3.412  13.770  0.7441 -0.4726 -0.4507
   58MPD2    C4  888   2.026   3.338  13.729 -0.4853 -0.2422  0.2999
   58MPD2    C5  889   1.914   3.340  13.805 -0.3907 -0.4361 -0.5697
   58MPD2     H  890   2.201   3.552  13.923  0.2025  0.1156 -1.6055
   58MPD2    H1  891   2.024   3.278  13.638  1.3440  0.0081  0.0861
   58MPD2    H2  892   1.801   3.410  13.972 -0.2440  0.4722  0.0411
   58MPD2    H3  893   1.827   3.279  13.783 -2.6155  2.2603  0.7805
   58MPD2     N  894   2.256   3.401  13.697 -0.0865 -0.0714 -0.3520
   58MPD2    H5  895   2.240   3.357  13.607  1.8762 -2.0285  0.2594
   58MPD2    N1  896   1.996   3.590  14.062 -0.0672 -0.4505  0.2120
   58MPD2    H7  897   2.072   3.657  14.062 -1.3399  0.9989  2.3952
   59MPD2     C  898   0.121   4.519  12.850  0.4665  0.0150 -0.3925
   59MPD2    C1  899   0.162   4.385  12.840 -0.2983 -0.5058 -0.7584
   59MPD2    C2  900   0.237   4.329  12.949 -0.1745 -0.3675  0.0987
   59MPD2    C3  901   0.291   4.405  13.047 -0.2346 -0.6642 -0.7504
   59MPD2    C4  902   0.252   4.533  13.050 -0.0349 -0.4100 -0.5789
   59MPD2    C5  903   0.166   4.590  12.959 -0.1894  0.2534 -0.3597
   59MPD2     H  904   0.271   4.226  12.952  0.1405 -0.2022  2.0561
   59MPD2    H1  905   0.284   4.599  13.130 -2.2474 -0.7551  0.5803
   59MPD2    H2  906   0.057   4.564  12.775 -2.8438 -2.4082  0.9448
   59MPD2    H3  907   0.135   4.694  12.968 -1.1628 -0.1824  1.3765
   59MPD2     N  908   0.403   4.372  13.129 -0.0476  0.0745  0.0267
   59MPD2    H5  909   0.422   4.446  13.196 -2.4075  2.1104 -1.5736
   59MPD2    N1  910   0.115   4.311  12.731  1.1975  0.6962 -0.0877
   59MPD2    H7  911   0.066   4.360  12.657 -2.8956 -0.7695  1.6574
   60TCq2    C1  912   0.124   4.173  12.714  0.3521  0.5190 -0.0235
   60TCq2    O2  913   0.179   4.097  12.797  0.1999  0.0115 -0.0900
   60TCq2    C2  914   0.058   4.113  12.596  0.0341  0.2069 -0.3461
   60TCq2    C3  915   0.042   3.978  12.594 -0.2102  0.1622 -0.0234
   60TCq2    C4  916   0.010   3.908  12.478 -0.7584 -0.4873 -0.2817
   60TCq2    C5  917   4.696   3.987  12.371  0.5235 -0.0431  0.7112
   60TCq2    C6  918   4.712   4.119  12.373  0.2091  0.3181  0.3046
   60TCq2    C7  919   0.046   4.184  12.481 -0.1577  0.7346  0.1303
   60TCq2    C8  920   4.657   4.201  12.264 -0.4818 -0.0196 -0.1773
   60TCq2    O4  921   4.595   4.137  12.180 -0.4965  0.0210 -0.3495
   60TCq2    C9  922   4.722   3.769  12.476 -0.3870  0.1276 -0.6589
   60TCq2    O5  923   0.039   3.703  12.576 -0.2071 -0.1220  0.0171
   60TCq2    O6  924   4.703   3.714  12.366  0.2571 -0.7641  0.6405
   60TCq2    H2  925   0.074   3.915  12.677  1.3852 -0.3419 -1.0130
   60TCq2    H3  926   4.657   3.940  12.282 -3.0465 -0.2421  2.3911
   60TCq2    H4  927   0.051   4.292  12.482  0.1058  0.7833 -4.6179
   61MPD2     C  928   3.983   0.888  14.384  0.3791 -0.3411 -0.8772
   61MPD2    C1  929   4.097   0.951  14.428  0.2602 -0.3900 -0.1773
   61MPD2    C2  930   4.106   1.087  14.448 -0.8546 -0.2538  0.5854
   61MPD2    C3  931   3.991   1.162  14.424 -0.4330  0.4611 -0.0132
   61MPD2    C4  932   3.874   1.109  14.372  0.5875 -0.0487  0.0735
   61MPD2    C5  933   3.875   0.972  14.357  0.4743  0.0418 -1.0383
   61MPD2     H  934   4.202   1.129  14.476 -1.3759  1.3856 -0.0612
   61MPD2    H1  935   3.786   1.165  14.346  0.8990  0.4835  0.1710
   61MPD2    H2  936   3.984   0.782  14.361 -0.6097 -0.5804  0.1770
   61MPD2    H3  937   3.787   0.930  14.309 -0.0815 -0.5506  0.5171
   61MPD2     N  938   3.982   1.300  14.448 -0.0017  0.5848 -0.1006
   61MPD2    H5  939   3.904   1.341  14.397 -0.2555  1.1644  0.7613
   61MPD2    N1  940   4.218   0.874  14.455 -0.4013 -0.1671 -0.4232
   61MPD2    H7  941   4.301   0.928  14.478 -0.0762 -0.4968 -0.8061
   62TCq2    C1  942   4.230   0.737  14.463 -0.2293  0.0111  0.3686
   62TCq2    O2  943   4.152   0.646  14.439 -0.0971 -0.0281 -0.2507
   62TCq2    C2  944   4.344   0.701  14.542  0.1600  0.2131  0.7042
   62TCq2    C3  945   4.364   0.566  14.573  0.7644 -0.4479  0.0022
   62TCq2    C4  946   4.430   0.539  14.684  0.2588  0.3020 -0.1128
   62TCq2    C5  947   4.481   0.629  14.776 -0.2250 -0.0363 -0.2492
   62TCq2    C6  948   4.464   0.756  14.734  0.2403 -0.1707  0.1661
   62TCq2    C7  949   4.400   0.799  14.619  0.1466  0.1788  0.8244
   62TCq2    C8  950   4.507   0.859  14.833  0.3451 -0.0696 -0.5404
   62TCq2    O4  951   4.477   0.976  14.814  0.4469  0.2150 -0.4612
   62TCq2    C9  952   4.444   0.403  14.723  0.0895 -0.7660  0.5006
   62TCq2    O5  953   4.433   0.313  14.639 -0.4012  0.2343  0.0362
   62TCq2    O6  954   4.474   0.381  14.844 -0.1630 -0.3207 -0.1250
   62TCq2    H2  955   4.315   0.486  14.518  1.7621 -0.5681 -0.7008
   62TCq2    H3  956   4.524   0.592  14.869  1.0718  0.3274 -0.7113
   62TCq2    H4  957   4.384   0.906  14.607 -1.0891  0.0727  1.5712
   63TMC2    C1  958   4.056   0.764  10.637  0.6685  0.3685  0.6244
   63TMC2    C2  959   4.125   0.813  10.743 -0.2019  0.1625 -0.0519
   63TMC2    C3  960   4.243   0.874  10.716  0.1420  0.1143 -0.6795
   63TMC2    C4  961   4.088   0.788  10.503  0.0980  0.2713 -0.0065
   63TMC2    C5  962   4.195   0.874  10.482 -0.0850 -0.4985  0.1141
   63TMC2    C6  963   4.272   0.910  10.585 -0.4519 -0.0358  0.1960
   63TMC2     C  964   3.918   0.730  10.659 -1.0544  0.4472 -0.4023
   63TMC2     O  965   3.864   0.779  10.760 -0.1626  0.2341  1.0569
   63TMC2     H  966   4.075   0.822  10.839 -0.3434  0.0819 -0.1175
   63TMC2    H1  967   4.033   0.738  10.424  1.7221  0.4572 -1.2566
   63TMC2    H2  968   4.360   0.971  10.565  0.2443 -0.7620  1.0138
   63TMC2    C7  969   4.219   0.907  10.344 -0.7848  0.5060  0.0185
   63TMC2    C8  970   4.302   0.959  10.818 -0.3237 -0.3331 -0.1739
   63TMC2    O1  971   4.155   0.848  10.254  0.6823 -0.0474 -0.0513
   63TMC2    O2  972   4.386   1.042  10.788  0.3315 -0.0616 -0.4117
   63TMC2    O5  973   4.301   0.894  10.936 -0.8176 -0.0690 -0.4780
   63TMC2    H5  974   4.247   0.813  10.950  0.2068 -1.1854 -3.0318
   64MPD2     C  975   3.497   0.474  10.566  0.5454  0.1080 -0.2244
   64MPD2    C1  976   3.597   0.424  10.487 -0.2821  0.2280 -0.5915
   64MPD2    C2  977   3.716   0.486  10.481 -0.1075  0.0562  0.1530
   64MPD2    C3  978   3.739   0.585  10.570  0.1399 -0.4322 -0.2441
   64MPD2    C4  979   3.639   0.637  10.650  0.2448  0.5287  0.3406
   64MPD2    C5  980   3.510   0.587  10.647 -0.2676 -0.5127 -0.2408
   64MPD2     H  981   3.784   0.446  10.406 -0.0939 -0.7313  0.5963
   64MPD2    H1  982   3.663   0.725  10.708  0.3259 -0.0480  1.1831
   64MPD2    H2  983   3.400   0.429  10.583  0.6935  0.3931  1.4084
   64MPD2    H3  984   3.427   0.631  10.700  0.9895  0.6833  0.7106
   64MPD2     N  985   3.872   0.634  10.573  0.2135 -0.5793 -0.2366
   64MPD2    H5  986   3.944   0.597  10.510 -0.7870 -0.8117 -1.2555
   64MPD2    N1  987   3.589   0.302  10.421 -0.7212 -0.3127  0.2450
   64MPD2    H7  988   3.668   0.268  10.367 -1.9208 -3.0559  0.2236
   65MPD2     C  989   0.513   0.152  16.050  1.0441  0.3223  0.6728
   65MPD2    C1  990   0.520   0.135  15.916  0.1795  0.0780 -0.7808
   65MPD2    C2  991   0.482   0.015  15.873  0.2021  0.0849  0.3835
   65MPD2    C3  992   0.458   4.625  15.955 -0.1403 -0.3543  0.5822
   65MPD2    C4  993   0.460   4.644  16.092  0.2994 -0.3205 -0.0482
   65MPD2    C5  994   0.484   0.048  16.134  0.3662 -0.9904 -0.4082
   65MPD2     H  995   0.476   0.010  15.765  0.0210  0.8729  0.3561
   65MPD2    H1  996   0.434   4.569  16.166  1.1235 -0.6074 -0.0466
   65MPD2    H2  997   0.533   0.244  16.102 -0.0190  0.9795 -0.0717
   65MPD2    H3  998   0.471   0.070  16.239 -2.2444 -0.0406 -0.9237
   65MPD2     N  999   0.427   4.497  15.904  0.1957  0.5237 -0.4080
   65MPD2    H5 1000   0.412   4.419  15.968 -2.6167  1.3118 -0.0781
   65MPD2    N1 1001   0.551   0.237  15.822  0.1666  0.5281 -0.1240
   65MPD2    H7 1002   0.549   0.214  15.723  1.2838  3.1825 -0.7684
   66TCq2    C1 1003   0.602   0.358  15.851 -0.0965 -0.0225  0.1594
   66TCq2    O2 1004   0.598   0.412  15.963  0.4421 -0.4807 -0.2451
   66TCq2    C2 1005   0.650   0.425  15.734 -0.1898  0.0867  0.1571
   66TCq2    C3 1006   0.654   0.359  15.613 -0.1080  0.7073 -0.0484
   66TCq2    C4 1007   0.654   0.436  15.498 -0.1800 -0.7159  0.3289
   66TCq2    C5 1008   0.659   0.581  15.509 -0.0165  0.0951 -0.0152
   66TCq2    C6 1009   0.659   0.639  15.630  0.3794  0.4503 -0.3026
   66TCq2    C7 1010   0.656   0.560  15.742  0.6284  0.5602  0.1501
   66TCq2    C8 1011   0.636   0.778  15.645  1.1580  0.9660 -0.4596
   66TCq2    O4 1012   0.665   0.856  15.554 -0.1964 -0.1310 -0.2213
   66TCq2    C9 1013   0.663   0.365  15.376 -0.1990  0.9168 -0.3682
   66TCq2    O5 1014   0.618   0.248  15.366  0.3026 -0.2097 -0.4448
   66TCq2    O6 1015   0.723   0.430  15.284  0.1033  0.3523 -0.2689
   66TCq2    H2 1016   0.661   0.251  15.610  0.8001  0.7007  2.1302
   66TCq2    H3 1017   0.670   0.643  15.421  0.6074 -2.1334 -1.5277
   66TCq2    H4 1018   0.654   0.601  15.842 -0.9203 -1.2088  0.8182
   67MPD2     C 1019   0.347   4.638  14.179 -0.4187 -0.9291 -0.1839
   67MPD2    C1 1020   0.286   4.677  14.299 -0.3434 -0.1728 -0.4069
   67MPD2    C2 1021   0.148   4.697  14.291  0.4108  0.7353  0.2350
   67MPD2    C3 1022   0.077   4.674  14.178  0.2386 -0.7253  0.4627
   67MPD2    C4 1023   0.141   4.637  14.060 -0.0486  0.2014 -0.7184
   67MPD2    C5 1024   0.276   4.626  14.065 -0.5125 -0.1213  0.4108
   67MPD2     H 1025   0.091   4.701  14.383 -0.1127 -2.1436  0.0620
   67MPD2    H1 1026   0.092   4.620  13.965 -0.7176  3.2143 -0.9172
   67MPD2    H2 1027   0.455   4.635  14.189 -0.6678 -1.2608  2.5030
   67MPD2    H3 1028   0.330   4.595  13.977  0.7359 -0.1931  1.2027
   67MPD2     N 1029   4.659   4.683  14.174  0.5035 -0.1484 -0.0196
   67MPD2    H5 1030   4.621   4.675  14.080 -0.1614  2.4654  0.0284
   67MPD2    N1 1031   0.340   4.695  14.428 -0.0928  0.0127  0.2857
   67MPD2    H7 1032   0.291   0.014  14.507 -0.4850  1.7241 -0.8477
   68TCq2    C1 1033   0.463   4.645  14.461  0.2221  0.1691 -0.5723
   68TCq2    O2 1034   0.534   4.574  14.394 -0.1496  0.3302 -0.2160
   68TCq2    C2 1035   0.517   4.677  14.595  0.2312 -0.3441  0.6903
   68TCq2    C3 1036   0.470   0.051  14.680  0.3689 -0.0938  0.7031
   68TCq2    C4 1037   0.528   0.069  14.803 -0.1491  0.2180 -0.0526
   68TCq2    C5 1038   0.640   0.000  14.835 -0.1627 -0.2457 -0.6974
   68TCq2    C6 1039   0.677   4.616  14.758 -0.3299 -0.4008  0.0006
   68TCq2    C7 1040   0.614   4.595  14.639 -0.1177 -0.3044 -0.0934
   68TCq2    C8 1041   0.776   4.528  14.812 -0.4064  0.1317 -0.2261
   68TCq2    O4 1042   0.795   4.437  14.733  0.4897  0.3857  0.6816
   68TCq2    C9 1043   0.479   0.165  14.896  0.5889 -0.1363 -0.9092
   68TCq2    O5 1044   0.369   0.218  14.867 -0.3376 -0.6399  0.2632
   68TCq2    O6 1045   0.526   0.149  15.015 -0.2941 -0.3551  0.0633
   68TCq2    H2 1046   0.384   0.111  14.654  1.0045  0.2798 -0.5368
   68TCq2    H3 1047   0.702   0.027  14.919 -1.3793  2.1081 -0.5504
   68TCq2    H4 1048   0.652   4.518  14.574  0.3645  1.7763 -2.2820
   69TMC2    C1 1049   2.550   0.347  12.277  0.1104 -0.4259  0.4137
   69TMC2    C2 1050   2.464   0.240  12.249 -0.4209 -0.1412 -0.8218
   69TMC2    C3 1051   2.514   0.144  12.161  0.3070  0.0590 -0.2732
   69TMC2    C4 1052   2.680   0.356  12.223  0.2132 -0.6399 -0.2531
   69TMC2    C5 1053   2.722   0.253  12.145  0.8169  0.2281 -0.3578
   69TMC2    C6 1054   2.641   0.149  12.111 -0.1516  0.2927  0.5135
   69TMC2     C 1055   2.518   0.426  12.393 -0.6741 -0.3841  0.7817
   69TMC2     O 1056   2.427   0.381  12.464  0.0847 -0.3595 -0.6770
   69TMC2     H 1057   2.372   0.227  12.305  1.3555  0.0583  2.1472
   69TMC2    H1 1058   2.744   0.442  12.239 -2.1155  0.9327  0.5786
   69TMC2    H2 1059   2.672   0.073  12.040  0.5026  1.4104 -0.4083
   69TMC2    C7 1060   2.838   0.267  12.063 -0.4713 -0.3334 -0.1747
   69TMC2    C8 1061   2.451   0.016  12.150 -0.0319 -0.1063 -0.5067
   69TMC2    O1 1062   2.849   0.199  11.961 -0.0505  0.3143  0.0986
   69TMC2    O2 1063   2.511   4.630  12.147  1.0630  0.2178  0.4367
   69TMC2    O5 1064   2.324   0.037  12.187 -0.0901 -0.1790 -0.8422
   69TMC2    H5 1065   2.297   0.126  12.155 -1.2523 -0.5247 -0.8232
   70MPD2     C 1066   2.681   0.716  12.539 -0.0687  0.3741 -0.0333
   70MPD2    C1 1067   2.591   0.618  12.534 -0.7405 -1.0046 -0.1716
   70MPD2    C2 1068   2.499   0.602  12.635  0.0086 -0.9653  0.6245
   70MPD2    C3 1069   2.512   0.674  12.751  1.0736  0.4169  1.1369
   70MPD2    C4 1070   2.617   0.761  12.762 -0.3948 -0.2609  0.7933
   70MPD2    C5 1071   2.698   0.783  12.654 -0.7878  0.4618  0.5379
   70MPD2     H 1072   2.446   0.508  12.638 -0.8772 -0.4670  0.4013
   70MPD2    H1 1073   2.649   0.806  12.856 -1.0295  0.9724  0.4196
   70MPD2    H2 1074   2.757   0.722  12.462  0.0391 -3.0612 -0.1918
   70MPD2    H3 1075   2.775   0.858  12.666  1.6501 -1.5181 -2.4870
   70MPD2     N 1076   2.441   0.648  12.863  0.6700  0.3445 -0.5679
   70MPD2    H5 1077   2.490   0.684  12.944 -1.5929  1.7384  0.1681
   70MPD2    N1 1078   2.600   0.538  12.420 -0.0222  0.0236 -0.3318
   70MPD2    H7 1079   2.677   0.564  12.361  1.0190  0.8857  1.3999
   71TMC2    C1 1080   0.622   0.520   2.338  0.4480 -0.2538 -0.5678
   71TMC2    C2 1081   0.654   0.425   2.438  0.2564  0.0517  0.7124
   71TMC2    C3 1082   0.569   0.319   2.456  0.0143 -0.4875 -0.0897
   71TMC2    C4 1083   0.509   0.512   2.266  0.0885 -0.3125  0.1628
   71TMC2    C5 1084   0.427   0.400   2.291 -0.2828  1.1511  0.5060
   71TMC2    C6 1085   0.462   0.301   2.372  0.4190  0.5055 -0.5191
   71TMC2     C 1086   0.714   0.618   2.294  0.8002 -0.4656  0.0590
   71TMC2     O 1087   0.714   0.648   2.176 -0.0775  0.1151  0.0257
   71TMC2     H 1088   0.750   0.433   2.487  0.4956  0.9456  0.1005
   71TMC2    H1 1089   0.491   0.586   2.189  0.3394 -1.0488 -0.5994
   71TMC2    H2 1090   0.400   0.213   2.385  1.7888  0.0592  2.9875
   71TMC2    C7 1091   0.308   0.373   2.220 -0.1346 -0.1388 -0.7150
   71TMC2    C8 1092   0.622   0.210   2.536 -0.2600  0.4483 -0.1282
   71TMC2    O1 1093   0.286   0.253   2.193  0.2308  0.3503 -0.6541
   71TMC2    O2 1094   0.736   0.212   2.584 -0.4314  0.6091  0.2386
   71TMC2    O5 1095   0.516   0.148   2.603  0.4069  0.0832  0.0898
   71TMC2    H5 1096   0.427   0.177   2.573  0.2996 -0.6377 -0.2976
   72MPD2     C 1097   1.030   1.025   2.332 -0.4454 -0.2523 -0.4482
   72MPD2    C1 1098   0.933   0.993   2.239 -0.4575 -0.0443 -0.4934
   72MPD2    C2 1099   0.866   0.877   2.259  0.1604 -0.4357  0.0127
   72MPD2    C3 1100   0.887   0.784   2.361  0.2669  0.5892  0.4387
   72MPD2    C4 1101   0.985   0.820   2.451  0.0711 -0.7900 -0.1413
   72MPD2    C5 1102   1.062   0.928   2.426  0.1972 -0.6167 -0.2263
   72MPD2     H 1103   0.790   0.862   2.183  0.3995  1.9037 -0.6723
   72MPD2    H1 1104   1.018   0.748   2.525  0.9289 -2.4157 -2.0958
   72MPD2    H2 1105   1.101   1.105   2.315 -0.7929  0.1106 -0.1750
   72MPD2    H3 1106   1.155   0.932   2.481  0.0642 -0.9362  0.0256
   72MPD2     N 1107   0.805   0.671   2.386 -0.1481 -0.0130  0.2480
   72MPD2    H5 1108   0.806   0.626   2.477 -0.0702 -1.7971 -0.6359
   72MPD2    N1 1109   0.901   1.072   2.128  0.0642 -0.8501 -0.4933
   72MPD2    H7 1110   0.817   1.042   2.080 -0.8398 -0.2671  0.7145
   73TMC2    C1 1111   4.392   3.466  13.257 -0.2907 -0.0517  0.7371
   73TMC2    C2 1112   4.302   3.371  13.278 -0.4900  0.4180  0.1208
   73TMC2    C3 1113   4.338   3.244  13.294  0.1728  0.5665  0.0644
   73TMC2    C4 1114   4.524   3.433  13.277  0.1143 -0.0872 -0.0008
   73TMC2    C5 1115   4.564   3.305  13.297  0.1722 -0.5356 -0.6518
   73TMC2    C6 1116   4.468   3.208  13.310  0.3859 -0.6354 -0.1522
   73TMC2     C 1117   4.365   3.579  13.335 -0.2142  0.0186  0.1396
   73TMC2     O 1118   4.465   3.629  13.380  0.0690  0.6781  0.0030
   73TMC2     H 1119   4.197   3.396  13.263 -0.6557  0.3118  1.0982
   73TMC2    H1 1120   4.595   3.510  13.250 -0.4796  0.5247  0.1743
   73TMC2    H2 1121   4.497   3.111  13.347 -0.1714 -1.3495 -1.6145
   73TMC2    C7 1122   4.644   3.295  13.414 -0.4602 -0.7151 -0.3082
   73TMC2    C8 1123   4.236   3.135  13.278  0.4268 -0.2817  0.0341
   73TMC2    O1 1124   4.699   3.190  13.445  0.5599  0.0410 -0.4923
   73TMC2    O2 1125   4.247   3.036  13.207  0.1806 -0.0114 -0.5330
   73TMC2    O5 1126   4.123   3.183  13.313  0.2351 -0.3871  0.1116
   73TMC2    H5 1127   4.132   3.260  13.373  1.9036 -0.6681  0.2143
   74MPD2     C 1128   4.114   3.974  13.542 -0.0273 -0.0236  0.5309
   74MPD2    C1 1129   4.224   3.904  13.582  1.1635 -0.6276 -0.6924
   74MPD2    C2 1130   4.278   3.804  13.504 -0.4676 -0.1070 -0.0345
   74MPD2    C3 1131   4.210   3.762  13.396  0.7489  0.3352 -0.1101
   74MPD2    C4 1132   4.087   3.821  13.369 -0.2837  0.6439 -0.0793
   74MPD2    C5 1133   4.044   3.930  13.440  0.4553  0.2513 -0.8133
   74MPD2     H 1134   4.376   3.766  13.533  0.5046  0.8123 -2.0683
   74MPD2    H1 1135   4.028   3.797  13.281  0.3553  1.1858 -0.6574
   74MPD2    H2 1136   4.070   4.048  13.608  0.5036 -1.1757  2.1671
   74MPD2    H3 1137   3.964   4.000  13.416 -1.4289 -1.4525  0.5203
   74MPD2     N 1138   4.246   3.645  13.323  0.1010  0.7543 -0.1501
   74MPD2    H5 1139   4.179   3.604  13.259 -0.6696  1.7267  0.0369
   74MPD2    N1 1140   4.281   3.943  13.707  0.3086  0.0554  0.2226
   74MPD2    H7 1141   4.248   4.029  13.748  0.3905 -0.3431  1.1279
   75TCq2    C1 1142   4.573   4.708  14.279 -0.2521  0.0958 -0.2493
   75TCq2    O2 1143   4.597   4.689  14.396  0.0361  0.2082 -0.8222
   75TCq2    C2 1144   4.436   0.010  14.250  0.2082 -0.0940  0.3437
   75TCq2    C3 1145   4.335   4.676  14.330 -0.7553 -0.8993  0.0888
   75TCq2    C4 1146   4.204   4.696  14.290 -0.6206 -0.6531 -0.0496
   75TCq2    C5 1147   4.171   0.015  14.159 -0.1476 -0.4714 -0.3604
   75TCq2    C6 1148   4.273   0.070  14.086  0.2314  0.2288 -0.0813
   75TCq2    C7 1149   4.406   0.063  14.126 -0.0612 -0.7553  0.2061
   75TCq2    C8 1150   4.247   0.096  13.947  0.0509 -1.0150 -1.1071
   75TCq2    O4 1151   4.143   0.058  13.894  0.4659 -0.3634 -0.3529
   75TCq2    C9 1152   4.097   4.649  14.377  0.1725 -0.0816 -0.7694
   75TCq2    O5 1153   4.117   4.621  14.498 -0.3746  0.0425 -0.5652
   75TCq2    O6 1154   3.981   4.634  14.326  0.1412  0.1610  0.6162
   75TCq2    H2 1155   4.363   4.639  14.428  1.8753  0.3823 -0.1715
   75TCq2    H3 1156   4.067   0.011  14.127 -1.3580 -0.8923  3.6070
   75TCq2    H4 1157   4.491   0.092  14.066 -0.9632  0.9701 -0.2225
   76MPD2     C 1158   3.797   0.292  11.305  0.3786  0.4229 -0.2897
   76MPD2    C1 1159   3.701   0.243  11.397 -0.0438  0.4011  0.2726
   76MPD2    C2 1160   3.727   0.119  11.451 -0.0691  0.4026  0.0113
   76MPD2    C3 1161   3.833   0.039  11.415  0.0302  0.0805 -0.0002
   76MPD2    C4 1162   3.918   0.083  11.311 -0.6524  0.2962 -0.5038
   76MPD2    C5 1163   3.905   0.211  11.268 -0.2350  0.0180 -0.2406
   76MPD2     H 1164   3.659   0.077  11.524  0.9752 -1.6124 -0.1716
   76MPD2    H1 1165   3.983   0.011  11.262  1.1563  1.3322  0.3979
   76MPD2    H2 1166   3.787   0.389  11.259  0.8121 -0.1092 -1.5051
   76MPD2    H3 1167   3.970   0.242  11.188 -0.0860  0.8352  0.1865
   76MPD2     N 1168   3.859   4.638  11.477 -0.5202 -0.0373 -0.5045
   76MPD2    H5 1169   3.936   4.585  11.438 -0.6201 -0.5225 -0.0479
   76MPD2    N1 1170   3.579   0.309  11.427 -0.2779 -0.1161  1.3617
   76MPD2    H7 1171   3.518   0.277  11.501 -1.7601 -0.5070 -0.0111
   77TCq2    C1 1172   3.812   4.598  11.598 -0.1514 -0.1465  0.3099
   77TCq2    O2 1173   3.760   4.663  11.689 -0.1999  0.3150  0.0653
   77TCq2    C2 1174   3.810   4.453  11.614  0.2308  0.3553 -0.4024
   77TCq2    C3 1175   3.829   4.374  11.499 -0.6667 -0.1106 -0.3936
   77TCq2    C4 1176   3.811   4.243  11.496 -0.0524  0.4369  0.0021
   77TCq2    C5 1177   3.781   4.178  11.611 -0.5784 -0.5636 -0.4331
   77TCq2    C6 1178   3.762   4.252  11.725  0.8502 -0.4248  0.1727
   77TCq2    C7 1179   3.777   4.391  11.733  0.6266 -0.2571 -0.1938
   77TCq2    C8 1180   3.744   4.175  11.847 -0.3845 -0.4495  0.4180
   77TCq2    O4 1181   3.672   4.075  11.854 -0.3671 -0.2770 -0.3512
   77TCq2    C9 1182   3.811   4.166  11.370 -0.1351 -0.0016 -0.4789
   77TCq2    O5 1183   3.755   4.051  11.368 -0.2198 -0.1181 -0.2936
   77TCq2    O6 1184   3.834   4.236  11.269 -0.2283  0.1690  0.6537
   77TCq2    H2 1185   3.860   4.419  11.406 -1.3605  1.3838  0.1086
   77TCq2    H3 1186   3.756   4.073  11.606 -1.8584 -0.2500 -0.4656
   77TCq2    H4 1187   3.765   4.454  11.820 -1.7022 -0.5109 -0.3251
   78MPD1     C 1188   0.514   3.553   1.780 -0.1226  0.2663  0.6193
   78MPD1    C1 1189   0.551   3.653   1.866 -0.3995 -0.3306  0.4073
   78MPD1    C2 1190   0.450   3.717   1.937 -0.4584  0.3626  0.3504
   78MPD1    C3 1191   0.316   3.689   1.912 -0.0217 -0.4502  0.3268
   78MPD1    C4 1192   0.285   3.593   1.823 -0.6770 -0.6399 -0.9751
   78MPD1    C5 1193   0.385   3.525   1.761 -0.2689  0.0563 -0.0196
   78MPD1     H 1194   0.475   3.784   2.018  1.2526  0.7314 -0.4810
   78MPD1    H1 1195   0.182   3.568   1.801 -0.2989 -0.8910 -2.4229
   78MPD1    H2 1196   0.593   3.493   1.737  0.9787  2.0690  0.1121
   78MPD1    H3 1197   0.365   3.448   1.686 -0.0453 -0.6988  0.6923
   78MPD1     N 1198   0.213   3.761   1.973  0.0288 -0.3207 -0.0069
   78MPD1    H5 1199   0.120   3.724   1.959  0.4531 -1.0893 -0.7578
   78MPD1    N1 1200   0.683   3.664   1.909 -0.0616  0.3624  0.0841
   78MPD1    H6 1201   0.691   3.760   1.942 -0.5999 -0.4675  2.5832
   78MPD1    H7 1202   0.752   3.639   1.838 -1.8819  1.1685 -1.9772
   79TCq2    C1 1203   0.225   3.879   2.046  0.7033 -0.0168 -0.0992
   79TCq2    O2 1204   0.323   3.949   2.069  0.1828 -0.1755 -0.2616
   79TCq2    C2 1205   0.100   3.938   2.084 -0.3321 -0.1231  0.3750
   79TCq2    C3 1206   4.705   3.865   2.110  0.1234 -0.4608  0.0961
   79TCq2    C4 1207   4.585   3.935   2.132  0.2338 -0.3794  1.2112
   79TCq2    C5 1208   4.586   4.068   2.121 -0.3684 -0.0034  0.0614
   79TCq2    C6 1209   4.701   4.135   2.087  0.1595 -0.0543  0.0123
   79TCq2    C7 1210   0.099   4.071   2.063 -0.7283 -0.3316 -0.0734
   79TCq2    C8 1211   4.707   4.272   2.039  0.5212  1.2826 -0.2829
   79TCq2    O4 1212   0.101   4.313   2.031 -0.0121  0.4134  0.0517
   79TCq2    C9 1213   4.463   3.859   2.151  0.7341  0.5369 -0.6040
   79TCq2    O5 1214   4.471   3.734   2.160  0.0641  0.5801  0.2266
   79TCq2    O6 1215   4.352   3.919   2.139 -0.9141  0.2354  0.0813
   79TCq2    H2 1216   4.712   3.761   2.139 -0.3047 -0.2184  1.0699
   79TCq2    H3 1217   4.496   4.128   2.131 -1.3969 -1.7403  1.2264
   79TCq2    H4 1218   0.189   4.118   2.024 -0.8141 -0.1322 -0.0314
   80MPD2     C 1219   2.498   4.080  11.387 -0.2236 -0.3166 -0.3724
   80MPD2    C1 1220   2.413   3.999  11.462  0.0111  0.4069 -0.1924
   80MPD2    C2 1221   2.284   4.041  11.505 -0.5313 -0.5621 -0.7777
   80MPD2    C3 1222   2.255   4.174  11.502 -0.1257  0.1410 -0.1027
   80MPD2    C4 1223   2.349   4.257  11.437 -0.3124 -0.5434 -0.1152
   80MPD2    C5 1224   2.465   4.212  11.381  0.4379 -0.1143 -0.2274
   80MPD2     H 1225   2.228   3.963  11.556  0.5391 -0.3088  0.8116
   80MPD2    H1 1226   2.336   4.363  11.418  0.2631  0.0214  2.6465
   80MPD2    H2 1227   2.593   4.048  11.346  0.1213  0.4454 -0.1846
   80MPD2    H3 1228   2.532   4.283  11.334  2.4736 -2.6316 -1.1356
   80MPD2     N 1229   2.141   4.231  11.559  0.4608  0.0355  0.0351
   80MPD2    H5 1230   2.133   4.330  11.539 -0.4705 -0.0590 -0.0559
   80MPD2    N1 1231   2.447   3.869  11.503 -0.1555 -0.3874  0.1430
   80MPD2    H7 1232   2.362   3.830  11.543 -1.5234  0.7844 -1.6105
   81TCq2    C1 1233   2.580   3.828  11.524  0.4284 -0.0551 -0.1264
   81TCq2    O2 1234   2.682   3.896  11.506  0.2683  0.4287 -0.5473
   81TCq2    C2 1235   2.602   3.708  11.606 -0.8150 -0.5047 -0.0197
   81TCq2    C3 1236   2.493   3.620  11.614  0.2025 -0.3915  0.2221
   81TCq2    C4 1237   2.472   3.546  11.722  0.2248  0.1796  0.1925
   81TCq2    C5 1238   2.544   3.568  11.835  0.1517  0.3294 -0.2188
   81TCq2    C6 1239   2.649   3.658  11.834  0.5236  0.0349 -0.4235
   81TCq2    C7 1240   2.675   3.718  11.714 -0.2248  0.1018  0.3757
   81TCq2    C8 1241   2.723   3.695  11.953 -0.0519  0.1415  0.8927
   81TCq2    O4 1242   2.840   3.727  11.943  0.2570 -0.2872  0.3905
   81TCq2    C9 1243   2.365   3.448  11.725 -0.1190 -0.0899  0.0100
   81TCq2    O5 1244   2.285   3.460  11.624  0.2277 -0.4223  0.1390
   81TCq2    O6 1245   2.332   3.396  11.838  0.1179 -0.2757  0.4333
   81TCq2    H2 1246   2.446   3.592  11.520  1.4012  2.0630 -1.1412
   81TCq2    H3 1247   2.533   3.499  11.918  0.8776 -0.2467 -0.6053
   81TCq2    H4 1248   2.757   3.789  11.713 -1.4712  1.5148 -1.1177
   82MPD2     C 1249   0.401   4.662  11.296 -0.2058 -0.5882  0.3940
   82MPD2    C1 1250   0.492   4.668  11.193  0.0283 -0.4895  0.3933
   82MPD2    C2 1251   0.604   4.586  11.208  0.5598 -1.0574  0.0559
   82MPD2    C3 1252   0.610   4.489  11.313 -0.0343 -0.3468  0.0542
   82MPD2    C4 1253   0.511   4.482  11.405 -0.3514 -0.1003  0.3237
   82MPD2    C5 1254   0.411   4.579  11.404 -0.4312  0.9044  0.2284
   82MPD2     H 1255   0.689   4.587  11.141  0.5112 -3.8914 -0.0504
   82MPD2    H1 1256   0.501   4.397  11.472  1.7168  1.1091  2.1873
   82MPD2    H2 1257   0.308   4.717  11.301  1.2060  1.8006  0.2259
   82MPD2    H3 1258   0.322   4.580  11.466  0.7587  3.6719  1.8669
   82MPD2     N 1259   0.710   4.393  11.322  0.7457 -0.2111 -0.7555
   82MPD2    H5 1260   0.690   4.313  11.381 -0.8439  0.2623 -0.6569
   82MPD2    N1 1261   0.460   0.010  11.074  0.8093 -0.2392 -0.1372
   82MPD2    H7 1262   0.365   0.038  11.051 -0.4584 -3.7184  0.7730
   83TCq2    C1 1263   0.814   4.382  11.237 -0.0388  0.6241  0.0840
   83TCq2    O2 1264   0.873   4.475  11.189  0.4312  0.5324  0.1874
   83TCq2    C2 1265   0.874   4.258  11.265 -0.3064  0.0977 -0.4346
   83TCq2    C3 1266   1.015   4.259  11.259 -0.9051 -0.0296  0.6941
   83TCq2    C4 1267   1.081   4.144  11.228  0.7548  0.4206 -0.5422
   83TCq2    C5 1268   1.012   4.031  11.191 -0.0961  0.1540 -0.0742
   83TCq2    C6 1269   0.877   4.042  11.187  0.3000 -0.9014 -0.4227
   83TCq2    C7 1270   0.801   4.149  11.219  0.0135 -0.1870  1.0350
   83TCq2    C8 1271   0.802   3.922  11.195 -0.1046 -0.3729 -0.2411
   83TCq2    O4 1272   0.686   3.935  11.235 -0.0783 -0.5726  0.3018
   83TCq2    C9 1273   1.222   4.143  11.237  0.5547  0.0160 -0.3109
   83TCq2    O5 1274   1.284   4.249  11.268  0.2785  0.4698 -0.4542
   83TCq2    O6 1275   1.253   4.029  11.277  0.1130 -0.1779  0.5712
   83TCq2    H2 1276   1.078   4.347  11.268 -0.3829 -0.2721 -0.5814
   83TCq2    H3 1277   1.064   3.936  11.178  1.0899  0.9695 -1.2308
   83TCq2    H4 1278   0.693   4.147  11.231 -0.1204 -2.9256 -0.6274
   84TCq2    C1 1279   2.057   2.963  10.910  0.1961 -0.1301  0.4273
   84TCq2    O2 1280   2.097   2.872  10.840 -0.1237  0.1638  0.2064
   84TCq2    C2 1281   2.055   2.948  11.055  0.5333 -0.3269  0.2808
   84TCq2    C3 1282   2.132   2.855  11.106 -0.0368  0.9940 -0.3385
   84TCq2    C4 1283   2.138   2.851  11.248 -0.2340  0.5795 -0.6013
   84TCq2    C5 1284   2.046   2.928  11.322  0.5505 -0.8140  0.3405
   84TCq2    C6 1285   1.958   3.016  11.259  0.1122 -0.1067  0.8152
   84TCq2    C7 1286   1.955   3.020  11.123  0.4780 -0.2453 -0.4857
   84TCq2    C8 1287   1.863   3.097  11.329 -0.3063  0.3491  0.8551
   84TCq2    O4 1288   1.808   3.184  11.267 -0.0559 -0.2039  0.3546
   84TCq2    C9 1289   2.218   2.757  11.320 -0.0155  0.7138  1.0661
   84TCq2    O5 1290   2.310   2.697  11.259 -0.4858  0.1049  0.1473
   84TCq2    O6 1291   2.176   2.735  11.438 -0.3019 -0.7470 -0.1169
   84TCq2    H2 1292   2.207   2.802  11.048  1.7925  2.2793  0.8352
   84TCq2    H3 1293   2.056   2.926  11.429  2.7802  0.6140  0.1619
   84TCq2    H4 1294   1.876   3.070  11.068  1.4224 -1.5239 -3.0346
   85MPD2     C 1295   2.364   0.673  16.479  0.1749 -0.0666 -0.4016
   85MPD2    C1 1296   2.285   0.710  16.368  0.1125 -0.6616  0.0828
   85MPD2    C2 1297   2.331   0.814  16.281  0.4299  0.3683  0.1571
   85MPD2    C3 1298   2.456   0.877  16.302  0.0599  0.5091 -0.3833
   85MPD2    C4 1299   2.530   0.836  16.413  0.8967  0.1701 -0.3446
   85MPD2    C5 1300   2.481   0.736  16.493  0.3167 -0.3393 -0.3258
   85MPD2     H 1301   2.266   0.847  16.201  1.8949  1.9780 -0.3729
   85MPD2    H1 1302   2.624   0.880  16.444  0.0395  0.8639  1.2951
   85MPD2    H2 1303   2.326   0.603  16.552  1.4296 -0.9973 -0.6421
   85MPD2    H3 1304   2.550   0.723  16.576  1.7089 -1.1488 -1.6120
   85MPD2     N 1305   2.491   0.983  16.215 -0.3907  0.4665  0.4213
   85MPD2    H5 1306   2.436   0.996  16.131 -2.0508 -2.5189  1.0558
   85MPD2    N1 1307   2.166   0.647  16.334  0.5647 -0.1937 -0.1118
   85MPD2    H7 1308   2.118   0.680  16.251  0.0633 -2.2039 -0.6321
   86TCq2    C1 1309   2.590   1.073  16.234  0.6025 -0.5551 -0.6436
   86TCq2    O2 1310   2.672   1.068  16.325 -0.4936 -0.0569  0.4704
   86TCq2    C2 1311   2.602   1.175  16.132  0.6126  0.5714 -0.3785
   86TCq2    C3 1312   2.497   1.213  16.049  0.2360  0.3785 -0.4432
   86TCq2    C4 1313   2.506   1.284  15.932  0.8608  0.3915 -0.3847
   86TCq2    C5 1314   2.636   1.302  15.888 -0.3742  0.4322 -0.2036
   86TCq2    C6 1315   2.740   1.239  15.952  0.2546  0.3397 -0.4734
   86TCq2    C7 1316   2.727   1.176  16.071  1.0918  0.0857 -0.2427
   86TCq2    C8 1317   2.863   1.210  15.881 -0.0261  0.0636  0.0905
   86TCq2    O4 1318   2.942   1.136  15.938  0.3680  0.3025  0.4003
   86TCq2    C9 1319   2.392   1.335  15.858  0.1465 -0.3755 -0.6624
   86TCq2    O5 1320   2.283   1.287  15.885  0.0816  0.3596 -0.2571
   86TCq2    O6 1321   2.418   1.434  15.787 -0.1860 -0.0052  0.1348
   86TCq2    H2 1322   2.394   1.208  16.084  0.1130  3.2432 -0.4360
   86TCq2    H3 1323   2.654   1.358  15.797  0.2080  0.4875 -0.0553
   86TCq2    H4 1324   2.817   1.134  16.116  2.4756  0.8763 -2.2860
   87MPD2     C 1325   3.148   4.380   0.306 -0.2780 -0.3327  0.2395
   87MPD2    C1 1326   3.275   4.404   0.337 -0.2190  0.1388  0.4961
   87MPD2    C2 1327   3.328   4.525   0.286  0.7980 -0.8207  0.1898
   87MPD2    C3 1328   3.268   4.595   0.183  0.1206 -0.2454  0.5374
   87MPD2    C4 1329   3.147   4.552   0.136 -0.6767 -0.7943  0.0860
   87MPD2    C5 1330   3.082   4.457   0.212 -0.1355 -0.3216  0.2190
   87MPD2     H 1331   3.418   4.563   0.334  0.3541 -2.3106  2.2053
   87MPD2    H1 1332   3.089   4.590   0.052  2.6201 -0.1788 -1.9083
   87MPD2    H2 1333   3.091   4.297   0.347  1.3908 -1.8336 -0.4514
   87MPD2    H3 1334   2.987   4.414   0.183  0.6045 -2.7443  1.4739
   87MPD2     N 1335   3.318   4.717   0.124  0.7621 -0.1498 -0.2091
   87MPD2    H5 1336   3.257   0.026   0.050  0.6366 -1.0503 -0.4842
   87MPD2    N1 1337   3.342   4.311   0.413  0.6756 -0.7844  0.5698
   87MPD2    H7 1338   3.288   4.229   0.440 -1.2611  0.2328 -0.2003
   88TCq2    C1 1339   3.475   4.317   0.451 -0.1002 -0.2624 -0.0520
   88TCq2    O2 1340   3.553   4.411   0.440 -0.0939  0.1419 -0.1002
   88TCq2    C2 1341   3.522   4.188   0.507  0.8385 -0.0127 -0.7760
   88TCq2    C3 1342   3.442   4.079   0.498  0.1469  0.0206  0.0167
   88TCq2    C4 1343   3.492   3.965   0.550  0.4503 -0.2237 -0.1719
   88TCq2    C5 1344   3.617   3.956   0.603  0.3830  0.1466 -0.1148
   88TCq2    C6 1345   3.699   4.066   0.604 -0.0181 -0.3839 -0.2915
   88TCq2    C7 1346   3.651   4.185   0.552 -0.1056 -0.4163  0.2459
   88TCq2    C8 1347   3.844   4.055   0.645  0.6528 -0.7285  0.2233
   88TCq2    O4 1348   3.918   4.148   0.618  0.0426 -0.2542  0.1097
   88TCq2    C9 1349   3.404   3.852   0.553 -0.2202  0.1984  0.5345
   88TCq2    O5 1350   3.280   3.869   0.585  0.4114 -0.5417 -0.3425
   88TCq2    O6 1351   3.460   3.741   0.572 -0.3700  0.6295  0.3243
   88TCq2    H2 1352   3.340   4.072   0.460  0.4752 -0.4594 -0.7627
   88TCq2    H3 1353   3.655   3.865   0.649  1.1290 -0.2763 -1.5642
   88TCq2    H4 1354   3.712   4.274   0.546  0.6359 -0.8238  1.7369
   89MPD2     C 1355   1.169   2.002   2.062 -0.5914  0.1706  0.5273
   89MPD2    C1 1356   1.038   2.044   2.090 -0.0346 -0.0412 -0.5774
   89MPD2    C2 1357   1.023   2.180   2.105  0.1670  0.6604 -0.6119
   89MPD2    C3 1358   1.134   2.272   2.093 -0.6107  0.0174  0.0771
   89MPD2    C4 1359   1.261   2.221   2.059  0.4762 -0.2596  1.0011
   89MPD2    C5 1360   1.272   2.089   2.052  0.4792 -0.8438 -0.3174
   89MPD2     H 1361   0.925   2.226   2.121 -0.0042 -0.3057  1.0263
   89MPD2    H1 1362   1.350   2.282   2.055 -0.4682  1.0382 -0.3673
   89MPD2    H2 1363   1.191   1.896   2.052 -1.0372  0.1436 -0.1652
   89MPD2    H3 1364   1.368   2.043   2.029  1.7019  1.6258 -0.1533
   89MPD2     N 1365   1.105   2.405   2.104 -0.2526 -0.0651 -0.4245
   89MPD2    H5 1366   1.009   2.420   2.133  0.0813 -1.0787  1.1511
   89MPD2    N1 1367   0.929   1.950   2.095 -0.2701 -0.1620 -0.3987
   89MPD2    H7 1368   0.838   1.989   2.118  0.0893 -0.4122  1.4944
   90TCq2    C1 1369   1.191   2.508   2.076 -0.1264  0.3002 -0.5506
   90TCq2    O2 1370   1.296   2.507   2.015  0.2049 -0.4243  0.1229
   90TCq2    C2 1371   1.130   2.636   2.096 -0.3148  0.3124 -0.0362
   90TCq2    C3 1372   1.051   2.649   2.209  0.5268 -0.0825  0.0480
   90TCq2    C4 1373   0.971   2.761   2.222  0.2433  0.4459  0.0652
   90TCq2    C5 1374   0.959   2.845   2.117  0.0411 -0.2102 -0.3032
   90TCq2    C6 1375   1.056   2.838   2.018 -0.5539 -0.1929 -0.6508
   90TCq2    C7 1376   1.148   2.736   2.007 -0.8444 -0.7014  0.2072
   90TCq2    C8 1377   1.045   2.945   1.922  0.4619 -0.3864  0.6865
   90TCq2    O4 1378   0.936   2.994   1.907 -0.4598  0.4035  0.3088
   90TCq2    C9 1379   0.881   2.779   2.339 -0.1035 -0.1128  0.0554
   90TCq2    O5 1380   0.823   2.887   2.366  0.1240 -0.1457  0.1798
   90TCq2    O6 1381   0.892   2.697   2.433  0.2529 -0.1164  0.2850
   90TCq2    H2 1382   1.053   2.564   2.277  0.4710  0.4570  0.7312
   90TCq2    H3 1383   0.884   2.923   2.124  0.5183  0.4791 -2.8931
   90TCq2    H4 1384   1.194   2.714   1.912  1.4089  0.6247  0.9931
   91TMC2    C1 1385   2.667   2.213  16.764 -0.2590  0.1835  0.0213
   91TMC2    C2 1386   2.704   2.311  16.672 -0.6506  0.3393 -0.3164
   91TMC2    C3 1387   2.601   2.390  16.625  0.3002  0.1944 -0.5791
   91TMC2    C4 1388   2.541   2.192  16.797 -0.2844  0.3946  0.5438
   91TMC2    C5 1389   2.438   2.253  16.726 -0.2978  0.0325 -0.1606
   91TMC2    C6 1390   2.471   2.350  16.643 -0.1528 -0.1784  0.5103
   91TMC2     C 1391   2.762   2.135  16.834  0.0305 -0.1839  0.3858
   91TMC2     O 1392   2.727   2.059  16.923  0.8068  0.0114  0.6578
   91TMC2     H 1393   2.808   2.340  16.661 -0.7285  0.3539 -0.9818
   91TMC2    H1 1394   2.510   2.098  16.842 -1.8897  0.1943 -0.9508
   91TMC2    H2 1395   2.403   2.390  16.568 -0.0586 -0.2704  0.3755
   91TMC2    C7 1396   2.303   2.188  16.723  0.1013  0.4329  0.0980
   91TMC2    C8 1397   2.635   2.471  16.509  0.2995  0.6450 -0.3781
   91TMC2    O1 1398   2.279   2.100  16.803  0.0680  0.1920  0.7116
   91TMC2    O2 1399   2.726   2.432  16.437 -0.4954 -0.4807 -0.5428
   91TMC2    O5 1400   2.635   2.591  16.562  0.0304  0.3943  0.1107
   91TMC2    H5 1401   2.573   2.605  16.638  1.7253 -1.0449  1.7581
   92MPD2     C 1402   3.001   1.958  16.886  0.3817  0.6490  0.8676
   92MPD2    C1 1403   2.991   2.048  16.781  0.6428  0.0486 -0.3230
   92MPD2    C2 1404   3.078   2.048  16.675  0.1815 -0.2848 -0.0998
   92MPD2    C3 1405   3.192   1.963  16.686  0.2913  0.1182 -0.0486
   92MPD2    C4 1406   3.207   1.879  16.799 -0.5867  0.7017  0.7765
   92MPD2    C5 1407   3.108   1.878  16.893 -0.0088 -0.2434  0.7539
   92MPD2     H 1408   3.068   2.117  16.591  1.4174  1.0931  0.8699
   92MPD2    H1 1409   3.286   1.805  16.809 -2.2014 -1.4096 -1.8714
   92MPD2    H2 1410   2.921   1.951  16.959 -0.1240  0.4931  0.3075
   92MPD2    H3 1411   3.106   1.810  16.977 -0.5132 -0.1519  0.8187
   92MPD2     N 1412   3.296   1.991  16.583 -0.4901 -0.1180 -0.8004
   92MPD2    H5 1413   3.276   2.060  16.512 -1.0992  1.0983  0.5464
   92MPD2    N1 1414   2.877   2.125  16.759 -0.5727  0.3601  0.2307
   92MPD2    H7 1415   2.872   2.165  16.666 -1.1271  0.8974  0.4892
   93MPD2     C 1416   3.834   2.236  13.773 -0.1958  0.1338 -0.2113
   93MPD2    C1 1417   3.775   2.337  13.850 -0.5737  0.0018  0.2086
   93MPD2    C2 1418   3.645   2.351  13.848 -0.1285 -0.4216  0.4514
   93MPD2    C3 1419   3.562   2.270  13.769  0.1550 -0.2909 -0.1861
   93MPD2    C4 1420   3.615   2.167  13.702  0.4506  0.3609  0.1522
   93MPD2    C5 1421   3.749   2.149  13.696 -0.6201 -0.2281 -0.8942
   93MPD2     H 1422   3.596   2.421  13.915 -1.4626  1.1719 -2.2097
   93MPD2    H1 1423   3.548   2.105  13.644 -2.0372  2.8331  0.3741
   93MPD2    H2 1424   3.940   2.216  13.786 -0.0045  1.4368  0.2259
   93MPD2    H3 1425   3.791   2.072  13.633 -0.3776  1.7688 -3.1992
   93MPD2     N 1426   3.423   2.279  13.759 -0.4108  0.5520  0.2216
   93MPD2    H5 1427   3.379   2.222  13.687 -0.3803  1.5485 -0.5710
   93MPD2    N1 1428   3.848   2.435  13.924 -0.0411  0.1987 -0.2514
   93MPD2    H7 1429   3.792   2.500  13.978 -0.0054 -0.1885  0.2561
   94TCq2    C1 1430   3.984   2.464  13.917 -0.2024  0.1332 -0.2366
   94TCq2    O2 1431   4.070   2.387  13.877 -0.1506 -0.5482  0.0322
   94TCq2    C2 1432   4.019   2.595  13.956  0.0415  0.1690  0.1928
   94TCq2    C3 1433   3.926   2.696  13.950  0.0568 -0.0316 -0.1749
   94TCq2    C4 1434   3.976   2.819  13.942  0.4416 -0.0894  0.5171
   94TCq2    C5 1435   4.109   2.848  13.965  0.1471 -0.1398  0.9732
   94TCq2    C6 1436   4.195   2.740  13.987 -0.6374 -0.3713 -0.0209
   94TCq2    C7 1437   4.151   2.616  13.967 -0.8910  0.0552 -0.4331
   94TCq2    C8 1438   4.338   2.771  13.985  0.4017  0.4423 -0.1906
   94TCq2    O4 1439   4.405   2.674  13.958  0.0089 -0.1803  0.3327
   94TCq2    C9 1440   3.880   2.929  13.931  0.1924 -0.6739 -0.9610
   94TCq2    O5 1441   3.762   2.905  13.893  0.6169 -0.2793  0.3857
   94TCq2    O6 1442   3.921   3.043  13.963 -0.9801 -0.1611 -0.1490
   94TCq2    H2 1443   3.821   2.674  13.935  0.2279  0.8863 -2.8327
   94TCq2    H3 1444   4.131   2.954  13.965 -0.1424 -0.0765 -0.7418
   94TCq2    H4 1445   4.220   2.533  13.972  1.3056  1.9160  0.2838
   95TMC2    C1 1446   4.315   4.053  16.359  0.0721 -0.3074  0.0620
   95TMC2    C2 1447   4.226   3.954  16.380  0.2194  0.6574 -0.1720
   95TMC2    C3 1448   4.143   3.974  16.490 -0.3592 -0.7405 -0.7592
   95TMC2    C4 1449   4.323   4.172  16.429  0.2979 -0.4151  0.2879
   95TMC2    C5 1450   4.261   4.171  16.550 -0.2036 -0.5180  1.0929
   95TMC2    C6 1451   4.173   4.068  16.586 -0.2890 -0.4319 -0.6602
   95TMC2     C 1452   4.402   4.049  16.240 -0.2495  0.8027 -0.2489
   95TMC2     O 1453   4.400   4.152  16.175 -0.4623  1.1863  0.3752
   95TMC2     H 1454   4.200   3.886  16.300 -0.8501  0.7574  0.0953
   95TMC2    H1 1455   4.387   4.253  16.397 -1.1619  0.1801 -1.1432
   95TMC2    H2 1456   4.119   4.073  16.680 -1.2224 -2.9489 -1.0595
   95TMC2    C7 1457   4.292   4.287  16.630  0.2961  0.6276 -0.1006
   95TMC2    C8 1458   4.016   3.897  16.498 -0.1813  0.1167 -0.5134
   95TMC2    O1 1459   4.346   4.387  16.580  0.3290  0.1798  0.3452
   95TMC2    O2 1460   4.005   3.789  16.443  0.5503  0.1484  0.0952
   95TMC2    O5 1461   3.933   3.944  16.591  0.5678 -0.1416  0.0505
   95TMC2    H5 1462   3.936   4.042  16.582  1.4934 -0.1114  0.6781
   96MPD2     C 1463   4.694   3.831  15.891  0.6055  0.1017 -0.4972
   96MPD2    C1 1464   4.676   3.962  15.919 -0.2304  0.0772 -0.2595
   96MPD2    C2 1465   4.589   4.000  16.022  0.0526  0.4749 -0.7136
   96MPD2    C3 1466   4.520   3.899  16.093 -0.5260  0.6148 -0.4017
   96MPD2    C4 1467   4.550   3.761  16.076  0.3757 -0.2397  0.1644
   96MPD2    C5 1468   4.638   3.731  15.973  0.2208 -0.4850 -0.1475
   96MPD2     H 1469   4.596   4.106  16.047  1.6531  0.1958  0.0581
   96MPD2    H1 1470   4.502   3.683  16.134 -0.6758 -0.5794 -1.1644
   96MPD2    H2 1471   0.037   3.804  15.809 -0.8349  0.6735 -1.8400
   96MPD2    H3 1472   4.671   3.630  15.954 -3.6254 -1.8869  0.5159
   96MPD2     N 1473   4.439   3.924  16.203  0.9340  0.4988  0.2956
   96MPD2    H5 1474   4.419   3.846  16.264 -2.1149  2.8917  2.3915
   96MPD2    N1 1475   0.030   4.052  15.840  0.4110  0.2415 -0.0689
   96MPD2    H7 1476   0.077   3.992  15.773  1.6229  2.1915 -0.9513
   97MPD2     C 1477   0.902   1.203   1.016 -0.9604 -0.4454 -0.5431
   97MPD2    C1 1478   1.033   1.226   1.002 -0.4465 -0.3614 -0.7879
   97MPD2    C2 1479   1.085   1.252   0.880 -0.0661 -0.8698 -0.3050
   97MPD2    C3 1480   0.996   1.247   0.766 -0.0337 -0.2756 -0.3281
   97MPD2    C4 1481   0.867   1.214   0.790 -0.2139  0.1335 -0.6762
   97MPD2    C5 1482   0.807   1.197   0.915  0.0448  0.7997  1.6200
   97MPD2     H 1483   1.187   1.284   0.862 -0.4211 -0.0915 -0.9050
   97MPD2    H1 1484   0.802   1.206   0.704 -0.7193  1.7825 -0.4433
   97MPD2    H2 1485   0.856   1.165   1.106  0.5962  0.3555  0.5856
   97MPD2    H3 1486   0.700   1.182   0.918  0.1154 -0.5812 -2.2056
   97MPD2     N 1487   1.032   1.280   0.630 -0.9457  0.4877  0.8507
   97MPD2    H5 1488   0.963   1.275   0.555  1.6070  0.0616 -1.4611
   97MPD2    N1 1489   1.115   1.221   1.121  0.5188 -0.0724  0.0889
   97MPD2    H7 1490   1.073   1.204   1.211 -0.2813 -0.3744 -0.3396
   98TCq2    C1 1491   1.159   1.333   0.594 -0.4442 -0.9223  0.0152
   98TCq2    O2 1492   1.250   1.368   0.666 -0.3797  0.6363  0.3901
   98TCq2    C2 1493   1.186   1.338   0.450  0.7064  1.0980  0.1956
   98TCq2    C3 1494   1.103   1.273   0.368  0.1426 -0.0952 -0.6766
   98TCq2    C4 1495   1.143   1.275   0.233  0.3304 -0.6543 -0.0100
   98TCq2    C5 1496   1.258   1.345   0.194 -0.2805 -0.1272  0.7367
   98TCq2    C6 1497   1.320   1.417   0.285 -0.0861 -0.1133 -0.1300
   98TCq2    C7 1498   1.289   1.415   0.415  0.0156 -0.1059 -0.4983
   98TCq2    C8 1499   1.417   1.513   0.239  0.2395  0.0848 -0.0739
   98TCq2    O4 1500   1.477   1.485   0.136  0.0447 -0.4861  1.2912
   98TCq2    C9 1501   1.083   1.191   0.136 -0.0713  0.5634  0.4638
   98TCq2    O5 1502   1.131   1.182   0.020  0.6330  0.1977 -0.0030
   98TCq2    O6 1503   0.982   1.132   0.180 -0.5681 -0.2486  0.1515
   98TCq2    H2 1504   1.006   1.228   0.387  0.1508  0.9075  1.7135
   98TCq2    H3 1505   1.285   1.345   0.089 -0.9739 -1.9196  0.5416
   98TCq2    H4 1506   1.344   1.455   0.500 -0.2965 -2.4862  0.8322
   99MPD2     C 1507   0.892   2.475   1.876 -0.1126  0.3041  0.4080
   99MPD2    C1 1508   0.808   2.584   1.889 -0.2359  0.0485  0.0973
   99MPD2    C2 1509   0.814   2.688   1.797  0.0292  0.0834  0.9171
   99MPD2    C3 1510   0.917   2.686   1.696  0.3769 -0.5889 -1.0572
   99MPD2    C4 1511   1.008   2.580   1.694 -0.2892 -0.1794 -0.6559
   99MPD2    C5 1512   0.991   2.478   1.777 -0.6324 -0.2192 -0.2254
   99MPD2     H 1513   0.745   2.772   1.801 -1.7359 -1.3817  1.6264
   99MPD2    H1 1514   1.095   2.570   1.630  1.3234  1.6841  1.2722
   99MPD2    H2 1515   0.883   2.385   1.935 -0.3931 -0.6160 -1.0253
   99MPD2    H3 1516   1.060   2.396   1.764  0.5068  0.4786  1.4616
   99MPD2     N 1517   0.915   2.787   1.591  0.0938 -0.7369 -0.2457
   99MPD2    H5 1518   0.840   2.854   1.598  2.0644  1.2528  1.5444
   99MPD2    N1 1519   0.713   2.587   1.992  0.1151 -0.1062  0.4951
   99MPD2    H7 1520   0.650   2.667   1.998  0.3419 -0.0060  1.4467
  100TCq2    C1 1521   0.713   2.507   2.104 -0.5873  0.0076 -0.0835
  100TCq2    O2 1522   0.784   2.414   2.135 -0.1625  0.3960 -0.1974
  100TCq2    C2 1523   0.616   2.546   2.204  0.1678 -0.4925  0.1165
  100TCq2    C3 1524   0.638   2.495   2.329  0.1772 -0.3706 -0.2476
  100TCq2    C4 1525   0.554   2.529   2.432  0.2103  0.0563  0.0350
  100TCq2    C5 1526   0.434   2.585   2.398 -0.7504  0.2436 -0.3857
  100TCq2    C6 1527   0.407   2.619   2.265 -0.7459  0.0897  0.6838
  100TCq2    C7 1528   0.497   2.606   2.168 -0.2862 -0.7149  0.2097
  100TCq2    C8 1529   0.272   2.677   2.238  0.3379 -0.1276  0.4627
  100TCq2    O4 1530   0.188   2.679   2.326 -0.1536  0.3190 -0.4673
  100TCq2    C9 1531   0.597   2.497   2.566 -0.2469 -0.3298 -0.2517
  100TCq2    O5 1532   0.550   2.564   2.658  0.5815  0.1317 -0.4498
  100TCq2    O6 1533   0.670   2.400   2.578  0.1013 -0.4151 -0.4950
  100TCq2    H2 1534   0.731   2.445   2.354  1.3797  0.8879 -2.3008
  100TCq2    H3 1535   0.360   2.608   2.474  0.8087  1.2319  0.8433
  100TCq2    H4 1536   0.471   2.619   2.064  0.4220 -0.8540  0.0152
  101MPD2     C 1537   1.399   4.421  13.134 -0.0617 -0.0202  0.3901
  101MPD2    C1 1538   1.312   4.527  13.158 -0.1177 -0.0596 -0.2647
  101MPD2    C2 1539   1.188   4.500  13.212  0.1653 -0.2374  0.4914
  101MPD2    C3 1540   1.140   4.370  13.222 -0.6480 -0.7333  0.7018
  101MPD2    C4 1541   1.223   4.262  13.192  0.6965  0.1707 -0.2113
  101MPD2    C5 1542   1.349   4.293  13.153 -0.1705  0.2147 -0.7184
  101MPD2     H 1543   1.117   4.576  13.242  0.5850  0.4985 -0.3707
  101MPD2    H1 1544   1.184   4.163  13.209  0.1979  0.7021  1.6646
  101MPD2    H2 1545   1.501   4.434  13.099 -0.8336  0.8012 -1.5497
  101MPD2    H3 1546   1.420   4.212  13.146 -2.4024 -1.5744 -2.6864
  101MPD2     N 1547   1.004   4.355  13.256 -1.1489  0.1979  0.6338
  101MPD2    H5 1548   0.960   4.443  13.280  0.9515  1.3000  0.4772
  101MPD2    N1 1549   1.360   4.661  13.141  0.5301 -0.3763 -0.3636
  101MPD2    H7 1550   1.451   4.679  13.100 -0.5683 -0.2706 -2.7498
  102TCq2    C1 1551   1.558   0.278  12.858  0.6861 -0.9144  0.0533
  102TCq2    O2 1552   1.557   0.175  12.786  0.5517  0.4782 -0.2619
  102TCq2    C2 1553   1.469   0.289  12.974 -0.1382 -0.1121 -0.7425
  102TCq2    C3 1554   1.426   0.416  13.013 -0.7549 -0.1090 -1.1274
  102TCq2    C4 1555   1.330   0.418  13.115  0.0446  0.6278  0.1517
  102TCq2    C5 1556   1.301   0.297  13.185 -0.5852 -1.0755  0.1483
  102TCq2    C6 1557   1.352   0.178  13.133  0.4615  0.2240  0.2092
  102TCq2    C7 1558   1.435   0.168  13.025  0.0571 -0.0179  0.2203
  102TCq2    C8 1559   1.289   0.053  13.167 -0.5422 -0.3495 -0.4666
  102TCq2    O4 1560   1.185   0.072  13.232  0.1939 -0.5495  0.0492
  102TCq2    C9 1561   1.254   0.533  13.151 -0.1311 -0.0609  0.0106
  102TCq2    O5 1562   1.136   0.511  13.197  0.4923 -0.2809  0.3603
  102TCq2    O6 1563   1.291   0.645  13.108  0.1415  0.4339 -0.2182
  102TCq2    H2 1564   1.454   0.496  12.946 -0.4800  0.2062 -0.6291
  102TCq2    H3 1565   1.222   0.302  13.259 -3.1702  1.9768 -2.7821
  102TCq2    H4 1566   1.455   0.073  12.975  3.7130  1.5144 -1.2279
  103TMC2    C1 1567   4.124   4.499  12.465  0.3469  0.1993  0.0650
  103TMC2    C2 1568   4.223   4.578  12.410 -0.6573 -0.1778 -0.9875
  103TMC2    C3 1569   4.227   4.713  12.441  0.1685 -0.3697  0.5021
  103TMC2    C4 1570   4.024   4.553  12.554 -0.5115 -0.8175 -0.0690
  103TMC2    C5 1571   4.041   4.687  12.586 -0.0400  0.0253 -0.1445
  103TMC2    C6 1572   4.139   0.041  12.526  0.3493  0.1667 -0.3449
  103TMC2     C 1573   4.074   4.426  12.351  0.0401  0.1089 -0.3205
  103TMC2     O 1574   4.112   4.472  12.244  0.2128  0.0381 -0.1655
  103TMC2     H 1575   4.298   4.546  12.339  1.4182  1.0854  0.6586
  103TMC2    H1 1576   3.942   4.494  12.593 -1.4467  0.8544  0.5020
  103TMC2    H2 1577   4.132   0.148  12.544 -0.0112  0.0684  0.0929
  103TMC2    C7 1578   3.971   0.017  12.697 -0.2509 -0.1959 -0.8258
  103TMC2    C8 1579   4.281   0.088  12.353 -0.1837 -0.0330  0.7632
  103TMC2    O1 1580   3.998   0.135  12.721 -0.2489  0.1385  0.2883
  103TMC2    O2 1581   4.302   0.201  12.389  0.6255  0.3376  0.0312
  103TMC2    O5 1582   4.229   0.041  12.240 -0.0599 -0.0928 -0.0017
  103TMC2    H5 1583   4.188   4.674  12.249  1.7981 -1.0969 -1.5627
  104MPD2     C 1584   3.826   4.152  12.358 -0.6941 -0.1763 -0.4605
  104MPD2    C1 1585   3.901   4.256  12.297  0.1309 -0.5466  0.0427
  104MPD2    C2 1586   3.897   4.283  12.163  0.3445  0.1738  0.3851
  104MPD2    C3 1587   3.811   4.216  12.088 -0.0993 -0.0251 -0.0222
  104MPD2    C4 1588   3.736   4.114  12.145 -1.2538  0.1417  0.5240
  104MPD2    C5 1589   3.744   4.080  12.277  0.6121  0.0519 -0.0290
  104MPD2     H 1590   3.954   4.356  12.105  2.0778 -1.2105  0.3395
  104MPD2    H1 1591   3.659   4.056  12.095  0.0783 -1.5654  0.4393
  104MPD2    H2 1592   3.817   4.143  12.466 -1.3536  1.4887 -0.3733
  104MPD2    H3 1593   3.688   3.995  12.315  2.1670 -1.1937 -0.5105
  104MPD2     N 1594   3.813   4.239  11.948  0.3487 -0.0873 -0.0617
  104MPD2    H5 1595   3.869   4.316  11.911 -1.2935  0.7045 -0.8749
  104MPD2    N1 1596   3.986   4.327  12.384  0.2421  0.0947 -0.2713
  104MPD2    H7 1597   3.977   4.308  12.483 -1.1227  0.3609 -0.3421
  105MPD2     C 1598   0.600   3.581   0.407 -0.3362  1.0440 -0.8479
  105MPD2    C1 1599   0.586   3.714   0.367 -0.8405  0.0343 -0.1458
  105MPD2    C2 1600   0.488   3.790   0.418  0.0399  0.0334 -0.9644
  105MPD2    C3 1601   0.403   3.751   0.519  0.1965  0.7113 -0.0633
  105MPD2    C4 1602   0.424   3.628   0.573 -0.2424 -0.1808 -0.2544
  105MPD2    C5 1603   0.520   3.546   0.518 -0.1734 -0.0453 -0.4718
  105MPD2     H 1604   0.474   3.891   0.381  1.7271  0.9851  1.0161
  105MPD2    H1 1605   0.361   3.589   0.652  0.0644  1.0052  0.5760
  105MPD2    H2 1606   0.684   3.517   0.382 -0.6015  0.6559 -0.7633
  105MPD2    H3 1607   0.517   3.444   0.557 -1.7624  0.2533  0.2009
  105MPD2     N 1608   0.287   3.828   0.559 -0.2607  0.2403 -0.6799
  105MPD2    H5 1609   0.268   3.912   0.505  2.1328  0.4032 -1.2785
  105MPD2    N1 1610   0.670   3.767   0.267 -0.5920  0.1908  0.4212
  105MPD2    H7 1611   0.670   3.865   0.244 -0.0513 -0.0431 -0.5906
  106TCq2    C1 1612   0.194   3.797   0.659  0.4969 -1.0497 -0.3519
  106TCq2    O2 1613   0.194   3.714   0.749  0.2499  0.3515  0.8829
  106TCq2    C2 1614   0.079   3.885   0.663 -0.3484 -0.1850 -1.3420
  106TCq2    C3 1615   0.076   4.011   0.600 -0.4016  0.5314 -0.7731
  106TCq2    C4 1616   4.683   4.088   0.606 -1.1277 -0.4460  0.0125
  106TCq2    C5 1617   4.567   4.034   0.661 -0.8979  0.5860  0.4477
  106TCq2    C6 1618   4.574   3.906   0.707 -1.0721  0.4780 -0.2968
  106TCq2    C7 1619   4.690   3.833   0.718 -0.4974 -0.1519 -0.7648
  106TCq2    C8 1620   4.463   3.859   0.790  0.3745 -0.8788 -0.8441
  106TCq2    O4 1621   4.492   3.770   0.866  0.1557  0.1563 -0.4753
  106TCq2    C9 1622   4.668   4.223   0.557  0.6383 -0.2460  0.1655
  106TCq2    O5 1623   4.572   4.287   0.599 -0.7079 -0.0381 -0.0218
  106TCq2    O6 1624   0.036   4.270   0.490  0.3478 -0.0057  0.0728
  106TCq2    H2 1625   0.159   4.056   0.546  0.5168 -0.7954 -0.4811
  106TCq2    H3 1626   4.482   4.101   0.668  0.0763  1.8711 -0.0790
  106TCq2    H4 1627   4.687   3.727   0.741  0.3841  0.4439  2.0497
  107TMC2    C1 1628   1.361   3.830  11.669 -0.3258  0.0096  0.1673
  107TMC2    C2 1629   1.392   3.862  11.542 -0.3187  0.4569 -0.2671
  107TMC2    C3 1630   1.459   3.775  11.460 -0.7504 -0.6732 -0.2651
  107TMC2    C4 1631   1.386   3.711  11.718 -0.4070 -0.7544  0.5212
  107TMC2    C5 1632   1.447   3.621  11.639  0.0856 -0.0040 -0.0159
  107TMC2    C6 1633   1.496   3.652  11.511  0.1122 -0.5742  0.6881
  107TMC2     C 1634   1.267   3.923  11.746  0.0862  0.8373 -0.3859
  107TMC2     O 1635   1.252   3.898  11.865  0.5299  0.0210 -0.2139
  107TMC2     H 1636   1.360   3.959  11.504 -0.0104  0.9416  0.6882
  107TMC2    H1 1637   1.359   3.679  11.818  2.1503 -0.1351  1.4085
  107TMC2    H2 1638   1.559   3.588  11.450  0.9024  2.1148 -1.3072
  107TMC2    C7 1639   1.512   3.507  11.712  0.4486 -0.0312 -0.7701
  107TMC2    C8 1640   1.535   3.823  11.348  0.5100  0.0714  0.0469
  107TMC2    O1 1641   1.483   3.487  11.827  0.3717  0.2034 -0.0353
  107TMC2    O2 1642   1.639   3.768  11.309 -0.5266 -1.3517 -0.1835
  107TMC2    O5 1643   1.518   3.955  11.346 -0.2275 -0.6309  0.1731
  107TMC2    H5 1644   1.425   3.985  11.350  0.3500  1.4449 -2.0648
  108MPD2     C 1645   1.023   4.158  11.612 -0.3138 -0.3697 -0.5776
  108MPD2    C1 1646   1.090   4.082  11.706 -0.6999  0.2975 -0.3127
  108MPD2    C2 1647   1.039   4.090  11.836  0.2493 -0.6155 -0.3069
  108MPD2    C3 1648   0.924   4.165  11.869 -0.1285  0.4351  0.2073
  108MPD2    C4 1649   0.853   4.229  11.771  0.5297 -0.2116  0.2716
  108MPD2    C5 1650   0.906   4.231  11.648  1.0134 -0.0142  0.0961
  108MPD2     H 1651   1.085   4.032  11.915 -0.2235 -2.8558 -1.6806
  108MPD2    H1 1652   0.763   4.286  11.790 -0.5387 -1.0172 -2.3255
  108MPD2    H2 1653   1.052   4.153  11.508  0.3572 -1.6268 -0.3202
  108MPD2    H3 1654   0.861   4.292  11.571 -1.9529 -0.9113  1.1234
  108MPD2     N 1655   0.865   4.148  11.993  0.4459  0.1777  0.0882
  108MPD2    H5 1656   0.775   4.194  11.996 -0.7323 -2.0113 -1.5727
  108MPD2    N1 1657   1.198   4.006  11.664  0.0566  0.2431  0.7160
  108MPD2    H7 1658   1.220   4.008  11.565 -1.6284  2.1263  0.3883
  109MPD2     C 1659   0.717   0.073   2.163 -0.3936 -0.3361 -1.1990
  109MPD2    C1 1660   0.696   0.181   2.085  0.0033  0.6010  0.1686
  109MPD2    C2 1661   0.788   0.282   2.094  0.3251 -0.4706 -0.1652
  109MPD2    C3 1662   0.888   0.281   2.180  0.3555  0.1318 -0.2103
  109MPD2    C4 1663   0.907   0.168   2.259  0.1576 -0.0967  0.0360
  109MPD2    C5 1664   0.823   0.065   2.254 -0.3951  0.2872  0.2174
  109MPD2     H 1665   0.772   0.386   2.067  0.5884 -0.7253 -1.3246
  109MPD2    H1 1666   1.003   0.159   2.308 -2.1928  0.6698  4.7800
  109MPD2    H2 1667   0.647   4.712   2.156 -2.3570  1.2704 -0.4541
  109MPD2    H3 1668   0.831   4.700   2.317  0.6095 -1.1474 -1.9153
  109MPD2     N 1669   0.966   0.401   2.183 -0.5619  0.3275  0.2148
  109MPD2    H5 1670   0.953   0.454   2.098 -1.8780 -0.4398 -0.0735
  109MPD2    N1 1671   0.594   0.181   1.989 -0.2498  0.5198 -0.5262
  109MPD2    H7 1672   0.547   0.092   1.974  1.6446 -0.9044  2.0320
  110TCq2    C1 1673   1.069   0.424   2.272 -0.6467  0.0647  0.0647
  110TCq2    O2 1674   1.113   0.357   2.367  0.0938  0.4694 -0.1105
  110TCq2    C2 1675   1.136   0.552   2.251  0.5642  0.7136 -0.3972
  110TCq2    C3 1676   1.243   0.570   2.329  0.5086 -0.1055 -0.3220
  110TCq2    C4 1677   1.328   0.669   2.292 -0.4027 -1.0066 -0.1945
  110TCq2    C5 1678   1.307   0.744   2.184 -0.4197 -0.4170  0.0064
  110TCq2    C6 1679   1.185   0.738   2.119  0.7963  0.4523  0.0092
  110TCq2    C7 1680   1.101   0.635   2.150  0.1881 -0.2746  0.2965
  110TCq2    C8 1681   1.172   0.820   2.001 -0.0583  0.0803  1.0578
  110TCq2    O4 1682   1.258   0.903   1.973 -0.4380 -0.7436 -0.3623
  110TCq2    C9 1683   1.434   0.714   2.376 -0.0321  0.1361  0.0675
  110TCq2    O5 1684   1.519   0.790   2.329 -0.4619 -0.2374  0.0472
  110TCq2    O6 1685   1.445   0.665   2.496  0.0717 -0.6606  0.0070
  110TCq2    H2 1686   1.278   0.516   2.417  0.6942 -2.0276 -1.5583
  110TCq2    H3 1687   1.378   0.825   2.169 -0.7604 -0.2884 -0.9582
  110TCq2    H4 1688   1.004   0.639   2.102 -0.4049 -0.0186  1.4979
  111TMC2    C1 1689   1.054   0.848  11.550 -0.7045 -0.6126  0.1940
  111TMC2    C2 1690   0.960   0.861  11.652  0.4048 -1.1230  0.4716
  111TMC2    C3 1691   0.983   0.800  11.773 -0.0367 -0.4252 -0.9824
  111TMC2    C4 1692   1.163   0.773  11.569 -0.0462  0.0422 -0.3776
  111TMC2    C5 1693   1.178   0.710  11.689 -0.3105 -0.2322 -0.2014
  111TMC2    C6 1694   1.097   0.737  11.798  0.2571 -0.2191 -0.1688
  111TMC2     C 1695   1.059   0.934  11.439  0.3841 -0.3652 -0.2995
  111TMC2     O 1696   1.128   0.901  11.340  0.0550  0.6078  0.3844
  111TMC2     H 1697   0.866   0.912  11.635  0.4302 -1.6862 -1.4160
  111TMC2    H1 1698   1.236   0.768  11.489  1.1211 -2.1132  0.8432
  111TMC2    H2 1699   1.110   0.679  11.888 -2.5490 -0.9201 -0.2464
  111TMC2    C7 1700   1.291   0.623  11.718 -0.3070 -0.4069  0.1263
  111TMC2    C8 1701   0.874   0.811  11.866  1.0387  0.1326 -0.5645
  111TMC2    O1 1702   1.300   0.588  11.838  0.4972 -0.0839 -0.0089
  111TMC2    O2 1703   0.760   0.851  11.839  0.1318  0.8063 -0.1888
  111TMC2    O5 1704   0.907   0.757  11.986  1.0305 -0.0882  0.0530
  111TMC2    H5 1705   1.001   0.735  12.005  1.2967  0.4335 -0.6600
  112MPD2     C 1706   1.101   1.411  11.267 -0.3351 -0.0981  0.7374
  112MPD2    C1 1707   1.139   1.297  11.208  0.3117  0.6484  0.0388
  112MPD2    C2 1708   1.110   1.179  11.280 -0.4549  0.5588  0.4692
  112MPD2    C3 1709   1.049   1.183  11.404  0.0798 -0.0072  0.1548
  112MPD2    C4 1710   1.004   1.302  11.453 -0.0676 -0.1224 -0.1630
  112MPD2    C5 1711   1.032   1.414  11.387 -0.5472 -0.5544 -0.5681
  112MPD2     H 1712   1.149   1.094  11.224  1.9079  1.9769 -0.0667
  112MPD2    H1 1713   0.953   1.295  11.548  1.1781 -0.2700  0.4952
  112MPD2    H2 1714   1.121   1.513  11.235 -0.4865 -0.3328 -0.0886
  112MPD2    H3 1715   1.003   1.506  11.437  0.6091 -1.9654  2.7358
  112MPD2     N 1716   1.022   1.068  11.478  1.1125  0.1091  0.4817
  112MPD2    H5 1717   0.979   1.092  11.566  1.1408  0.1213  0.4922
  112MPD2    N1 1718   1.204   1.293  11.082 -0.8643 -0.0113  0.0760
  112MPD2    H7 1719   1.208   1.201  11.040  0.6863 -0.0811  0.3596
  113MPD2     C 1720   4.680   3.059   1.340 -1.0811 -0.0518  0.9215
  113MPD2    C1 1721   4.597   3.144   1.261  0.3141  0.1544  0.4106
  113MPD2    C2 1722   4.609   3.141   1.122 -0.1049  0.0227  0.1704
  113MPD2    C3 1723   4.701   3.055   1.063 -0.2579  0.7152 -0.2723
  113MPD2    C4 1724   0.048   2.970   1.147  0.6335 -0.5821 -0.1881
  113MPD2    C5 1725   0.039   2.969   1.283 -0.4290 -0.3688 -0.3757
  113MPD2     H 1726   4.548   3.204   1.058 -1.9754  0.3391  2.2842
  113MPD2    H1 1727   0.115   2.898   1.102  2.0303 -0.9895  2.5805
  113MPD2    H2 1728   4.680   3.055   1.448 -0.2608  3.2481  1.0458
  113MPD2    H3 1729   0.089   2.896   1.345  0.9291 -0.3314 -1.4273
  113MPD2     N 1730   4.720   3.040   0.925  0.1109 -0.2907 -0.2388
  113MPD2    H5 1731   0.067   2.972   0.897  0.3565 -0.3266  0.4423
  113MPD2    N1 1732   4.494   3.230   1.326 -0.2094  0.1365 -0.0023
  113MPD2    H7 1733   4.425   3.268   1.262 -1.4416 -0.5623  0.9209
  114TCq2    C1 1734   4.636   3.090   0.825  0.3155  0.0335 -0.8329
  114TCq2    O2 1735   4.543   3.170   0.835  0.1974 -0.1400  0.1954
  114TCq2    C2 1736   4.661   3.031   0.697  0.4490  0.1812 -0.2058
  114TCq2    C3 1737   0.014   2.909   0.688 -0.2894 -0.4021  0.1403
  114TCq2    C4 1738   4.690   2.800   0.620 -0.4967 -0.0766 -0.5771
  114TCq2    C5 1739   4.561   2.794   0.572 -0.5236  0.0718 -0.0641
  114TCq2    C6 1740   4.501   2.920   0.559 -0.2071 -0.0025  0.2745
  114TCq2    C7 1741   4.548   3.034   0.618 -0.6830  1.0733  0.2154
  114TCq2    C8 1742   4.357   2.904   0.550  0.0526 -0.2556  0.3419
  114TCq2    O4 1743   4.307   2.904   0.436 -0.3425 -0.3414 -0.0793
  114TCq2    C9 1744   0.051   2.679   0.635 -0.2052 -1.0705 -0.4462
  114TCq2    O5 1745   0.173   2.688   0.656  0.1760  0.3763 -0.3844
  114TCq2    O6 1746   4.705   2.573   0.650  0.1857 -1.0246  0.2867
  114TCq2    H2 1747   0.109   2.903   0.740  0.0141  2.2882 -0.0931
  114TCq2    H3 1748   4.514   2.701   0.544 -2.1668  1.5228 -2.0717
  114TCq2    H4 1749   4.492   3.127   0.611  1.1475  2.0451 -1.4482
  115TMC2    C1 1750   0.158   1.531  17.441  0.1928 -0.0359 -0.1542
  115TMC2    C2 1751   0.129   1.537  17.309  0.2481  0.3088 -0.0459
  115TMC2    C3 1752   0.158   1.641  17.231 -0.3029  0.2193  0.2518
  115TMC2    C4 1753   0.227   1.631  17.501 -0.0835 -0.2020  0.0607
  115TMC2    C5 1754   0.242   1.746  17.429 -0.2441  0.6941  0.4893
  115TMC2    C6 1755   0.202   1.760  17.289  0.0630  0.5017  0.3746
  115TMC2     C 1756   0.125   1.400  17.493  0.1185  0.0820 -0.1473
  115TMC2     O 1757   0.056   1.326  17.428  0.0568  0.1079 -0.4453
  115TMC2     H 1758   0.092   1.455  17.249  0.8330  0.3677 -0.4960
  115TMC2    H1 1759   0.266   1.627  17.602 -1.3035 -0.4938  0.5270
  115TMC2    H2 1760   0.198   1.856  17.239 -0.3431 -0.9596 -2.3929
  115TMC2    C7 1761   0.298   1.856  17.489  0.0498 -0.4888 -0.7421
  115TMC2    C8 1762   0.110   1.652  17.090 -0.0107  0.5716 -0.3130
  115TMC2    O1 1763   0.314   1.849  17.610  0.4397 -0.7980  0.1747
  115TMC2    O2 1764   0.049   1.556  17.050 -0.2679  0.4034  0.1045
  115TMC2    O5 1765   0.184   1.738  17.013 -0.0622 -0.1393  0.0179
  115TMC2    H5 1766   0.257   1.779  17.064 -0.4559 -2.6702  2.6289
  116MPD2     C 1767   0.036   1.062   0.175  0.3676 -0.0849  0.2122
  116MPD2    C1 1768   0.046   1.050   0.039  0.6218 -0.1859  0.3904
  116MPD2    C2 1769   0.078   1.156  17.649 -0.1824  0.4542 -0.0575
  116MPD2    C3 1770   0.116   1.275   0.014 -0.1008 -0.2377 -0.6739
  116MPD2    C4 1771   0.108   1.289   0.153  0.0757  0.0814  0.3308
  116MPD2    C5 1772   0.063   1.187   0.229  0.7248  0.2732 -0.0735
  116MPD2     H 1773   0.097   1.133  17.545 -1.1289  1.2270 -0.3954
  116MPD2    H1 1774   0.135   1.380   0.205 -2.0747 -0.4429  2.3894
  116MPD2    H2 1775   0.021   0.984   0.249 -1.5136  0.5630  0.5081
  116MPD2    H3 1776   0.053   1.210   0.334  0.0449  0.4165 -0.1677
  116MPD2     N 1777   0.148   1.388  17.636  0.1768  0.2912  0.1743
  116MPD2    H5 1778   0.183   1.461   0.004  1.6275  0.1593 -0.5008
  116MPD2    N1 1779   0.026   0.932  17.664 -0.3343 -0.3627  0.4450
  116MPD2    H7 1780   0.018   0.946  17.563  1.7862 -0.6299  0.2351
  117TMC2    C1 1781   3.879   2.651  13.550 -0.7957 -0.6121  0.5299
  117TMC2    C2 1782   3.941   2.554  13.475  0.3947 -0.6318  0.8124
  117TMC2    C3 1783   4.063   2.579  13.427 -0.6339 -0.2779  0.5686
  117TMC2    C4 1784   3.932   2.771  13.580  0.4015 -0.2865  0.6218
  117TMC2    C5 1785   4.062   2.785  13.534 -0.4795 -0.3486  0.1009
  117TMC2    C6 1786   4.127   2.698  13.449 -0.1168  0.3333 -0.3874
  117TMC2     C 1787   3.736   2.634  13.585  0.4450 -0.4357 -0.1131
  117TMC2     O 1788   3.679   2.553  13.518 -0.1765 -0.3007  0.2945
  117TMC2     H 1789   3.888   2.465  13.444  1.8351 -2.0753  2.4410
  117TMC2    H1 1790   3.877   2.850  13.631  1.7141 -0.3861  2.1908
  117TMC2    H2 1791   4.232   2.703  13.424  0.1842  2.1607  1.2652
  117TMC2    C7 1792   4.104   2.925  13.557 -0.2714 -0.0323  0.2656
  117TMC2    C8 1793   4.129   2.466  13.360 -0.0839  0.3063 -0.6246
  117TMC2    O1 1794   4.015   3.007  13.542  0.1222  0.3938  0.4562
  117TMC2    O2 1795   4.087   2.349  13.376 -0.9148  0.5807 -0.4514
  117TMC2    O5 1796   4.223   2.502  13.277  0.3890  0.1146 -0.0650
  117TMC2    H5 1797   4.228   2.599  13.265  0.5573  0.2338  0.9504
  118MPD2     C 1798   4.416   3.058  13.688 -0.0043 -0.2396 -0.6371
  118MPD2    C1 1799   4.291   3.062  13.629 -0.0881 -0.6743  0.0560
  118MPD2    C2 1800   4.229   3.187  13.623  0.2031  0.3805  0.0401
  118MPD2    C3 1801   4.293   3.301  13.678 -0.2303 -0.5761 -0.1152
  118MPD2    C4 1802   4.419   3.291  13.737 -0.0212 -0.4109 -0.4017
  118MPD2    C5 1803   4.478   3.170  13.741  0.2339 -0.2064 -0.1318
  118MPD2     H 1804   4.130   3.202  13.583  0.7689  0.9573 -1.1683
  118MPD2    H1 1805   4.477   3.375  13.774  0.6830  0.7195 -4.0824
  118MPD2    H2 1806   4.477   2.970  13.706  2.2324  1.0233 -1.9334
  118MPD2    H3 1807   4.578   3.169  13.783  0.4382 -0.3458 -0.6286
  118MPD2     N 1808   4.223   3.423  13.677 -0.1506 -0.3373  0.2813
  118MPD2    H5 1809   4.244   3.487  13.753 -1.6985 -1.0391  1.3039
  118MPD2    N1 1810   4.235   2.942  13.587 -0.0782 -0.2416  0.1378
  118MPD2    H7 1811   4.282   2.856  13.612  1.2796  0.6356  0.5640
  119MPD2     C 1812   2.169   4.376  14.100 -0.2985  0.7179  0.3687
  119MPD2    C1 1813   2.125   4.253  14.050 -0.6078  0.0189 -0.2374
  119MPD2    C2 1814   2.109   4.242  13.922 -0.3640  0.4737  0.0945
  119MPD2    C3 1815   2.126   4.355  13.842 -0.0038  0.2038  0.0198
  119MPD2    C4 1816   2.164   4.480  13.892  0.0035 -0.3841 -0.0860
  119MPD2    C5 1817   2.194   4.488  14.024  0.6271  0.0667 -0.5558
  119MPD2     H 1818   2.072   4.146  13.890  1.6650  0.1584 -1.3207
  119MPD2    H1 1819   2.176   4.567  13.829  0.7992 -0.8123 -0.5401
  119MPD2    H2 1820   2.188   4.383  14.207 -0.2458  1.7265  0.2965
  119MPD2    H3 1821   2.237   4.576  14.069 -0.2973 -0.6772  1.7916
  119MPD2     N 1822   2.092   4.344  13.707 -0.7067 -0.5217  0.6738
  119MPD2    H5 1823   2.075   4.427  13.652  1.7596 -1.5068 -1.6327
  119MPD2    N1 1824   2.082   4.154  14.141  0.2996 -0.1495 -0.2150
  119MPD2    H7 1825   2.060   4.191  14.232  0.2996 -1.4477  0.3140
  120TCq2    C1 1826   2.071   4.222  13.643  0.1339  0.1497  0.1847
  120TCq2    O2 1827   2.089   4.106  13.669 -0.4438  0.1716 -0.0379
  120TCq2    C2 1828   1.989   4.242  13.526  0.0479  0.2215  0.4572
  120TCq2    C3 1829   2.007   4.353  13.450 -0.2340  0.5380  0.4819
  120TCq2    C4 1830   1.906   4.399  13.369 -0.5473 -0.0549 -0.2483
  120TCq2    C5 1831   1.790   4.323  13.360  0.3600 -0.5391 -0.6398
  120TCq2    C6 1832   1.777   4.208  13.435 -0.0495  0.0607  0.2554
  120TCq2    C7 1833   1.876   4.163  13.520 -0.0916  0.1596  1.0794
  120TCq2    C8 1834   1.639   4.170  13.465 -0.1602 -0.1502 -0.1242
  120TCq2    O4 1835   1.544   4.191  13.389  0.5206  0.3199  0.9050
  120TCq2    C9 1836   1.931   4.518  13.294 -0.5473 -0.1989 -0.2727
  120TCq2    O5 1837   2.051   4.541  13.252 -0.3908 -0.4146  0.2324
  120TCq2    O6 1838   1.824   4.572  13.238 -0.0058  0.4268 -0.7596
  120TCq2    H2 1839   2.090   4.420  13.469 -0.8646  1.0282  1.4924
  120TCq2    H3 1840   1.709   4.358  13.297 -2.0144 -3.9741  0.5136
  120TCq2    H4 1841   1.872   4.080  13.591  1.9302 -1.5508 -0.8269
  121TMC2    C1 1842   3.413   1.179  14.061  0.9712 -0.4708 -0.6057
  121TMC2    C2 1843   3.410   1.097  14.165 -0.9817  0.1683  0.1885
  121TMC2    C3 1844   3.288   1.046  14.197  0.2159  0.2316 -0.2241
  121TMC2    C4 1845   3.301   1.198  13.980  0.5566 -0.9021 -0.1954
  121TMC2    C5 1846   3.183   1.130  14.009  0.4508  0.5642  0.6272
  121TMC2    C6 1847   3.174   1.051  14.118  0.8638  0.0324 -0.8147
  121TMC2     C 1848   3.534   1.238  14.028 -0.7680 -0.1752  0.1289
  121TMC2     O 1849   3.623   1.244  14.110 -0.1460  0.0557  0.3763
  121TMC2     H 1850   3.501   1.072  14.219 -1.0561  1.9985  1.1400
  121TMC2    H1 1851   3.305   1.281  13.911  0.4096  0.2105  1.1293
  121TMC2    H2 1852   3.088   0.988  14.137  0.5793  0.7110  0.1109
  121TMC2    C7 1853   3.081   1.125  13.901 -0.1477  0.6946  0.2447
  121TMC2    C8 1854   3.289   0.936  14.290 -0.0344  0.5214  1.3848
  121TMC2    O1 1855   3.121   1.153  13.789 -0.6119  0.2381 -0.4347
  121TMC2    O2 1856   3.390   0.886  14.342  0.5845  0.5312  0.5416
  121TMC2    O5 1857   3.166   0.931  14.348 -0.2082  0.5295  0.3662
  121TMC2    H5 1858   3.107   0.997  14.305 -1.5454  0.6006  2.2870
  122MPD2     C 1859   3.722   1.432  13.910 -0.1959  0.7844  0.4174
  122MPD2    C1 1860   3.627   1.359  13.839  0.1626  0.1548  0.4942
  122MPD2    C2 1861   3.610   1.386  13.705  0.0020 -0.2546 -0.4346
  122MPD2    C3 1862   3.692   1.481  13.640 -0.8424 -0.1575  0.2944
  122MPD2    C4 1863   3.793   1.538  13.706 -0.2909 -0.4710  0.2607
  122MPD2    C5 1864   3.802   1.515  13.840  0.1022 -0.9381 -0.7860
  122MPD2     H 1865   3.528   1.330  13.661 -0.2716  0.5808 -1.0008
  122MPD2    H1 1866   3.861   1.608  13.659 -0.3899 -0.7165 -0.2439
  122MPD2    H2 1867   3.753   1.402  14.010  0.6449  0.0603 -0.0648
  122MPD2    H3 1868   3.879   1.573  13.890  0.0701 -2.0871  0.5937
  122MPD2     N 1869   3.694   1.500  13.501  0.2590 -0.1540  0.8720
  122MPD2    H5 1870   3.763   1.565  13.465  2.0894 -1.7788  1.4034
  122MPD2    N1 1871   3.534   1.270  13.894  0.2529 -0.3824  0.0482
  122MPD2    H7 1872   3.457   1.230  13.842 -0.5870  2.9630 -1.2700
  123MPD2     C 1873   0.952   3.306   9.563  0.1706 -0.2647  0.4896
  123MPD2    C1 1874   1.037   3.408   9.586 -0.4649  0.7238  0.2029
  123MPD2    C2 1875   1.082   3.480   9.470 -0.2268 -0.3569 -0.1436
  123MPD2    C3 1876   1.024   3.450   9.349  0.1703 -0.6980 -0.3581
  123MPD2    C4 1877   0.939   3.350   9.336  0.2661 -0.3998 -0.2447
  123MPD2    C5 1878   0.897   3.280   9.443  0.2400  0.3109 -0.5377
  123MPD2     H 1879   1.154   3.560   9.483 -2.1846  1.1739  1.2309
  123MPD2    H1 1880   0.901   3.325   9.238 -2.2774  1.4000  0.2631
  123MPD2    H2 1881   0.923   3.248   9.650 -2.7674  0.4340 -0.0355
  123MPD2    H3 1882   0.828   3.198   9.426  1.8981 -1.4711  1.2751
  123MPD2     N 1883   1.068   3.536   9.245 -0.1835  0.4047 -0.4158
  123MPD2    H5 1884   1.131   3.610   9.274 -0.9328  1.6044 -1.8208
  123MPD2    N1 1885   1.073   3.440   9.723 -0.6113  0.3812  0.3155
  123MPD2    H7 1886   1.039   3.383   9.800  0.8400  0.3269  0.9079
  124TCq2    C1 1887   1.040   3.522   9.112  0.3483  0.3633 -0.5407
  124TCq2    O2 1888   0.952   3.458   9.056 -0.9868  0.2049  0.4144
  124TCq2    C2 1889   1.117   3.613   9.029 -0.0312 -0.3045  0.0295
  124TCq2    C3 1890   1.045   3.709   8.972 -0.5130  0.7667  0.4238
  124TCq2    C4 1891   1.090   3.837   8.963 -0.2588  0.4536  0.6918
  124TCq2    C5 1892   1.214   3.872   9.005 -0.5509  0.6404  0.3898
  124TCq2    C6 1893   1.292   3.773   9.059 -0.7665 -0.2227 -0.0262
  124TCq2    C7 1894   1.243   3.644   9.079 -0.5799 -0.7832 -0.5183
  124TCq2    C8 1895   1.420   3.805   9.120  0.7018  0.4582  0.2155
  124TCq2    O4 1896   1.494   3.712   9.151  0.2134  0.4488  0.2558
  124TCq2    C9 1897   1.018   3.944   8.896 -0.2243 -0.0699  0.3628
  124TCq2    O5 1898   1.074   4.056   8.896 -0.8786  0.1986  0.9194
  124TCq2    O6 1899   0.900   3.913   8.858  0.4158 -0.1421  0.8143
  124TCq2    H2 1900   0.940   3.691   8.954 -0.0259 -2.3452  0.6648
  124TCq2    H3 1901   1.254   3.973   8.994  2.3042 -0.7513 -1.9434
  124TCq2    H4 1902   1.294   3.562   9.129 -1.5428 -1.2725 -0.3350
  125TMC2    C1 1903   2.767   0.365  10.030 -0.1080  0.4205 -0.6146
  125TMC2    C2 1904   2.775   0.297   9.913 -0.5097  0.2549  0.9296
  125TMC2    C3 1905   2.830   0.372   9.808  0.7078  0.7546 -0.7032
  125TMC2    C4 1906   2.801   0.499  10.053 -0.2139 -0.6706  0.4456
  125TMC2    C5 1907   2.861   0.560   9.950 -0.7516  0.6644 -0.1185
  125TMC2    C6 1908   2.873   0.499   9.828 -0.2732  0.0080 -0.2340
  125TMC2     C 1909   2.684   0.298  10.127  0.3037 -0.1213 -0.0460
  125TMC2     O 1910   2.687   0.177  10.121  0.0964  0.3368  0.5299
  125TMC2     H 1911   2.750   0.192   9.903 -1.6624  0.3608  2.5502
  125TMC2    H1 1912   2.774   0.558  10.140  0.3291 -1.3960  1.0953
  125TMC2    H2 1913   2.918   0.553   9.745  0.9192 -0.2725  0.2411
  125TMC2    C7 1914   2.934   0.679   9.982  0.3141  0.2332  0.5043
  125TMC2    C8 1915   2.824   0.332   9.672  1.0766  0.3553  0.1056
  125TMC2    O1 1916   2.976   0.690  10.093  0.3326  0.1788 -0.2130
  125TMC2    O2 1917   2.925   0.325   9.601 -0.2030 -0.4440 -0.3425
  125TMC2    O5 1918   2.723   0.241   9.671 -0.3307 -0.4081  0.4762
  125TMC2    H5 1919   2.649   0.265   9.729  0.1120 -2.0007  1.6959
  126MPD1     C 1920   2.270   0.265  10.420  0.3664  0.4551 -0.1364
  126MPD1    C1 1921   2.291   0.402  10.390 -0.2269  0.0324 -0.8176
  126MPD1    C2 1922   2.395   0.424  10.300  0.3215  0.5760 -0.1180
  126MPD1    C3 1923   2.482   0.332  10.257 -0.2032  0.0340 -0.0814
  126MPD1    C4 1924   2.460   0.200  10.295  0.4010 -0.1106  0.3086
  126MPD1    C5 1925   2.346   0.169  10.365  0.0075 -0.2893 -0.0181
  126MPD1     H 1926   2.412   0.521  10.255 -0.1864  1.3894  1.4454
  126MPD1    H1 1927   2.521   0.116  10.264 -1.8510 -0.9112 -1.8994
  126MPD1    H2 1928   2.185   0.228  10.476  0.5413 -1.2055 -0.9530
  126MPD1    H3 1929   2.327   0.067  10.397 -0.7547 -0.1749 -0.1052
  126MPD1     N 1930   2.590   0.377  10.182  0.2491  0.2450 -0.1860
  126MPD1    H5 1931   2.589   0.473  10.149  0.6032  0.3501  0.1093
  126MPD1    N1 1932   2.201   0.504  10.419  0.2998  0.1187  0.3725
  126MPD1    H6 1933   2.150   0.489  10.506  0.9201  1.5406  0.9877
  126MPD1    H7 1934   2.262   0.585  10.428  0.7134 -0.3235  1.6951
  127MPD2     C 1935   3.955   0.422   9.102 -0.1505 -0.0986  0.2541
  127MPD2    C1 1936   4.017   0.442   9.228  0.6078  0.1671 -0.0715
  127MPD2    C2 1937   4.112   0.545   9.239  0.2083 -0.8348 -0.1275
  127MPD2    C3 1938   4.143   0.622   9.128 -0.4116  0.3876 -0.7839
  127MPD2    C4 1939   4.081   0.594   9.008 -0.4362 -0.5166  0.0674
  127MPD2    C5 1940   3.989   0.495   8.996  0.0848 -0.0549 -0.1777
  127MPD2     H 1941   4.153   0.577   9.335  0.5803 -1.6182 -0.0275
  127MPD2    H1 1942   4.095   0.645   8.913 -0.2390  1.2757  1.0412
  127MPD2    H2 1943   3.884   0.343   9.082  3.6534 -4.2807  3.1636
  127MPD2    H3 1944   3.946   0.477   8.898 -0.0302 -0.8363  0.0115
  127MPD2     N 1945   4.236   0.728   9.147  0.4730  0.3638  0.2983
  127MPD2    H5 1946   4.280   0.732   9.239  1.6546 -0.3788 -0.2325
  127MPD2    N1 1947   3.958   0.371   9.335  0.6396 -0.5072 -0.0742
  127MPD2    H7 1948   3.910   0.287   9.305 -0.2274 -0.3510  0.8715
  128TCq2    C1 1949   3.963   0.405   9.469 -0.3096  0.5380 -0.0181
  128TCq2    O2 1950   4.012   0.505   9.524  0.2431 -0.0767 -0.0590
  128TCq2    C2 1951   3.896   0.317   9.553  1.1466  0.0962 -0.0194
  128TCq2    C3 1952   3.934   0.293   9.675  0.4714  0.1342  0.1594
  128TCq2    C4 1953   3.866   0.212   9.760 -0.6746  0.8955  0.6456
  128TCq2    C5 1954   3.759   0.133   9.715  0.4291  0.1605  0.2359
  128TCq2    C6 1955   3.723   0.161   9.588  0.3757 -0.3453 -0.1881
  128TCq2    C7 1956   3.785   0.253   9.505  0.4106  0.0454 -0.4639
  128TCq2    C8 1957   3.621   0.073   9.521  0.5460  0.1326 -0.3308
  128TCq2    O4 1958   3.588   0.116   9.409 -0.4716  0.3125  0.1436
  128TCq2    C9 1959   3.897   0.226   9.905  0.5324 -0.1550  0.3777
  128TCq2    O5 1960   3.837   0.138   9.974 -0.2303  0.9582  0.7516
  128TCq2    O6 1961   3.966   0.324   9.947 -0.1502 -0.0414 -0.0746
  128TCq2    H2 1962   4.015   0.353   9.715 -0.7333  1.8123  0.1005
  128TCq2    H3 1963   3.693   0.082   9.784  1.7752  0.4919  1.7547
  128TCq2    H4 1964   3.747   0.282   9.408  0.1166 -1.6750 -0.8624
  129MPD2     C 1965   1.078   0.856   1.001  0.3916 -0.1658 -0.1581
  129MPD2    C1 1966   1.200   0.887   1.044  0.1092 -0.6891 -0.5817
  129MPD2    C2 1967   1.294   0.939   0.951  0.3063 -0.6719  0.4124
  129MPD2    C3 1968   1.264   0.951   0.818 -0.1859  0.3406 -0.2068
  129MPD2    C4 1969   1.135   0.928   0.778  0.0248 -0.8195  0.7003
  129MPD2    C5 1970   1.045   0.870   0.865  0.1418 -0.0583  0.1170
  129MPD2     H 1971   1.393   0.965   0.984 -0.6060  1.5683  1.3923
  129MPD2    H1 1972   1.090   0.959   0.684  0.9901 -2.4659 -0.3055
  129MPD2    H2 1973   1.003   0.806   1.061 -0.0232 -0.1694 -0.6721
  129MPD2    H3 1974   0.943   0.870   0.827  0.6854 -1.0685 -1.3594
  129MPD2     N 1975   1.366   1.000   0.734  0.4955  0.6819 -0.4226
  129MPD2    H5 1976   1.461   1.013   0.768  0.3308  2.8959 -0.7533
  129MPD2    N1 1977   1.233   0.872   1.183  0.6451  0.1791  0.2311
  129MPD2    H7 1978   1.328   0.905   1.199  0.9649  0.0252 -1.3425
  130TCq2    C1 1979   1.166   0.807   1.282  0.6024 -0.3822 -0.6394
  130TCq2    O2 1980   1.058   0.756   1.285 -0.6822 -0.7822  0.0702
  130TCq2    C2 1981   1.238   0.821   1.411 -0.7299  0.2230 -0.5254
  130TCq2    C3 1982   1.345   0.903   1.421 -0.0231  0.0593 -0.5005
  130TCq2    C4 1983   1.423   0.899   1.537 -0.6142 -0.0469  0.0272
  130TCq2    C5 1984   1.389   0.810   1.641  0.1373 -0.1946  0.3475
  130TCq2    C6 1985   1.278   0.730   1.629  0.2497  0.0393 -0.8584
  130TCq2    C7 1986   1.199   0.734   1.514  0.3164 -0.4196 -0.7522
  130TCq2    C8 1987   1.247   0.618   1.714 -0.3689 -0.1814  0.4244
  130TCq2    O4 1988   1.137   0.567   1.707 -0.2110  0.4541 -0.1423
  130TCq2    C9 1989   1.551   0.968   1.544  0.8696  0.1508  0.9406
  130TCq2    O5 1990   1.626   0.938   1.644  0.1405  0.0841 -0.3014
  130TCq2    O6 1991   1.583   1.032   1.442  0.6453  0.2256 -0.0384
  130TCq2    H2 1992   1.378   0.979   1.351  0.3292  1.7453  1.4825
  130TCq2    H3 1993   1.453   0.804   1.728  1.1685  1.7404 -0.2684
  130TCq2    H4 1994   1.112   0.670   1.509  0.4802 -0.5161 -2.2726
  131MPD2     C 1995   1.036   4.340  10.128 -0.3022 -0.1728  0.9258
  131MPD2    C1 1996   1.135   4.307  10.038  0.1690 -0.2209 -0.5657
  131MPD2    C2 1997   1.158   4.176  10.001  0.3463  0.2720 -0.6908
  131MPD2    C3 1998   1.107   4.075  10.075 -0.3717 -0.5611 -0.8758
  131MPD2    C4 1999   1.015   4.112  10.172  0.3112  0.2914  0.4179
  131MPD2    C5 2000   0.977   4.243  10.197  0.6371 -0.0347 -0.2531
  131MPD2     H 2001   1.236   4.147   9.932 -0.0521  0.7842 -1.3592
  131MPD2    H1 2002   0.946   4.040  10.215  1.1705 -1.1762 -0.6764
  131MPD2    H2 2003   1.021   4.445  10.152  1.0048  0.6512 -1.9622
  131MPD2    H3 2004   0.900   4.266  10.269 -0.9452 -0.7987 -1.7201
  131MPD2     N 2005   1.143   3.939  10.052  0.1275  0.3640  0.4247
  131MPD2    H5 2006   1.204   3.913   9.976  1.0872 -0.0247  1.3289
  131MPD2    N1 2007   1.220   4.417   9.996  0.6943 -0.1741  0.8023
  131MPD2    H7 2008   1.219   4.509  10.037 -2.1298 -0.1203  0.5790
  132TCq2    C1 2009   1.550   0.035   9.636 -0.7098  0.3657 -0.2747
  132TCq2    O2 2010   1.491   0.005   9.533 -0.1019 -0.5713  0.2772
  132TCq2    C2 2011   1.513   4.694   9.763 -0.1151  0.6403 -0.0209
  132TCq2    C3 2012   1.573   0.011   9.876 -0.4989 -0.3161  0.2792
  132TCq2    C4 2013   1.536   4.673   9.994 -0.4661 -0.2959 -0.5506
  132TCq2    C5 2014   1.443   4.576   9.996 -0.0276  0.1503 -0.0008
  132TCq2    C6 2015   1.393   4.528   9.877  0.5459  0.1654  0.1109
  132TCq2    C7 2016   1.427   4.586   9.755 -0.1560  0.1582  0.3175
  132TCq2    C8 2017   1.299   4.415   9.880  0.2795  0.2987  0.7438
  132TCq2    O4 2018   1.284   4.353   9.773  0.1597 -0.1812  0.3837
  132TCq2    C9 2019   1.594   0.009  10.108  0.4951 -0.7657 -0.7817
  132TCq2    O5 2020   1.708   0.067  10.097 -1.0415  0.3770 -0.3806
  132TCq2    O6 2021   1.551   4.699  10.221  0.2955 -0.0363 -0.0016
  132TCq2    H2 2022   1.645   0.091   9.887 -1.1610 -0.0654  2.8453
  132TCq2    H3 2023   1.424   4.525  10.090 -0.2766  1.8189  0.8385
  132TCq2    H4 2024   1.394   4.543   9.662  2.7226  0.0776 -0.6775
  133MPD2     C 2025   0.891   4.001   9.700  0.2157  0.8206  0.1450
  133MPD2    C1 2026   0.806   4.069   9.783  0.3469  0.6859 -0.6378
  133MPD2    C2 2027   0.820   4.208   9.799 -0.5792 -0.2369 -0.1769
  133MPD2    C3 2028   0.904   4.282   9.719 -0.7127 -0.1184  0.4750
  133MPD2    C4 2029   1.003   4.212   9.658  0.5322 -0.0399 -0.4149
  133MPD2    C5 2030   0.992   4.073   9.641  0.2594  0.0740 -0.3688
  133MPD2     H 2031   0.754   4.257   9.871  1.0920  0.7302  0.6891
  133MPD2    H1 2032   1.093   4.261   9.624  0.4700  0.6032  0.3544
  133MPD2    H2 2033   0.889   3.893   9.696  0.2110  0.7758  1.2594
  133MPD2    H3 2034   1.070   4.028   9.581  0.0050  0.6567 -1.1325
  133MPD2     N 2035   0.921   4.422   9.729 -0.1410  0.0196  0.2506
  133MPD2    H5 2036   0.996   4.462   9.673  1.2076 -0.2619  1.8631
  133MPD2    N1 2037   0.724   3.992   9.872  0.2393  0.7150 -0.0563
  133MPD2    H7 2038   0.742   3.893   9.859  0.5449  0.5843  1.4371
  134TCq2    C1 2039   0.646   4.036   9.975 -0.8340 -0.3159 -0.4891
  134TCq2    O2 2040   0.607   4.146  10.017  0.0567 -0.1520 -0.2476
  134TCq2    C2 2041   0.636   3.940  10.084  0.4147 -0.8425  0.0208
  134TCq2    C3 2042   0.689   3.811  10.067 -0.1463  0.6101  0.4777
  134TCq2    C4 2043   0.730   3.739  10.170 -0.1061  0.0937 -0.5660
  134TCq2    C5 2044   0.730   3.798  10.292 -0.2905 -0.0487 -0.2416
  134TCq2    C6 2045   0.679   3.924  10.311  0.1745  0.0179  0.5376
  134TCq2    C7 2046   0.628   3.992  10.206 -0.7690 -0.0927  0.1642
  134TCq2    C8 2047   0.714   3.998  10.433  0.4696  0.1987  0.4595
  134TCq2    O4 2048   0.679   4.115  10.433 -0.1843  0.2869  0.6548
  134TCq2    C9 2049   0.781   3.601  10.152 -0.5556  0.6179 -0.2731
  134TCq2    O5 2050   0.813   3.548  10.260  0.3724  0.3471 -0.1935
  134TCq2    O6 2051   0.808   3.570  10.034  0.4107 -0.2306 -0.5244
  134TCq2    H2 2052   0.686   3.766   9.969 -2.3100  0.6258  0.5429
  134TCq2    H3 2053   0.752   3.731  10.374 -0.9439  0.0565  0.0130
  134TCq2    H4 2054   0.576   4.085  10.225 -0.2853 -0.1839  2.0095
  135MPD2     C 2055   3.677   1.844   9.041  1.0803 -0.2358  0.5121
  135MPD2    C1 2056   3.605   1.728   9.043  0.4071  0.2820  0.4325
  135MPD2    C2 2057   3.638   1.617   8.966 -0.6829 -0.0151  0.3827
  135MPD2    C3 2058   3.761   1.621   8.912  0.1895  0.0246 -0.2204
  135MPD2    C4 2059   3.836   1.735   8.905 -0.4986 -0.7933  0.6441
  135MPD2    C5 2060   3.800   1.846   8.975  0.2176  0.4976  0.7097
  135MPD2     H 2061   3.571   1.532   8.974 -0.3523 -0.4396 -1.4108
  135MPD2    H1 2062   3.935   1.736   8.861 -1.1710  0.6995 -0.8003
  135MPD2    H2 2063   3.641   1.932   9.092 -2.0619 -1.5687  0.6263
  135MPD2    H3 2064   3.857   1.939   8.973  2.8203 -1.1128  0.4696
  135MPD2     N 2065   3.828   1.505   8.866  0.1196 -0.5016 -0.2543
  135MPD2    H5 2066   3.923   1.520   8.834 -0.1963  0.0457 -0.9206
  135MPD2    N1 2067   3.505   1.713   9.139 -0.0956 -0.1259 -0.1904
  135MPD2    H7 2068   3.459   1.622   9.136 -1.6415  0.6080  1.1815
  136TCq2    C1 2069   3.453   1.803   9.225  0.0123  0.4982 -0.5910
  136TCq2    O2 2070   3.506   1.908   9.265  0.1659 -0.3564  0.7651
  136TCq2    C2 2071   3.332   1.741   9.285 -0.5260 -0.6476  0.0128
  136TCq2    C3 2072   3.278   1.629   9.224 -0.4590 -0.1607 -1.0939
  136TCq2    C4 2073   3.169   1.568   9.276 -0.6541  0.0599  0.3783
  136TCq2    C5 2074   3.124   1.609   9.402  0.3964  0.0153  0.5874
  136TCq2    C6 2075   3.176   1.724   9.461 -0.1412 -0.1773  0.0173
  136TCq2    C7 2076   3.275   1.800   9.396 -0.1437 -0.2734 -0.2235
  136TCq2    C8 2077   3.097   1.792   9.560  0.4159 -0.6253  0.1399
  136TCq2    O4 2078   3.122   1.910   9.571  0.1593  0.2609  0.3037
  136TCq2    C9 2079   3.103   1.458   9.210 -0.1182  0.3770 -0.2832
  136TCq2    O5 2080   3.146   1.428   9.095 -0.2498  0.3694 -0.6080
  136TCq2    O6 2081   2.989   1.432   9.258 -0.4086 -0.0540 -0.0598
  136TCq2    H2 2082   3.309   1.588   9.129 -0.8301 -1.8524 -0.4826
  136TCq2    H3 2083   3.044   1.550   9.446 -0.7163  1.5698  0.6593
  136TCq2    H4 2084   3.314   1.885   9.452  1.5589 -1.6696  0.7267
  137MPD2     C 2085   2.900   4.519   9.994 -0.1638 -0.0681 -0.6858
  137MPD2    C1 2086   2.932   4.603   9.885 -0.2442 -0.1865  0.5564
  137MPD2    C2 2087   3.002   4.716   9.918 -0.1664  0.2851 -0.2807
  137MPD2    C3 2088   3.025   0.030  10.052  0.5054  0.1827 -0.0359
  137MPD2    C4 2089   3.014   4.657  10.154 -0.4254 -0.5655  0.2265
  137MPD2    C5 2090   2.944   4.544  10.121  0.7289 -0.1801  0.3242
  137MPD2     H 2091   3.006   0.080   9.853 -0.8012 -0.3783 -1.1977
  137MPD2    H1 2092   3.052   4.664  10.255  1.9374  0.5045 -0.7362
  137MPD2    H2 2093   2.835   4.433   9.981 -1.4493  0.7214  0.6334
  137MPD2    H3 2094   2.916   4.481  10.205 -1.5535 -1.1178 -1.1569
  137MPD2     N 2095   3.081   0.153  10.082 -0.0667  0.3959  0.0625
  137MPD2    H5 2096   3.107   0.213  10.005  0.0075  0.7774  0.3841
  137MPD2    N1 2097   2.885   4.571   9.756 -0.5387  0.2254  0.4400
  137MPD2    H7 2098   2.829   4.487   9.743 -0.6258  0.6381 -1.8024
  138TCq2    C1 2099   2.920   4.645   9.648 -0.7003 -0.4429  0.2705
  138TCq2    O2 2100   3.000   0.012   9.632 -0.1685  0.3579  0.0534
  138TCq2    C2 2101   2.837   4.610   9.533 -0.3338 -0.3676 -0.2609
  138TCq2    C3 2102   2.813   4.477   9.498 -0.1467  0.0869  0.1733
  138TCq2    C4 2103   2.756   4.453   9.377 -0.3204  0.6363 -0.1541
  138TCq2    C5 2104   2.732   4.550   9.291  0.2487 -0.7258  0.4465
  138TCq2    C6 2105   2.754   4.679   9.334 -0.5767  0.0198 -0.0311
  138TCq2    C7 2106   2.805   4.712   9.455  0.1367  0.3679  0.2314
  138TCq2    C8 2107   2.683   0.063   9.263  0.1851  0.3953 -0.4178
  138TCq2    O4 2108   2.615   0.032   9.163 -0.3336  0.1813  0.3303
  138TCq2    C9 2109   2.766   4.321   9.323  0.2904 -0.4779 -0.3455
  138TCq2    O5 2110   2.839   4.241   9.391 -0.1753  0.3321  0.4502
  138TCq2    O6 2111   2.704   4.293   9.220  0.0413 -0.1389  0.0766
  138TCq2    H2 2112   2.862   4.398   9.554 -0.2352 -0.0486  0.0604
  138TCq2    H3 2113   2.697   4.528   9.191  0.0416 -1.3091  0.6470
  138TCq2    H4 2114   2.839   0.090   9.476 -0.2091  0.0150  2.4515
  139TMC2    C1 2115   3.004   3.378  13.093  0.7375  0.0924 -0.3887
  139TMC2    C2 2116   2.963   3.320  12.970  0.5988 -0.0747  0.0395
  139TMC2    C3 2117   2.844   3.359  12.923  0.7158 -0.1442  0.3746
  139TMC2    C4 2118   2.924   3.473  13.159 -0.0663 -0.0491 -0.0685
  139TMC2    C5 2119   2.804   3.498  13.104 -0.5813 -0.1561  0.7250
  139TMC2    C6 2120   2.766   3.455  12.982 -0.4574 -0.7350 -0.8418
  139TMC2     C 2121   3.137   3.333  13.136 -0.2447 -0.3152  0.2346
  139TMC2     O 2122   3.214   3.279  13.057 -0.1411  0.2928 -0.0509
  139TMC2     H 2123   3.021   3.246  12.916 -0.7135 -0.7828 -0.3927
  139TMC2    H1 2124   2.946   3.510  13.259  0.3060 -1.3123  0.3151
  139TMC2    H2 2125   2.678   3.497  12.935  0.1562 -0.2003 -1.5043
  139TMC2    C7 2126   2.715   3.583  13.176 -0.1182  0.1378 -0.8277
  139TMC2    C8 2127   2.792   3.294  12.804  0.9627 -0.0904  0.4363
  139TMC2    O1 2128   2.771   3.645  13.267 -0.3193 -0.4622  0.1545
  139TMC2    O2 2129   2.671   3.282  12.781 -0.0121  0.4756 -0.4421
  139TMC2    O5 2130   2.882   3.321  12.707  0.0727 -0.7668 -0.4569
  139TMC2    H5 2131   2.963   3.368  12.737 -0.0584 -0.2147 -0.9530
  140MPD2     C 2132   3.288   3.393  13.470  0.0968 -0.2983 -0.1727
  140MPD2    C1 2133   3.264   3.326  13.351  0.1728 -0.6074  0.0206
  140MPD2    C2 2134   3.343   3.218  13.316 -0.4154  0.3022  0.6873
  140MPD2    C3 2135   3.455   3.188  13.387  0.0072  0.5239 -0.0158
  140MPD2    C4 2136   3.480   3.257  13.499  0.3567  0.0890  0.9521
  140MPD2    C5 2137   3.391   3.351  13.543  0.1854  0.2433  0.2966
  140MPD2     H 2138   3.334   3.175  13.216 -0.2446 -0.8038  1.1428
  140MPD2    H1 2139   3.564   3.234  13.563  0.4803  0.5444  0.9535
  140MPD2    H2 2140   3.225   3.472  13.510  0.7683 -0.6050  1.4686
  140MPD2    H3 2141   3.415   3.399  13.637  1.3487  0.5745 -0.1644
  140MPD2     N 2142   3.548   3.088  13.345  0.0718 -0.6471  0.2860
  140MPD2    H5 2143   3.506   3.019  13.284 -1.7963  0.6477  0.0928
  140MPD2    N1 2144   3.155   3.368  13.270  0.2537  0.2795  1.1254
  140MPD2    H7 2145   3.089   3.427  13.319 -1.0022 -0.3606  0.2168
  141TCq2    C1 2146   3.929   0.327  14.226  0.5625  0.5385 -0.4780
  141TCq2    O2 2147   3.868   0.279  14.131 -0.2570 -0.2617  0.9774
  141TCq2    C2 2148   3.868   0.314  14.359  0.3144  0.1099  0.1198
  141TCq2    C3 2149   3.788   0.210  14.373 -0.6343  0.3447 -0.0221
  141TCq2    C4 2150   3.762   0.167  14.499 -0.6785  0.0584  0.1910
  141TCq2    C5 2151   3.811   0.226  14.608 -0.1972  0.1429  0.5721
  141TCq2    C6 2152   3.880   0.340  14.584  0.2409 -1.2395 -0.6575
  141TCq2    C7 2153   3.917   0.382  14.463  0.0741  0.0782 -0.0617
  141TCq2    C8 2154   3.933   0.406  14.703  0.0158 -0.0642 -0.0734
  141TCq2    O4 2155   3.942   0.351  14.810  0.0867  0.1571  0.3222
  141TCq2    C9 2156   3.684   0.055  14.518 -0.5495 -0.4647  0.6367
  141TCq2    O5 2157   3.728   4.695  14.598 -0.1676  0.3290 -0.4456
  141TCq2    O6 2158   3.608   0.029  14.423 -0.5278  0.4052 -0.4757
  141TCq2    H2 2159   3.754   0.153  14.287  2.0941 -0.6686 -0.4164
  141TCq2    H3 2160   3.781   0.197  14.708 -0.1188 -0.2773  0.4741
  141TCq2    H4 2161   3.980   0.470  14.454 -1.0482  0.8527 -0.3123
  142MPD2     C 2162   1.731   3.526  10.492  0.1596  0.0871 -0.5875
  142MPD2    C1 2163   1.720   3.436  10.390  0.6335  0.1155 -0.2287
  142MPD2    C2 2164   1.746   3.475  10.261  0.6560 -0.7650 -0.5208
  142MPD2    C3 2165   1.795   3.600  10.241  0.0876  0.5294 -0.4157
  142MPD2    C4 2166   1.817   3.680  10.347 -0.1147 -0.2044  0.6814
  142MPD2    C5 2167   1.775   3.651  10.475 -0.6005  0.7212  0.1281
  142MPD2     H 2168   1.729   3.402  10.183  0.9936 -0.6156 -0.7310
  142MPD2    H1 2169   1.876   3.769  10.328  1.0602 -1.2514 -0.6428
  142MPD2    H2 2170   1.720   3.490  10.593  3.7208  1.5265  0.3372
  142MPD2    H3 2171   1.807   3.720  10.552 -1.7598  2.0348 -0.5806
  142MPD2     N 2172   1.823   3.659  10.116 -0.0741  0.4147 -0.0325
  142MPD2    H5 2173   1.854   3.755  10.127 -1.1403  0.4473  2.6363
  142MPD2    N1 2174   1.682   3.305  10.432 -0.1811  0.4389 -0.3699
  142MPD2    H7 2175   1.670   3.298  10.533 -1.7088  1.0814 -0.5073
  143TCq2    C1 2176   1.783   3.606   9.995 -0.8557  0.2751  0.4587
  143TCq2    O2 2177   1.705   3.512   9.972 -0.3952  0.0219 -0.0084
  143TCq2    C2 2178   1.852   3.671   9.882 -0.0756 -0.5253  0.8525
  143TCq2    C3 2179   1.962   3.752   9.909  0.3275  0.2823 -0.3452
  143TCq2    C4 2180   2.005   3.847   9.815 -0.2641 -0.1460  0.1591
  143TCq2    C5 2181   1.921   3.862   9.706  1.9176  0.4772 -1.1299
  143TCq2    C6 2182   1.818   3.773   9.682 -0.7254 -0.0439 -0.4428
  143TCq2    C7 2183   1.784   3.668   9.761 -0.0462 -0.4047 -0.6982
  143TCq2    C8 2184   1.720   3.804   9.582 -1.1257  0.3398  0.2105
  143TCq2    O4 2185   1.631   3.724   9.561  0.4435 -0.5872  0.1149
  143TCq2    C9 2186   2.133   3.912   9.812  0.2466  0.5727 -0.0171
  143TCq2    O5 2187   2.229   3.854   9.872 -0.6550  0.3121  0.0073
  143TCq2    O6 2188   2.143   4.006   9.733  0.1458  0.0776 -0.1781
  143TCq2    H2 2189   2.036   3.723   9.982  1.2091  0.4358 -1.1779
  143TCq2    H3 2190   1.955   3.925   9.624 -0.8130  2.1869 -0.9232
  143TCq2    H4 2191   1.695   3.609   9.742  0.5206 -1.5756  0.2516
  144MPD2     C 2192   4.276   2.487   0.474 -0.3048  0.1668  0.2136
  144MPD2    C1 2193   4.268   2.375   0.395 -1.4625 -0.0496 -0.0136
  144MPD2    C2 2194   4.352   2.267   0.440 -0.1179 -0.3537 -0.2297
  144MPD2    C3 2195   4.437   2.270   0.557 -0.2647 -0.1228 -0.2589
  144MPD2    C4 2196   4.428   2.390   0.634  0.3959  0.0474  0.2981
  144MPD2    C5 2197   4.347   2.494   0.590 -0.4742  0.7302  0.1019
  144MPD2     H 2198   4.354   2.184   0.371  0.3700 -0.1139 -0.5077
  144MPD2    H1 2199   4.487   2.395   0.725  0.4681  1.5029  0.1769
  144MPD2    H2 2200   4.219   2.578   0.455 -1.0637 -0.2620  0.4563
  144MPD2    H3 2201   4.340   2.582   0.653 -2.9362 -0.0520  0.9285
  144MPD2     N 2202   4.535   2.177   0.593 -0.3903 -0.0527 -0.9426
  144MPD2    H5 2203   4.590   2.194   0.676 -2.2063  0.0532  0.2343
  144MPD2    N1 2204   4.177   2.357   0.289  0.1951  0.1446 -0.0090
  144MPD2    H7 2205   4.161   2.261   0.259  0.6006 -0.2207  0.9510
  145TCq2    C1 2206   4.572   2.074   0.514  0.1748  0.6877 -0.2118
  145TCq2    O2 2207   4.524   2.045   0.405  0.2522  0.1999  0.2512
  145TCq2    C2 2208   4.680   1.993   0.552  0.0970 -0.8591  0.4362
  145TCq2    C3 2209   0.000   1.898   0.467 -0.2207  0.3811 -0.0602
  145TCq2    C4 2210   0.134   1.864   0.473 -0.3079  0.4934 -0.5453
  145TCq2    C5 2211   0.219   1.904   0.566  0.2063 -0.2422 -0.0305
  145TCq2    C6 2212   0.177   1.997   0.660 -0.0041 -0.5565  0.0119
  145TCq2    C7 2213   0.047   2.042   0.650  0.2670  0.0749 -0.0008
  145TCq2    C8 2214   0.249   2.000   0.784  0.1345  1.0263 -0.1477
  145TCq2    O4 2215   0.341   1.925   0.803  0.0211  0.3394  0.4148
  145TCq2    C9 2216   0.172   1.754   0.388  0.5181  0.3829 -0.3037
  145TCq2    O5 2217   0.285   1.700   0.395  0.2429  0.0301  0.1074
  145TCq2    O6 2218   0.081   1.710   0.322  0.2033 -0.0813  0.0387
  145TCq2    H2 2219   4.651   1.853   0.399  0.9528 -1.4604 -0.0635
  145TCq2    H3 2220   0.319   1.862   0.574  1.1085  2.4251  2.8102
  145TCq2    H4 2221   0.011   2.097   0.736 -2.1911 -0.4992 -0.6580
  146TMC2    C1 2222   0.808   1.638  12.715  0.3384  0.2131  0.2169
  146TMC2    C2 2223   0.800   1.701  12.591  0.0080 -0.1687 -0.4663
  146TMC2    C3 2224   0.856   1.648  12.486  0.0769  0.3464 -0.2693
  146TMC2    C4 2225   0.892   1.523  12.727  0.4362  0.0487  0.3920
  146TMC2    C5 2226   0.963   1.483  12.611 -0.7573  1.4355  0.9608
  146TMC2    C6 2227   0.938   1.539  12.487 -0.5364 -0.3380  0.6257
  146TMC2     C 2228   0.736   1.683  12.830 -0.8318 -0.5189 -0.2724
  146TMC2     O 2229   0.668   1.783  12.815 -0.5133 -0.5095 -0.5306
  146TMC2     H 2230   0.740   1.790  12.575  1.5565  1.2389  1.4930
  146TMC2    H1 2231   0.898   1.456  12.812  1.4631 -0.9942 -0.5026
  146TMC2    H2 2232   0.990   1.512  12.396 -0.6167 -1.2239  0.8393
  146TMC2    C7 2233   1.041   1.366  12.615 -0.2169 -0.3666  0.3059
  146TMC2    C8 2234   0.851   1.741  12.368  1.1347  0.2901 -0.6431
  146TMC2    O1 2235   1.048   1.304  12.508 -0.0662  0.3463 -0.5401
  146TMC2    O2 2236   0.853   1.864  12.380  0.1150  0.0713 -0.5957
  146TMC2    O5 2237   0.877   1.679  12.250  0.4281 -0.1239  0.4954
  146TMC2    H5 2238   0.858   1.583  12.252  1.0186 -0.2595 -0.2744
  147MPD2     C 2239   1.259   1.015  12.910  0.0671 -0.4325  0.1631
  147MPD2    C1 2240   1.292   1.135  12.965  0.1419  0.5031 -0.0011
  147MPD2    C2 2241   1.257   1.250  12.892  0.2293 -0.0388 -0.0456
  147MPD2    C3 2242   1.177   1.241  12.780  0.0451  0.7145 -0.5025
  147MPD2    C4 2243   1.150   1.114  12.726 -0.5590  0.2701 -0.7510
  147MPD2    C5 2244   1.196   1.004  12.786  0.1374 -1.2307 -0.4765
  147MPD2     H 2245   1.288   1.344  12.936  1.3667 -0.7477  0.6812
  147MPD2    H1 2246   1.085   1.097  12.641 -0.0441 -1.5846 -0.7720
  147MPD2    H2 2247   1.289   0.935  12.976  1.8381  0.3994  0.3560
  147MPD2    H3 2248   1.170   0.904  12.755  1.2789 -1.5515 -0.4286
  147MPD2     N 2249   1.106   1.353  12.738 -0.0930  0.4115  0.4835
  147MPD2    H5 2250   1.112   1.427  12.808 -1.2834  0.1271  0.8985
  147MPD2    N1 2251   1.353   1.142  13.095  0.1529  0.2239  0.9032
  147MPD2    H7 2252   1.371   1.051  13.135  1.6736  0.5385  0.9472
  148MPD2     C 2253   1.480   4.110  10.741 -0.0438 -0.1988 -0.1277
  148MPD2    C1 2254   1.526   4.222  10.674  0.1705 -0.1151 -0.7507
  148MPD2    C2 2255   1.473   4.352  10.693 -0.2296 -0.0412  0.3321
  148MPD2    C3 2256   1.367   4.366  10.778 -0.1061 -0.2588 -0.1873
  148MPD2    C4 2257   1.321   4.255  10.844  0.4023 -0.0292  0.2373
  148MPD2    C5 2258   1.376   4.128  10.828 -0.2118  0.1661 -1.2202
  148MPD2     H 2259   1.507   4.438  10.637 -2.2329  0.9714  0.6692
  148MPD2    H1 2260   1.234   4.267  10.908  0.3614 -0.0337  0.1830
  148MPD2    H2 2261   1.520   4.011  10.729  0.0552 -0.1287 -0.3787
  148MPD2    H3 2262   1.326   4.052  10.887 -0.2635 -0.8978 -2.6435
  148MPD2     N 2263   1.298   4.492  10.799 -0.4451 -0.4175  0.5654
  148MPD2    H5 2264   1.221   4.504  10.864 -0.8731  1.4258 -0.2932
  148MPD2    N1 2265   1.636   4.219  10.592 -0.0683  0.2049 -0.3100
  148MPD2    H7 2266   1.684   4.305  10.566 -2.2687  1.6091  0.2665
  149TCq2    C1 2267   1.706   4.113  10.545 -0.6853 -0.1463  0.5113
  149TCq2    O2 2268   1.660   4.000  10.538 -0.1741 -0.2119 -0.4833
  149TCq2    C2 2269   1.816   4.149  10.454  0.5973 -0.3373 -0.4137
  149TCq2    C3 2270   1.885   4.266  10.469  0.1516 -0.8210  0.3214
  149TCq2    C4 2271   1.989   4.302  10.376  0.5706 -0.2174 -0.1139
  149TCq2    C5 2272   2.021   4.216  10.278  0.1091  0.2012  0.4340
  149TCq2    C6 2273   1.948   4.096  10.276 -0.6706 -0.1096 -0.4093
  149TCq2    C7 2274   1.855   4.060  10.366  0.3420  0.9712 -0.2394
  149TCq2    C8 2275   1.927   4.042  10.149  0.5369  0.5294 -0.4247
  149TCq2    O4 2276   1.903   3.920  10.141 -0.0996  0.0365 -0.5073
  149TCq2    C9 2277   2.019   4.442  10.370  0.3071 -0.6181  0.4245
  149TCq2    O5 2278   1.997   4.512  10.473  0.2199  0.3288 -0.7607
  149TCq2    O6 2279   2.108   4.479  10.285 -0.0363 -1.1307  0.3906
  149TCq2    H2 2280   1.865   4.338  10.547  2.3819  1.4391 -1.1877
  149TCq2    H3 2281   2.097   4.241  10.205 -1.7473 -0.5743 -1.7632
  149TCq2    H4 2282   1.797   3.970  10.348  2.0348 -0.0229 -0.7667
  150MPD2     C 2283   2.754   4.059  11.783  0.3422  0.0234 -0.3343
  150MPD2    C1 2284   2.884   4.032  11.749  0.7642 -0.8993  0.0876
  150MPD2    C2 2285   2.986   4.029  11.850  0.6537  0.3840  0.3208
  150MPD2    C3 2286   2.951   4.041  11.983  0.6675  0.5986 -0.2910
  150MPD2    C4 2287   2.816   4.055  12.013  0.2381  0.1536 -0.3305
  150MPD2    C5 2288   2.725   4.068  11.914 -0.3832  0.2334 -0.0105
  150MPD2     H 2289   3.089   4.031  11.817 -0.8356  0.0600 -4.3716
  150MPD2    H1 2290   2.774   4.065  12.113  0.3666 -2.0413 -0.0538
  150MPD2    H2 2291   2.679   4.079  11.706  1.0404 -0.2551 -1.0887
  150MPD2    H3 2292   2.620   4.085  11.937 -0.0786 -0.7142  2.0731
  150MPD2     N 2293   3.053   4.043  12.083 -0.1718  0.5445 -0.4776
  150MPD2    H5 2294   3.151   4.030  12.059 -0.0719  0.4140  0.0007
  150MPD2    N1 2295   2.912   4.011  11.613  0.1431  0.0989  0.5702
  150MPD2    H7 2296   2.841   4.019  11.542  1.3480  0.8033 -0.5615
  151TCq2    C1 2297   3.035   4.076  12.221 -0.4350  0.6678 -0.1398
  151TCq2    O2 2298   2.929   4.114  12.279 -0.2329 -0.4334  0.6718
  151TCq2    C2 2299   3.160   4.058  12.304 -0.4221  0.5743 -1.2403
  151TCq2    C3 2300   3.255   3.973  12.265 -0.4334  0.3421 -0.2469
  151TCq2    C4 2301   3.371   3.944  12.333  0.1157 -0.5350  0.1152
  151TCq2    C5 2302   3.391   4.017  12.447  0.8594  0.1540 -0.3819
  151TCq2    C6 2303   3.291   4.104  12.487 -0.8537  0.7587 -0.2368
  151TCq2    C7 2304   3.186   4.138  12.410 -0.0234 -0.2736  0.0328
  151TCq2    C8 2305   3.332   4.181  12.604  0.4472 -0.7725  0.6464
  151TCq2    O4 2306   3.246   4.220  12.679  1.0560  0.0791  0.7124
  151TCq2    C9 2307   3.457   3.838  12.290 -0.6258 -0.0561  0.9829
  151TCq2    O5 2308   3.439   3.792  12.177  0.3304  0.3375  0.0945
  151TCq2    O6 2309   3.533   3.777  12.378  0.2161  0.2351 -0.2722
  151TCq2    H2 2310   3.244   3.902  12.184 -0.5892  0.2197 -0.1181
  151TCq2    H3 2311   3.471   3.983  12.512  0.5311 -2.4864 -1.3763
  151TCq2    H4 2312   3.124   4.219  12.448 -0.8071 -0.9620  0.2168
  152MPD2     C 2313   2.669   4.080  13.280  1.0523  0.7322 -0.0083
  152MPD2    C1 2314   2.730   4.058  13.158 -0.1064 -0.0079  0.1430
  152MPD2    C2 2315   2.655   4.005  13.051 -0.3425 -0.3267  0.6336
  152MPD2    C3 2316   2.517   3.996  13.061  0.5834 -0.1799 -0.2659
  152MPD2    C4 2317   2.452   4.024  13.187  0.1480 -0.6740 -0.8276
  152MPD2    C5 2318   2.535   4.054  13.296 -0.4092  0.9830  0.2535
  152MPD2     H 2319   2.698   3.996  12.952 -3.2513 -0.5996 -0.6026
  152MPD2    H1 2320   2.345   4.025  13.203  0.2157 -0.9525 -0.3391
  152MPD2    H2 2321   2.736   4.111  13.359  0.7796  0.9138  0.1545
  152MPD2    H3 2322   2.487   4.083  13.388 -0.0858 -0.6273  0.9290
  152MPD2     N 2323   2.435   3.976  12.944  0.4416  0.1842  0.4342
  152MPD2    H5 2324   2.495   3.964  12.863 -1.0143  0.8556 -0.7437
  152MPD2    N1 2325   2.864   4.088  13.144 -0.0009 -0.4404  0.4769
  152MPD2    H7 2326   2.905   4.149  13.214  0.1894  2.0188 -1.7422
  153TCq2    C1 2327   2.951   4.053  13.039  0.6674 -0.8215 -0.5139
  153TCq2    O2 2328   2.926   3.988  12.937  0.1476  0.7410 -0.3498
  153TCq2    C2 2329   3.085   4.089  13.071 -0.1628 -0.9213 -0.2354
  153TCq2    C3 2330   3.183   4.018  13.008 -0.6895 -0.3853 -0.1847
  153TCq2    C4 2331   3.311   4.016  13.063 -0.5329 -0.3670  0.3657
  153TCq2    C5 2332   3.346   4.090  13.171 -0.1826  0.0504  0.1705
  153TCq2    C6 2333   3.247   4.178  13.225  0.2122  0.0125  0.1117
  153TCq2    C7 2334   3.117   4.166  13.185  0.2762 -0.2105 -0.0751
  153TCq2    C8 2335   3.284   4.275  13.321  0.6208  0.0898 -0.6446
  153TCq2    O4 2336   3.193   4.330  13.378 -0.3674 -0.4324  0.0491
  153TCq2    C9 2337   3.407   3.916  13.003 -0.4939  0.2487  0.0892
  153TCq2    O5 2338   3.368   3.852  12.900 -0.5327 -0.3163 -0.0460
  153TCq2    O6 2339   3.494   3.876  13.081  0.0998 -0.2923  0.4967
  153TCq2    H2 2340   3.167   3.945  12.930  0.7551  0.4062 -1.2239
  153TCq2    H3 2341   3.444   4.076  13.215 -0.4734 -3.0476 -0.2135
  153TCq2    H4 2342   3.046   4.233  13.233 -0.5542  0.1048 -1.7323
  154MPD2     C 2343   0.125   3.495   0.331  0.0386  0.5801  0.5298
  154MPD2    C1 2344   0.097   3.443   0.453 -0.4265  0.7763  0.2653
  154MPD2    C2 2345   4.698   3.481   0.511 -0.0889 -0.3015 -0.1379
  154MPD2    C3 2346   4.616   3.574   0.447 -0.3192 -0.4414 -0.7800
  154MPD2    C4 2347   4.655   3.637   0.338  0.1634  0.0820 -0.1372
  154MPD2    C5 2348   0.046   3.594   0.272  0.7259 -0.1623 -0.4118
  154MPD2     H 2349   4.657   3.437   0.602 -1.5379 -0.5372 -0.8968
  154MPD2    H1 2350   4.612   3.714   0.275 -1.9185 -0.0173  1.1646
  154MPD2    H2 2351   0.204   3.453   0.270  0.8717  0.9454  1.3440
  154MPD2    H3 2352   0.078   3.636   0.177  1.4715  2.2656  0.9101
  154MPD2     N 2353   4.492   3.607   0.511  0.1475 -0.4556 -0.1350
  154MPD2    H5 2354   4.454   3.542   0.580 -0.5154  0.9786  0.8548
  154MPD2    N1 2355   0.174   3.344   0.505  0.0463 -0.2156 -0.3204
  154MPD2    H7 2356   0.248   3.309   0.445 -0.9820 -2.0271 -0.5243
  155TCq2    C1 2357   0.158   3.290   0.628 -0.6310 -0.2695  0.1252
  155TCq2    O2 2358   0.090   3.331   0.722 -0.2793  0.0411  0.3671
  155TCq2    C2 2359   0.241   3.179   0.653 -0.1497  0.1347 -1.1838
  155TCq2    C3 2360   0.279   3.145   0.777 -0.3775 -0.5279  0.4106
  155TCq2    C4 2361   0.346   3.022   0.800 -0.1222 -0.1948 -0.1783
  155TCq2    C5 2362   0.364   2.933   0.692 -0.1874  0.2900 -0.2875
  155TCq2    C6 2363   0.319   2.974   0.568  0.0193 -0.0155  0.0956
  155TCq2    C7 2364   0.265   3.097   0.540 -0.1112 -0.6800  0.4277
  155TCq2    C8 2365   0.387   2.912   0.455 -0.1409  0.0560  0.1374
  155TCq2    O4 2366   0.460   2.976   0.387  0.5155 -0.0709 -0.4807
  155TCq2    C9 2367   0.412   2.992   0.927 -0.0431  0.0711  0.5284
  155TCq2    O5 2368   0.395   3.075   1.025  0.4719  0.4024 -0.0729
  155TCq2    O6 2369   0.493   2.898   0.934  0.3776 -0.3512  0.0496
  155TCq2    H2 2370   0.255   3.210   0.861  0.4161 -0.3709  0.5193
  155TCq2    H3 2371   0.422   2.843   0.709 -1.1618 -0.2250  0.3106
  155TCq2    H4 2372   0.241   3.117   0.436 -2.0186  0.0784  1.0320
  156MPD2     C 2373   3.219   0.855  12.203 -0.0209  0.4763 -0.0758
  156MPD2    C1 2374   3.132   0.864  12.097  0.0121  0.5860 -0.3021
  156MPD2    C2 2375   2.999   0.890  12.121 -0.2402  0.6987  0.2240
  156MPD2    C3 2376   2.957   0.915  12.254 -0.4922 -0.6832  0.0515
  156MPD2    C4 2377   3.046   0.915  12.356 -0.6199 -0.3245 -0.3361
  156MPD2    C5 2378   3.177   0.880  12.333  0.2364  0.2142 -0.5170
  156MPD2     H 2379   2.928   0.909  12.041 -0.6058  1.2733  0.6920
  156MPD2    H1 2380   3.009   0.937  12.456  0.1371  0.1731 -0.1690
  156MPD2    H2 2381   3.319   0.820  12.181  0.2541  1.5876 -0.6426
  156MPD2    H3 2382   3.255   0.890  12.407  2.2691 -1.3167 -2.4716
  156MPD2     N 2383   2.826   0.968  12.275  0.2316  0.0393  1.0291
  156MPD2    H5 2384   2.772   0.982  12.190 -0.4059 -1.1219  1.2453
  156MPD2    N1 2385   3.174   0.847  11.962  0.4252 -0.1621  0.6044
  156MPD2    H7 2386   3.272   0.855  11.937  0.4435 -0.6295  0.5324
  157TCq2    C1 2387   3.094   0.829  11.851 -0.1820  0.2063  0.2607
  157TCq2    O2 2388   2.971   0.822  11.845  0.2586  0.5727 -0.6194
  157TCq2    C2 2389   3.165   0.823  11.728  0.0490  0.2641 -0.6543
  157TCq2    C3 2390   3.297   0.788  11.717  0.4624  0.4230 -0.1198
  157TCq2    C4 2391   3.373   0.829  11.609  0.5516  0.1372  0.7182
  157TCq2    C5 2392   3.307   0.890  11.503 -0.2112  0.0987  0.5357
  157TCq2    C6 2393   3.176   0.926  11.513  0.6548  0.9532  0.4417
  157TCq2    C7 2394   3.102   0.886  11.620  0.2180  0.1191  0.2059
  157TCq2    C8 2395   3.135   1.049  11.444  0.0087  0.1004 -0.8001
  157TCq2    O4 2396   3.223   1.128  11.413 -0.1286 -0.2836  0.1791
  157TCq2    C9 2397   3.513   0.797  11.592  0.1505 -0.1198  0.8090
  157TCq2    O5 2398   3.561   0.795  11.478 -0.0748  0.4010 -0.3707
  157TCq2    O6 2399   3.570   0.747  11.695 -0.1011  0.0023  0.2434
  157TCq2    H2 2400   3.349   0.742  11.801  0.4192  0.7953  0.1097
  157TCq2    H3 2401   3.375   0.911  11.421 -3.1906 -0.3174 -2.0228
  157TCq2    H4 2402   3.001   0.923  11.635  0.9099  2.0512  0.1233
  158TMC2    C1 2403   2.802   0.421  14.173 -0.0190  0.2891 -0.4247
  158TMC2    C2 2404   2.703   0.407  14.268 -0.3581 -0.6448 -0.4152
  158TMC2    C3 2405   2.595   0.330  14.246 -0.1102 -0.1257 -0.2666
  158TMC2    C4 2406   2.784   0.355  14.053  0.7239  0.1600 -0.2695
  158TMC2    C5 2407   2.672   0.277  14.036  0.9822  0.5376 -0.8025
  158TMC2    C6 2408   2.572   0.262  14.128  0.0237 -0.0966  0.1427
  158TMC2     C 2409   2.939   0.458  14.226 -0.2206  0.1892  0.3791
  158TMC2     O 2410   2.958   0.558  14.295  0.0268 -0.5076  0.3616
  158TMC2     H 2411   2.718   0.443  14.370  0.4113 -0.4294 -0.6067
  158TMC2    H1 2412   2.863   0.356  13.980  0.3547 -1.5209 -0.6925
  158TMC2    H2 2413   2.484   0.201  14.111 -2.1925  2.5726  2.1071
  158TMC2    C7 2414   2.673   0.200  13.915 -0.3188 -0.5392 -1.3069
  158TMC2    C8 2415   2.520   0.292  14.363  0.0580  0.3809  0.4711
  158TMC2    O1 2416   2.750   0.231  13.823  0.7347 -0.0537  1.0269
  158TMC2    O2 2417   2.506   0.360  14.460 -0.2388 -0.4976  0.3330
  158TMC2    O5 2418   2.557   0.161  14.376 -0.1379  0.0650  0.0623
  158TMC2    H5 2419   2.597   0.112  14.301 -1.1219  1.5382 -1.4210
  159MPD2     C 2420   3.383   0.245  14.390  0.3468  0.3668 -0.9623
  159MPD2    C1 2421   3.301   0.154  14.336  0.2897 -0.2053  0.1338
  159MPD2    C2 2422   3.175   0.185  14.289 -0.0285 -0.4854  0.3063
  159MPD2    C3 2423   3.133   0.316  14.291  0.6516 -0.4310 -0.0649
  159MPD2    C4 2424   3.221   0.415  14.328  0.5251  0.9171 -0.1584
  159MPD2    C5 2425   3.343   0.376  14.379  0.3145 -0.4474  0.2636
  159MPD2     H 2426   3.113   0.111  14.240 -1.2011  1.6564 -1.4753
  159MPD2    H1 2427   3.199   0.520  14.320 -1.6809  0.4434 -0.3514
  159MPD2    H2 2428   3.481   0.219  14.429  0.3711  1.7245 -0.1241
  159MPD2    H3 2429   3.410   0.453  14.417  1.3594  0.5047 -3.4875
  159MPD2     N 2430   3.000   0.337  14.236  0.3644  0.2832 -0.0351
  159MPD2    H5 2431   2.958   0.253  14.199  0.2609 -0.1438  1.0714
  159MPD2    N1 2432   3.348   0.022  14.332  0.5020 -0.3101 -0.4309
  159MPD2    H7 2433   3.442   0.002  14.365  1.0321 -0.1581 -1.8325
  160TMC2    C1 2434   3.134   3.809   0.035  0.1887  0.8743  0.7530
  160TMC2    C2 2435   3.233   3.774  17.641 -0.2285  0.0420 -0.1932
  160TMC2    C3 2436   3.304   3.659  17.671 -0.5134 -0.6355 -0.3932
  160TMC2    C4 2437   3.108   3.738   0.149  0.0498 -0.1237  0.2667
  160TMC2    C5 2438   3.187   3.637   0.187  0.7301  0.6054 -0.1845
  160TMC2    C6 2439   3.280   3.592   0.096  0.8322 -0.0328  0.6124
  160TMC2     C 2440   3.071   3.942   0.011 -0.2877 -0.0988 -1.2949
  160TMC2     O 2441   3.070   3.982  17.586 -0.0080 -0.0986  0.1770
  160TMC2     H 2442   3.262   3.844  17.563 -0.8305  1.1361  0.5532
  160TMC2    H1 2443   3.016   3.756   0.204  0.6876  1.7085  0.7314
  160TMC2    H2 2444   3.314   3.489   0.100 -0.8044 -0.5798  0.0716
  160TMC2    C7 2445   3.165   3.576   0.311  0.4337 -0.0440  0.0650
  160TMC2    C8 2446   3.338   3.569  17.566  0.2572  0.2559  0.1186
  160TMC2    O1 2447   3.057   3.582   0.371 -0.1501  0.0185 -0.1720
  160TMC2    O2 2448   3.273   3.532  17.471  0.1767 -0.4218  0.2536
  160TMC2    O5 2449   3.460   3.519  17.601  0.1056  0.4707 -0.5992
  160TMC2    H5 2450   3.495   3.559  17.683  2.4596 -2.5614 -0.1418
  161MPD2     C 2451   2.904   4.173   0.027 -0.2604  1.0464  0.7108
  161MPD2    C1 2452   2.933   4.097   0.136 -0.6347  0.7853  0.6080
  161MPD2    C2 2453   2.860   4.113   0.252  0.6328 -0.2625  0.0035
  161MPD2    C3 2454   2.755   4.202   0.252  0.1726  1.2918  0.4730
  161MPD2    C4 2455   2.731   4.283   0.144  0.2816 -0.1085 -0.4140
  161MPD2    C5 2456   2.802   4.264   0.031 -0.1413  0.2591  0.2391
  161MPD2     H 2457   2.882   4.051   0.339  0.7460 -0.4831 -0.1843
  161MPD2    H1 2458   2.662   4.366   0.149 -0.5759 -0.8905  0.7236
  161MPD2    H2 2459   2.970   4.181  17.633  0.1485 -2.3520  0.7233
  161MPD2    H3 2460   2.791   4.331  17.638 -1.2922 -1.1948 -0.7648
  161MPD2     N 2461   2.665   4.223   0.361 -0.4068 -0.2541  0.1957
  161MPD2    H5 2462   2.594   4.295   0.354  0.8265  0.9220 -0.2179
  161MPD2    N1 2463   3.018   3.989   0.128  0.1293  0.0243  0.1191
  161MPD2    H7 2464   3.036   3.936   0.212  1.0051 -0.3859 -0.3241
  162TMC2    C1 2465   0.283   0.205   1.108  0.6002  0.2510  0.2141
  162TMC2    C2 2466   0.162   0.237   1.062 -0.4662  0.2384 -0.0166
  162TMC2    C3 2467   0.056   0.199   1.147 -0.4315  0.0616  0.1891
  162TMC2    C4 2468   0.301   0.130   1.225  0.2729  0.6295  0.2967
  162TMC2    C5 2469   0.191   0.082   1.295 -0.6250  0.3735  0.1266
  162TMC2    C6 2470   0.066   0.116   1.253 -0.4407 -0.6733 -0.4555
  162TMC2     C 2471   0.389   0.227   1.029 -0.6815  0.1514  0.2129
  162TMC2     O 2472   0.483   0.152   1.054 -0.2684  0.4957 -0.3269
  162TMC2     H 2473   0.133   0.288   0.971 -0.3101  1.9727  0.9118
  162TMC2    H1 2474   0.401   0.099   1.253 -0.6981 -1.9025  0.9615
  162TMC2    H2 2475   4.700   0.090   1.310  0.6277  0.4189  1.6914
  162TMC2    C7 2476   0.204   0.019   1.426  0.3345  0.4392 -0.1532
  162TMC2    C8 2477   4.638   0.222   1.103  0.5363  0.2234 -0.0668
  162TMC2    O1 2478   0.103   4.693   1.470  0.6041 -0.1964  0.2307
  162TMC2    O2 2479   4.550   0.262   1.180 -0.1541  0.2527  0.3697
  162TMC2    O5 2480   4.632   0.117   1.017 -0.4841  0.2269 -0.4069
  162TMC2    H5 2481   4.714   0.120   0.964  0.0524  0.4287  0.4214
  163MPD2     C 2482   0.594   0.387   0.594  0.4732 -0.4663 -0.3546
  163MPD2    C1 2483   0.624   0.284   0.679  0.0366  0.6311 -0.2472
  163MPD2    C2 2484   0.564   0.273   0.802  0.0285  0.1559  0.2785
  163MPD2    C3 2485   0.456   0.360   0.831 -0.3445 -0.0320  0.4637
  163MPD2    C4 2486   0.426   0.465   0.744  0.8164 -0.8543  0.5517
  163MPD2    C5 2487   0.499   0.480   0.629 -0.5314  0.1170  0.2707
  163MPD2     H 2488   0.594   0.184   0.855 -1.5543  0.0535  1.0037
  163MPD2    H1 2489   0.354   0.543   0.768  0.2204 -0.8833 -1.1385
  163MPD2    H2 2490   0.652   0.400   0.504 -1.0972 -1.2033 -1.4689
  163MPD2    H3 2491   0.481   0.560   0.559  1.5153 -0.4844 -0.9412
  163MPD2     N 2492   0.374   0.337   0.944  0.0816 -0.9258  0.6340
  163MPD2    H5 2493   0.289   0.392   0.957  0.0930 -0.5989 -0.6953
  163MPD2    N1 2494   0.719   0.188   0.630  0.2345  0.4993  0.3058
  163MPD2    H7 2495   0.745   0.203   0.533 -1.6372 -0.7439 -0.3844
  164TCq2    C1 2496   1.624   4.540  10.971  0.2297 -0.6891  0.1153
  164TCq2    O2 2497   1.538   4.511  11.050  0.2912 -0.8785  0.2240
  164TCq2    C2 2498   1.626   4.679  10.929 -0.5511  0.1119  0.3338
  164TCq2    C3 2499   1.722   0.006  10.847 -0.7393  0.2142  0.1379
  164TCq2    C4 2500   1.731   0.140  10.824  0.5775 -0.0070 -0.3702
  164TCq2    C5 2501   1.642   0.223  10.887 -0.5185 -0.0560  0.5590
  164TCq2    C6 2502   1.572   0.172  10.991 -0.4900  1.6159 -0.0372
  164TCq2    C7 2503   1.549   0.040  11.009  0.5932 -0.1938  0.0756
  164TCq2    C8 2504   1.480   0.258  11.067  0.1045  1.2518 -0.4419
  164TCq2    O4 2505   1.444   0.359  11.011 -0.0433  0.1898 -0.3981
  164TCq2    C9 2506   1.829   0.188  10.730 -0.2584  0.3418  0.4326
  164TCq2    O5 2507   1.922   0.107  10.697  0.3409 -0.1770  0.8594
  164TCq2    O6 2508   1.818   0.309  10.708  0.4167  0.5847  0.3947
  164TCq2    H2 2509   1.774   4.663  10.777  0.9781  0.8148  0.8533
  164TCq2    H3 2510   1.653   0.330  10.875 -1.3984 -0.0003  0.2564
  164TCq2    H4 2511   1.479   4.721  11.080 -0.2114 -1.2700 -1.3428
  165MPD2     C 2512   2.617   1.914   1.387 -0.4579 -0.2142 -0.0839
  165MPD2    C1 2513   2.626   1.910   1.249  0.2204 -0.2280 -0.3272
  165MPD2    C2 2514   2.681   2.020   1.190 -0.7840 -0.7766  0.2370
  165MPD2    C3 2515   2.734   2.126   1.257  0.6156 -0.4561 -0.5309
  165MPD2    C4 2516   2.731   2.119   1.394 -0.1920 -0.4844  0.6657
  165MPD2    C5 2517   2.671   2.015   1.456 -0.1966  0.0289  0.2810
  165MPD2     H 2518   2.667   2.022   1.083 -2.0830 -3.0768  0.3710
  165MPD2    H1 2519   2.765   2.194   1.464 -0.6793  1.7128 -1.4254
  165MPD2    H2 2520   2.573   1.834   1.446  0.8047  0.1743  1.3873
  165MPD2    H3 2521   2.674   2.003   1.563 -0.7461  2.2585  0.5534
  165MPD2     N 2522   2.783   2.237   1.194 -0.2956 -0.0239 -0.7628
  165MPD2    H5 2523   2.836   2.304   1.248  1.5606 -1.0930 -1.2463
  165MPD2    N1 2524   2.558   1.796   1.191 -0.4481  0.8786  0.4606
  165MPD2    H7 2525   2.537   1.717   1.251  0.9955  0.3639  0.2685
  166TCq2    C1 2526   2.784   2.259   1.057  0.3312 -0.2438  0.0173
  166TCq2    O2 2527   2.721   2.197   0.969  0.4056 -0.0546  0.2052
  166TCq2    C2 2528   2.864   2.372   1.017  0.1821 -0.9857  0.2713
  166TCq2    C3 2529   2.825   2.438   0.901 -0.0054  0.5876  0.1966
  166TCq2    C4 2530   2.907   2.534   0.851 -0.1502  0.4841 -0.2250
  166TCq2    C5 2531   3.029   2.571   0.907  0.3887 -0.2176 -0.0621
  166TCq2    C6 2532   3.063   2.503   1.023 -0.5331  0.2128 -0.4157
  166TCq2    C7 2533   2.984   2.407   1.083 -0.0105  0.0758  0.5327
  166TCq2    C8 2534   3.170   2.553   1.107 -0.2260 -0.7390  0.2088
  166TCq2    O4 2535   3.262   2.614   1.050 -0.4663  0.1216  0.5638
  166TCq2    C9 2536   2.861   2.610   0.738  0.2821  0.2129  0.0502
  166TCq2    O5 2537   2.950   2.660   0.667 -0.5274 -0.0303  0.0027
  166TCq2    O6 2538   2.733   2.615   0.717  0.0765  0.4717  0.0999
  166TCq2    H2 2539   2.731   2.411   0.854  1.5083 -1.8350 -1.4886
  166TCq2    H3 2540   3.094   2.645   0.860 -0.4027  0.3698 -0.2478
  166TCq2    H4 2541   3.021   2.344   1.164 -1.4655 -1.6043 -0.1033
  167TMC2    C1 2542   1.140   0.272  12.825 -0.9998  0.8171 -0.3569
  167TMC2    C2 2543   1.066   0.338  12.918 -0.2181  0.6966 -0.3068
  167TMC2    C3 2544   1.004   0.265  13.022 -0.1876 -0.2962 -1.2937
  167TMC2    C4 2545   1.140   0.135  12.822 -0.0562  0.1359 -0.0467
  167TMC2    C5 2546   1.049   0.066  12.898 -0.2500 -0.7724  0.1130
  167TMC2    C6 2547   0.977   0.131  13.000 -0.0239 -0.0757  0.0404
  167TMC2     C 2548   1.223   0.354  12.729  0.2256 -0.0889  0.4829
  167TMC2     O 2549   1.228   0.479  12.736 -0.3500  0.0349  0.3282
  167TMC2     H 2550   1.064   0.446  12.909 -1.2733  0.8425  1.5300
  167TMC2    H1 2551   1.193   0.083  12.743  0.2766  0.1752  0.1475
  167TMC2    H2 2552   0.923   0.076  13.075  1.9953 -1.0769  0.7721
  167TMC2    C7 2553   1.031   4.647  12.895 -0.3823  0.0702 -0.4719
  167TMC2    C8 2554   0.886   0.329  13.083 -0.7539  0.0311  0.4759
  167TMC2    O1 2555   0.974   4.595  12.993 -0.1091  0.2785 -0.2381
  167TMC2    O2 2556   0.778   0.271  13.066  0.0488 -0.3418  0.3135
  167TMC2    O5 2557   0.906   0.463  13.110  0.2000 -0.3406 -0.0424
  167TMC2    H5 2558   0.998   0.492  13.127  0.0711  0.8747 -1.3905
  168MPD2     C 2559   1.428   0.428  12.527  0.0854 -0.4219  0.0175
  168MPD2    C1 2560   1.350   0.318  12.521 -0.0572  0.2215 -0.0606
  168MPD2    C2 2561   1.345   0.235  12.415  0.0377  0.1127 -0.0359
  168MPD2    C3 2562   1.411   0.262  12.296 -0.2217 -0.5481  0.2446
  168MPD2    C4 2563   1.488   0.374  12.294  0.3179  0.5834 -0.1623
  168MPD2    C5 2564   1.496   0.453  12.407  0.0183 -0.4606  0.3854
  168MPD2     H 2565   1.294   0.140  12.408  2.6395 -1.1758 -1.7595
  168MPD2    H1 2566   1.540   0.406  12.204 -0.7036 -0.3925 -1.1081
  168MPD2    H2 2567   1.429   0.503  12.605  1.4572 -1.5902  1.1334
  168MPD2    H3 2568   1.554   0.545  12.400 -0.1442 -0.3530  0.4466
  168MPD2     N 2569   1.379   0.180  12.181 -0.2988  0.2803 -0.0100
  168MPD2    H5 2570   1.307   0.108  12.176  0.5464 -0.5832  0.1292
  168MPD2    N1 2571   1.270   0.268  12.627  1.1153  0.2940  0.1371
  168MPD2    H7 2572   1.222   0.179  12.618  1.0567  0.2193  1.2529
  169MPD1     C 2573   2.822   0.044   8.935  0.0209 -0.5755  0.8274
  169MPD1    C1 2574   2.839   4.630   8.911 -0.3795  0.1553 -0.2056
  169MPD1    C2 2575   2.960   4.576   8.949 -0.4716 -0.4286  0.1387
  169MPD1    C3 2576   3.057   4.646   9.021 -0.4967 -0.2683 -0.2789
  169MPD1    C4 2577   3.028   0.048   9.061  0.3996  0.2672 -1.1194
  169MPD1    C5 2578   2.912   0.110   9.012 -0.3965  0.3615  0.5117
  169MPD1     H 2579   2.989   4.475   8.923  1.3201 -0.1819  1.1620
  169MPD1    H1 2580   3.090   0.100   9.133 -0.7928 -0.7077  0.6157
  169MPD1    H2 2581   2.738   0.109   8.914  3.0796  2.6554 -1.3806
  169MPD1    H3 2582   2.890   0.214   9.035  0.3317  0.3931  1.0858
  169MPD1     N 2583   3.166   4.579   9.065  0.4665  0.0755  0.3879
  169MPD1    H5 2584   3.169   4.482   9.034 -0.4510 -0.7898  3.0335
  169MPD1    N1 2585   2.756   4.580   8.804  0.4213  0.1006  0.4507
  169MPD1    H6 2586   2.763   4.478   8.803 -2.0244 -0.0599  0.3950
  169MPD1    H7 2587   2.661   4.611   8.826  0.6027 -0.0662  1.4634
  170MPD1     C 2588   2.210   1.796  12.909  0.3327  0.9980 -0.7822
  170MPD1    C1 2589   2.313   1.831  12.992 -0.5493  0.5520  0.5088
  170MPD1    C2 2590   2.267   1.914  13.095  0.0386 -0.1044  0.3292
  170MPD1    C3 2591   2.134   1.953  13.126 -0.1732 -0.3728 -0.8767
  170MPD1    C4 2592   2.039   1.910  13.037  0.4550 -0.1785 -0.3798
  170MPD1    C5 2593   2.080   1.840  12.931 -0.5675  0.7423 -1.1987
  170MPD1     H 2594   2.347   1.955  13.157 -0.2138  2.9825 -1.3567
  170MPD1    H1 2595   1.934   1.936  13.045  0.8861  1.3605  0.3171
  170MPD1    H2 2596   2.231   1.744  12.816  5.0133  3.5367 -1.1454
  170MPD1    H3 2597   2.006   1.814  12.856  1.5598 -0.7358 -2.8071
  170MPD1     N 2598   2.109   2.038  13.235 -0.0858  0.5191 -0.3909
  170MPD1    H5 2599   2.171   2.052  13.314 -1.0379  1.9273  0.1063
  170MPD1    N1 2600   2.448   1.824  12.958  0.3886  0.1143 -0.2455
  170MPD1    H6 2601   2.504   1.841  13.042  0.6842  2.4182 -0.8933
  170MPD1    H7 2602   2.480   1.739  12.913  0.5082 -1.1025  2.1462
  171MPD1     C 2603   0.972   3.321  15.506 -0.0325 -0.4511 -0.4831
  171MPD1    C1 2604   1.076   3.308  15.593 -0.3516  1.2420 -0.5275
  171MPD1    C2 2605   1.088   3.188  15.657 -0.1808  0.0072  0.6666
  171MPD1    C3 2606   0.987   3.091  15.656 -0.1364  0.4927  0.1184
  171MPD1    C4 2607   0.871   3.126  15.585 -0.3567 -0.2441  0.6110
  171MPD1    C5 2608   0.868   3.236  15.501 -0.5380  0.3843  0.0775
  171MPD1     H 2609   1.175   3.162  15.716 -0.1001  0.6813  0.8381
  171MPD1    H1 2610   0.781   3.066  15.581 -0.8838  0.5240  0.8284
  171MPD1    H2 2611   0.953   3.406  15.442 -0.3317  0.3004  0.6063
  171MPD1    H3 2612   0.777   3.266  15.451  0.8821  2.4080 -1.2821
  171MPD1     N 2613   0.998   2.983  15.749  0.1938 -0.5232 -0.6375
  171MPD1    H5 2614   1.081   2.985  15.809 -0.7311  0.2602  0.6143
  171MPD1    N1 2615   1.186   3.399  15.589  0.6942  0.7014  0.2095
  171MPD1    H6 2616   1.158   3.491  15.555  1.4490  1.7165  2.3852
  171MPD1    H7 2617   1.238   3.408  15.676  0.3874  0.9303  0.3717
  172MPD1     C 2618   4.313   2.049  17.423 -0.6859  0.3491 -0.6151
  172MPD1    C1 2619   4.344   2.181  17.407 -0.5724  0.5539  0.6629
  172MPD1    C2 2620   4.395   2.250  17.518  0.4706  0.1932  0.0103
  172MPD1    C3 2621   4.392   2.181  17.644  0.2337 -0.4598  0.0619
  172MPD1    C4 2622   4.351   2.047  17.655 -0.3104  0.2217  0.1928
  172MPD1    C5 2623   4.320   1.979  17.543 -0.2168  0.5270 -0.6198
  172MPD1     H 2624   4.425   2.354  17.512  1.1668 -0.0283 -0.3339
  172MPD1    H1 2625   4.358   1.992   0.056  1.0245 -0.9705 -0.6219
  172MPD1    H2 2626   4.270   1.984  17.348 -0.4981 -0.1390 -0.3024
  172MPD1    H3 2627   4.299   1.873  17.550  0.3587  0.4076 -0.7039
  172MPD1     N 2628   4.444   2.248   0.070 -0.2410 -0.7007  0.5373
  172MPD1    H5 2629   4.454   2.198   0.158 -0.7310  0.4920  1.2703
  172MPD1    N1 2630   4.342   2.240  17.277 -0.0277  0.8233 -0.5404
  172MPD1    H6 2631   4.322   2.340  17.279 -0.0990  0.8153 -0.8762
  172MPD1    H7 2632   4.283   2.188  17.213 -1.4138  1.8538 -0.0821
  173MPD1     C 2633   1.323   2.601  13.642 -0.7387 -0.3514 -0.7616
  173MPD1    C1 2634   1.221   2.508  13.668 -0.5793  0.2363 -0.1505
  173MPD1    C2 2635   1.209   2.454  13.794 -0.5125 -0.6179  0.8841
  173MPD1    C3 2636   1.290   2.494  13.899 -0.6740 -0.0764  0.6276
  173MPD1    C4 2637   1.391   2.584  13.875 -0.5012 -0.4683  0.7414
  173MPD1    C5 2638   1.397   2.634  13.751 -0.2981  0.3755  0.2475
  173MPD1     H 2639   1.123   2.391  13.813 -0.8710  0.1064  1.6679
  173MPD1    H1 2640   1.465   2.609  13.950 -1.1322 -0.8828  1.5166
  173MPD1    H2 2641   1.327   2.640  13.541 -0.0223 -0.0310 -0.6128
  173MPD1    H3 2642   1.471   2.710  13.730 -0.5529  1.2253  2.4669
  173MPD1     N 2643   1.272   2.433  14.027  0.1515 -0.1659  0.2669
  173MPD1    H5 2644   1.182   2.389  14.047 -0.2303  0.6862  0.4130
  173MPD1    N1 2645   1.138   2.473  13.559 -0.1279  0.1560  0.8766
  173MPD1    H6 2646   1.149   2.530  13.475  0.7395 -2.6613 -0.9087
  173MPD1    H7 2647   1.040   2.493  13.578  0.2893  0.9321  2.2192
  174MPD1     C 2648   1.896   1.987  14.666 -0.8725  0.7849 -0.3825
  174MPD1    C1 2649   1.772   1.961  14.724 -0.3657  0.0225  0.0900
  174MPD1    C2 2650   1.660   2.027  14.667 -0.4596  0.3069  0.0123
  174MPD1    C3 2651   1.674   2.110  14.559 -0.0593 -0.1247 -0.4536
  174MPD1    C4 2652   1.798   2.126  14.502 -0.4184  0.4362  0.4843
  174MPD1    C5 2653   1.908   2.069  14.562 -0.1713  0.4749  0.0664
  174MPD1     H 2654   1.562   2.017  14.711 -0.5520  1.1117 -0.0103
  174MPD1    H1 2655   1.807   2.181  14.409  0.7177  0.7393  0.7698
  174MPD1    H2 2656   1.986   1.958  14.718 -1.7601  0.0967  0.7712
  174MPD1    H3 2657   2.005   2.093  14.520  0.3440  1.6049  1.8883
  174MPD1     N 2658   1.565   2.172  14.492  0.0892  0.5686  0.1225
  174MPD1    H5 2659   1.587   2.206  14.400 -2.6739  1.3094 -0.2670
  174MPD1    N1 2660   1.771   1.905  14.848 -0.3277  0.6155 -0.2923
  174MPD1    H6 2661   1.842   1.833  14.841 -0.3710  0.6083 -0.6604
  174MPD1    H7 2662   1.682   1.855  14.856 -0.1994  0.2650 -1.0607
  175MPD1     C 2663   4.475   3.916  15.490 -0.0109  0.3240  0.1298
  175MPD1    C1 2664   4.358   3.953  15.545  0.5419  0.4977 -0.1385
  175MPD1    C2 2665   4.308   3.878  15.650  0.1868 -0.4893 -0.8611
  175MPD1    C3 2666   4.374   3.764  15.694 -0.5012  0.0267 -0.1544
  175MPD1    C4 2667   4.494   3.728  15.639  0.7415 -0.4938 -0.2675
  175MPD1    C5 2668   4.541   3.809  15.543  0.5226  0.1655 -0.4536
  175MPD1     H 2669   4.215   3.921  15.686 -0.0767 -1.0112 -0.9258
  175MPD1    H1 2670   4.549   3.642  15.675 -1.7965 -1.2786  1.8392
  175MPD1    H2 2671   4.533   3.981  15.424 -1.2682  0.6383 -0.6735
  175MPD1    H3 2672   4.643   3.790  15.511  0.1559  0.8699 -2.0358
  175MPD1     N 2673   4.317   3.672  15.794 -0.2947  0.1538 -0.0986
  175MPD1    H5 2674   4.355   3.578  15.806  1.0303  0.7775  0.6292
  175MPD1    N1 2675   4.290   4.075  15.515 -0.0285 -0.0859  0.2475
  175MPD1    H6 2676   4.190   4.071  15.535 -0.0225 -0.7369  0.1587
  175MPD1    H7 2677   4.293   4.083  15.413 -0.0965 -0.1994  0.2353
  176MPD1     C 2678   0.868   4.656  17.492 -0.1828  0.6566 -0.1035
  176MPD1    C1 2679   0.843   0.045  17.572 -0.3014 -0.1025  0.2022
  176MPD1    C2 2680   0.844   0.165  17.505  0.2068 -0.4546  0.5706
  176MPD1    C3 2681   0.897   0.185  17.379 -0.7169  0.7107  0.0495
  176MPD1    C4 2682   0.929   0.073  17.305 -0.3396  0.4585  0.9855
  176MPD1    C5 2683   0.917   4.673  17.363  0.5277  0.0253  0.3537
  176MPD1     H 2684   0.807   0.245  17.567  0.5195 -1.1241  1.6265
  176MPD1    H1 2685   0.950   0.069  17.199 -0.3052 -2.8866  1.1452
  176MPD1    H2 2686   0.856   4.556  17.533  0.8803  1.0324  1.0979
  176MPD1    H3 2687   0.956   4.591  17.303  1.6612  0.4742  0.4861
  176MPD1     N 2688   0.914   0.317  17.324  0.0053 -0.1173 -0.0223
  176MPD1    H5 2689   0.870   0.395  17.372  1.0653  1.6303 -1.9333
  176MPD1    N1 2690   0.808   0.035   0.020 -0.0932 -0.6408  1.2149
  176MPD1    H6 2691   0.843   0.118   0.069  0.9733  0.5379 -1.5622
  176MPD1    H7 2692   0.841   4.676   0.072  1.1278  0.5079  2.2525
  177MPD1     C 2693   0.139   0.826   9.771 -0.4090  0.7533 -0.4471
  177MPD1    C1 2694   0.071   0.721   9.712  0.1732  0.3308  0.4113
  177MPD1    C2 2695   4.716   0.757   9.599 -0.1678 -0.3574  0.2856
  177MPD1    C3 2696   4.692   0.887   9.550  0.0733  0.3670 -0.4230
  177MPD1    C4 2697   0.038   0.985   9.620 -0.1599 -0.3114 -0.1117
  177MPD1    C5 2698   0.121   0.954   9.720 -0.1406  0.2605 -0.1905
  177MPD1     H 2699   4.676   0.670   9.548 -2.2963  0.6790  0.1496
  177MPD1    H1 2700   0.041   1.087   9.585 -0.3843 -0.5649 -0.8842
  177MPD1    H2 2701   0.203   0.805   9.856 -0.4260 -2.5157 -1.2773
  177MPD1    H3 2702   0.163   1.042   9.769 -0.4821  0.0046  0.5607
  177MPD1     N 2703   4.605   0.908   9.434 -0.4793 -0.1071 -0.0287
  177MPD1    H5 2704   4.565   0.823   9.396 -2.0464  1.3122 -1.5739
  177MPD1    N1 2705   0.109   0.588   9.739  0.3219 -0.1509  0.0712
  177MPD1    H6 2706   0.135   0.593   9.837 -2.6894  0.5722  0.8310
  177MPD1    H7 2707   0.025   0.532   9.723 -0.2422  0.8001 -0.3026
  178MPD1     C 2708   1.966   1.335   0.199 -0.4207  0.3587  0.3064
  178MPD1    C1 2709   1.836   1.314   0.151  0.2691 -0.8216 -0.2612
  178MPD1    C2 2710   1.810   1.218   0.056 -0.4921  0.1141  0.4054
  178MPD1    C3 2711   1.911   1.135   0.014 -0.0269 -0.2861  0.1536
  178MPD1    C4 2712   2.036   1.149   0.073 -0.1712  0.0363  0.3258
  178MPD1    C5 2713   2.064   1.254   0.158  0.3923 -0.4474 -0.2483
  178MPD1     H 2714   1.711   1.214   0.014 -0.4395  1.2190  0.1664
  178MPD1    H1 2715   2.114   1.079   0.046  0.4613  1.5765 -1.7807
  178MPD1    H2 2716   1.983   1.410   0.276 -0.4486 -1.1856  1.8327
  178MPD1    H3 2717   2.165   1.275   0.192  0.6899 -0.2956 -1.2207
  178MPD1     N 2718   1.899   1.033  17.606  0.5129  0.2118  0.0436
  178MPD1    H5 2719   1.983   0.980  17.586 -0.8241 -2.0206  0.2491
  178MPD1    N1 2720   1.739   1.409   0.193 -0.3726  0.1796  0.4782
  178MPD1    H6 2721   1.779   1.500   0.172  1.1177 -0.4486  0.6554
  178MPD1    H7 2722   1.653   1.408   0.139 -1.2338  0.3707  1.8356
  179MPD1     C 2723   1.885   4.466  15.675 -0.3072  0.7577 -0.1157
  179MPD1    C1 2724   1.759   4.424  15.670 -0.1208  0.2885 -0.8707
  179MPD1    C2 2725   1.729   4.290  15.686 -0.5363 -0.1059  0.6439
  179MPD1    C3 2726   1.825   4.194  15.689  0.0860  0.2749  0.1129
  179MPD1    C4 2727   1.952   4.238  15.663  0.5742  0.0826  0.1979
  179MPD1    C5 2728   1.989   4.370  15.658  0.2951  0.0804 -0.2683
  179MPD1     H 2729   1.626   4.261  15.698 -0.4426 -1.6556 -2.2199
  179MPD1    H1 2730   2.039   4.175  15.666 -0.7053 -1.7314 -1.0306
  179MPD1    H2 2731   1.909   4.572  15.680  3.2972 -0.0063 -0.8935
  179MPD1    H3 2732   2.093   4.400  15.660  0.2175  0.3062  0.6681
  179MPD1     N 2733   1.803   4.061  15.706  0.4826 -1.3337 -0.4097
  179MPD1    H5 2734   1.886   4.002  15.699  0.1842 -1.9347  1.1882
  179MPD1    N1 2735   1.650   4.514  15.685 -0.2639 -0.2195 -0.0551
  179MPD1    H6 2736   1.569   4.464  15.648  1.2936 -2.1786 -0.8057
  179MPD1    H7 2737   1.674   4.605  15.645  0.2127 -0.2036  0.2760
  180MPD1     C 2738   1.249   1.226  15.072  0.2637  0.0194 -0.0993
  180MPD1    C1 2739   1.345   1.209  14.977  0.2898  0.6171 -0.5869
  180MPD1    C2 2740   1.313   1.138  14.863  0.2968 -0.5151 -0.2777
  180MPD1    C3 2741   1.188   1.080  14.840  0.7381  0.1763 -0.1477
  180MPD1    C4 2742   1.102   1.085  14.948  0.1981 -0.4589 -0.2514
  180MPD1    C5 2743   1.137   1.149  15.066  0.0432 -0.7583  0.4283
  180MPD1     H 2744   1.390   1.135  14.786  0.8625 -1.2658  0.3135
  180MPD1    H1 2745   1.010   1.028  14.952  0.2080 -0.5845 -1.7564
  180MPD1    H2 2746   1.276   1.283  15.161 -0.1615  0.7222 -0.4217
  180MPD1    H3 2747   1.068   1.142  15.149  1.6214  0.3736  1.8153
  180MPD1     N 2748   1.176   1.014  14.720 -0.1222  0.0795 -0.0428
  180MPD1    H5 2749   1.257   1.014  14.660 -2.1247  0.5421 -2.7101
  180MPD1    N1 2750   1.461   1.295  14.983 -0.3007 -0.0875 -0.0459
  180MPD1    H6 2751   1.497   1.302  15.078 -0.9084 -0.9791  0.2438
  180MPD1    H7 2752   1.538   1.249  14.934 -2.6518 -2.8725 -1.0871
  181MPD1     C 2753   3.004   2.883  10.680 -0.2809 -0.4897 -0.2661
  181MPD1    C1 2754   3.000   2.755  10.629 -0.3115  0.3558 -0.3371
  181MPD1    C2 2755   3.073   2.726  10.516  0.7315 -0.1335 -0.0394
  181MPD1    C3 2756   3.161   2.815  10.463  0.3671  0.5296  0.2704
  181MPD1    C4 2757   3.140   2.947  10.497 -0.0095  0.1599 -0.0117
  181MPD1    C5 2758   3.065   2.976  10.603 -0.7110  0.2201  0.1804
  181MPD1     H 2759   3.076   2.621  10.489 -2.4074  0.1729 -1.5774
  181MPD1    H1 2760   3.201   3.025  10.454  0.2015  0.3245  0.5863
  181MPD1    H2 2761   2.939   2.911  10.762  0.2138 -1.9168  0.6156
  181MPD1    H3 2762   3.062   3.082  10.625  0.0124  0.1495  0.6179
  181MPD1     N 2763   3.250   2.787  10.357 -0.5819  0.8073  0.8052
  181MPD1    H5 2764   3.303   2.867  10.323 -0.5919 -0.2661 -1.7583
  181MPD1    N1 2765   2.930   2.653  10.695  0.3675 -0.0650  0.1750
  181MPD1    H6 2766   2.876   2.676  10.778 -2.2193  0.4517 -1.6701
  181MPD1    H7 2767   2.896   2.569  10.649  1.7903 -1.3330  1.4004
  182MPD1     C 2768   4.605   1.715   1.471 -0.5776  0.6560 -0.1346
  182MPD1    C1 2769   4.523   1.820   1.440  0.3882 -0.0596  0.1808
  182MPD1    C2 2770   4.438   1.797   1.326  0.0698  0.0732  0.3520
  182MPD1    C3 2771   4.451   1.689   1.243 -0.7248 -0.1005 -0.4992
  182MPD1    C4 2772   4.551   1.598   1.274  0.8594 -0.6614 -0.1495
  182MPD1    C5 2773   4.628   1.609   1.386  0.5999 -0.1649  0.0547
  182MPD1     H 2774   4.346   1.854   1.318 -0.4674 -1.1849 -2.4761
  182MPD1    H1 2775   4.561   1.516   1.204  0.0696 -0.9710  0.0994
  182MPD1    H2 2776   4.655   1.708   1.566 -0.5324 -1.9548 -0.3548
  182MPD1    H3 2777   4.681   1.531   1.439 -1.4513 -2.2929 -1.0374
  182MPD1     N 2778   4.374   1.661   1.127 -0.2696 -0.5508  0.2045
  182MPD1    H5 2779   4.391   1.584   1.063 -0.8235 -1.8158  1.5787
  182MPD1    N1 2780   4.491   1.921   1.530 -0.3607 -0.0320 -1.0082
  182MPD1    H6 2781   4.426   1.992   1.496 -2.6947 -0.7432  1.9068
  182MPD1    H7 2782   4.570   1.968   1.574 -1.6724  1.1048  0.1464
  183MPD1     C 2783   0.087   2.350   8.898 -0.5589  0.1338 -0.5379
  183MPD1    C1 2784   0.082   2.349   9.034  0.9045  0.1420  0.4818
  183MPD1    C2 2785   4.678   2.363   9.091  0.2183 -0.2603  0.0877
  183MPD1    C3 2786   4.570   2.389   9.015 -0.1672  0.4542  0.1350
  183MPD1    C4 2787   4.571   2.388   8.879  0.4491 -0.6431 -0.5615
  183MPD1    C5 2788   4.696   2.363   8.825  0.7214  0.2686 -0.2018
  183MPD1     H 2789   4.664   2.358   9.199  1.0906  1.4838  0.2805
  183MPD1    H1 2790   4.486   2.393   8.812  0.6244  0.7442 -0.6819
  183MPD1    H2 2791   0.183   2.331   8.851  0.7207  2.0239  1.3065
  183MPD1    H3 2792   4.704   2.387   8.720  1.8202  0.2721 -0.1128
  183MPD1     N 2793   4.454   2.413   9.085  0.1069 -0.0959 -0.2201
  183MPD1    H5 2794   4.452   2.415   9.187  0.4383 -1.1017 -0.1953
  183MPD1    N1 2795   0.194   2.376   9.108 -0.3425  0.2337 -0.1193
  183MPD1    H6 2796   0.183   2.333   9.199  1.1874  1.2342  0.5343
  183MPD1    H7 2797   0.273   2.333   9.060 -0.3299 -1.5656  1.4948
  184MPD1     C 2798   3.391   0.044   9.898  0.6582  0.3437 -0.0764
  184MPD1    C1 2799   3.499   0.128   9.930  1.0027  0.8686 -0.0972
  184MPD1    C2 2800   3.513   0.246   9.861  0.5371 -0.0727  0.0467
  184MPD1    C3 2801   3.431   0.280   9.755 -0.5084  0.0159  0.2365
  184MPD1    C4 2802   3.321   0.203   9.731  0.3983  0.1244  0.2761
  184MPD1    C5 2803   3.301   0.083   9.798 -0.3495  0.1446 -0.2051
  184MPD1     H 2804   3.588   0.316   9.897  1.3457 -1.6339  1.3839
  184MPD1    H1 2805   3.252   0.229   9.652  1.1171 -1.9422 -1.0409
  184MPD1    H2 2806   3.384   4.667   9.940 -0.3821  0.6954  0.5756
  184MPD1    H3 2807   3.214   0.021   9.780  0.0743 -0.4656 -0.1433
  184MPD1     N 2808   3.456   0.387   9.661 -0.1166  0.0507  0.3441
  184MPD1    H5 2809   3.387   0.390   9.586 -2.1030  1.7659  2.2262
  184MPD1    N1 2810   3.581   0.090  10.039 -0.3888  0.2825 -0.1413
  184MPD1    H6 2811   3.678   0.114  10.017 -0.4386  0.1708 -0.4808
  184MPD1    H7 2812   3.573   4.711  10.052  0.6916  0.1978 -0.1236
  185MPD1     C 2813   2.926   0.579   9.091  0.3746 -0.3919 -0.1418
  185MPD1    C1 2814   3.005   0.696   9.084  0.0254  0.6310  0.8862
  185MPD1    C2 2815   3.127   0.693   9.144 -0.2030  0.0827 -0.3706
  185MPD1    C3 2816   3.176   0.573   9.191 -0.3004  0.6728  0.1274
  185MPD1    C4 2817   3.091   0.459   9.194 -0.2047 -0.5649  0.1451
  185MPD1    C5 2818   2.965   0.461   9.147  0.8160  0.0721  0.3301
  185MPD1     H 2819   3.193   0.779   9.143 -1.4132  1.0065 -4.0744
  185MPD1    H1 2820   3.131   0.365   9.231  0.2743  0.1578  1.4642
  185MPD1    H2 2821   2.822   0.585   9.064  0.3273 -2.1309 -0.3535
  185MPD1    H3 2822   2.893   0.381   9.161  0.2337  0.5302 -0.0015
  185MPD1     N 2823   3.307   0.551   9.238 -0.1030 -0.3179  0.4548
  185MPD1    H5 2824   3.329   0.458   9.272  2.1315 -0.3967 -1.2149
  185MPD1    N1 2825   2.937   0.815   9.051 -0.8462 -0.1502  0.3277
  185MPD1    H6 2826   2.998   0.883   9.007 -1.5029  0.0798 -0.2215
  185MPD1    H7 2827   2.865   0.790   8.984  0.7627  1.2476 -1.9083
  186MPD1     C 2828   1.673   0.198  15.892 -0.0952 -0.7066 -0.3312
  186MPD1    C1 2829   1.609   0.186  16.015  0.0616 -0.2133 -0.3490
  186MPD1    C2 2830   1.641   0.078  16.094 -0.4609  0.2855  0.5893
  186MPD1    C3 2831   1.735   4.708  16.050 -0.3417  0.6430  0.4571
  186MPD1    C4 2832   1.806   0.014  15.936  0.2467 -0.1994 -0.6025
  186MPD1    C5 2833   1.777   0.116  15.856  0.3230  0.5436 -0.3437
  186MPD1     H 2834   1.605   0.078  16.196 -0.5012 -1.4174  0.5739
  186MPD1    H1 2835   1.889   4.676  15.899  2.4227  0.9691  2.4017
  186MPD1    H2 2836   1.651   0.289  15.836 -1.7493 -1.1227 -0.3549
  186MPD1    H3 2837   1.830   0.134  15.763  1.5054  1.3644  0.4830
  186MPD1     N 2838   1.784   4.606  16.131  0.1559 -0.1032  0.0792
  186MPD1    H5 2839   1.871   4.564  16.099  1.9125  1.5809  2.6351
  186MPD1    N1 2840   1.537   0.293  16.072  0.2073  0.1650 -0.0124
  186MPD1    H6 2841   1.486   0.339  15.997 -1.2755 -0.9959  0.2733
  186MPD1    H7 2842   1.469   0.253  16.136 -0.4446 -0.8050 -1.2929
  187MPD1     C 2843   1.009   1.819   0.535  0.5402 -0.2336  0.3646
  187MPD1    C1 2844   0.965   1.695   0.486  0.1919 -0.4541 -0.0797
  187MPD1    C2 2845   0.983   1.662   0.356 -0.7267  0.3548 -0.2278
  187MPD1    C3 2846   1.054   1.743   0.271 -0.6092  0.2758 -0.4554
  187MPD1    C4 2847   1.103   1.862   0.318  0.2465  0.2906 -0.6721
  187MPD1    C5 2848   1.081   1.895   0.448 -0.0062  0.2198  0.0328
  187MPD1     H 2849   0.945   1.566   0.322 -0.6878  0.9704 -2.0218
  187MPD1    H1 2850   1.160   1.929   0.255 -0.6843  1.1310 -0.6204
  187MPD1    H2 2851   0.985   1.853   0.635  0.1845 -1.1155  0.5833
  187MPD1    H3 2852   1.109   1.995   0.481  0.0304  0.9242 -2.1504
  187MPD1     N 2853   1.080   1.710   0.136  0.1404 -0.0386  0.4611
  187MPD1    H5 2854   1.131   1.781   0.084 -0.2674 -0.5305 -0.6168
  187MPD1    N1 2855   0.865   1.630   0.560 -0.4247  0.4864 -0.2645
  187MPD1    H6 2856   0.872   1.644   0.660  0.7827  0.3377 -0.3173
  187MPD1    H7 2857   0.869   1.530   0.542 -3.0973  0.7184 -2.0020
  188MPD1     C 2858   2.150   1.630   9.401  0.2530  0.2466 -0.4029
  188MPD1    C1 2859   2.089   1.530   9.323  0.0070 -0.1792  0.6076
  188MPD1    C2 2860   2.008   1.443   9.389  0.3186  0.3455 -0.3906
  188MPD1    C3 2861   1.978   1.456   9.521 -0.6445 -0.5748 -0.5601
  188MPD1    C4 2862   2.022   1.564   9.596  0.1531 -0.1831  0.9198
  188MPD1    C5 2863   2.121   1.641   9.535 -0.5104  0.0703  0.5914
  188MPD1     H 2864   1.967   1.358   9.335  0.5980 -1.2452  1.9100
  188MPD1    H1 2865   2.029   1.559   9.704  0.8598  0.6089  0.9182
  188MPD1    H2 2866   2.238   1.684   9.366 -0.4575  2.4530  1.2295
  188MPD1    H3 2867   2.185   1.709   9.590 -0.2171 -0.1326  0.5000
  188MPD1     N 2868   1.896   1.373   9.600  0.1502  0.0984 -0.6825
  188MPD1    H5 2869   1.901   1.382   9.701  0.2145 -1.0388 -0.5841
  188MPD1    N1 2870   2.119   1.509   9.188  0.4519 -0.3762 -0.6843
  188MPD1    H6 2871   2.132   1.599   9.142 -0.1855  0.3909  0.6653
  188MPD1    H7 2872   2.041   1.458   9.146  0.6799 -1.5670  0.3545
  189MPD1     C 2873   2.514   1.146  17.685 -0.3050  0.2933 -0.5693
  189MPD1    C1 2874   2.383   1.135  17.636  0.1284 -0.3720 -0.0330
  189MPD1    C2 2875   2.317   1.256  17.620 -0.1530  0.7906  0.5469
  189MPD1    C3 2876   2.361   1.370  17.675 -0.0993  0.0560  0.0685
  189MPD1    C4 2877   2.483   1.378   0.053  0.6118  0.0673  0.1997
  189MPD1    C5 2878   2.562   1.269   0.048 -0.0907  0.8576 -0.9114
  189MPD1     H 2879   2.242   1.255  17.542 -0.3101  0.7600  0.6995
  189MPD1    H1 2880   2.522   1.461   0.109  0.0813 -0.5818  1.5331
  189MPD1    H2 2881   2.577   1.059  17.673 -0.8616 -0.1007 -0.6754
  189MPD1    H3 2882   2.659   1.276   0.097 -0.5351  3.6818 -0.4252
  189MPD1     N 2883   2.275   1.481  17.654  0.1472 -0.3760  0.0930
  189MPD1    H5 2884   2.186   1.458  17.611 -0.2019  0.9073  0.1502
  189MPD1    N1 2885   2.346   1.022  17.563 -0.0166  0.3112  0.4942
  189MPD1    H6 2886   2.245   1.018  17.549  0.2106 -2.8340 -0.2605
  189MPD1    H7 2887   2.384   0.938  17.605  0.3323  0.5589  0.6633
  190MPD1     C 2888   1.442   0.524  15.137  0.1202 -0.1502  0.4566
  190MPD1    C1 2889   1.574   0.567  15.121 -0.1635 -0.1275 -0.3855
  190MPD1    C2 2890   1.630   0.611  15.235  0.1386  0.1140 -0.0915
  190MPD1    C3 2891   1.576   0.614  15.358  0.4472 -0.3071 -0.3988
  190MPD1    C4 2892   1.447   0.574  15.367 -0.1442  0.3757  0.2038
  190MPD1    C5 2893   1.374   0.526  15.255  0.9473 -0.6226  0.3251
  190MPD1     H 2894   1.732   0.645  15.222 -0.1857  1.0062 -0.3494
  190MPD1    H1 2895   1.390   0.573  15.459 -0.9064 -0.2032 -0.2751
  190MPD1    H2 2896   1.383   0.491  15.052 -2.5095  0.3664  2.0852
  190MPD1    H3 2897   1.269   0.503  15.267  0.4005  0.6954 -2.0530
  190MPD1     N 2898   1.656   0.647  15.473 -0.8270 -0.1456 -0.3508
  190MPD1    H5 2899   1.751   0.669  15.445  0.3251 -3.1362  1.1207
  190MPD1    N1 2900   1.626   0.586  14.995  0.5435  0.4590 -0.0603
  190MPD1    H6 2901   1.599   0.514  14.928 -1.3768  1.6170 -0.5234
  190MPD1    H7 2902   1.727   0.594  15.006  0.8217 -2.6507 -0.2733
  191MPD1     C 2903   0.908   2.313  13.291 -0.2208  0.3250 -0.5575
  191MPD1    C1 2904   0.829   2.429  13.315  0.4669 -0.5808  0.2781
  191MPD1    C2 2905   0.785   2.500  13.203 -0.1093  0.0256  0.4597
  191MPD1    C3 2906   0.844   2.481  13.078  0.1676  0.2500 -0.0720
  191MPD1    C4 2907   0.929   2.375  13.058  0.2910  0.1461  0.4152
  191MPD1    C5 2908   0.959   2.290  13.162 -0.6597  0.6228 -0.4038
  191MPD1     H 2909   0.708   2.576  13.213  0.2990  0.4185  0.6228
  191MPD1    H1 2910   0.981   2.366  12.964  0.0947  0.2339  0.2995
  191MPD1    H2 2911   0.948   2.249  13.369  2.1627  1.7802 -0.5649
  191MPD1    H3 2912   1.030   2.211  13.139 -0.6058  0.5646 -0.0350
  191MPD1     N 2913   0.791   2.562  12.974  0.2336  0.3771  0.3573
  191MPD1    H5 2914   0.717   2.629  12.993  0.1312 -0.2288  2.0967
  191MPD1    N1 2915   0.756   2.441  13.437 -0.0301  0.1697  0.5627
  191MPD1    H6 2916   0.821   2.419  13.512  1.2044  0.6949 -0.3533
  191MPD1    H7 2917   0.718   2.535  13.447 -2.6345 -0.7227 -0.7869
  192MPD1     C 2918   0.623   3.516  12.791  0.3764 -0.3999 -0.0023
  192MPD1    C1 2919   0.579   3.419  12.879 -0.2898  0.0713 -0.4028
  192MPD1    C2 2920   0.630   3.289  12.862 -0.3643  0.3115  0.8033
  192MPD1    C3 2921   0.703   3.260  12.751  0.6108  0.6558 -0.0300
  192MPD1    C4 2922   0.737   3.354  12.657  0.4767  0.2241  0.0757
  192MPD1    C5 2923   0.695   3.486  12.679  0.3331 -0.0928 -0.5465
  192MPD1     H 2924   0.614   3.219  12.942 -1.7572 -0.4645 -0.1473
  192MPD1    H1 2925   0.798   3.335  12.570  3.9160 -1.2280  2.7821
  192MPD1    H2 2926   0.588   3.618  12.796 -2.0485 -1.3138  1.7398
  192MPD1    H3 2927   0.727   3.564  12.611 -0.4530  0.0254 -0.7745
  192MPD1     N 2928   0.727   3.121  12.710 -0.2105 -0.2673  0.3308
  192MPD1    H5 2929   0.768   3.113  12.618  0.8082  1.4646  0.6402
  192MPD1    N1 2930   0.504   3.446  12.996  0.3155  0.4442 -0.1448
  192MPD1    H6 2931   0.460   3.537  12.992  0.2374  0.4250  0.2516
  192MPD1    H7 2932   0.437   3.373  13.019  1.9882 -1.1385 -0.2585
  193MPD1     C 2933   0.453   2.785  16.430  0.1940 -0.2199  0.3607
  193MPD1    C1 2934   0.561   2.692  16.428 -0.3714 -0.3827 -0.7924
  193MPD1    C2 2935   0.676   2.735  16.496  0.0710 -0.4329 -0.0940
  193MPD1    C3 2936   0.685   2.850  16.578 -0.0578  1.0886 -0.3192
  193MPD1    C4 2937   0.577   2.924  16.590 -0.1108  0.0196 -0.3672
  193MPD1    C5 2938   0.460   2.884  16.528 -0.2897 -0.1110  0.3569
  193MPD1     H 2939   0.762   2.668  16.502  0.3146 -0.3067 -2.2569
  193MPD1    H1 2940   0.577   3.003  16.664  0.9236  0.9752 -1.3983
  193MPD1    H2 2941   0.364   2.765  16.372  0.9850 -0.6332 -0.7127
  193MPD1    H3 2942   0.374   2.947  16.546  1.3773  1.7973  1.5010
  193MPD1     N 2943   0.801   2.896  16.644  0.7206 -0.6490  0.6514
  193MPD1    H5 2944   0.795   2.987  16.688  0.0382 -1.0157  1.3142
  193MPD1    N1 2945   0.580   2.597  16.326 -0.1199 -0.4920 -0.1099
  193MPD1    H6 2946   0.490   2.553  16.311 -0.3988 -0.4067  1.3009
  193MPD1    H7 2947   0.654   2.531  16.352 -2.1968 -2.9417 -0.4560
  194MPD1     C 2948   3.120   0.614  17.257  0.2358  0.4628  0.3142
  194MPD1    C1 2949   3.255   0.621  17.225 -0.3520 -0.7986 -0.3187
  194MPD1    C2 2950   3.325   0.507  17.204 -0.2091  0.2220 -0.6064
  194MPD1    C3 2951   3.264   0.383  17.226 -0.1191 -0.5746  0.2322
  194MPD1    C4 2952   3.134   0.377  17.271 -0.0338 -0.0849  0.3952
  194MPD1    C5 2953   3.064   0.491  17.288  0.1603  0.2242  0.0026
  194MPD1     H 2954   3.424   0.514  17.161  0.8405  0.3342  1.8191
  194MPD1    H1 2955   3.071   0.292  17.293 -0.0212 -0.2212 -0.0849
  194MPD1    H2 2956   3.052   0.697  17.273 -0.4026  0.6705 -3.4940
  194MPD1    H3 2957   2.965   0.478  17.330 -0.2735 -0.9696 -1.3857
  194MPD1     N 2958   3.332   0.263  17.220 -0.0865  0.4101 -0.0277
  194MPD1    H5 2959   3.274   0.180  17.225 -1.4688  1.4162  0.7110
  194MPD1    N1 2960   3.313   0.747  17.190  0.2598  0.3608  0.0064
  194MPD1    H6 2961   3.288   0.816  17.260 -1.5439  0.8118 -1.0743
  194MPD1    H7 2962   3.415   0.739  17.191  0.2686  0.0041 -2.0952
  195MPD1     C 2963   0.822   2.007  17.534 -0.1887 -0.3657 -0.6706
  195MPD1    C1 2964   0.823   1.960  17.667 -0.5211 -0.3858  0.8114
  195MPD1    C2 2965   0.742   1.849   0.005 -0.1861 -0.2409  0.0127
  195MPD1    C3 2966   0.681   1.777  17.594  0.2075  0.1640  0.0444
  195MPD1    C4 2967   0.682   1.825  17.462 -0.0724  0.7526 -0.2579
  195MPD1    C5 2968   0.748   1.945  17.430  0.8978 -0.1941 -0.5252
  195MPD1     H 2969   0.740   1.814   0.108 -1.8859 -0.9999 -0.2785
  195MPD1    H1 2970   0.630   1.771  17.383 -2.2086  0.7937  1.1195
  195MPD1    H2 2971   0.873   2.095  17.497 -2.2643  1.2782  0.3974
  195MPD1    H3 2972   0.736   1.971  17.326  2.2433 -0.0186 -0.6383
  195MPD1     N 2973   0.616   1.653  17.613  0.0383 -0.4831 -0.6155
  195MPD1    H5 2974   0.571   1.616  17.530  0.8009 -2.4916 -0.1368
  195MPD1    N1 2975   0.875   2.044   0.070 -0.3028  0.7584 -0.2367
  195MPD1    H6 2976   0.956   2.097   0.040 -0.6712  1.2251 -0.3984
  195MPD1    H7 2977   0.903   1.998   0.157  0.2207  1.0451 -0.2559
  196MPD1     C 2978   0.375   0.786   1.538 -0.1517  0.2129 -0.1341
  196MPD1    C1 2979   0.438   0.879   1.454  0.1699 -0.6287  0.1205
  196MPD1    C2 2980   0.509   0.983   1.512  0.0196  0.0924  0.5458
  196MPD1    C3 2981   0.521   0.987   1.656  0.2685 -0.3994 -0.4188
  196MPD1    C4 2982   0.448   0.903   1.736 -0.0663 -0.5385  0.0937
  196MPD1    C5 2983   0.384   0.800   1.673 -0.0606  0.5525 -0.6486
  196MPD1     H 2984   0.554   1.062   1.453  2.7535 -0.3931  1.9955
  196MPD1    H1 2985   0.444   0.903   1.844 -0.7945  0.4273  0.0632
  196MPD1    H2 2986   0.328   0.697   1.500  1.1419  0.3572 -2.0987
  196MPD1    H3 2987   0.334   0.732   1.741  1.4768 -0.6245 -0.6948
  196MPD1     N 2988   0.605   1.078   1.725 -0.0220 -0.3757  0.1647
  196MPD1    H5 2989   0.623   1.058   1.823  0.0690  2.9608  0.7955
  196MPD1    N1 2990   0.415   0.876   1.315 -0.1970 -0.1649 -0.5124
  196MPD1    H6 2991   0.400   0.785   1.274  0.0617 -1.7125  2.8171
  196MPD1    H7 2992   0.498   0.920   1.276  0.1821 -0.3603  0.0600
  197MPD1     C 2993   0.304   3.389   0.033 -0.5848 -1.2695 -0.8111
  197MPD1    C1 2994   0.285   3.525   0.024  0.4839  0.1060 -0.2571
  197MPD1    C2 2995   0.198   3.569  17.619 -0.4850  0.2540 -0.5470
  197MPD1    C3 2996   0.108   3.485  17.552 -0.7222 -0.4527 -0.0262
  197MPD1    C4 2997   0.122   3.351  17.576 -0.2840 -0.4671 -0.3321
  197MPD1    C5 2998   0.223   3.303  17.660 -0.1430  0.6624 -0.2344
  197MPD1     H 2999   0.196   3.677  17.605 -2.1070  0.5698  2.1434
  197MPD1    H1 3000   0.049   3.283  17.532  0.5154 -1.6234  0.1404
  197MPD1    H2 3001   0.386   3.342   0.086 -1.0989  0.0852  1.1811
  197MPD1    H3 3002   0.246   3.197  17.667 -0.0084  0.7237  0.2035
  197MPD1     N 3003   0.014   3.524  17.448  0.0115 -0.2008  0.4441
  197MPD1    H5 3004   4.684   3.446  17.411 -1.3090  1.4804 -1.2691
  197MPD1    N1 3005   0.370   3.624   0.081 -0.4640  0.5805 -0.2929
  197MPD1    H6 3006   0.430   3.592   0.158 -0.2159 -1.3785 -1.2896
  197MPD1    H7 3007   0.327   3.714   0.099 -0.6466  0.4112  0.1180
  198MPD1     C 3008   1.819   2.809  15.715 -0.1462  0.0631 -0.0489
  198MPD1    C1 3009   1.916   2.743  15.658 -0.2483  0.3732  0.2505
  198MPD1    C2 3010   1.929   2.615  15.705  0.2514 -0.2060 -0.4089
  198MPD1    C3 3011   1.840   2.552  15.789 -0.2806 -0.4052  0.8869
  198MPD1    C4 3012   1.732   2.629  15.833 -0.4725  0.6858 -0.8240
  198MPD1    C5 3013   1.725   2.758  15.799 -0.1340  0.1201 -0.2584
  198MPD1     H 3014   2.016   2.563  15.666 -0.0015  0.3703 -1.7206
  198MPD1    H1 3015   1.651   2.582  15.888 -0.4447  1.0549 -0.4687
  198MPD1    H2 3016   1.814   2.917  15.704 -2.1941 -0.0443 -0.3155
  198MPD1    H3 3017   1.654   2.827  15.843  0.5157 -0.0700  1.0722
  198MPD1     N 3018   1.852   2.423  15.829 -0.9556 -0.4846  0.0841
  198MPD1    H5 3019   1.781   2.384  15.890 -0.5112 -0.8110  0.3954
  198MPD1    N1 3020   2.022   2.808  15.587  0.3929  0.1463 -0.7004
  198MPD1    H6 3021   2.084   2.752  15.528  2.2862  1.9603 -0.4327
  198MPD1    H7 3022   1.992   2.896  15.545  1.3661 -0.4371 -2.6330
  199MPD1     C 3023   4.652   3.270   9.490  0.6981  0.3236 -0.4807
  199MPD1    C1 3024   4.608   3.371   9.579  0.5495 -0.0540 -0.1846
  199MPD1    C2 3025   4.486   3.426   9.548 -0.4023  0.2065  0.1684
  199MPD1    C3 3026   4.396   3.367   9.460 -0.2811 -0.4635 -0.0791
  199MPD1    C4 3027   4.438   3.257   9.395 -1.1341 -0.0075 -0.0061
  199MPD1    C5 3028   4.570   3.213   9.405  1.0798 -0.6447 -1.0721
  199MPD1     H 3029   4.470   3.522   9.595 -1.9385  0.5472 -1.0622
  199MPD1    H1 3030   4.384   3.212   9.313  0.3590 -2.4645  0.3417
  199MPD1    H2 3031   0.027   3.221   9.492 -0.2098 -1.5370 -1.2821
  199MPD1    H3 3032   4.599   3.130   9.342  0.1743  0.6768 -3.2142
  199MPD1     N 3033   4.263   3.418   9.428  0.2777  0.7338  0.4956
  199MPD1    H5 3034   4.208   3.375   9.355  0.2531 -0.5335  1.2573
  199MPD1    N1 3035   4.700   3.433   9.659 -0.0918 -0.1300  0.0073
  199MPD1    H6 3036   0.048   3.376   9.705  0.2933 -0.8956 -1.5413
  199MPD1    H7 3037   4.653   3.485   9.733  0.1611 -2.1072  1.5517
  200MPD1     C 3038   2.199   2.983  15.213 -0.2515  0.6121  0.1212
  200MPD1    C1 3039   2.191   2.942  15.079  0.9128  0.0905 -0.1794
  200MPD1    C2 3040   2.298   2.941  14.989 -0.2780  0.0756  0.6135
  200MPD1    C3 3041   2.424   2.976  15.036  0.8545 -0.0955  0.1901
  200MPD1    C4 3042   2.430   3.023  15.169  0.6406 -0.5826 -0.2871
  200MPD1    C5 3043   2.322   3.027  15.254 -0.0800  0.6567  0.1786
  200MPD1     H 3044   2.285   2.894  14.892  1.0974 -0.4903  0.7048
  200MPD1    H1 3045   2.529   3.051  15.204  0.7396 -0.7031 -0.4664
  200MPD1    H2 3046   2.126   2.979  15.293 -1.2279  0.8234 -0.7614
  200MPD1    H3 3047   2.318   3.072  15.353  3.1109  1.2955  0.0395
  200MPD1     N 3048   2.528   2.962  14.949 -0.1064 -0.1481 -0.5624
  200MPD1    H5 3049   2.497   2.922  14.862 -0.1844  1.1516 -1.1264
  200MPD1    N1 3050   2.067   2.908  15.026  0.3127  0.3076 -0.6019
  200MPD1    H6 3051   2.078   2.841  14.950 -2.0974 -1.0788  0.2638
  200MPD1    H7 3052   1.993   2.870  15.084  0.0325  1.0358 -0.4817
  201MPD1     C 3053   4.645   2.978  12.839  1.0158 -0.0989  0.0611
  201MPD1    C1 3054   4.710   2.924  12.948 -0.0246  0.5430 -0.4780
  201MPD1    C2 3055   0.015   2.790  12.952  0.7355  0.0110 -0.1534
  201MPD1    C3 3056   0.000   2.704  12.846 -1.0415  0.0934 -0.5716
  201MPD1    C4 3057   4.683   2.762  12.729  1.7925 -0.0384  0.2558
  201MPD1    C5 3058   4.642   2.895  12.728 -0.6814  0.3414  0.0596
  201MPD1     H 3059   0.043   2.756  13.051 -0.5899  0.1545  0.2705
  201MPD1    H1 3060   4.679   2.702  12.639 -1.2676 -1.5251  1.3979
  201MPD1    H2 3061   4.611   3.081  12.836 -0.9562 -0.7348  0.6373
  201MPD1    H3 3062   4.611   2.942  12.635 -1.1894 -1.7810 -0.8644
  201MPD1     N 3063   0.044   2.568  12.853 -0.1090 -0.2778  0.4145
  201MPD1    H5 3064   0.072   2.535  12.945  0.6630 -0.1384  0.2250
  201MPD1    N1 3065   4.715   3.000  13.063  0.2538 -0.2990  0.3773
  201MPD1    H6 3066   0.086   2.994  13.103  0.1395 -2.5483  0.2776
  201MPD1    H7 3067   4.702   3.100  13.047  1.5590 -0.5610 -2.3542
  202MPD1     C 3068   0.053   1.807   8.846  0.2182 -0.7518 -0.6632
  202MPD1    C1 3069   0.118   1.698   8.904 -0.0078 -0.5278 -1.0222
  202MPD1    C2 3070   0.111   1.704   9.043 -0.0884 -0.0060 -0.1395
  202MPD1    C3 3071   0.075   1.813   9.118 -0.4366 -0.1644 -0.0722
  202MPD1    C4 3072   0.018   1.923   9.054  0.1208 -0.4376 -0.0984
  202MPD1    C5 3073   4.716   1.917   8.918  0.6558 -0.1130 -0.4197
  202MPD1     H 3074   0.145   1.612   9.090  0.5702  0.3634  0.1024
  202MPD1    H1 3075   4.718   2.011   9.113  1.7365  0.1778 -0.3962
  202MPD1    H2 3076   0.053   1.819   8.738  0.2383  1.8075 -0.3898
  202MPD1    H3 3077   4.668   2.003   8.873  1.8241  1.5626  1.5984
  202MPD1     N 3078   0.090   1.819   9.262 -0.5168  0.4221  0.6057
  202MPD1    H5 3079   0.046   1.894   9.314 -0.6466  0.9803 -0.3058
  202MPD1    N1 3080   0.125   1.574   8.833  0.1569  0.4303  0.3593
  202MPD1    H6 3081   0.149   1.585   8.735 -2.3425  0.2796 -0.2853
  202MPD1    H7 3082   0.183   1.506   8.882 -0.0869 -0.9776 -1.2726
  203MPD1     C 3083   3.322   2.952  12.540 -0.0052  0.3100 -1.0747
  203MPD1    C1 3084   3.458   2.941  12.572  0.1735  0.3930 -0.4031
  203MPD1    C2 3085   3.515   2.823  12.537  0.0570  0.4255 -0.0306
  203MPD1    C3 3086   3.447   2.718  12.478 -0.0071 -0.5153  0.6054
  203MPD1    C4 3087   3.319   2.734  12.441  0.0630  0.4261 -0.7157
  203MPD1    C5 3088   3.256   2.851  12.483 -0.5427  0.5242 -0.0631
  203MPD1     H 3089   3.621   2.803  12.551 -0.3303 -0.4307  1.7804
  203MPD1    H1 3090   3.262   2.654  12.393  2.3930 -0.9368 -1.2116
  203MPD1    H2 3091   3.265   3.037  12.578 -3.5852 -2.7819  0.4886
  203MPD1    H3 3092   3.149   2.858  12.465 -0.2769 -0.2175 -1.8970
  203MPD1     N 3093   3.535   2.608  12.443  0.5234 -0.0000 -0.3239
  203MPD1    H5 3094   3.626   2.605  12.488 -1.1343 -0.0198  3.0489
  203MPD1    N1 3095   3.538   3.043  12.625  0.5475  0.0926 -0.5554
  203MPD1    H6 3096   3.632   3.011  12.644  1.1892  3.0508  1.4002
  203MPD1    H7 3097   3.497   3.113  12.687  2.5768 -0.1432  1.0413
  204MPD1     C 3098   2.333   2.926   0.155  1.0057 -0.2816  0.2295
  204MPD1    C1 3099   2.421   2.849   0.229  0.0753  0.0375  0.4414
  204MPD1    C2 3100   2.537   2.804   0.160 -0.8414 -0.0063 -0.0045
  204MPD1    C3 3101   2.560   2.835   0.028  0.3086 -0.7977  0.4419
  204MPD1    C4 3102   2.460   2.900  17.646 -0.7793  0.2899 -0.9432
  204MPD1    C5 3103   2.349   2.940   0.019  1.3966 -0.5347  0.1234
  204MPD1     H 3104   2.616   2.750   0.211 -0.3782 -0.3905 -1.1275
  204MPD1    H1 3105   2.477   2.919  17.540  1.2996  1.5598 -0.3800
  204MPD1    H2 3106   2.243   2.973   0.195  0.0233 -1.2963 -0.7676
  204MPD1    H3 3107   2.278   3.003  17.658  0.7056  1.1477  3.0582
  204MPD1     N 3108   2.686   2.795  17.671  0.7494 -0.0955 -0.4341
  204MPD1    H5 3109   2.735   2.730   0.039  0.7334  0.2327 -0.0634
  204MPD1    N1 3110   2.401   2.831   0.366  0.3704 -0.1697 -0.2339
  204MPD1    H6 3111   2.303   2.818   0.390  0.4295 -0.8666 -0.3757
  204MPD1    H7 3112   2.455   2.759   0.415  1.3243  0.5233 -0.2518
  205MPD1     C 3113   3.500   1.891  16.993  0.2621  0.1435  0.6274
  205MPD1    C1 3114   3.495   1.754  17.020  0.0153  0.0661 -0.0584
  205MPD1    C2 3115   3.482   1.721  17.154 -1.0315 -0.1012 -0.4051
  205MPD1    C3 3116   3.481   1.815  17.257 -0.4086  0.7340  0.8439
  205MPD1    C4 3117   3.485   1.952  17.223 -0.3397  0.1426  0.1686
  205MPD1    C5 3118   3.487   1.984  17.092  0.1580  0.0614  0.0565
  205MPD1     H 3119   3.472   1.618  17.186 -1.3067  0.0121 -0.1239
  205MPD1    H1 3120   3.478   2.034  17.294  2.1341  1.1571 -0.7668
  205MPD1    H2 3121   3.520   1.931  16.895 -1.4249 -0.3126  0.1012
  205MPD1    H3 3122   3.485   2.088  17.064  0.4337  0.3500  1.1110
  205MPD1     N 3123   3.463   1.780  17.394  0.0549 -0.1826 -0.2183
  205MPD1    H5 3124   3.441   1.857  17.457 -0.7501 -0.5654 -0.0376
  205MPD1    N1 3125   3.488   1.657  16.920  0.9097  0.0743 -0.1063
  205MPD1    H6 3126   3.436   1.571  16.938  0.7193  0.1344 -0.3700
  205MPD1    H7 3127   3.469   1.703  16.831 -1.4295 -0.0067  0.3597
  206MPD1     C 3128   3.609   0.753  16.268  0.8283 -0.4827 -0.2671
  206MPD1    C1 3129   3.531   0.665  16.337  0.2782 -0.0146 -0.4893
  206MPD1    C2 3130   3.428   0.596  16.269  0.2134 -0.2154  0.1041
  206MPD1    C3 3131   3.418   0.601  16.132 -0.2525 -0.1127 -0.2038
  206MPD1    C4 3132   3.510   0.678  16.065 -0.1219  0.5893 -0.1520
  206MPD1    C5 3133   3.597   0.754  16.134 -0.9071 -0.0386  0.2539
  206MPD1     H 3134   3.360   0.539  16.332 -0.1438  1.6108  1.3628
  206MPD1    H1 3135   3.504   0.686  15.957  1.8486  1.4142 -0.1965
  206MPD1    H2 3136   3.684   0.811  16.322 -0.3653  1.8232 -1.1286
  206MPD1    H3 3137   3.672   0.811  16.080  3.1173 -2.9386  2.7525
  206MPD1     N 3138   3.322   0.518  16.063 -0.0555  0.4863 -0.0478
  206MPD1    H5 3139   3.335   0.513  15.962 -1.8753 -0.1942 -0.2561
  206MPD1    N1 3140   3.531   0.674  16.476 -0.2325  0.5090  0.6889
  206MPD1    H6 3141   3.617   0.709  16.517  0.5015 -0.4168 -0.0445
  206MPD1    H7 3142   3.493   0.595  16.529 -0.3334 -0.1261 -0.3280
  207MPD1     C 3143   1.446   2.473   9.883 -0.2843 -0.1334  0.0025
  207MPD1    C1 3144   1.541   2.442   9.984 -0.4119 -0.1439 -0.1113
  207MPD1    C2 3145   1.558   2.523  10.098  0.3992 -0.3031  0.6851
  207MPD1    C3 3146   1.511   2.657  10.086  0.1973 -0.1742  0.7532
  207MPD1    C4 3147   1.427   2.691   9.980  0.1002 -0.5942 -0.6329
  207MPD1    C5 3148   1.393   2.600   9.880 -0.2257  0.2972 -0.3383
  207MPD1     H 3149   1.614   2.490  10.185  0.0416  0.3108  1.1432
  207MPD1    H1 3150   1.398   2.795   9.971  0.6803 -0.1557  2.6426
  207MPD1    H2 3151   1.428   2.414   9.794 -2.7181  0.0917  0.3464
  207MPD1    H3 3152   1.337   2.632   9.794 -1.5838  1.0740  0.8434
  207MPD1     N 3153   1.530   2.747  10.191 -0.2644  0.2712  0.2035
  207MPD1    H5 3154   1.497   2.841  10.171 -1.9231 -0.2919  0.2959
  207MPD1    N1 3155   1.583   2.307   9.993  0.6565  0.2875 -0.0144
  207MPD1    H6 3156   1.595   2.285   9.895 -0.2296  0.7658 -0.2239
  207MPD1    H7 3157   1.669   2.293  10.047 -1.1058 -2.1697  2.1395
  208MPD1     C 3158   4.109   0.132  17.593 -0.8917 -0.6415 -0.0881
  208MPD1    C1 3159   3.986   0.154  17.647 -0.1076 -0.2536 -0.0673
  208MPD1    C2 3160   3.963   0.255   0.044 -0.2491  0.6273  0.3828
  208MPD1    C3 3161   4.069   0.333   0.079 -0.1756 -0.2413  0.3703
  208MPD1    C4 3162   4.196   0.310   0.027  0.3019  0.6298 -0.1259
  208MPD1    C5 3163   4.212   0.216  17.620 -0.1364  0.5239  0.7509
  208MPD1     H 3164   3.863   0.277   0.081 -0.3825  0.1903  0.2870
  208MPD1    H1 3165   4.274   0.385   0.034 -0.0086  1.0707 -1.2383
  208MPD1    H2 3166   4.121   0.049  17.525  0.6756  0.4615 -1.1640
  208MPD1    H3 3167   4.307   0.207  17.569 -0.5801 -1.8548  0.3385
  208MPD1     N 3168   4.030   0.448   0.154  0.9306 -0.4316 -0.2625
  208MPD1    H5 3169   3.932   0.462   0.177  0.5510  0.0144 -2.1589
  208MPD1    N1 3170   3.892   0.057  17.614 -0.3425  0.0435  0.5050
  208MPD1    H6 3171   3.909   0.034  17.516 -0.9539 -0.8241  0.6058
  208MPD1    H7 3172   3.794   0.082  17.626 -0.9917 -2.6434  0.7088
  209MPD1     C 3173   1.340   2.353  11.845 -0.2211  0.8023  0.2060
  209MPD1    C1 3174   1.472   2.379  11.808  0.2522 -0.5584  0.7193
  209MPD1    C2 3175   1.497   2.502  11.750  0.5120 -0.1258  0.0782
  209MPD1    C3 3176   1.401   2.601  11.739  0.5908 -0.0295  0.5827
  209MPD1    C4 3177   1.285   2.583  11.805  0.3044  0.2834 -0.0798
  209MPD1    C5 3178   1.258   2.462  11.857 -0.3296 -0.0261 -0.4762
  209MPD1     H 3179   1.597   2.514  11.710  0.5013  0.1445  0.1347
  209MPD1    H1 3180   1.210   2.659  11.821  1.3140  1.6239 -1.6339
  209MPD1    H2 3181   1.305   2.257  11.881  2.4392 -0.3068 -0.2095
  209MPD1    H3 3182   1.163   2.450  11.907 -0.2368 -0.5582 -0.4304
  209MPD1     N 3183   1.428   2.721  11.672 -0.1092  0.3529 -0.5614
  209MPD1    H5 3184   1.500   2.717  11.601  0.3464 -0.9409 -0.0267
  209MPD1    N1 3185   1.577   2.283  11.814  0.4434 -0.6215 -0.2243
  209MPD1    H6 3186   1.667   2.319  11.843 -0.5737  0.3811  1.7011
  209MPD1    H7 3187   1.552   2.217  11.888  2.1766  0.5955  1.4412
  210MPD1     C 3188   1.066   3.655  11.744 -0.1134 -0.0032 -0.3708
  210MPD1    C1 3189   1.076   3.639  11.608 -0.3974  0.1792 -1.1733
  210MPD1    C2 3190   1.131   3.521  11.558 -0.5284  0.9512  0.5379
  210MPD1    C3 3191   1.173   3.421  11.643  0.1395  0.3549 -0.3159
  210MPD1    C4 3192   1.157   3.434  11.779  0.0940  0.3439  0.6055
  210MPD1    C5 3193   1.100   3.548  11.830 -0.1397 -0.2907 -0.0658
  210MPD1     H 3194   1.146   3.516  11.451  0.2827 -1.3112  0.7702
  210MPD1    H1 3195   1.194   3.361  11.849 -2.7545 -2.5118 -0.8930
  210MPD1    H2 3196   1.013   3.740  11.785  0.7110  0.7948 -0.9707
  210MPD1    H3 3197   1.080   3.556  11.936  1.0389 -0.3615  0.1544
  210MPD1     N 3198   1.239   3.307  11.596 -0.6161  0.2462 -0.2304
  210MPD1    H5 3199   1.267   3.246  11.673  1.0518 -0.6966 -1.6083
  210MPD1    N1 3200   1.047   3.748  11.529  0.4429  0.2769 -0.2102
  210MPD1    H6 3201   0.972   3.809  11.558  0.8270  0.4230  0.4891
  210MPD1    H7 3202   1.043   3.725  11.430  0.8101  0.1948 -0.2069
  211MPD1     C 3203   4.254   1.723  16.403 -0.1023 -0.0717 -0.4753
  211MPD1    C1 3204   4.162   1.693  16.499  0.0699  0.1747 -0.6962
  211MPD1    C2 3205   4.026   1.723  16.487  0.3082 -0.2067  0.0245
  211MPD1    C3 3206   3.978   1.765  16.367 -0.0942  0.0572 -0.1504
  211MPD1    C4 3207   4.070   1.791  16.266 -0.6787 -0.7933  0.1545
  211MPD1    C5 3208   4.204   1.762  16.282 -0.0999  0.0488  0.0343
  211MPD1     H 3209   3.955   1.693  16.562  0.1419 -1.4946 -0.6548
  211MPD1    H1 3210   4.039   1.833  16.170  0.5256  0.5770  0.3761
  211MPD1    H2 3211   4.360   1.700  16.409  0.8044  3.6367 -2.0774
  211MPD1    H3 3212   4.277   1.780  16.203  1.0470 -1.9127  0.6465
  211MPD1     N 3213   3.844   1.814  16.362  0.2317  0.9699 -0.8670
  211MPD1    H5 3214   3.796   1.824  16.451  0.4429 -2.3335 -0.3673
  211MPD1    N1 3215   4.215   1.656  16.621 -0.3230  0.1524 -0.7208
  211MPD1    H6 3216   4.147   1.608  16.680  0.9668  0.1251  0.7523
  211MPD1    H7 3217   4.303   1.607  16.610 -1.5416 -2.5138  1.2784
  212MPD1     C 3218   2.686   0.464  16.706  0.5949 -0.2936 -0.1758
  212MPD1    C1 3219   2.742   0.335  16.705 -0.1246  0.2078 -0.5255
  212MPD1    C2 3220   2.697   0.238  16.785  0.0055 -0.5827 -0.4483
  212MPD1    C3 3221   2.577   0.262  16.852  1.0670 -0.4359  0.1344
  212MPD1    C4 3222   2.509   0.380  16.838 -0.1866 -0.6936 -0.3821
  212MPD1    C5 3223   2.565   0.482  16.764  0.1029  0.2131 -0.1281
  212MPD1     H 3224   2.758   0.148  16.788  0.9272  0.0222 -1.1104
  212MPD1    H1 3225   2.430   0.395  16.911 -1.0849  0.6551 -1.6331
  212MPD1    H2 3226   2.718   0.550  16.649 -1.6377  0.6088 -0.0750
  212MPD1    H3 3227   2.512   0.576  16.763 -1.1844 -0.5010  0.6802
  212MPD1     N 3228   2.506   0.163  16.930 -0.3138 -0.4590 -0.1763
  212MPD1    H5 3229   2.410   0.187  16.952  0.4096 -0.9863  3.5805
  212MPD1    N1 3230   2.866   0.322  16.649 -0.5802  0.5182 -0.1287
  212MPD1    H6 3231   2.884   0.372  16.562  1.2109  1.0686  0.5608
  212MPD1    H7 3232   2.901   0.227  16.635 -0.5104  0.6550 -0.9073
  213MPD1     C 3233   1.316   1.297  15.446  0.0534 -0.1361 -0.2716
  213MPD1    C1 3234   1.281   1.419  15.389  0.0579  0.1517 -0.5132
  213MPD1    C2 3235   1.150   1.414  15.349 -0.6890  0.5751 -0.1571
  213MPD1    C3 3236   1.054   1.326  15.388  0.0993  0.7547  0.2976
  213MPD1    C4 3237   1.089   1.225  15.469  0.9546 -0.4907 -0.0042
  213MPD1    C5 3238   1.219   1.215  15.505 -1.2999 -0.4566 -0.1624
  213MPD1     H 3239   1.108   1.494  15.290 -3.0443  0.8847  1.9079
  213MPD1    H1 3240   1.021   1.148  15.502 -0.8067 -0.4793 -3.6330
  213MPD1    H2 3241   1.419   1.283  15.479  0.3636  1.2613 -0.6428
  213MPD1    H3 3242   1.263   1.143  15.573  1.3091  0.0615 -1.3039
  213MPD1     N 3243   0.917   1.352  15.357 -0.0241  0.0049 -0.6704
  213MPD1    H5 3244   0.904   1.435  15.300  2.2456  0.8074 -0.0277
  213MPD1    N1 3245   1.372   1.495  15.318  1.2378  0.9423 -0.3401
  213MPD1    H6 3246   1.466   1.492  15.359  1.2511  0.8205 -0.3781
  213MPD1    H7 3247   1.341   1.592  15.313 -1.0211  0.2849  0.8388
  214MPD1     C 3248   4.683   1.114  15.645 -0.5052  0.1505 -0.2038
  214MPD1    C1 3249   0.069   1.031  15.657  0.5492  0.4367 -0.0148
  214MPD1    C2 3250   0.180   1.072  15.591 -0.7392  0.1581  1.2699
  214MPD1    C3 3251   0.189   1.191  15.523  0.3652 -0.1483 -0.0500
  214MPD1    C4 3252   0.080   1.276  15.518  0.1248  0.6224  0.0019
  214MPD1    C5 3253   4.685   1.228  15.568  0.0358  0.6331 -0.0013
  214MPD1     H 3254   0.269   1.010  15.600 -0.1860  0.5260 -1.7070
  214MPD1    H1 3255   0.086   1.366  15.458 -0.3152  0.1745 -0.7174
  214MPD1    H2 3256   4.594   1.084  15.698 -1.5379  2.8757 -0.3984
  214MPD1    H3 3257   4.592   1.281  15.554 -0.2586  0.0705 -0.1850
  214MPD1     N 3258   0.315   1.220  15.459  0.5647  0.6746 -0.2569
  214MPD1    H5 3259   0.389   1.163  15.500 -3.0220 -1.6641  2.9136
  214MPD1    N1 3260   0.071   0.917  15.745 -0.3072 -0.2300  0.0586
  214MPD1    H6 3261   4.712   0.857  15.741 -0.5385  0.1291 -0.6932
  214MPD1    H7 3262   0.158   0.865  15.738  0.5732  1.0300  1.4678
  215MPD1     C 3263   1.727   1.807  10.682 -0.0492  0.2247  0.9046
  215MPD1    C1 3264   1.631   1.840  10.776  0.4057  0.1179 -0.0601
  215MPD1    C2 3265   1.600   1.974  10.814  0.2104 -0.7156 -0.6266
  215MPD1    C3 3266   1.662   2.071  10.742  0.6124 -0.9483 -0.9658
  215MPD1    C4 3267   1.753   2.044  10.639 -0.3645  0.2327 -0.3171
  215MPD1    C5 3268   1.788   1.910  10.624  0.6854  0.2558  0.5467
  215MPD1     H 3269   1.530   1.985  10.895  1.5718 -2.5927  0.7893
  215MPD1    H1 3270   1.810   2.122  10.588 -0.7827 -0.7861 -2.3307
  215MPD1    H2 3271   1.752   1.705  10.653  0.2124  0.1062  1.5398
  215MPD1    H3 3272   1.869   1.881  10.558 -1.2180 -0.0136 -1.6466
  215MPD1     N 3273   1.630   2.202  10.786  0.1587 -0.1074 -0.2587
  215MPD1    H5 3274   1.557   2.210  10.856  2.7184 -0.6047  2.4568
  215MPD1    N1 3275   1.592   1.736  10.859  0.1626  0.6203  0.4081
  215MPD1    H6 3276   1.504   1.748  10.908 -0.3216  1.6629 -0.7350
  215MPD1    H7 3277   1.589   1.648  10.808  2.9019  1.7867 -1.7772
  216MPD1     C 3278   2.978   0.056  17.425  0.7645  0.0031  0.4850
  216MPD1    C1 3279   3.084   4.708  17.466  0.1616 -0.9807  0.8430
  216MPD1    C2 3280   3.085   4.573  17.429  0.7708  0.3452  0.0244
  216MPD1    C3 3281   2.973   4.513  17.367  0.3238  0.1559  0.4872
  216MPD1    C4 3282   2.871   4.593  17.321  0.1783 -0.0519  0.3870
  216MPD1    C5 3283   2.870   0.004  17.356 -0.6634  0.6329 -0.0674
  216MPD1     H 3284   3.168   4.509  17.458  1.0470  0.5100 -0.3889
  216MPD1    H1 3285   2.794   4.549  17.259  0.8619  0.9513 -1.1819
  216MPD1    H2 3286   2.973   0.161  17.454  0.0977 -0.3302  1.5908
  216MPD1    H3 3287   2.790   0.068  17.323  0.2885  1.1809 -1.2726
  216MPD1     N 3288   2.976   4.378  17.341 -0.2013 -0.3932 -0.3369
  216MPD1    H5 3289   3.053   4.324  17.378 -0.4411 -0.5380 -0.0430
  216MPD1    N1 3290   3.181   0.036  17.550 -0.1981  0.8742  0.2312
  216MPD1    H6 3291   3.272   0.002  17.521 -0.6317  0.4245 -0.6070
  216MPD1    H7 3292   3.178   0.138  17.547 -0.7519  0.8695  0.5290
  217MPD1     C 3293   3.981   0.870   8.032 -0.3537 -0.3625  0.4763
  217MPD1    C1 3294   3.877   0.950   8.061 -0.4343  0.1881 -0.2615
  217MPD1    C2 3295   3.851   0.988   8.187 -0.2446 -0.3902 -0.1759
  217MPD1    C3 3296   3.943   0.952   8.287  0.3138  0.0322  0.4452
  217MPD1    C4 3297   4.043   0.862   8.259 -0.5537 -0.5609  0.1797
  217MPD1    C5 3298   4.059   0.820   8.127 -1.0810  0.5118  0.1117
  217MPD1     H 3299   3.773   1.063   8.194 -2.0250 -2.1874 -0.7272
  217MPD1    H1 3300   4.114   0.831   8.335 -1.0732  0.5790  1.1284
  217MPD1    H2 3301   4.016   0.844   7.933 -0.0696 -1.0766  0.7612
  217MPD1    H3 3302   4.128   0.741   8.099 -0.3038  0.8843  0.9808
  217MPD1     N 3303   3.943   1.004   8.418  0.6792  0.3404 -0.5398
  217MPD1    H5 3304   4.021   0.974   8.476  1.5942  1.6225 -1.1144
  217MPD1    N1 3305   3.790   0.977   7.957 -0.3967 -0.0976 -0.5315
  217MPD1    H6 3306   3.844   0.982   7.870 -0.0106  1.3777 -0.2065
  217MPD1    H7 3307   3.740   1.065   7.966  2.5631  1.4124  1.2087
  218MPD1     C 3308   0.201   3.392  13.179  0.0975 -0.6767 -0.1643
  218MPD1    C1 3309   0.146   3.406  13.051  0.4603  0.4019  0.1188
  218MPD1    C2 3310   0.180   3.309  12.953 -0.4540  0.3985 -1.1455
  218MPD1    C3 3311   0.264   3.201  12.977 -0.2617  0.0283  0.2578
  218MPD1    C4 3312   0.317   3.189  13.109 -0.3359 -0.0828 -0.3095
  218MPD1    C5 3313   0.289   3.286  13.201  0.1534 -0.5028 -0.1005
  218MPD1     H 3314   0.113   3.302  12.868 -1.1478 -1.6186 -0.4358
  218MPD1    H1 3315   0.391   3.112  13.124 -0.3812  0.1340  1.0357
  218MPD1    H2 3316   0.167   3.451  13.263  0.2653  0.8206 -1.1529
  218MPD1    H3 3317   0.337   3.282  13.298 -0.8779  1.2995  0.4837
  218MPD1     N 3318   0.284   3.106  12.872 -0.2221  0.4955 -0.1948
  218MPD1    H5 3319   0.237   3.120  12.783 -0.3836 -0.2557 -0.2252
  218MPD1    N1 3320   0.043   3.493  13.024 -0.1977 -0.1278 -0.3636
  218MPD1    H6 3321   0.043   3.580  13.077  0.6658 -1.3190  1.5837
  218MPD1    H7 3322   0.041   3.524  12.927 -1.5100  0.7554 -0.0584
  219MPD1     C 3323   0.666   2.887  11.971  0.3200  0.4888  0.1580
  219MPD1    C1 3324   0.666   2.992  12.056 -0.2773 -0.3113 -0.1549
  219MPD1    C2 3325   0.607   2.979  12.187  0.2496 -0.2471 -0.3709
  219MPD1    C3 3326   0.537   2.860  12.215  0.0889 -0.1730 -0.0613
  219MPD1    C4 3327   0.541   2.755  12.123  0.7332 -0.3977  0.4857
  219MPD1    C5 3328   0.612   2.765  12.004 -0.1886 -1.0147 -0.1843
  219MPD1     H 3329   0.616   3.056  12.262 -0.5421  0.7941 -1.3428
  219MPD1    H1 3330   0.482   2.664  12.137  3.6484 -2.0475  1.9507
  219MPD1    H2 3331   0.717   2.884  11.876  2.5740  0.1645  1.3982
  219MPD1    H3 3332   0.605   2.688  11.927  0.7253 -1.3263  0.0530
  219MPD1     N 3333   0.465   2.833  12.335 -0.1594 -0.2561  0.3055
  219MPD1    H5 3334   0.407   2.750  12.335  1.9884 -1.7633 -0.0724
  219MPD1    N1 3335   0.729   3.112  12.015 -0.1090 -1.0232  0.2076
  219MPD1    H6 3336   0.678   3.198  12.035 -0.5678 -0.9391 -1.3087
  219MPD1    H7 3337   0.763   3.120  11.919 -0.2797 -2.7053  0.0046
  220MPD1     C 3338   1.011   1.480  10.078 -0.4104  0.4261  0.3288
  220MPD1    C1 3339   0.930   1.511   9.976  0.3886  0.0994  0.5085
  220MPD1    C2 3340   0.913   1.647   9.950 -1.0445 -0.5931  1.1044
  220MPD1    C3 3341   0.978   1.740  10.031  0.3009  0.0465  0.3542
  220MPD1    C4 3342   1.050   1.701  10.138  0.3940 -0.1839 -0.5339
  220MPD1    C5 3343   1.068   1.571  10.164  0.1577 -0.8331  0.2610
  220MPD1     H 3344   0.860   1.678   9.861 -1.1936  3.2557  2.5084
  220MPD1    H1 3345   1.100   1.773  10.203  1.9812  0.0928 -2.0759
  220MPD1    H2 3346   1.043   1.380  10.103  2.2968  0.8704 -1.4423
  220MPD1    H3 3347   1.136   1.530  10.237  0.6073 -1.4716 -0.5202
  220MPD1     N 3348   0.948   1.877   9.999  0.0524 -0.1653  0.2132
  220MPD1    H5 3349   0.898   1.894   9.912 -1.1345 -0.5397  0.8201
  220MPD1    N1 3350   0.894   1.410   9.886 -0.0590  0.2600 -0.6910
  220MPD1    H6 3351   0.807   1.441   9.844 -1.2731  0.5213  2.0257
  220MPD1    H7 3352   0.877   1.322   9.933  3.3059 -0.9154 -1.6602
  221MPD1     C 3353   2.509   1.978  16.578  0.5077 -0.1231 -0.4969
  221MPD1    C1 3354   2.512   1.881  16.678  0.5705  0.2638  0.4372
  221MPD1    C2 3355   2.632   1.808  16.682  0.4167 -0.1532 -0.5262
  221MPD1    C3 3356   2.738   1.836  16.591  0.6244 -0.0869 -0.6360
  221MPD1    C4 3357   2.726   1.944  16.504  0.2600 -0.5263 -0.3260
  221MPD1    C5 3358   2.610   2.013  16.500 -0.0549  0.5647  0.2902
  221MPD1     H 3359   2.635   1.719  16.745  0.2034 -0.3829 -0.8455
  221MPD1    H1 3360   2.807   1.962  16.434  1.0677 -2.0573  0.1922
  221MPD1    H2 3361   2.412   2.028  16.570  1.2156  1.1186 -1.2906
  221MPD1    H3 3362   2.597   2.078  16.414  0.3172 -0.8552 -0.8296
  221MPD1     N 3363   2.855   1.752  16.587  0.1276 -0.2318 -0.4057
  221MPD1    H5 3364   2.915   1.761  16.506  0.0265  0.3201 -0.4165
  221MPD1    N1 3365   2.396   1.843  16.745 -0.0604 -0.5265  0.2596
  221MPD1    H6 3366   2.340   1.926  16.763  0.0722  0.0030 -1.7423
  221MPD1    H7 3367   2.420   1.789  16.828 -0.1179 -0.8012  0.0974
  222MPD1     C 3368   2.241   3.404   0.174 -0.1767  0.4235  0.1594
  222MPD1    C1 3369   2.332   3.492   0.115  0.0451 -0.1362 -0.6064
  222MPD1    C2 3370   2.283   3.612   0.071  0.1646 -0.2010  0.1896
  222MPD1    C3 3371   2.151   3.646   0.081  0.7179 -0.1715 -0.5892
  222MPD1    C4 3372   2.071   3.554   0.142 -0.4037 -0.6026 -0.3768
  222MPD1    C5 3373   2.113   3.435   0.196  0.3935 -0.4404 -0.4060
  222MPD1     H 3374   2.360   3.684   0.048  0.1680 -0.1948  0.2198
  222MPD1    H1 3375   1.965   3.573   0.149  0.1854  2.5072  0.2719
  222MPD1    H2 3376   2.269   3.302   0.193 -1.0724  0.0661 -0.4422
  222MPD1    H3 3377   2.051   3.368   0.254  2.4440 -0.7826  1.3919
  222MPD1     N 3378   2.100   3.775   0.052 -0.5173  0.0941  0.4553
  222MPD1    H5 3379   2.006   3.788   0.088 -0.6021 -1.0770  0.6388
  222MPD1    N1 3380   2.470   3.461   0.129 -0.5755 -0.0506  0.1316
  222MPD1    H6 3381   2.519   3.500   0.049 -2.2006  1.4124 -0.1671
  222MPD1    H7 3382   2.487   3.361   0.125  2.3771  0.4804  0.0299
  223MPD1     C 3383   1.983   4.654   0.457 -0.2143  0.2311  0.1304
  223MPD1    C1 3384   1.966   4.684   0.322  0.0385  0.3865  0.1990
  223MPD1    C2 3385   1.958   4.579   0.235  0.7484 -0.5305 -1.0807
  223MPD1    C3 3386   1.946   4.448   0.284  0.0519  1.0107 -0.6796
  223MPD1    C4 3387   1.955   4.416   0.419 -0.1203 -0.4082 -0.2033
  223MPD1    C5 3388   1.977   4.523   0.501 -0.3872  0.1319  0.4236
  223MPD1     H 3389   1.949   4.592   0.128 -1.6472 -2.1238 -1.0579
  223MPD1    H1 3390   1.939   4.320   0.468  0.5284 -1.3633 -1.8433
  223MPD1    H2 3391   1.987   0.007   0.536  2.4159  0.3176 -0.0927
  223MPD1    H3 3392   1.982   4.511   0.609  1.5156  3.1862  0.6876
  223MPD1     N 3393   1.942   4.347   0.185  0.0945 -0.6129 -0.3248
  223MPD1    H5 3394   1.961   4.373   0.089 -1.3103 -1.3067 -0.7997
  223MPD1    N1 3395   1.974   0.091   0.277  0.4446 -0.6672 -0.6120
  223MPD1    H6 3396   1.922   0.101   0.190 -1.3273 -1.1279  0.4099
  223MPD1    H7 3397   1.925   0.158   0.336  2.4260 -0.1548  0.4461
  224MPD1     C 3398   3.724   2.469   8.832  0.3364  0.2255  0.2850
  224MPD1    C1 3399   3.862   2.437   8.849 -0.8234  0.3918  0.8656
  224MPD1    C2 3400   3.897   2.351   8.957  0.0859  0.9373 -0.9203
  224MPD1    C3 3401   3.798   2.282   9.026  0.0477 -0.5821 -0.4238
  224MPD1    C4 3402   3.672   2.314   8.996  0.0207  0.1621  0.5505
  224MPD1    C5 3403   3.626   2.411   8.909  0.0419 -0.2463  0.0709
  224MPD1     H 3404   4.003   2.337   8.977  0.5705  1.5383 -2.9901
  224MPD1    H1 3405   3.595   2.254   9.042 -1.6466  1.6486 -0.2813
  224MPD1    H2 3406   3.698   2.543   8.757 -0.9735  1.2380  1.7084
  224MPD1    H3 3407   3.521   2.428   8.890 -0.2089 -0.7021  1.0254
  224MPD1     N 3408   3.823   2.200   9.140  0.5267  0.2122 -1.0315
  224MPD1    H5 3409   3.748   2.171   9.202  0.5822 -2.2373 -2.1211
  224MPD1    N1 3410   3.962   2.514   8.789 -0.0462 -0.4071 -0.0271
  224MPD1    H6 3411   3.935   2.536   8.694  0.8149  0.1214 -0.1489
  224MPD1    H7 3412   4.051   2.465   8.794 -0.0254 -0.1566  2.0788
  225MPD1     C 3413   0.586   3.721  12.320  0.2426 -0.6579 -0.1462
  225MPD1    C1 3414   0.570   3.613  12.239  0.8628 -0.1280  0.6510
  225MPD1    C2 3415   0.445   3.569  12.215  0.0200 -0.8405 -0.4495
  225MPD1    C3 3416   0.331   3.640  12.258  0.6897  0.3410  0.3693
  225MPD1    C4 3417   0.353   3.738  12.358  0.6764 -0.6433  0.1641
  225MPD1    C5 3418   0.484   3.774  12.387 -0.2793  0.3358  0.1576
  225MPD1     H 3419   0.426   3.487  12.147  1.2628  0.3449 -2.2076
  225MPD1    H1 3420   0.279   3.802  12.406  1.7325  0.8698 -0.2047
  225MPD1    H2 3421   0.686   3.750  12.349 -0.4801  0.0670  1.6239
  225MPD1    H3 3422   0.502   3.858  12.453 -1.3014  0.6733  0.0107
  225MPD1     N 3423   0.192   3.610  12.224  0.0686 -0.1503 -0.0988
  225MPD1    H5 3424   0.121   3.658  12.279  1.2761 -0.0998  1.4369
  225MPD1    N1 3425   0.676   3.527  12.201  0.2321  0.5934  0.7123
  225MPD1    H6 3426   0.643   3.464  12.128  0.2108  1.3419  0.0766
  225MPD1    H7 3427   0.762   3.563  12.160 -1.1220  3.1711  0.1181
  226MPD1     C 3428   2.899   3.201   9.617  0.1989  0.1397 -0.2703
  226MPD1    C1 3429   2.942   3.105   9.532  0.5793 -0.6530 -0.2082
  226MPD1    C2 3430   3.055   3.131   9.454 -0.7603  0.0816  0.7446
  226MPD1    C3 3431   3.123   3.254   9.458 -0.6766 -0.0428  0.1375
  226MPD1    C4 3432   3.075   3.345   9.547  0.4448 -0.7619  0.3118
  226MPD1    C5 3433   2.966   3.319   9.629 -0.7262  0.2957 -0.6765
  226MPD1     H 3434   3.087   3.049   9.390 -1.1523 -0.5386  1.3364
  226MPD1    H1 3435   3.120   3.443   9.554 -0.5336 -0.4036  1.5346
  226MPD1    H2 3436   2.813   3.188   9.682 -0.0653 -2.4838 -1.1640
  226MPD1    H3 3437   2.931   3.393   9.700 -2.2024 -0.4298 -0.6627
  226MPD1     N 3438   3.235   3.277   9.372 -0.5130 -0.6909 -1.0148
  226MPD1    H5 3439   3.253   3.203   9.306  0.7762 -0.8830 -0.4455
  226MPD1    N1 3440   2.859   2.997   9.510  0.0550 -0.1085 -0.5518
  226MPD1    H6 3441   2.902   2.912   9.475 -1.8633 -1.2897 -0.0402
  226MPD1    H7 3442   2.809   2.968   9.593  0.5795 -0.7274 -0.4564
  227MPD1     C 3443   3.875   4.034   9.134 -0.1447  0.6472 -0.0036
  227MPD1    C1 3444   3.748   4.033   9.124 -0.5060 -0.3725 -0.1815
  227MPD1    C2 3445   3.679   3.911   9.148 -0.6717 -0.3042 -0.2443
  227MPD1    C3 3446   3.743   3.787   9.143  1.3188  0.0526  0.3630
  227MPD1    C4 3447   3.883   3.793   9.144 -0.1244  0.4044 -0.6048
  227MPD1    C5 3448   3.943   3.916   9.147  0.6704 -0.1830  0.2940
  227MPD1     H 3449   3.571   3.913   9.141 -0.7358 -0.5842  0.6888
  227MPD1    H1 3450   3.944   3.703   9.149 -0.1010  0.3886 -1.1649
  227MPD1    H2 3451   3.934   4.125   9.134  0.2117  0.4238  1.4870
  227MPD1    H3 3452   4.051   3.920   9.148  0.6048  2.1818 -1.7675
  227MPD1     N 3453   3.667   3.674   9.159 -0.0813  0.5457 -0.4079
  227MPD1    H5 3454   3.567   3.695   9.155 -0.3931 -0.9087 -0.4132
  227MPD1    N1 3455   3.683   4.159   9.121 -0.6290 -0.2274  0.4155
  227MPD1    H6 3456   3.739   4.234   9.081 -0.2839 -0.7241 -0.0327
  227MPD1    H7 3457   3.599   4.156   9.063 -0.3459  1.9493 -0.1392
  228MPD1     C 3458   1.869   1.696  13.886 -0.1859  0.1139 -0.4711
  228MPD1    C1 3459   1.906   1.565  13.907 -0.7127 -0.0816 -0.5574
  228MPD1    C2 3460   1.852   1.470  13.822 -0.5267 -0.4901 -0.2492
  228MPD1    C3 3461   1.761   1.503  13.728 -0.0595  0.2060 -0.4034
  228MPD1    C4 3462   1.732   1.639  13.707  0.8359 -0.8005  0.3638
  228MPD1    C5 3463   1.787   1.733  13.786 -0.5470 -0.3703 -0.3611
  228MPD1     H 3464   1.875   1.365  13.831  2.8729  0.4131  1.7210
  228MPD1    H1 3465   1.668   1.676  13.628  1.5805 -0.1978  0.0504
  228MPD1    H2 3466   1.918   1.767  13.952 -0.1197  0.1750 -0.5866
  228MPD1    H3 3467   1.765   1.839  13.777 -1.1255 -0.6399 -2.0208
  228MPD1     N 3468   1.711   1.402  13.649  0.7061  0.1680  0.3630
  228MPD1    H5 3469   1.737   1.305  13.668  2.4689  0.0417 -2.5987
  228MPD1    N1 3470   2.008   1.529  13.999  0.6207 -0.3074 -0.6999
  228MPD1    H6 3471   2.009   1.580  14.087  0.2563 -0.6435 -0.4995
  228MPD1    H7 3472   2.019   1.429  14.015 -2.0480 -0.5724 -0.6385
  229MPD1     C 3473   1.346   4.149  14.983  0.5211 -0.5300  0.1790
  229MPD1    C1 3474   1.465   4.199  14.941 -0.0603 -0.0703 -0.1226
  229MPD1    C2 3475   1.579   4.126  14.971 -0.2886 -0.3111 -0.4776
  229MPD1    C3 3476   1.588   4.028  15.072 -0.2130  0.0602 -0.1139
  229MPD1    C4 3477   1.457   3.991  15.120 -0.6307  0.1105 -0.5938
  229MPD1    C5 3478   1.343   4.050  15.071 -0.4395 -0.0343  0.6722
  229MPD1     H 3479   1.672   4.155  14.923 -0.0616  0.8826  0.6933
  229MPD1    H1 3480   1.435   3.906  15.183  0.2879 -0.9444 -1.6955
  229MPD1    H2 3481   1.249   4.192  14.958  0.6608 -0.2550  0.1124
  229MPD1    H3 3482   1.247   4.010  15.100 -0.0528 -2.5982 -1.5435
  229MPD1     N 3483   1.705   3.965  15.122  0.5671  0.5013  0.6686
  229MPD1    H5 3484   1.796   3.994  15.087 -0.0255  0.3582 -1.0063
  229MPD1    N1 3485   1.457   4.300  14.845 -0.1834  0.4803  0.8051
  229MPD1    H6 3486   1.380   4.363  14.865 -0.5631  0.8824 -1.8728
  229MPD1    H7 3487   1.537   4.361  14.852  1.7709 -1.8105 -1.3866
  230MPD1     C 3488   2.400   3.803  15.921 -0.3355  0.0516  0.6314
  230MPD1    C1 3489   2.447   3.722  15.821 -0.3481 -0.6751 -0.2344
  230MPD1    C2 3490   2.358   3.685  15.724 -0.6458 -0.1992  0.1844
  230MPD1    C3 3491   2.243   3.761  15.701 -0.1343  0.7019  0.1804
  230MPD1    C4 3492   2.214   3.854  15.791 -0.1276  0.5929  0.2886
  230MPD1    C5 3493   2.285   3.871  15.900  0.3313  0.1472 -0.5860
  230MPD1     H 3494   2.389   3.609  15.654  0.2268  0.1785  0.1620
  230MPD1    H1 3495   2.129   3.921  15.786 -0.2110  0.5433  1.0440
  230MPD1    H2 3496   2.463   3.816  16.009  1.2168 -1.5067 -0.2444
  230MPD1    H3 3497   2.268   3.952  15.969  0.4101 -0.4335  0.1208
  230MPD1     N 3498   2.167   3.735  15.584  0.8939 -0.9758 -0.0193
  230MPD1    H5 3499   2.191   3.652  15.531 -2.0098 -0.4436 -2.1358
  230MPD1    N1 3500   2.567   3.652  15.842  0.2917 -0.2434 -0.3582
  230MPD1    H6 3501   2.604   3.641  15.749  1.9576 -1.1957  0.4216
  230MPD1    H7 3502   2.630   3.714  15.892  0.9459 -1.6846  0.6101
  231MPD1     C 3503   0.450   1.548  15.736  0.0867  0.1614  0.3519
  231MPD1    C1 3504   0.319   1.557  15.679 -0.2155  0.1672  0.1910
  231MPD1    C2 3505   0.306   1.586  15.543 -0.2013 -0.3884 -0.6649
  231MPD1    C3 3506   0.414   1.622  15.468  0.1551 -0.0124 -0.0151
  231MPD1    C4 3507   0.539   1.612  15.527  0.5137  0.5011 -0.3799
  231MPD1    C5 3508   0.561   1.573  15.658 -0.4879 -0.3932 -0.2846
  231MPD1     H 3509   0.209   1.598  15.497  0.0721  2.5691 -0.4513
  231MPD1    H1 3510   0.624   1.642  15.467 -0.1857 -0.5850 -1.9324
  231MPD1    H2 3511   0.461   1.510  15.837 -0.2631  0.6152  0.5615
  231MPD1    H3 3512   0.660   1.566  15.702 -1.3703 -1.9830  1.4630
  231MPD1     N 3513   0.403   1.661  15.331  0.7769  0.5630  0.0841
  231MPD1    H5 3514   0.307   1.665  15.298  0.5617 -0.5556  0.5429
  231MPD1    N1 3515   0.215   1.543  15.771 -0.1742  0.2298  0.2867
  231MPD1    H6 3516   0.225   1.611  15.846  0.5643  0.3406  0.0833
  231MPD1    H7 3517   0.127   1.553  15.720  0.2385 -0.1440 -0.4969
  232MPD1     C 3518   2.632   3.929   0.050 -0.0410 -0.3128 -0.1974
  232MPD1    C1 3519   2.633   3.809   0.117  0.4505  0.6264  0.3325
  232MPD1    C2 3520   2.542   3.799   0.217 -0.0848 -0.2925  0.1811
  232MPD1    C3 3521   2.440   3.893   0.241  0.4722  0.2555  0.2292
  232MPD1    C4 3522   2.432   4.007   0.171  0.7715 -0.1157  0.6533
  232MPD1    C5 3523   2.526   4.018   0.067 -0.3517 -0.0783  0.2718
  232MPD1     H 3524   2.550   3.721   0.291  0.0165 -0.1853  0.2832
  232MPD1    H1 3525   2.352   4.079   0.180  0.5150 -0.3873  0.5611
  232MPD1    H2 3526   2.701   3.945  17.659 -2.5277 -0.8876 -2.3827
  232MPD1    H3 3527   2.519   4.106   0.005 -0.1615 -1.3981 -1.6469
  232MPD1     N 3528   2.349   3.860   0.341 -0.3145 -0.1617 -0.8044
  232MPD1    H5 3529   2.354   3.767   0.382 -0.9429  0.4731  0.7180
  232MPD1    N1 3530   2.742   3.719   0.108  0.0532 -0.0502  0.1110
  232MPD1    H6 3531   2.792   3.707   0.020  2.1875  0.5289  1.2195
  232MPD1    H7 3532   2.736   3.636   0.166 -1.6722 -0.1656 -0.2602
  233MPD1     C 3533   3.777   2.634   1.954 -0.5114  0.1285  0.0492
  233MPD1    C1 3534   3.917   2.631   1.958  0.0411 -0.5314 -0.0143
  233MPD1    C2 3535   3.987   2.519   1.924  0.0495  0.3785  0.5727
  233MPD1    C3 3536   3.921   2.411   1.863 -0.2831  0.7568  0.6736
  233MPD1    C4 3537   3.781   2.412   1.860  0.6108  0.2264  0.2855
  233MPD1    C5 3538   3.711   2.527   1.900  0.0776 -0.1691 -0.6634
  233MPD1     H 3539   4.094   2.529   1.912  0.0962  0.8052  1.3503
  233MPD1    H1 3540   3.733   2.331   1.807 -0.6472  1.1199  0.0416
  233MPD1    H2 3541   3.720   2.717   1.994 -1.4935 -0.3950 -0.2725
  233MPD1    H3 3542   3.603   2.527   1.900  0.0609 -3.1929  2.9812
  233MPD1     N 3543   3.989   2.294   1.828 -0.1998 -0.1705  0.4238
  233MPD1    H5 3544   3.938   2.225   1.774  0.3309  0.6864 -1.1919
  233MPD1    N1 3545   3.989   2.736   2.020 -0.2930  0.2419 -0.1418
  233MPD1    H6 3546   3.938   2.824   2.014 -0.1015  0.5532  2.7796
  233MPD1    H7 3547   4.072   2.747   1.963  0.0371 -1.3350  0.0114
  234MPD1     C 3548   0.819   1.531   9.324  0.0133 -0.8320  0.4064
  234MPD1    C1 3549   0.727   1.631   9.355  0.1562 -0.0323  0.4478
  234MPD1    C2 3550   0.591   1.597   9.340 -0.9074 -0.2396 -0.0410
  234MPD1    C3 3551   0.555   1.467   9.334 -0.3571 -0.1148 -0.0970
  234MPD1    C4 3552   0.650   1.367   9.325  0.0045  1.0452 -0.1279
  234MPD1    C5 3553   0.782   1.398   9.307  0.0396  0.0678  0.0605
  234MPD1     H 3554   0.511   1.668   9.354  0.1122  0.7946  0.5640
  234MPD1    H1 3555   0.618   1.264   9.314  1.6399  0.7399 -1.8773
  234MPD1    H2 3556   0.925   1.555   9.326  0.6691 -3.4412 -2.5418
  234MPD1    H3 3557   0.851   1.317   9.289  0.6220  1.0257 -1.9759
  234MPD1     N 3558   0.417   1.433   9.327 -0.2489 -0.0551 -0.3188
  234MPD1    H5 3559   0.356   1.512   9.346 -0.7213 -0.3449 -0.6309
  234MPD1    N1 3560   0.770   1.764   9.370  1.1183  0.3603 -0.1412
  234MPD1    H6 3561   0.707   1.820   9.427  0.3126 -0.1377 -0.5506
  234MPD1    H7 3562   0.864   1.780   9.406  0.6046  0.7617  1.0140
  235MPD1     C 3563   1.367   3.150  10.646 -0.4091 -0.0117 -0.2166
  235MPD1    C1 3564   1.415   3.281  10.645  0.3384 -0.0113 -0.2272
  235MPD1    C2 3565   1.384   3.362  10.540  0.1454  0.3769 -0.4956
  235MPD1    C3 3566   1.310   3.320  10.426 -0.3181 -0.4158  0.0443
  235MPD1    C4 3567   1.255   3.194  10.438 -0.1157 -0.0962  0.2986
  235MPD1    C5 3568   1.283   3.110  10.541 -1.1216 -0.3605  0.0569
  235MPD1     H 3569   1.428   3.462  10.542  0.0534  0.4731 -3.8666
  235MPD1    H1 3570   1.187   3.164  10.359  2.1717 -2.8299 -0.6448
  235MPD1    H2 3571   1.397   3.076  10.719 -0.3102  0.7138  0.4769
  235MPD1    H3 3572   1.242   3.010  10.547  2.2792 -1.8337 -1.6804
  235MPD1     N 3573   1.291   3.407  10.316 -0.9803 -0.4133 -0.2960
  235MPD1    H5 3574   1.331   3.499  10.330  0.1209 -0.9490  0.0606
  235MPD1    N1 3575   1.510   3.313  10.745  0.4118  0.0346 -0.6226
  235MPD1    H6 3576   1.515   3.244  10.819  0.6930  0.4891 -0.2206
  235MPD1    H7 3577   1.486   3.406  10.781 -0.9850 -0.2739 -0.7606
  236MPD1     C 3578   1.128   0.743  10.326  0.6534  0.7370  0.3207
  236MPD1    C1 3579   1.239   0.705  10.403 -0.0697  0.5359 -0.1104
  236MPD1    C2 3580   1.241   0.574  10.453  0.4555 -0.7945  0.3580
  236MPD1    C3 3581   1.127   0.499  10.454  0.1372  0.1229  0.6575
  236MPD1    C4 3582   1.016   0.545  10.388  0.4287 -0.1045 -0.1786
  236MPD1    C5 3583   1.016   0.664  10.325  0.0097  0.2242 -0.4267
  236MPD1     H 3584   1.336   0.543  10.495 -1.3556 -2.6993  3.0939
  236MPD1    H1 3585   0.931   0.479  10.384  0.0890  0.3967 -1.4004
  236MPD1    H2 3586   1.116   0.837  10.274 -2.4247  0.1283 -0.0788
  236MPD1    H3 3587   0.936   0.684  10.254 -1.0173  2.3733  1.3151
  236MPD1     N 3588   1.112   0.369  10.516 -0.4836 -0.0128 -0.8550
  236MPD1    H5 3589   1.020   0.328  10.521 -0.1774 -0.3791  1.3504
  236MPD1    N1 3590   1.358   0.777  10.395 -0.2391  0.4310 -0.3627
  236MPD1    H6 3591   1.410   0.759  10.481 -1.0837 -0.3302 -0.0130
  236MPD1    H7 3592   1.346   0.879  10.393  0.6201  0.4867 -2.2730
  237MPD1     C 3593   0.736   2.767  14.764 -0.3619 -0.5828 -0.1571
  237MPD1    C1 3594   0.721   2.697  14.887  0.0432 -0.0291 -0.3601
  237MPD1    C2 3595   0.596   2.645  14.919 -0.5034 -0.2706 -0.2883
  237MPD1    C3 3596   0.490   2.661  14.829  0.1242 -0.0403  0.0255
  237MPD1    C4 3597   0.511   2.724  14.706 -0.3128  0.5186  0.2282
  237MPD1    C5 3598   0.632   2.784  14.677 -0.3679 -0.5309 -0.7676
  237MPD1     H 3599   0.595   2.580  15.006  1.1655  1.3226  0.9128
  237MPD1    H1 3600   0.430   2.733  14.635  0.5030  1.0184 -0.6407
  237MPD1    H2 3601   0.838   2.792  14.737 -0.5119  0.0459 -0.1411
  237MPD1    H3 3602   0.627   2.855  14.595 -0.7366  0.6078  0.2356
  237MPD1     N 3603   0.362   2.615  14.855 -0.6152 -0.0640 -0.1223
  237MPD1    H5 3604   0.287   2.647  14.795 -1.0728 -2.9052 -1.0681
  237MPD1    N1 3605   0.836   2.660  14.952 -0.0422 -0.3259 -0.1539
  237MPD1    H6 3606   0.823   2.651  15.053 -2.5142 -1.0572 -0.5387
  237MPD1    H7 3607   0.907   2.731  14.940 -1.3069  1.4094  2.7097
  238MPD1     C 3608   2.527   1.408  14.193  0.4572 -0.1176 -0.1536
  238MPD1    C1 3609   2.518   1.335  14.313  0.9056 -0.3629  0.2564
  238MPD1    C2 3610   2.398   1.313  14.372 -0.0291 -0.6491 -0.6814
  238MPD1    C3 3611   2.289   1.376  14.319  0.3065  0.0360  0.6850
  238MPD1    C4 3612   2.295   1.453  14.209 -0.6696 -0.9326  0.4580
  238MPD1    C5 3613   2.415   1.478  14.149  0.1342  0.1615  0.1442
  238MPD1     H 3614   2.393   1.253  14.462 -1.6356  1.9205  0.9336
  238MPD1    H1 3615   2.206   1.505  14.176  0.1891  1.9195  2.6177
  238MPD1    H2 3616   2.615   1.415  14.131  0.8246 -1.3270  0.2272
  238MPD1    H3 3617   2.423   1.547  14.066 -1.1036 -1.4614 -1.3078
  238MPD1     N 3618   2.154   1.362  14.375 -0.6418 -0.2514  0.0060
  238MPD1    H5 3619   2.080   1.421  14.338 -1.1955 -1.9260 -1.5749
  238MPD1    N1 3620   2.639   1.271  14.356  0.9455 -0.3374 -0.8471
  238MPD1    H6 3621   2.720   1.323  14.322 -0.8374  2.5955 -0.5868
  238MPD1    H7 3622   2.645   1.257  14.457 -0.8321 -0.0477 -0.7167
  239MPD1     C 3623   2.215   2.068  15.116  0.5220  0.1680  0.0504
  239MPD1    C1 3624   2.325   2.096  15.035 -0.9939  0.3923  0.6054
  239MPD1    C2 3625   2.302   2.171  14.919  0.1917  0.2142 -0.1416
  239MPD1    C3 3626   2.170   2.199  14.881  0.2018  0.2842 -0.0161
  239MPD1    C4 3627   2.058   2.157  14.954 -0.2082 -0.4164 -0.2985
  239MPD1    C5 3628   2.084   2.098  15.077 -0.4892  0.4966 -1.0018
  239MPD1     H 3629   2.388   2.211  14.866 -1.3438  2.3226 -1.0811
  239MPD1    H1 3630   1.962   2.192  14.919 -0.1900 -1.2107 -1.1562
  239MPD1    H2 3631   2.228   2.012  15.208 -2.2261 -0.9886 -0.2568
  239MPD1    H3 3632   1.999   2.067  15.135 -1.3952  0.6620 -2.2494
  239MPD1     N 3633   2.142   2.268  14.763 -0.2912 -0.2095 -0.0525
  239MPD1    H5 3634   2.048   2.300  14.746  0.2553  0.3287 -2.1442
  239MPD1    N1 3635   2.455   2.085  15.089 -0.1685 -0.1249  0.0868
  239MPD1    H6 3636   2.524   2.090  15.014  0.9476  2.1358  1.2801
  239MPD1    H7 3637   2.478   2.014  15.159  1.1371  1.0439  0.8411
  240MPD1     C 3638   1.484   2.152  13.715 -0.2195 -0.1458  0.1966
  240MPD1    C1 3639   1.357   2.129  13.757 -0.4891 -0.3803 -0.6946
  240MPD1    C2 3640   1.345   2.071  13.885 -0.2012 -0.3770 -0.4462
  240MPD1    C3 3641   1.446   2.071  13.982 -0.2575 -0.3886 -1.0706
  240MPD1    C4 3642   1.574   2.106  13.936  0.1008 -0.5624 -0.0927
  240MPD1    C5 3643   1.591   2.138  13.804 -0.5540  0.1281 -0.0246
  240MPD1     H 3644   1.253   2.032  13.926  0.4442  0.5602  1.9506
  240MPD1    H1 3645   1.659   2.109  14.003 -0.1856  0.3237  0.2300
  240MPD1    H2 3646   1.502   2.190  13.614 -0.5744 -0.1443  0.1345
  240MPD1    H3 3647   1.686   2.179  13.770 -1.1521  0.9628 -0.6957
  240MPD1     N 3648   1.423   2.007  14.103 -0.1106 -0.3317 -0.5468
  240MPD1    H5 3649   1.337   1.955  14.117 -0.0778 -0.3207 -0.3032
  240MPD1    N1 3650   1.245   2.119  13.675 -0.5978 -0.4727  0.1862
  240MPD1    H6 3651   1.157   2.143  13.721 -0.6264  1.6687 -0.9917
  240MPD1    H7 3652   1.256   2.176  13.592  0.4214  1.8080  1.8760
  241MPD1     C 3653   1.936   1.560  14.952  0.1864  0.0177 -0.2183
  241MPD1    C1 3654   1.988   1.600  14.832 -0.4030 -0.3797 -0.8111
  241MPD1    C2 3655   1.905   1.620  14.722 -0.6339 -0.1082  1.0844
  241MPD1    C3 3656   1.769   1.598  14.734  0.2975 -0.1778 -0.4938
  241MPD1    C4 3657   1.724   1.560  14.859  0.5702 -0.7994  0.5873
  241MPD1    C5 3658   1.805   1.543  14.966  0.2790  0.6537 -0.0523
  241MPD1     H 3659   1.941   1.660  14.628 -1.4317  1.8318  1.6177
  241MPD1    H1 3660   1.616   1.549  14.867  0.5368 -0.6854  0.2816
  241MPD1    H2 3661   2.013   1.552  15.029 -0.4097  0.4611  0.4222
  241MPD1    H3 3662   1.759   1.529  15.063  1.5859  1.8136  0.7477
  241MPD1     N 3663   1.677   1.641  14.634 -0.4541 -0.9979  0.0343
  241MPD1    H5 3664   1.580   1.641  14.663 -0.2168  0.6053  0.8426
  241MPD1    N1 3665   2.128   1.593  14.811 -0.0267 -0.3562 -0.0190
  241MPD1    H6 3666   2.158   1.653  14.734 -0.8906 -1.8676 -1.5233
  241MPD1    H7 3667   2.187   1.621  14.889  1.5372 -1.0474 -0.9431
  242MPD1     C 3668   1.269   0.149  15.914 -0.0346  0.1048  0.4030
  242MPD1    C1 3669   1.279   0.261  15.837 -0.1520  0.5533  0.2186
  242MPD1    C2 3670   1.303   0.245  15.695 -0.6263 -0.4869 -0.9306
  242MPD1    C3 3671   1.310   0.118  15.644  0.6862  0.4916  0.4748
  242MPD1    C4 3672   1.307   0.009  15.723 -1.0381  0.2120 -0.2460
  242MPD1    C5 3673   1.294   0.027  15.859  0.3487 -0.6214 -0.1111
  242MPD1     H 3674   1.322   0.336  15.640 -2.6563  0.9517  0.6948
  242MPD1    H1 3675   1.307   4.634  15.677 -1.0120 -0.6408  1.5611
  242MPD1    H2 3676   1.263   0.157  16.022  0.8843  1.0409  0.3747
  242MPD1    H3 3677   1.310   4.661  15.920 -0.6232 -0.6884  0.0376
  242MPD1     N 3678   1.334   0.103  15.514 -0.2091 -0.0129  0.0099
  242MPD1    H5 3679   1.355   0.007  15.488  0.5445  0.4246 -0.9839
  242MPD1    N1 3680   1.308   0.384  15.898  0.2752 -0.4320 -0.4971
  242MPD1    H6 3681   1.246   0.396  15.978  0.9175  0.2421 -0.1019
  242MPD1    H7 3682   1.290   0.458  15.831 -1.0831 -1.2820 -1.0638
  243MPD1     C 3683   3.954   2.989   0.180  0.5513  0.8392  0.0999
  243MPD1    C1 3684   3.849   2.903   0.153 -0.2677 -0.1632 -0.2809
  243MPD1    C2 3685   3.746   2.936   0.061 -0.0808 -0.5567 -0.2262
  243MPD1    C3 3686   3.767   3.045  17.676 -0.2072 -0.6213  0.3868
  243MPD1    C4 3687   3.866   3.140   0.013  0.4611 -0.5331  0.2202
  243MPD1    C5 3688   3.954   3.109   0.111  0.4942 -0.2372  0.2285
  243MPD1     H 3689   3.659   2.875   0.039 -0.6957  0.3165 -0.2125
  243MPD1    H1 3690   3.875   3.234  17.652  1.0440 -0.6238  0.1569
  243MPD1    H2 3691   4.032   2.962   0.250  2.3907 -1.2376 -2.7003
  243MPD1    H3 3692   4.033   3.181   0.128  1.3293 -0.8564 -1.0329
  243MPD1     N 3693   3.665   3.076  17.582 -0.6748  0.2641 -0.4101
  243MPD1    H5 3694   3.588   3.011  17.575 -0.6464  0.1716  0.1100
  243MPD1    N1 3695   3.834   2.792   0.239 -0.1626 -0.2013 -0.4374
  243MPD1    H6 3696   3.924   2.754   0.267  0.6153  1.8599 -0.1070
  243MPD1    H7 3697   3.787   2.719   0.186 -0.4899  0.5249 -1.1442
  244MPD1     C 3698   2.936   2.979   0.177  0.2107 -0.5661 -0.2795
  244MPD1    C1 3699   3.042   2.891   0.166  0.0723 -0.1596  0.6906
  244MPD1    C2 3700   3.141   2.927   0.077  0.3447  0.1702 -0.2902
  244MPD1    C3 3701   3.116   3.018  17.667 -0.3357 -1.3960  0.6732
  244MPD1    C4 3702   2.992   3.086  17.669 -0.1348  0.3340  0.2831
  244MPD1    C5 3703   2.901   3.067   0.080 -0.1116 -0.2304 -0.1086
  244MPD1     H 3704   3.226   2.860   0.066  0.3491  0.2610 -0.8315
  244MPD1    H1 3705   2.961   3.152  17.588 -0.9029  0.7217  0.8972
  244MPD1    H2 3706   2.859   2.970   0.253  0.5796 -0.9400  0.0494
  244MPD1    H3 3707   2.809   3.123   0.087  1.4691  2.8305 -3.6121
  244MPD1     N 3708   3.211   3.035  17.567  0.3561 -0.4491  0.6564
  244MPD1    H5 3709   3.305   3.002  17.587  0.5256  0.2947  1.1012
  244MPD1    N1 3710   3.066   2.794   0.266  0.8817 -0.4099 -0.1881
  244MPD1    H6 3711   2.983   2.767   0.319 -0.1296  3.4008  0.1646
  244MPD1    H7 3712   3.126   2.718   0.236  0.7569 -0.1717 -1.0490
  245MPD1     C 3713   4.470   4.437  13.130  0.1674 -0.2127 -0.2636
  245MPD1    C1 3714   4.478   4.428  13.265  0.1500 -0.2731  1.2838
  245MPD1    C2 3715   4.545   4.522  13.341  0.9206 -0.1087  0.6657
  245MPD1    C3 3716   4.606   4.634  13.283  0.0945 -0.1813 -0.5018
  245MPD1    C4 3717   4.597   4.634  13.148  0.6634 -0.0910 -0.0182
  245MPD1    C5 3718   4.539   4.538  13.067 -1.1474  0.2381  0.6363
  245MPD1     H 3719   4.536   4.506  13.447 -2.2082  2.2944  0.7667
  245MPD1    H1 3720   4.656   4.710  13.096 -2.2721  1.3260 -1.2974
  245MPD1    H2 3721   4.428   4.361  13.066 -1.5555 -0.4502  1.1534
  245MPD1    H3 3722   4.535   4.549  12.959  2.3481  1.7974  0.6429
  245MPD1     N 3723   4.693   4.716  13.361 -0.1176  0.4727  0.0412
  245MPD1    H5 3724   4.709   4.698  13.459  0.4320  1.8272  0.1989
  245MPD1    N1 3725   4.429   4.313  13.327  0.0624  0.3967 -0.3879
  245MPD1    H6 3726   4.367   4.258  13.267  2.5821 -0.9314 -1.7453
  245MPD1    H7 3727   4.396   4.323  13.422  1.4557 -2.1680  0.3420
  246MPD1     C 3728   1.017   4.073  10.843  0.3655 -0.2099  0.2084
  246MPD1    C1 3729   1.016   3.935  10.825  0.8113  0.2188  0.1138
  246MPD1    C2 3730   0.934   3.894  10.720  0.2707 -0.1340  0.1457
  246MPD1    C3 3731   0.868   3.982  10.636 -0.8591 -0.0807  0.7821
  246MPD1    C4 3732   0.861   4.118  10.668  0.2189 -0.7965 -0.5640
  246MPD1    C5 3733   0.943   4.155  10.770 -0.3518  1.2392 -0.8781
  246MPD1     H 3734   0.935   3.787  10.705  1.2701 -0.0763 -0.2303
  246MPD1    H1 3735   0.816   4.181  10.593 -3.1154 -1.7716  0.6250
  246MPD1    H2 3736   1.076   4.126  10.916  0.1917 -1.7260  1.4485
  246MPD1    H3 3737   0.964   4.260  10.786 -1.4274  0.9244  2.4269
  246MPD1     N 3738   0.796   3.931  10.523 -0.4664  1.1969 -0.0799
  246MPD1    H5 3739   0.817   3.833  10.506 -2.5095  0.3341  2.2913
  246MPD1    N1 3740   1.082   3.844  10.912  0.0059  0.1029 -0.3366
  246MPD1    H6 3741   1.144   3.897  10.972  0.5524 -1.0363  0.1096
  246MPD1    H7 3742   1.145   3.779  10.866 -2.0872 -0.7816 -1.9829
  247MPD1     C 3743   4.161   4.594  17.019  0.1586 -0.1733 -0.0129
  247MPD1    C1 3744   4.196   4.632  16.886  0.2616 -0.1020 -0.1540
  247MPD1    C2 3745   4.230   4.522  16.809  0.4577 -0.1020 -0.7696
  247MPD1    C3 3746   4.228   4.386  16.845  0.1540 -0.4941  0.1041
  247MPD1    C4 3747   4.195   4.362  16.977 -0.6629 -0.4534  0.6614
  247MPD1    C5 3748   4.164   4.463  17.058 -0.4732 -0.8033 -0.6376
  247MPD1     H 3749   4.253   4.551  16.707 -0.1711 -1.7017 -1.3724
  247MPD1    H1 3750   4.194   4.266  17.026  3.6989 -1.2910 -0.8934
  247MPD1    H2 3751   4.123   4.671  17.085 -1.0304 -0.3063 -0.5404
  247MPD1    H3 3752   4.136   4.435  17.159  0.3502 -1.5490 -0.6119
  247MPD1     N 3753   4.243   4.276  16.756  0.0356 -0.2125 -0.8970
  247MPD1    H5 3754   4.223   4.186  16.799  1.4789  0.7913  1.8851
  247MPD1    N1 3755   4.168   0.038  16.835  0.6252  0.9616  0.7518
  247MPD1    H6 3756   4.239   0.062  16.767  0.8272 -0.9557  0.2870
  247MPD1    H7 3757   4.172   0.109  16.908  0.4185  1.5546  0.1773
  248MPD1     C 3758   0.603   2.471   0.301  0.6116 -0.0379 -0.5784
  248MPD1    C1 3759   0.483   2.446   0.356 -0.3586 -0.0533 -0.5905
  248MPD1    C2 3760   0.425   2.548   0.427  0.9183 -0.2818 -0.2661
  248MPD1    C3 3761   0.452   2.684   0.403 -0.5753 -0.9506 -0.5506
  248MPD1    C4 3762   0.574   2.711   0.341 -0.0870  0.6346 -0.4766
  248MPD1    C5 3763   0.646   2.603   0.294  0.1299  1.0361 -0.6550
  248MPD1     H 3764   0.342   2.537   0.496 -1.1787 -1.1498 -2.9109
  248MPD1    H1 3765   0.611   2.810   0.318 -3.1557  2.4057  2.3240
  248MPD1    H2 3766   0.666   2.392   0.260  0.6325 -0.0670 -0.4895
  248MPD1    H3 3767   0.739   2.623   0.241  1.8392 -0.3673  1.7999
  248MPD1     N 3768   0.376   2.777   0.474  0.3856  1.0259  0.5102
  248MPD1    H5 3769   0.306   2.734   0.533  1.0769  1.1054  1.3942
  248MPD1    N1 3770   0.450   2.309   0.381  0.3381  0.3771 -0.3621
  248MPD1    H6 3771   0.352   2.305   0.410  0.6522  1.6469  0.8712
  248MPD1    H7 3772   0.470   2.247   0.303  0.7005  0.0114  0.0204
  249MPD1     C 3773   1.775   2.092  10.194  0.8307  0.2212  0.0565
  249MPD1    C1 3774   1.826   2.116  10.074  0.6443  0.2163 -0.1443
  249MPD1    C2 3775   1.884   2.246  10.053  0.8277 -0.0396 -0.5647
  249MPD1    C3 3776   1.862   2.346  10.151  0.3934  0.0703  0.2725
  249MPD1    C4 3777   1.812   2.314  10.277  0.4873  0.1535 -0.3365
  249MPD1    C5 3778   1.771   2.183  10.294  0.4901  0.0327 -0.9535
  249MPD1     H 3779   1.930   2.270   9.958  1.1769 -1.9803 -0.8884
  249MPD1    H1 3780   1.811   2.377  10.365 -1.5758  1.1961 -1.0917
  249MPD1    H2 3781   1.739   1.993  10.221 -1.5972  1.2863  0.7883
  249MPD1    H3 3782   1.733   2.160  10.394  0.4007  1.5251 -0.6387
  249MPD1     N 3783   1.902   2.479  10.127 -0.2449  0.4226 -0.0123
  249MPD1    H5 3784   1.939   2.503  10.035  0.5639 -1.8740 -0.3044
  249MPD1    N1 3785   1.834   2.011   9.984 -0.0824 -0.4183  0.5948
  249MPD1    H6 3786   1.762   1.943  10.007 -0.5476  0.4784  1.7410
  249MPD1    H7 3787   1.812   2.050   9.892  1.6773  0.7531  0.6672
  250MPD2     C 3788   3.385   2.307  12.730  0.0425 -0.0630 -0.1541
  250MPD2    C1 3789   3.281   2.394  12.696  0.3279 -0.2147  0.7781
  250MPD2    C2 3790   3.189   2.352  12.598  0.3090  0.5668 -0.0191
  250MPD2    C3 3791   3.185   2.217  12.555 -0.5072 -0.4604 -0.8626
  250MPD2    C4 3792   3.288   2.135  12.595 -0.0816  0.5047 -0.0368
  250MPD2    C5 3793   3.389   2.185  12.672  0.6647 -0.1955 -0.4307
  250MPD2     H 3794   3.108   2.418  12.569  0.0735 -0.2596 -1.2319
  250MPD2    H1 3795   3.296   2.033  12.559 -0.0125  0.6717 -0.4979
  250MPD2    H2 3796   3.461   2.333  12.802  1.0437 -1.4893 -0.6936
  250MPD2    H3 3797   3.470   2.116  12.692 -0.3324 -0.7713  1.6523
  250MPD2     N 3798   3.087   2.168  12.471  0.0911  0.1092  0.5714
  250MPD2    H5 3799   3.077   2.067  12.463 -2.0526  0.2847  1.1263
  250MPD2    N1 3800   3.278   2.530  12.741 -0.2741 -0.4862  0.1202
  250MPD2    H7 3801   3.365   2.560  12.784 -0.3824 -1.2325  0.8560
  251TMC3    C1 3802   3.179   2.736  12.801  0.6004  0.6818  0.1195
  251TMC3    C2 3803   3.068   2.801  12.852 -0.1476 -0.1911 -0.1352
  251TMC3    C3 3804   3.094   2.910  12.919 -0.2781  0.1295 -0.3854
  251TMC3    C4 3805   3.306   2.773  12.820  0.2906  0.0149 -0.4824
  251TMC3    C5 3806   3.325   2.883  12.904 -0.1550 -0.5138 -0.6835
  251TMC3    C6 3807   3.218   2.954  12.946  0.0555  0.0289  0.1411
  251TMC3     C 3808   3.163   2.608  12.740  0.0706 -0.1842  0.1605
  251TMC3     O 3809   3.046   2.574  12.725 -0.3595 -0.1745 -0.1004
  251TMC3     H 3810   2.973   2.749  12.855 -0.3583  0.0650 -2.1116
  251TMC3    H1 3811   3.398   2.744  12.770  1.5214  2.4616  0.3676
  251TMC3    H2 3812   3.234   3.027  13.025  0.6864  0.4671 -0.4001
  251TMC3    C7 3813   3.463   2.927  12.933  0.0640  0.7557 -0.3660
  251TMC3    C8 3814   2.994   2.961  13.009  0.3507 -0.7716 -0.3525
  251TMC3    O1 3815   3.552   2.848  12.919  0.2941  0.6007  0.1057
  251TMC3    O2 3816   3.020   3.015  13.114 -0.2156  0.0798  0.2473
  252TMC3    C1 3817   3.377   4.538   9.159  0.5880 -0.0735  0.0618
  252TMC3    C2 3818   3.501   4.585   9.191 -0.2138 -0.2000  0.1195
  252TMC3    C3 3819   3.588   4.505   9.264  0.3447 -0.4143 -0.8546
  252TMC3    C4 3820   3.338   4.413   9.201 -0.3036  0.2640 -0.9115
  252TMC3    C5 3821   3.429   4.329   9.262 -0.2443 -0.2833 -0.1709
  252TMC3    C6 3822   3.554   4.378   9.306  0.8096  0.0200  0.5922
  252TMC3     C 3823   3.280   4.633   9.113 -0.0544  1.1410  0.9472
  252TMC3     O 3824   3.316   0.027   9.105 -0.3747  0.3006 -0.3520
  252TMC3     H 3825   3.539   4.678   9.150 -0.0281  0.0824  0.9295
  252TMC3    H1 3826   3.236   4.380   9.184 -0.8442  1.3204  0.3196
  252TMC3    H2 3827   3.621   4.322   9.370  0.6873  1.2163  1.7634
  252TMC3    C7 3828   3.380   4.207   9.314 -0.1482  0.4459  0.1594
  252TMC3    C8 3829   3.724   4.547   9.294  0.1482  0.0468  0.5704
  252TMC3    O1 3830   3.264   4.187   9.297  0.5553 -0.0827  0.0849
  252TMC3    O2 3831   3.774   4.612   9.204  0.0941 -0.2589  0.7725
  253MPD2     C 3832   4.455   2.667  15.306 -0.1388  0.5275 -0.1963
  253MPD2    C1 3833   4.322   2.642  15.290  0.2302 -0.3260 -0.3237
  253MPD2    C2 3834   4.231   2.606  15.390  0.1722  0.3470  0.1827
  253MPD2    C3 3835   4.272   2.600  15.523  0.2157 -0.2162 -0.1283
  253MPD2    C4 3836   4.407   2.619  15.541 -0.2200 -0.6077  0.8211
  253MPD2    C5 3837   4.487   2.661  15.431  0.1404  0.5017  0.1781
  253MPD2     H 3838   4.127   2.592  15.359 -0.0003  1.1823  0.3794
  253MPD2    H1 3839   4.445   2.631  15.642 -0.8308 -0.4406  1.0287
  253MPD2    H2 3840   4.524   2.700  15.229 -1.0263  1.0527 -0.7670
  253MPD2    H3 3841   4.591   2.684  15.452  0.6345  1.1498 -3.0703
  253MPD2     N 3842   4.184   2.591  15.631  0.2962 -0.2511 -0.2970
  253MPD2    H5 3843   4.219   2.571  15.724 -1.2283 -0.5837  0.2046
  253MPD2    N1 3844   4.262   2.638  15.161  0.0823 -0.0392 -0.5257
  253MPD2    H7 3845   4.175   2.588  15.149  1.2623 -1.8879 -1.2456
  254TMC3    C1 3846   3.982   2.602  15.745 -0.3771  0.4545  0.1534
  254TMC3    C2 3847   3.879   2.687  15.759  0.7107 -0.4699  0.3816
  254TMC3    C3 3848   3.778   2.647  15.842  0.2266  0.4153 -0.2745
  254TMC3    C4 3849   4.006   2.489  15.817 -0.5273 -0.3901  0.1817
  254TMC3    C5 3850   3.900   2.446  15.892  0.7419  0.3976  0.2334
  254TMC3    C6 3851   3.785   2.522  15.902 -0.6596  0.2979 -0.7373
  254TMC3     C 3852   4.048   2.620  15.622 -0.2214 -0.0540 -0.3245
  254TMC3     O 3853   3.987   2.672  15.530 -0.1923  0.3975  0.1007
  254TMC3     H 3854   3.875   2.771  15.691  4.0033  0.5236  1.4331
  254TMC3    H1 3855   4.090   2.423  15.799 -1.1988 -1.0936 -0.3296
  254TMC3    H2 3856   3.713   2.494  15.978  0.5000 -0.7578 -0.0236
  254TMC3    C7 3857   3.942   2.396  16.017  0.1350  0.2006 -0.9234
  254TMC3    C8 3858   3.740   2.755  15.933 -0.3569  0.8798 -0.5785
  254TMC3    O1 3859   3.905   2.450  16.124 -0.4219 -0.5165 -0.4565
  254TMC3    O2 3860   3.637   2.734  15.994  0.6892  0.2457  0.2184
  255MPD2     C 3861   2.878   0.986  10.611  0.5817  0.0890  0.7847
  255MPD2    C1 3862   2.871   0.998  10.475 -0.0329 -0.3931 -0.4148
  255MPD2    C2 3863   2.955   0.922  10.395 -0.0268 -0.4822  0.2985
  255MPD2    C3 3864   3.029   0.824  10.456  0.5727  0.3775 -0.3681
  255MPD2    C4 3865   3.027   0.806  10.592  0.0123 -0.8156 -0.0502
  255MPD2    C5 3866   2.954   0.888  10.662  0.0511 -0.4303 -0.3993
  255MPD2     H 3867   2.959   0.924  10.287  1.5881  0.8153  0.3744
  255MPD2    H1 3868   3.100   0.747  10.646 -1.8449 -1.6953  1.5156
  255MPD2    H2 3869   2.815   1.042  10.679 -1.0407 -1.8224  0.8627
  255MPD2    H3 3870   2.973   0.870  10.767 -2.2369 -2.7212 -0.3928
  255MPD2     N 3871   3.101   0.738  10.374 -0.5339 -0.3341 -0.0176
  255MPD2    H5 3872   3.095   0.754  10.274 -0.4415  1.7254  0.3039
  255MPD2    N1 3873   2.786   1.096  10.426 -0.6401 -0.0467  0.0713
  255MPD2    H7 3874   2.716   1.131  10.491  0.3458  1.3239  0.3780
  256TMC3    C1 3875   2.673   1.240  10.274 -0.6056  0.3041 -0.7636
  256TMC3    C2 3876   2.692   1.339  10.176 -0.1678 -0.4122  0.5300
  256TMC3    C3 3877   2.595   1.430  10.139  0.4484 -0.1606  0.3133
  256TMC3    C4 3878   2.554   1.213  10.330 -0.3740  0.1329 -0.1937
  256TMC3    C5 3879   2.454   1.301  10.280  0.0214 -0.6314 -0.0726
  256TMC3    C6 3880   2.471   1.408  10.192 -0.3047 -0.0151 -0.2806
  256TMC3     C 3881   2.782   1.144  10.299 -0.5454  0.2199  0.8765
  256TMC3     O 3882   2.865   1.132  10.204  0.2995 -0.0588 -0.6106
  256TMC3     H 3883   2.796   1.364  10.156 -0.8382  1.4237 -0.6904
  256TMC3    H1 3884   2.536   1.133  10.400  0.1511  1.8196  1.8764
  256TMC3    H2 3885   2.389   1.470  10.157 -0.8336  0.1877  1.2875
  256TMC3    C7 3886   2.335   1.228  10.242 -0.6738  0.4125 -0.5469
  256TMC3    C8 3887   2.637   1.564  10.101 -0.2493  0.0736 -0.2180
  256TMC3    O1 3888   2.321   1.227  10.120 -0.1058  0.5588 -0.0439
  256TMC3    O2 3889   2.560   1.656  10.119  0.1262 -0.0365  0.4423
  257MPD2     C 3890   2.022   2.957  13.078  0.0706  0.5800 -0.5758
  257MPD2    C1 3891   1.937   2.858  13.030 -0.3761 -0.3976  0.0802
  257MPD2    C2 3892   1.926   2.738  13.095 -0.1426  0.1043 -0.1507
  257MPD2    C3 3893   1.992   2.710  13.207 -0.0739  0.2433 -0.2319
  257MPD2    C4 3894   2.077   2.810  13.259  0.5414  0.1328  0.2995
  257MPD2    C5 3895   2.097   2.929  13.190 -0.8966  0.1463  0.0529
  257MPD2     H 3896   1.860   2.660  13.058 -2.0844  0.8787  1.7066
  257MPD2    H1 3897   2.140   2.797  13.347  0.2929 -0.1855  0.4328
  257MPD2    H2 3898   2.040   3.053  13.031  3.1808  0.6373  0.7279
  257MPD2    H3 3899   2.155   3.014  13.224 -1.7071  1.0469 -0.8492
  257MPD2     N 3900   1.967   2.588  13.275 -0.2625  0.3122 -0.0698
  257MPD2    H5 3901   1.898   2.527  13.233  1.2872 -2.2807  1.1478
  257MPD2    N1 3902   1.865   2.884  12.906  0.2627 -0.0036  0.4961
  257MPD2    H7 3903   1.907   2.957  12.850 -0.1840 -0.9043 -1.0167
  258TMC3    C1 3904   1.990   2.423  13.432  0.2457 -0.2914 -0.6325
  258TMC3    C2 3905   1.975   2.331  13.328  0.0880 -0.2962  0.2968
  258TMC3    C3 3906   1.993   2.198  13.357  0.3583  0.2320 -0.1989
  258TMC3    C4 3907   2.027   2.383  13.561  1.0223  0.4854 -0.0489
  258TMC3    C5 3908   2.047   2.249  13.585 -0.0971  0.2525  0.3611
  258TMC3    C6 3909   2.027   2.161  13.480  0.3332 -0.2478  0.2534
  258TMC3     C 3910   2.013   2.557  13.402 -0.0690  0.1795 -0.2976
  258TMC3     O 3911   2.068   2.634  13.483 -0.4989  0.2181  0.1801
  258TMC3     H 3912   1.961   2.358  13.224  2.6584  4.2907  1.1056
  258TMC3    H1 3913   2.017   2.448  13.647  1.1197  0.8290 -0.2989
  258TMC3    H2 3914   2.037   2.055  13.500 -0.2699  0.0373  2.0765
  258TMC3    C7 3915   2.002   2.217  13.725  0.7880  0.0345  0.4947
  258TMC3    C8 3916   1.991   2.110  13.243  0.0460 -0.1372  0.6084
  258TMC3    O1 3917   1.909   2.278  13.776 -0.0897  0.4363  0.1462
  258TMC3    O2 3918   1.915   2.138  13.152 -0.0360 -0.1692  0.1824
  259MPD2     C 3919   0.353   4.056   0.932  0.2752 -0.1811  0.0975
  259MPD2    C1 3920   0.441   3.961   0.979  0.5783  0.4214  0.1261
  259MPD2    C2 3921   0.542   3.912   0.897  0.2714 -0.4929  0.6343
  259MPD2    C3 3922   0.562   3.965   0.770 -0.9633 -0.0959  0.0246
  259MPD2    C4 3923   0.469   4.055   0.723  0.3470  0.3140  0.0589
  259MPD2    C5 3924   0.368   4.098   0.804  0.4532 -0.3659  0.5749
  259MPD2     H 3925   0.596   3.821   0.921 -0.4660 -1.1012  0.0051
  259MPD2    H1 3926   0.472   4.082   0.618 -1.4616 -0.0553 -0.0814
  259MPD2    H2 3927   0.277   4.083   1.005 -0.8418 -2.2446 -0.3107
  259MPD2    H3 3928   0.298   4.175   0.774  1.3955 -0.3028 -1.4790
  259MPD2     N 3929   0.668   3.921   0.687  0.9012  0.9880 -0.0667
  259MPD2    H5 3930   0.721   3.841   0.721 -0.9757 -0.2177  0.0124
  259MPD2    N1 3931   0.422   3.908   1.110 -0.5096  0.4091 -0.0507
  259MPD2    H7 3932   0.334   3.931   1.155 -1.3302 -0.1262 -1.3811
  260TMC3    C1 3933   0.843   3.939   0.538 -0.1249  0.5767 -0.1459
  260TMC3    C2 3934   0.940   4.029   0.510  0.6222  0.3550  0.4118
  260TMC3    C3 3935   1.066   3.976   0.512 -0.4332 -0.0103  0.2970
  260TMC3    C4 3936   0.867   3.806   0.562  0.3673 -0.0768 -0.1623
  260TMC3    C5 3937   0.990   3.756   0.540 -0.3390  0.0715 -0.1459
  260TMC3    C6 3938   1.091   3.840   0.515  0.0697 -0.2125  0.1067
  260TMC3     C 3939   0.726   4.001   0.591 -0.1790 -0.1715  0.0311
  260TMC3     O 3940   0.703   4.114   0.558 -0.1740 -0.1637  0.3310
  260TMC3     H 3941   0.918   4.133   0.492  1.1086  0.1950 -1.1084
  260TMC3    H1 3942   0.784   3.737   0.555 -0.5028  0.8257  1.2786
  260TMC3    H2 3943   1.194   3.806   0.510  0.0036 -0.5029  0.7140
  260TMC3    C7 3944   1.009   3.620   0.501 -0.6378 -0.1199 -0.1834
  260TMC3    C8 3945   1.174   4.081   0.516 -0.5712 -0.4090 -0.5760
  260TMC3    O1 3946   1.088   3.604   0.406 -0.3887  0.1669 -0.5052
  260TMC3    O2 3947   1.134   4.196   0.493 -0.7857  0.3704  0.1419
  261MPD2     C 3948   2.567   2.683  12.225 -0.2772 -0.1164  0.1289
  261MPD2    C1 3949   2.621   2.602  12.130 -0.2753 -0.3510 -0.7685
  261MPD2    C2 3950   2.661   2.651  12.008 -0.0832  0.1820  0.0856
  261MPD2    C3 3951   2.626   2.786  11.972 -0.4180  0.6608 -0.0886
  261MPD2    C4 3952   2.547   2.855  12.066 -0.3360 -0.0078  0.5967
  261MPD2    C5 3953   2.531   2.808  12.192 -0.1541 -0.1621 -0.6628
  261MPD2     H 3954   2.712   2.582  11.942  0.7084  1.6077 -0.8057
  261MPD2    H1 3955   2.521   2.959  12.050  1.1980  0.2696 -0.0797
  261MPD2    H2 3956   2.557   2.652  12.328 -0.5000 -1.1392 -0.2027
  261MPD2    H3 3957   2.487   2.877  12.262 -1.5571  1.4055 -3.0777
  261MPD2     N 3958   2.671   2.839  11.847  0.0486 -0.3233  0.1040
  261MPD2    H5 3959   2.726   2.777  11.789 -0.5446 -0.3810 -0.3970
  261MPD2    N1 3960   2.656   2.467  12.147 -0.0596  0.2781  0.0358
  261MPD2    H7 3961   2.715   2.413  12.084  0.3929  0.2633  0.4817
  262TMC3    C1 3962   2.715   2.986  11.676  0.1079 -0.6755 -0.4796
  262TMC3    C2 3963   2.681   3.106  11.614 -0.1951  0.1859  0.2821
  262TMC3    C3 3964   2.742   3.130  11.499 -0.4013  0.1923 -0.5103
  262TMC3    C4 3965   2.787   2.889  11.613  0.0495  0.0494  0.8260
  262TMC3    C5 3966   2.845   2.925  11.492 -0.0948 -0.0541  0.5986
  262TMC3    C6 3967   2.829   3.048  11.433  0.0194  0.7541 -0.4892
  262TMC3     C 3968   2.644   2.962  11.803  0.1343 -0.0759  0.0444
  262TMC3     O 3969   2.560   3.045  11.843  0.2064  0.0458  0.0958
  262TMC3     H 3970   2.606   3.172  11.657 -2.6796 -0.7911 -2.5793
  262TMC3    H1 3971   2.794   2.784  11.641 -1.3060  0.0037  0.9634
  262TMC3    H2 3972   2.870   3.085  11.339 -1.5480 -0.4111 -1.6263
  262TMC3    C7 3973   2.969   2.858  11.461  0.0935  0.5425 -0.5151
  262TMC3    C8 3974   2.734   3.265  11.446 -0.6232 -0.0040 -0.0009
  262TMC3    O1 3975   2.993   2.748  11.507 -0.0328 -0.4998  0.3082
  262TMC3    O2 3976   2.788   3.350  11.517 -0.1123 -0.2671 -0.0369
  263MPD2     C 3977   3.526   2.008  11.013 -0.1697  0.1817 -0.0273
  263MPD2    C1 3978   3.597   2.131  11.022  0.0382 -0.4120  0.6059
  263MPD2    C2 3979   3.590   2.227  10.919 -0.1244 -0.1389 -0.0297
  263MPD2    C3 3980   3.520   2.191  10.801 -0.1821  0.2306 -0.4453
  263MPD2    C4 3981   3.456   2.065  10.793  0.0465 -0.0999 -0.2135
  263MPD2    C5 3982   3.449   1.982  10.903 -0.3758  1.0200 -0.1172
  263MPD2     H 3983   3.642   2.322  10.923  0.6704 -0.5725  0.0260
  263MPD2    H1 3984   3.400   2.038  10.704  1.2370  0.5946 -1.1810
  263MPD2    H2 3985   3.535   1.937  11.095 -1.2185  0.0582 -0.0253
  263MPD2    H3 3986   3.406   1.883  10.905  0.9661  0.4392  0.0518
  263MPD2     N 3987   3.529   2.279  10.696 -0.2049 -0.4063  0.2748
  263MPD2    H5 3988   3.566   2.369  10.726 -1.3158 -0.6439  2.3852
  263MPD2    N1 3989   3.669   2.146  11.144 -0.1096  0.1810 -0.0616
  263MPD2    H7 3990   3.659   2.074  11.215 -0.4660 -0.2403 -0.5376
  264TMC3    C1 3991   3.538   2.369  10.486  0.2421  0.4046  0.1822
  264TMC3    C2 3992   3.514   2.485  10.553  0.7387  0.1550  0.6343
  264TMC3    C3 3993   3.557   2.593  10.487  0.1888  0.6072 -0.5792
  264TMC3    C4 3994   3.607   2.360  10.369 -0.4510  0.5845 -0.3107
  264TMC3    C5 3995   3.652   2.472  10.314 -0.1287 -0.7135 -0.7433
  264TMC3    C6 3996   3.616   2.595  10.365  0.1701  0.5997  0.0843
  264TMC3     C 3997   3.510   2.254  10.563 -0.1114 -0.6514 -0.4588
  264TMC3     O 3998   3.504   2.142  10.509  0.4278  0.0755  0.3152
  264TMC3     H 3999   3.435   2.495  10.625  2.4467  1.3222  2.3382
  264TMC3    H1 4000   3.634   2.266  10.323 -0.1164  0.9230 -0.7916
  264TMC3    H2 4001   3.611   2.685  10.305 -1.3187 -0.5203 -1.4449
  264TMC3    C7 4002   3.786   2.462  10.275  0.6877 -0.4497 -0.7352
  264TMC3    C8 4003   3.610   2.703  10.558  0.3595  0.5077  0.1604
  264TMC3    O1 4004   3.825   2.361  10.223 -0.3023 -0.5893 -0.3978
  264TMC3    O2 4005   3.688   2.769  10.491  0.4602  0.6071 -0.3317
  265MPD2     C 4006   1.080   2.195  15.746 -0.1957 -0.0955  0.2622
  265MPD2    C1 4007   1.066   2.308  15.679 -0.2101 -0.9912 -0.5741
  265MPD2    C2 4008   1.102   2.315  15.551 -0.1164 -0.4842  0.8615
  265MPD2    C3 4009   1.147   2.208  15.480 -0.0015 -0.6710 -0.0149
  265MPD2    C4 4010   1.181   2.095  15.558 -0.2370 -0.0875  0.7595
  265MPD2    C5 4011   1.146   2.088  15.690  0.1386  0.1268  0.7463
  265MPD2     H 4012   1.085   2.406  15.494 -2.0831 -0.4383  1.5312
  265MPD2    H1 4013   1.233   2.008  15.521 -0.3201  0.6192 -1.0297
  265MPD2    H2 4014   1.041   2.174  15.845 -1.2799  2.1039  0.2917
  265MPD2    H3 4015   1.164   1.996  15.744 -1.5498 -0.8172 -0.3406
  265MPD2     N 4016   1.163   2.217  15.341  0.0685  0.7831  0.7522
  265MPD2    H5 4017   1.114   2.298  15.304 -0.5299 -0.3378 -0.8990
  265MPD2    N1 4018   1.019   2.423  15.750 -0.5332 -0.2660  0.5055
  265MPD2    H7 4019   1.022   2.512  15.703  0.1124 -1.1652 -1.1665
  266TMC3    C1 4020   0.949   2.555  15.920  0.1355 -0.3908  0.4461
  266TMC3    C2 4021   1.001   2.593  16.035 -0.6514 -0.5027  0.5557
  266TMC3    C3 4022   1.009   2.722  16.068  0.8610 -0.5531  0.4228
  266TMC3    C4 4023   0.913   2.648  15.826 -0.7957  0.4911 -0.3009
  266TMC3    C5 4024   0.930   2.777  15.859  0.4049 -0.9239 -0.4027
  266TMC3    C6 4025   0.977   2.817  15.978  0.1497  0.5220 -0.0947
  266TMC3     C 4026   0.969   2.419  15.876  0.3349 -0.3377 -0.2393
  266TMC3     O 4027   0.957   2.336  15.965  0.2957 -0.4999 -0.2782
  266TMC3     H 4028   1.039   2.516  16.100 -0.5044 -1.1888 -0.3478
  266TMC3    H1 4029   0.866   2.614  15.734  2.4932 -1.5567 -1.2240
  266TMC3    H2 4030   0.980   2.924  15.994 -1.5005  0.7035 -1.0695
  266TMC3    C7 4031   0.914   2.872  15.746 -0.4418  0.2507  0.1360
  266TMC3    C8 4032   1.089   2.742  16.191 -0.8011 -0.0191 -0.6248
  266TMC3    O1 4033   0.840   2.849  15.653 -0.4234 -0.2051 -0.3550
  266TMC3    O2 4034   1.172   2.659  16.223 -0.3904  0.5677 -0.2934
  267MPD2     C 4035   3.585   3.605  17.177  0.8852 -0.1960 -0.1937
  267MPD2    C1 4036   3.572   3.699  17.274  0.3496  0.1833 -0.1686
  267MPD2    C2 4037   3.470   3.786  17.262 -0.0519 -0.4944  0.1456
  267MPD2    C3 4038   3.369   3.762  17.171 -0.8688  0.4674  0.5778
  267MPD2    C4 4039   3.381   3.664  17.077  0.4502  0.0024  0.4849
  267MPD2    C5 4040   3.495   3.593  17.074  0.4810  0.6123  0.4881
  267MPD2     H 4041   3.450   3.853  17.345  1.6296  0.1809  0.0004
  267MPD2    H1 4042   3.317   3.661  16.990 -0.3402 -0.1077  1.0660
  267MPD2    H2 4043   3.668   3.536  17.182  1.6763  0.7139 -0.8604
  267MPD2    H3 4044   3.506   3.519  16.995 -0.2625  0.7502  0.2486
  267MPD2     N 4045   3.251   3.844  17.157 -0.3207  0.2585  0.3166
  267MPD2    H5 4046   3.188   3.808  17.086 -1.1414 -0.7008  1.5203
  267MPD2    N1 4047   3.669   3.701  17.378 -0.2088  0.7936 -0.4142
  267MPD2    H7 4048   3.738   3.627  17.372 -0.8963  0.2167 -1.1988
  268TMC3    C1 4049   3.788   3.785  17.571  0.4252 -0.1797 -0.0139
  268TMC3    C2 4050   3.852   3.903  17.583 -0.6423  0.8056  0.1825
  268TMC3    C3 4051   3.966   3.909  17.657  0.3726  0.5455 -0.2768
  268TMC3    C4 4052   3.837   3.667  17.614 -0.1182  0.4107 -0.0601
  268TMC3    C5 4053   3.955   3.680  17.683 -0.0948  0.0266 -0.1262
  268TMC3    C6 4054   4.023   3.794   0.011  0.2395  0.3815 -0.2674
  268TMC3     C 4055   3.664   3.783  17.489 -0.2834  0.0924  0.9724
  268TMC3     O 4056   3.588   3.875  17.514 -0.0409 -0.1981 -0.0530
  268TMC3     H 4057   3.793   3.990  17.556 -1.9299 -0.2812 -0.5141
  268TMC3    H1 4058   3.770   3.582  17.612  1.2670 -0.7171  1.4237
  268TMC3    H2 4059   4.114   3.798   0.070 -0.0541  0.8529  0.1564
  268TMC3    C7 4060   3.952   3.579   0.103  0.6717  1.0248  0.0892
  268TMC3    C8 4061   4.031   4.036  17.664 -0.4946 -0.3695 -0.5959
  268TMC3    O1 4062   3.861   3.502   0.120  0.0791  0.5999 -0.6335
  268TMC3    O2 4063   4.149   4.032  17.685  0.3578  0.6812  0.1520
  269MPD2     C 4064   3.636   2.867  15.577  0.0057 -0.1285 -0.2825
  269MPD2    C1 4065   3.515   2.905  15.633  0.6482 -0.4211  0.3785
  269MPD2    C2 4066   3.506   3.033  15.674  0.1979  0.4431 -0.1410
  269MPD2    C3 4067   3.606   3.131  15.642  0.2555 -0.3397 -0.0997
  269MPD2    C4 4068   3.726   3.092  15.582 -0.4748  0.2339 -0.1115
  269MPD2    C5 4069   3.735   2.963  15.552  0.5271  0.4667 -0.0552
  269MPD2     H 4070   3.426   3.059  15.743  0.7416  0.7994  0.3625
  269MPD2    H1 4071   3.814   3.150  15.561  1.2624 -2.0978  0.6706
  269MPD2    H2 4072   3.650   2.764  15.546 -1.5642 -0.0059 -1.4339
  269MPD2    H3 4073   3.828   2.920  15.516  0.1568 -1.4391  1.2468
  269MPD2     N 4074   3.588   3.263  15.700  0.0514 -0.0823 -0.2442
  269MPD2    H5 4075   3.506   3.259  15.759 -0.6791  2.7199 -1.0482
  269MPD2    N1 4076   3.428   2.809  15.674  0.3646 -0.6415  0.3840
  269MPD2    H7 4077   3.462   2.714  15.684  2.8940  0.0458 -1.8051
  270TMC3    C1 4078   3.244   2.727  15.799 -0.9467  0.1025  0.6334
  270TMC3    C2 4079   3.114   2.697  15.767 -0.3244  0.0888 -0.1834
  270TMC3    C3 4080   3.062   2.584  15.824 -0.3030 -0.3067  0.6435
  270TMC3    C4 4081   3.326   2.654  15.879 -0.4840 -0.5961  0.4879
  270TMC3    C5 4082   3.280   2.533  15.918 -0.5086  0.3789  0.1679
  270TMC3    C6 4083   3.146   2.505  15.899 -0.2186  0.4500 -0.0768
  270TMC3     C 4084   3.297   2.837  15.711  0.2915 -0.3373  0.4371
  270TMC3     O 4085   3.219   2.927  15.680 -0.3317 -0.2392 -0.0070
  270TMC3     H 4086   3.054   2.758  15.701 -1.5266  0.4003  1.1864
  270TMC3    H1 4087   3.432   2.677  15.881 -0.9454  1.4697  1.1052
  270TMC3    H2 4088   3.114   2.406  15.930  1.9055  0.2579  1.4808
  270TMC3    C7 4089   3.374   2.426  15.911  0.5540 -0.3640 -0.2295
  270TMC3    C8 4090   2.970   2.503  15.758  0.2427  0.8414 -0.0462
  270TMC3    O1 4091   3.469   2.453  15.841  0.0652  0.7136  0.1971
  270TMC3    O2 4092   2.897   2.435  15.824 -0.1947 -0.5540  0.0389
  271MPD2     C 4093   2.797   2.961  14.237  0.1911 -0.0597 -0.0343
  271MPD2    C1 4094   2.709   2.855  14.246  0.2868  0.5041  0.4191
  271MPD2    C2 4095   2.574   2.877  14.218  0.0765  0.5390 -0.0847
  271MPD2    C3 4096   2.526   3.001  14.177 -0.1376 -0.1328 -0.0124
  271MPD2    C4 4097   2.612   3.108  14.174  0.0551 -0.0505  0.0494
  271MPD2    C5 4098   2.747   3.090  14.205  0.0412  0.7473 -0.3670
  271MPD2     H 4099   2.509   2.790  14.215 -1.3308  1.5805  0.3926
  271MPD2    H1 4100   2.591   3.207  14.135  0.8312 -0.0661 -0.4093
  271MPD2    H2 4101   2.897   2.967  14.277 -0.1657 -0.7546  0.9584
  271MPD2    H3 4102   2.810   3.178  14.211 -0.0996  0.6423  2.7789
  271MPD2     N 4103   2.390   3.009  14.140  0.3735 -0.4202 -0.2827
  271MPD2    H5 4104   2.339   2.926  14.111 -1.4315 -0.0223  1.7214
  271MPD2    N1 4105   2.755   2.726  14.285  0.6156  0.1531  0.6387
  271MPD2    H7 4106   2.687   2.657  14.312 -0.2592  0.4369 -0.8085
  272TMC3    C1 4107   2.883   2.556  14.343  0.0369 -0.3280  0.4724
  272TMC3    C2 4108   2.962   2.461  14.281 -0.3438  0.4462  0.3992
  272TMC3    C3 4109   2.951   2.337  14.333  0.7108  0.1532 -0.4731
  272TMC3    C4 4110   2.806   2.528  14.453 -0.4896  0.0494 -0.0583
  272TMC3    C5 4111   2.796   2.400  14.496  0.0487 -0.3092  0.3207
  272TMC3    C6 4112   2.872   2.304  14.441 -0.2836 -0.0200 -0.3002
  272TMC3     C 4113   2.881   2.688  14.283  0.4556 -0.2040 -0.3558
  272TMC3     O 4114   2.978   2.749  14.244 -0.4433 -0.2661 -0.1878
  272TMC3     H 4115   3.032   2.490  14.204  0.1067  0.3934  0.7845
  272TMC3    H1 4116   2.756   2.611  14.502 -1.5956 -0.0703 -0.9865
  272TMC3    H2 4117   2.885   2.203  14.478 -1.4599 -0.6154 -1.5251
  272TMC3    C7 4118   2.760   2.387  14.631  0.2106 -0.2638 -0.5305
  272TMC3    C8 4119   3.066   2.263  14.301  0.0067  0.0303 -0.2241
  272TMC3    O1 4120   2.743   2.276  14.674 -0.0614  0.1666  0.3924
  272TMC3    O2 4121   3.141   2.302  14.214 -0.2760 -0.1421 -0.0427
  273MPD2     C 4122   4.122   0.982  11.647 -0.2614 -0.3387 -0.3742
  273MPD2    C1 4123   4.241   1.038  11.616  0.5383  0.0847  0.4167
  273MPD2    C2 4124   4.267   1.078  11.489 -0.5852  0.3503 -0.0609
  273MPD2    C3 4125   4.167   1.068  11.393 -0.6656 -0.1538 -0.6984
  273MPD2    C4 4126   4.048   1.007  11.426  0.1191  0.0978 -0.3222
  273MPD2    C5 4127   4.023   0.971  11.549  0.3734 -0.5660 -0.6358
  273MPD2     H 4128   4.362   1.124  11.462 -0.0257 -1.5708 -1.3409
  273MPD2    H1 4129   3.966   0.985  11.357 -0.4812  0.2125  0.3577
  273MPD2    H2 4130   4.097   0.940  11.744 -1.0654 -1.4466 -1.0583
  273MPD2    H3 4131   3.923   0.946  11.582  0.7358  1.3922  1.9335
  273MPD2     N 4132   4.192   1.111  11.261 -0.3084 -0.0138 -0.2221
  273MPD2    H5 4133   4.111   1.107  11.200 -0.2018 -0.1416 -0.3545
  273MPD2    N1 4134   4.344   1.034  11.717  0.2779  0.2542 -0.5994
  273MPD2    H7 4135   4.320   0.984  11.803 -0.0180  0.2125 -0.7069
  274TMC3    C1 4136   4.291   1.204  11.081 -0.1933 -0.2340 -0.8199
  274TMC3    C2 4137   4.174   1.171  11.017 -0.4131 -0.2903  0.6454
  274TMC3    C3 4138   4.157   1.233  10.897  0.0821 -0.5963 -0.5337
  274TMC3    C4 4139   4.375   1.306  11.034  0.5198 -0.8306  0.0877
  274TMC3    C5 4140   4.334   1.378  10.924 -0.3267 -0.5634 -0.0201
  274TMC3    C6 4141   4.233   1.334  10.845  0.0826  0.1225  0.0929
  274TMC3     C 4142   4.312   1.160  11.210  0.2234  0.3517  0.4202
  274TMC3     O 4143   4.424   1.172  11.262 -0.1179  0.6321 -0.5940
  274TMC3     H 4144   4.116   1.085  11.047 -0.2166 -2.0142 -3.9749
  274TMC3    H1 4145   4.455   1.354  11.089  0.9309 -1.9202  0.4534
  274TMC3    H2 4146   4.197   1.407  10.773 -2.6871 -2.4688 -1.1067
  274TMC3    C7 4147   4.306   1.513  10.957 -0.4638 -0.0446  0.6119
  274TMC3    C8 4148   4.042   1.199  10.816 -0.6217 -0.4320 -0.1298
  274TMC3    O1 4149   4.270   1.533  11.075 -0.6019  0.2092 -0.5400
  274TMC3    O2 4150   3.962   1.125  10.871  0.0427  0.8265  0.0395
  275MPD2     C 4151   4.044   3.844  14.516  0.0927  0.1409  0.4990
  275MPD2    C1 4152   4.050   3.742  14.608  0.0731 -0.3801  0.3879
  275MPD2    C2 4153   3.973   3.626  14.597 -0.0630 -0.5557 -0.2022
  275MPD2    C3 4154   3.877   3.624  14.488 -0.1968 -0.8043 -0.5190
  275MPD2    C4 4155   3.867   3.727  14.400 -0.1410 -0.5886 -0.5686
  275MPD2    C5 4156   3.955   3.831  14.410 -0.1170 -0.6114  0.7355
  275MPD2     H 4157   3.981   3.551  14.674  1.0724 -0.1180  0.1012
  275MPD2    H1 4158   3.806   3.729  14.311 -1.0036  0.2364  0.0505
  275MPD2    H2 4159   4.090   3.940  14.534 -0.9971  0.5594  1.0260
  275MPD2    H3 4160   3.939   3.920  14.350 -2.0807 -2.3538 -1.2980
  275MPD2     N 4161   3.782   3.523  14.467 -0.3845 -0.0374 -0.3532
  275MPD2    H5 4162   3.716   3.539  14.392 -1.6855  1.4216  1.1240
  275MPD2    N1 4163   4.140   3.753  14.718  0.0823  0.4410 -0.1218
  275MPD2    H7 4164   4.171   3.668  14.766  0.2495  0.2227 -0.6159
  276TMC3    C1 4165   4.238   3.848  14.903  0.0753  0.7040 -0.1862
  276TMC3    C2 4166   4.187   3.745  14.982 -0.0963  0.0101  1.0671
  276TMC3    C3 4167   4.225   3.753  15.117  0.2238  0.2570  0.8783
  276TMC3    C4 4168   4.304   3.954  14.963  0.5332 -0.1872 -0.4641
  276TMC3    C5 4169   4.330   3.958  15.097 -0.2739 -0.2794  0.4535
  276TMC3    C6 4170   4.282   3.857  15.175  1.0887  0.4596  0.0387
  276TMC3     C 4171   4.201   3.868  14.768  0.0008  0.3036  0.2793
  276TMC3     O 4172   4.188   3.986  14.732 -0.7856 -0.2685  0.5962
  276TMC3     H 4173   4.123   3.667  14.942  1.0991 -0.5745  0.2687
  276TMC3    H1 4174   4.335   4.034  14.897 -0.3457  0.4667 -0.0821
  276TMC3    H2 4175   4.287   3.864  15.284 -1.0774  1.4187  0.0738
  276TMC3    C7 4176   4.440   4.041  15.138  0.1922 -0.4840  0.6169
  276TMC3    C8 4177   4.195   3.643  15.212  0.4785 -0.6088  0.3913
  276TMC3    O1 4178   4.435   4.097  15.244 -0.5846  0.5989  0.4189
  276TMC3    O2 4179   4.189   3.672  15.331  0.0129  0.0204 -0.4537
  277MPD2     C 4180   0.766   3.176  13.220  0.1900  0.6056  0.3330
  277MPD2    C1 4181   0.695   3.240  13.320  0.8633  0.1868 -0.1592
  277MPD2    C2 4182   0.635   3.159  13.418 -0.0330 -0.3539  0.5476
  277MPD2    C3 4183   0.647   3.018  13.416 -0.4025  0.3213  0.3295
  277MPD2    C4 4184   0.716   2.952  13.314  0.7171 -0.0784 -0.2365
  277MPD2    C5 4185   0.779   3.036  13.219 -0.8112 -0.2499  0.2288
  277MPD2     H 4186   0.586   3.199  13.506 -0.2326  1.6986 -0.5128
  277MPD2    H1 4187   0.745   2.848  13.321 -1.7203 -0.8575 -1.4803
  277MPD2    H2 4188   0.822   3.235  13.149 -0.8346  2.3836  0.9951
  277MPD2    H3 4189   0.841   2.983  13.148 -0.2909 -1.4289  1.5675
  277MPD2     N 4190   0.588   2.947  13.520 -0.2681 -0.3917  0.3187
  277MPD2    H5 4191   0.531   3.000  13.585  1.5314  0.3291  1.3025
  277MPD2    N1 4192   0.676   3.379  13.300 -0.1693  0.6687 -0.2187
  277MPD2    H7 4193   0.724   3.416  13.219  2.2745 -1.0744  0.4108
  278TMC3    C1 4194   0.483   2.770  13.644  0.1717 -0.6302  0.0900
  278TMC3    C2 4195   0.439   2.641  13.648 -0.0566 -0.3938  0.3755
  278TMC3    C3 4196   0.367   2.596  13.755  1.3748  0.5588 -0.8563
  278TMC3    C4 4197   0.442   2.856  13.738  0.1705 -0.1886  0.4233
  278TMC3    C5 4198   0.343   2.813  13.830 -0.1773 -0.3151 -0.3829
  278TMC3    C6 4199   0.312   2.677  13.846  0.5594  0.2249 -0.3933
  278TMC3     C 4200   0.581   2.809  13.539  0.2777  0.1239  0.2915
  278TMC3     O 4201   0.615   2.721  13.461  0.2185 -0.1659 -0.4881
  278TMC3     H 4202   0.491   2.568  13.587  0.4704  1.4179 -1.3599
  278TMC3    H1 4203   0.468   2.961  13.740  1.4889 -0.4866 -1.3581
  278TMC3    H2 4204   0.234   2.641  13.913  0.0900  3.6016  0.8776
  278TMC3    C7 4205   0.268   2.914  13.893  0.2053  0.2531 -0.8133
  278TMC3    C8 4206   0.294   2.473  13.740 -0.0390  0.7279  0.1474
  278TMC3    O1 4207   0.327   3.023  13.917  0.0746 -0.1937  0.3315
  278TMC3    O2 4208   0.248   2.415  13.837 -0.3775  0.4369  0.0378
  279MPD2     C 4209   0.083   2.005   0.076  0.2468 -0.7084  0.0500
  279MPD2    C1 4210   0.108   2.134   0.122 -0.4321  0.3049  0.3943
  279MPD2    C2 4211   0.101   2.249   0.040 -0.2618  0.3006  0.3848
  279MPD2    C3 4212   0.069   2.234  17.597 -0.4813  0.0572 -0.0802
  279MPD2    C4 4213   0.034   2.108  17.554  0.2883  0.1336 -0.0273
  279MPD2    C5 4214   0.035   2.000  17.638 -0.3900 -0.4330  0.9731
  279MPD2     H 4215   0.109   2.350   0.078  0.4929 -0.0822  1.2225
  279MPD2    H1 4216   0.013   2.088  17.450  0.0510 -1.5204  0.3496
  279MPD2    H2 4217   0.071   1.918   0.140  0.2104 -1.4493 -0.9723
  279MPD2    H3 4218   0.009   1.903  17.597  0.3948 -0.9562  1.7088
  279MPD2     N 4219   0.066   2.336  17.506  0.0427  0.1153  0.1497
  279MPD2    H5 4220   0.034   2.312  17.413  1.1570 -0.9827  0.0549
  279MPD2    N1 4221   0.119   2.155   0.265  0.5487  0.1014  0.4609
  279MPD2    H7 4222   0.140   2.074   0.322 -0.6610  0.8024  1.8775
  280TMC3    C1 4223   0.023   2.381   0.308 -0.0166 -0.3943 -0.1391
  280TMC3    C2 4224   4.630   2.335   0.247 -0.6774  0.7407  0.3539
  280TMC3    C3 4225   4.545   2.424   0.197 -0.1487  1.1067 -0.1019
  280TMC3    C4 4226   0.046   2.515   0.314 -0.5040  0.0891 -0.2076
  280TMC3    C5 4227   4.675   2.602   0.268  0.6690 -0.4526 -0.1047
  280TMC3    C6 4228   4.563   2.560   0.194 -0.6703  1.1356  0.1938
  280TMC3     C 4229   0.125   2.282   0.332 -0.0687 -0.3431  0.1554
  280TMC3     O 4230   0.183   2.287   0.440  0.1357 -0.2584  0.4379
  280TMC3     H 4231   4.622   2.227   0.243 -0.4519  0.7537 -0.5406
  280TMC3    H1 4232   0.139   2.551   0.356 -1.4546  0.2018  1.8086
  280TMC3    H2 4233   4.479   2.617   0.156 -0.4462  2.0605  1.0812
  280TMC3    C7 4234   4.715   2.739   0.266  0.4642 -0.1053  0.3120
  280TMC3    C8 4235   4.475   2.380   0.084  0.7277 -0.0835  0.0967
  280TMC3    O1 4236   0.103   2.765   0.311  0.4051 -0.4378 -0.0913
  280TMC3    O2 4237   4.435   2.475   0.014 -0.4918 -0.4338 -0.1822
  281TMC3    C1 4238   3.740   2.945  13.335  0.0978  0.2347  0.4215
  281TMC3    C2 4239   3.863   2.963  13.280  0.0840  1.4743  0.5655
  281TMC3    C3 4240   3.922   2.879  13.194 -0.0432 -0.0427 -0.3532
  281TMC3    C4 4241   3.657   2.850  13.294 -0.3990  0.1462 -0.1825
  281TMC3    C5 4242   3.718   2.761  13.208  0.1205  0.0096  0.2153
  281TMC3    C6 4243   3.851   2.772  13.160 -0.0892  0.3167  0.0262
  281TMC3     C 4244   3.682   3.072  13.384  0.5877 -0.4488  0.0888
  281TMC3     O 4245   3.757   3.159  13.428 -0.1866  0.2487 -0.4633
  281TMC3     H 4246   3.923   3.042  13.323 -0.7812  0.4369  3.6417
  281TMC3    H1 4247   3.569   2.818  13.350 -0.7575  1.1370 -0.1781
  281TMC3    H2 4248   3.894   2.695  13.099  1.3557  1.5006 -0.4355
  281TMC3    C7 4249   3.648   2.641  13.156  0.1916  0.6538 -0.0223
  281TMC3    C8 4250   3.949   2.947  13.067 -0.3827  0.5257  0.4332
  281TMC3    O1 4251   3.719   2.562  13.096  0.3988 -0.2275 -0.1945
  281TMC3    O2 4252   3.930   2.887  12.962  0.0538  0.6948 -0.1362
  282MPD2     C 4253   0.983   4.240  15.177  0.4188  0.0354  0.7416
  282MPD2    C1 4254   0.968   4.372  15.217 -0.2180  0.3220  0.0412
  282MPD2    C2 4255   0.915   4.467  15.139 -0.4354 -0.0581 -0.0395
  282MPD2    C3 4256   0.877   4.440  15.010  1.1890  0.4575  0.2316
  282MPD2    C4 4257   0.906   4.315  14.962  0.0307 -0.4476  0.0804
  282MPD2    C5 4258   0.956   4.213  15.047  0.5599  0.3170  0.7086
  282MPD2     H 4259   0.900   4.566  15.182  0.0985  0.8320 -1.9241
  282MPD2    H1 4260   0.900   4.286  14.858  1.2337  0.9511 -0.3777
  282MPD2    H2 4261   1.021   4.155  15.232 -0.7751  0.2535  1.9106
  282MPD2    H3 4262   0.992   4.119  15.007  1.2830  1.7088 -1.9228
  282MPD2     N 4263   0.816   4.541  14.939  0.0579  0.1108  0.2726
  282MPD2    H5 4264   0.784   4.618  14.997 -0.4022 -1.1231  1.6739
  282MPD2    N1 4265   0.993   4.399  15.354 -0.6528  0.0185  0.2502
  282MPD2    H7 4266   1.009   4.325  15.422 -1.3152 -0.8128 -0.5001
  283TMC3    C1 4267   0.971   4.519  15.552 -0.2948 -0.2809  0.1809
  283TMC3    C2 4268   0.982   4.645  15.603  0.2681  0.1580  0.4405
  283TMC3    C3 4269   0.920   4.674  15.725  0.3528 -0.6244 -0.3241
  283TMC3    C4 4270   0.902   4.417  15.614 -0.8344 -0.6696  0.3332
  283TMC3    C5 4271   0.833   4.451  15.733 -0.6024 -0.1878 -0.0892
  283TMC3    C6 4272   0.843   4.575  15.788 -0.6757  0.4331 -0.4412
  283TMC3     C 4273   0.999   4.525  15.406 -0.9508  0.3107 -0.0768
  283TMC3     O 4274   1.027   4.634  15.352 -0.3363 -0.0719  0.2746
  283TMC3     H 4275   1.049   4.719  15.561 -1.1721  0.9042 -0.5209
  283TMC3    H1 4276   0.902   4.319  15.569 -3.6916 -0.4455 -0.1702
  283TMC3    H2 4277   0.782   4.591  15.876 -0.8943 -1.0099 -0.3357
  283TMC3    C7 4278   0.761   4.350  15.811 -0.2027 -1.2722  0.3955
  283TMC3    C8 4279   0.907   0.086  15.786 -0.0321  1.0724 -0.6000
  283TMC3    O1 4280   0.734   4.371  15.926 -0.3052  0.0217  0.5550
  283TMC3    O2 4281   0.867   0.094  15.904  0.8548 -0.3969  0.3269
  284MPD2     C 4282   4.048   3.716  11.906 -0.8567  0.4672 -0.2122
  284MPD2    C1 4283   3.954   3.699  11.808 -0.2330  0.4205 -0.1562
  284MPD2    C2 4284   3.856   3.598  11.818 -0.3777 -0.6212 -0.1731
  284MPD2    C3 4285   3.865   3.504  11.922  0.0761 -0.6622 -0.0516
  284MPD2    C4 4286   3.969   3.511  12.012 -0.2358  0.9177 -0.2065
  284MPD2    C5 4287   4.055   3.616  11.997 -0.6931  0.0831 -0.0299
  284MPD2     H 4288   3.780   3.600  11.740 -0.7724  1.0410  0.2620
  284MPD2    H1 4289   3.982   3.430  12.082 -0.3305  0.9505 -0.1512
  284MPD2    H2 4290   4.134   3.782  11.895 -0.3439 -0.3062 -0.8734
  284MPD2    H3 4291   4.139   3.618  12.065  0.1180  2.0899 -1.1178
  284MPD2     N 4292   3.773   3.397  11.933 -0.1579 -0.0796 -0.0595
  284MPD2    H5 4293   3.802   3.320  11.992 -2.7960 -0.6757  0.4773
  284MPD2    N1 4294   3.958   3.785  11.693  0.6850  0.0907 -0.4766
  284MPD2    H7 4295   3.901   3.768  11.611 -2.7704 -0.5881  2.0496
  285TMC3    C1 4296   4.055   3.952  11.559 -0.6023 -0.2831  0.6875
  285TMC3    C2 4297   4.062   3.859  11.459  0.4453 -0.3095 -0.6123
  285TMC3    C3 4298   4.114   3.896  11.339 -0.3553  0.5275  0.0783
  285TMC3    C4 4299   4.116   4.074  11.552  0.9467  0.3964 -0.2018
  285TMC3    C5 4300   4.171   4.107  11.430  0.3317  0.2907  0.1894
  285TMC3    C6 4301   4.158   4.031  11.321 -0.2716  0.5819  0.7636
  285TMC3     C 4302   4.027   3.899  11.688 -0.2872  0.3938  0.0220
  285TMC3     O 4303   4.073   3.966  11.778 -0.8488 -0.2515 -0.1622
  285TMC3     H 4304   4.030   3.755  11.468  0.6296 -0.3489 -0.4098
  285TMC3    H1 4305   4.113   4.136  11.641  1.8024  0.7988 -0.4517
  285TMC3    H2 4306   4.198   4.059  11.224  1.0737 -2.5773  0.4264
  285TMC3    C7 4307   4.248   4.227  11.413 -0.0726  1.1580 -0.3151
  285TMC3    C8 4308   4.161   3.795  11.250  0.4613  0.2525 -0.1937
  285TMC3    O1 4309   4.229   4.293  11.309 -0.4211  0.0461  0.1098
  285TMC3    O2 4310   4.088   3.698  11.230  0.5374 -0.0273 -0.0833
  286MPD2     C 4311   4.392   2.449   1.689  0.3320 -0.6831  0.3165
  286MPD2    C1 4312   4.375   2.435   1.553  0.9255 -0.1027 -0.6470
  286MPD2    C2 4313   4.470   2.363   1.479 -0.9298 -0.8531 -0.4743
  286MPD2    C3 4314   4.572   2.298   1.539 -0.1382 -0.1056  0.1104
  286MPD2    C4 4315   4.595   2.316   1.673 -0.4493 -0.2486  0.5209
  286MPD2    C5 4316   4.507   2.393   1.742 -0.5868  0.6634  0.6279
  286MPD2     H 4317   4.461   2.365   1.371 -3.1218 -0.3340 -0.2818
  286MPD2    H1 4318   4.677   2.274   1.729  0.2953  0.8572  0.2544
  286MPD2    H2 4319   4.322   2.488   1.762 -0.0141  1.3584 -1.0981
  286MPD2    H3 4320   4.536   2.411   1.845  1.1554  2.6978 -0.2260
  286MPD2     N 4321   4.672   2.219   1.461  0.7995 -0.2955  0.0482
  286MPD2    H5 4322   0.030   2.186   1.513  0.4337 -1.9578 -0.4393
  286MPD2    N1 4323   4.265   2.490   1.486  0.0783  0.1726  0.1060
  286MPD2    H7 4324   4.255   2.470   1.387  2.2110 -1.4499  0.2119
  287TMC3    C1 4325   0.038   2.086   1.299  0.2170 -0.5468  0.5759
  287TMC3    C2 4326   0.014   2.009   1.184  1.0869  0.2480 -0.3075
  287TMC3    C3 4327   0.072   1.888   1.167 -0.0157 -0.0901 -0.3909
  287TMC3    C4 4328   0.125   2.034   1.393 -0.9662 -0.1504 -0.0117
  287TMC3    C5 4329   0.173   1.907   1.371 -0.9452  0.3878 -0.0430
  287TMC3    C6 4330   0.157   1.836   1.261 -0.8554 -0.6095  0.1336
  287TMC3     C 4331   4.662   2.184   1.330  0.1402 -0.1563  0.1458
  287TMC3     O 4332   4.577   2.207   1.244  0.2237  0.3500  0.3424
  287TMC3     H 4333   4.688   2.064   1.104 -2.0230 -0.8361  0.8701
  287TMC3    H1 4334   0.142   2.078   1.490  0.4666 -0.8357  0.0449
  287TMC3    H2 4335   0.209   1.747   1.227  0.4381 -0.5275  1.8861
  287TMC3    C7 4336   0.235   1.832   1.477 -0.8233 -0.3780  0.4053
  287TMC3    C8 4337   0.035   1.802   1.057  0.5226  0.2326  0.3749
  287TMC3    O1 4338   0.289   1.896   1.565  0.1343 -0.0206 -0.0237
  287TMC3    O2 4339   0.092   1.692   1.055 -0.2663 -0.1353  0.1423
  288TMC3    C1 4340   1.344   2.227  14.430 -0.1780 -0.0101 -0.2332
  288TMC3    C2 4341   1.218   2.228  14.459  0.4302  0.3456 -0.2645
  288TMC3    C3 4342   1.126   2.293  14.372 -0.3225 -1.0786 -0.3888
  288TMC3    C4 4343   1.393   2.291  14.314 -0.4853 -0.5569  0.1493
  288TMC3    C5 4344   1.304   2.364  14.243 -0.0529 -0.4787 -0.3242
  288TMC3    C6 4345   1.173   2.364  14.264  0.4007  0.7942  0.3340
  288TMC3     C 4346   1.435   2.182  14.538  0.0007 -0.3839 -0.2424
  288TMC3     O 4347   1.390   2.122  14.636  0.2249  0.4308 -0.1203
  288TMC3     H 4348   1.187   2.182  14.552  1.3653  0.7707  0.2561
  288TMC3    H1 4349   1.499   2.297  14.291 -0.6360  0.0769 -0.3982
  288TMC3    H2 4350   1.105   2.431  14.213  3.2795  3.1286 -0.4374
  288TMC3    C7 4351   1.368   2.427  14.125 -0.0079 -0.6716  0.3456
  288TMC3    C8 4352   0.998   2.337  14.428  0.2128  0.4049 -0.0141
  288TMC3    O1 4353   1.484   2.459  14.119 -0.0196 -0.4616  0.3155
  288TMC3    O2 4354   0.966   2.455  14.417  0.3263  0.0430  0.0793
  289MPD2     C 4355   1.107   1.500  14.719  0.2036  0.0317  0.3822
  289MPD2    C1 4356   1.099   1.559  14.599 -0.3866 -0.6187  0.3489
  289MPD2    C2 4357   0.993   1.546  14.516 -0.4515  0.2344  0.3311
  289MPD2    C3 4358   0.891   1.463  14.552 -0.3580  0.0618  0.1674
  289MPD2    C4 4359   0.894   1.407  14.680  0.0236  0.0722 -0.3382
  289MPD2    C5 4360   0.999   1.421  14.760  0.0785 -0.5406 -0.2595
  289MPD2     H 4361   0.984   1.600  14.422  0.0020  0.6917  0.5533
  289MPD2    H1 4362   0.813   1.352  14.726  0.3985 -0.0231  0.2061
  289MPD2    H2 4363   1.189   1.514  14.787  0.5537 -1.3318  0.2406
  289MPD2    H3 4364   0.992   1.380  14.861  1.4239  0.7772  0.3673
  289MPD2     N 4365   0.773   1.438  14.481  0.2659  1.0916 -0.0813
  289MPD2    H5 4366   0.704   1.381  14.530  1.4213  1.2509  1.7473
  289MPD2    N1 4367   1.219   1.626  14.547 -0.0346 -0.5875  0.1951
  289MPD2    H7 4368   1.301   1.616  14.606  0.9071 -1.4220 -1.2569
  290TMC3    C1 4369   0.590   1.482  14.328  0.1531  0.8318  0.1397
  290TMC3    C2 4370   0.526   1.573  14.248  0.4327  0.2912 -0.1036
  290TMC3    C3 4371   0.402   1.547  14.205 -0.3960  0.3053  0.6912
  290TMC3    C4 4372   0.534   1.368  14.370  0.3093  0.2624 -0.1237
  290TMC3    C5 4373   0.405   1.350  14.328 -0.3860 -0.0456  0.4936
  290TMC3    C6 4374   0.331   1.441  14.256  0.4382  0.4064 -0.0093
  290TMC3     C 4375   0.730   1.507  14.369  0.9164  0.1136 -0.3271
  290TMC3     O 4376   0.781   1.612  14.334 -0.0216  0.4018 -0.6660
  290TMC3     H 4377   0.587   1.650  14.203 -0.5650  1.0180 -0.2115
  290TMC3    H1 4378   0.586   1.295  14.431  0.6603  0.2185 -0.4788
  290TMC3    H2 4379   0.227   1.418  14.237  1.3780 -2.4299 -1.7270
  290TMC3    C7 4380   0.331   1.249  14.405  0.1326  0.0794  0.0971
  290TMC3    C8 4381   0.340   1.640  14.121  0.3144  0.2377  0.9608
  290TMC3    O1 4382   0.206   1.258  14.421  0.5812  0.0334 -0.4111
  290TMC3    O2 4383   0.249   1.611  14.056  0.3011  0.5369  0.1126
  291MPD2     C 4384   0.250   0.828   0.567  0.2134  0.2460 -0.2497
  291MPD2    C1 4385   0.206   0.809   0.436 -0.2831  0.5566 -0.2937
  291MPD2    C2 4386   0.254   0.891   0.335 -0.3364 -0.1238  0.4455
  291MPD2    C3 4387   0.334   0.998   0.361  0.3161  0.0568  0.1198
  291MPD2    C4 4388   0.373   1.019   0.493  0.4972 -0.5268  0.3524
  291MPD2    C5 4389   0.324   0.936   0.595 -0.0800 -0.5242  0.4900
  291MPD2     H 4390   0.230   0.873   0.231  1.2976  0.7676 -0.0870
  291MPD2    H1 4391   0.441   1.100   0.515  1.7955 -1.0665 -1.5986
  291MPD2    H2 4392   0.213   0.771   0.651  0.5043  1.1505  0.4864
  291MPD2    H3 4393   0.363   0.963   0.693  2.1202 -0.2451 -0.4748
  291MPD2     N 4394   0.367   1.080   0.249  0.5406  0.8804  0.1696
  291MPD2    H5 4395   0.366   1.037   0.156  1.5683 -0.1465  0.6267
  291MPD2    N1 4396   0.104   0.719   0.409 -0.3172 -0.3675 -0.0756
  291MPD2    H7 4397   0.078   0.714   0.311  2.1308  0.5099 -0.7565
  292TMC3    C1 4398   4.646   0.577   0.440 -0.0935 -0.4468  0.1343
  292TMC3    C2 4399   4.531   0.556   0.517 -0.1501 -0.0921  0.2073
  292TMC3    C3 4400   4.427   0.481   0.470  0.0026 -0.2701 -0.3182
  292TMC3    C4 4401   4.658   0.508   0.324 -0.3232  0.4519 -0.1818
  292TMC3    C5 4402   4.555   0.426   0.277 -0.5892 -0.4039  0.8425
  292TMC3    C6 4403   4.439   0.412   0.349 -0.5309 -0.1944 -0.2473
  292TMC3     C 4404   0.026   0.648   0.499 -0.0840  0.7197  0.0536
  292TMC3     O 4405   0.009   0.663   0.620 -0.0369 -0.0517  0.5732
  292TMC3     H 4406   4.514   0.614   0.607 -0.3980  0.8276 -0.4442
  292TMC3    H1 4407   0.027   0.522   0.267  0.3055  2.6449  1.4049
  292TMC3    H2 4408   4.357   0.357   0.305  1.3469 -1.1131 -2.6326
  292TMC3    C7 4409   4.591   0.315   0.194 -0.3634  0.2896  0.5682
  292TMC3    C8 4410   4.294   0.496   0.539 -0.0364 -0.3214 -0.7010
  292TMC3    O1 4411   4.704   0.322   0.152  0.1351 -0.6125 -0.0730
  292TMC3    O2 4412   4.280   0.593   0.609 -0.2523  0.1776  0.6252
  293MPD2     C 4413   2.590   2.464  12.632  1.2663 -0.4200 -0.2849
  293MPD2    C1 4414   2.472   2.516  12.664 -0.2508 -0.6536  0.0783
  293MPD2    C2 4415   2.447   2.550  12.796 -0.3759 -0.6508 -0.7158
  293MPD2    C3 4416   2.546   2.540  12.895 -0.5938 -0.8525  0.6726
  293MPD2    C4 4417   2.666   2.488  12.863  0.0927  0.1233  1.2109
  293MPD2    C5 4418   2.683   2.441  12.732 -0.9287 -0.5374 -0.0573
  293MPD2     H 4419   2.353   2.599  12.820 -0.1204  0.1624 -1.3659
  293MPD2    H1 4420   2.750   2.486  12.932  1.0760  1.4147  0.0363
  293MPD2    H2 4421   2.629   2.433  12.536 -0.2363  0.0343 -1.0370
  293MPD2    H3 4422   2.781   2.403  12.707 -0.7711 -1.1726  1.4915
  293MPD2     N 4423   2.510   2.581  13.030  0.1196  0.6055 -0.4983
  293MPD2    H5 4424   2.411   2.604  13.040 -0.1081 -1.7438  2.4526
  293MPD2    N1 4425   2.371   2.506  12.564  0.2388  0.0347 -0.6320
  293MPD2    H7 4426   2.402   2.471  12.474  3.0969 -1.2022  0.8305
  294TMC3    C1 4427   2.153   2.526  12.457 -0.1379  0.3238 -0.3507
  294TMC3    C2 4428   2.016   2.527  12.472 -0.2450  0.4671  0.1700
  294TMC3    C3 4429   1.935   2.503  12.358 -0.0018  0.2012 -0.4782
  294TMC3    C4 4430   2.206   2.511  12.330 -0.3302 -0.0433 -0.3876
  294TMC3    C5 4431   2.117   2.499  12.223 -0.0080  0.3685  0.3277
  294TMC3    C6 4432   1.987   2.496  12.233 -0.4679  0.1319 -0.3125
  294TMC3     C 4433   2.233   2.531  12.582 -0.3589 -0.2025 -0.1534
  294TMC3     O 4434   2.175   2.563  12.684  0.2226  0.0618  0.2304
  294TMC3     H 4435   1.979   2.528  12.574 -0.6262  0.9797  0.0251
  294TMC3    H1 4436   2.315   2.510  12.322 -0.2473 -0.6414  0.8635
  294TMC3    H2 4437   1.923   2.491  12.146 -0.2679 -1.1992 -0.3817
  294TMC3    C7 4438   2.169   2.484  12.093  0.1649 -0.1128 -0.8887
  294TMC3    C8 4439   1.793   2.521  12.376 -0.0487  0.6862 -0.0013
  294TMC3    O1 4440   2.106   2.536  12.000  0.1035  0.1003 -0.3583
  294TMC3    O2 4441   1.762   2.575  12.482 -0.0072 -0.6743 -0.6157
  295MPD2     C 4442   1.707   0.582  17.635  0.2642  0.2462  0.0444
  295MPD2    C1 4443   1.794   0.620   0.040 -0.0127  0.4963 -0.9832
  295MPD2    C2 4444   1.762   0.732   0.112  0.1067 -0.3001  0.4486
  295MPD2    C3 4445   1.654   0.815   0.076  0.4084 -0.1504  0.7784
  295MPD2    C4 4446   1.563   0.773  17.666  0.2657  0.5075 -0.2246
  295MPD2    C5 4447   1.593   0.652  17.598 -0.0105  0.0300  0.4791
  295MPD2     H 4448   1.832   0.761   0.189 -0.2591  0.4963  0.4848
  295MPD2    H1 4449   1.473   0.821  17.632 -1.6641 -3.8918 -1.3031
  295MPD2    H2 4450   1.740   0.503  17.568  1.2532  2.8439 -2.5209
  295MPD2    H3 4451   1.534   0.618  17.514 -2.6252  1.1219  1.8904
  295MPD2     N 4452   1.617   0.925   0.155 -0.2596 -0.2954 -0.2585
  295MPD2    H5 4453   1.535   0.982   0.135  0.8671  1.1690 -0.7178
  295MPD2    N1 4454   1.924   0.559   0.048 -0.5322  0.2993 -0.2392
  295MPD2    H7 4455   1.996   0.604   0.104  0.8537 -0.7116 -1.2027
  296TMC3    C1 4456   1.623   1.070   0.340 -0.0278 -0.5087 -0.2325
  296TMC3    C2 4457   1.709   1.148   0.412  0.5519  0.5453 -0.6584
  296TMC3    C3 4458   1.672   1.197   0.534  0.3058  0.3189 -0.2489
  296TMC3    C4 4459   1.499   1.035   0.399 -0.2890 -0.1768  1.0901
  296TMC3    C5 4460   1.467   1.079   0.531  0.5187  0.3334 -0.3636
  296TMC3    C6 4461   1.555   1.160   0.598  1.1998 -0.0287 -0.3146
  296TMC3     C 4462   1.685   0.970   0.262 -0.3620 -1.1546  0.6645
  296TMC3     O 4463   1.802   0.951   0.296 -0.3120 -0.4587  0.3777
  296TMC3     H 4464   1.810   1.162   0.378  1.7977 -1.3424  2.2509
  296TMC3    H1 4465   1.452   0.944   0.365  2.5489 -0.8824 -0.9516
  296TMC3    H2 4466   1.536   1.188   0.700 -1.2866  0.3378 -0.8923
  296TMC3    C7 4467   1.346   1.022   0.598  0.3184  0.1330 -0.4173
  296TMC3    C8 4468   1.759   1.300   0.592 -0.3626 -0.4877  0.3822
  296TMC3    O1 4469   1.257   0.986   0.528  0.2275 -0.1410  0.2382
  296TMC3    O2 4470   1.786   1.296   0.713 -0.6689 -0.1767 -0.0600
  297MPD2     C 4471   4.619   3.206  16.274  0.7817  0.2146  0.4149
  297MPD2    C1 4472   4.615   3.328  16.209  0.2000  0.6840 -0.6056
  297MPD2    C2 4473   0.003   3.410  16.221  0.2786  0.2147  0.4675
  297MPD2    C3 4474   0.110   3.384  16.305  0.0477  0.3412 -0.6351
  297MPD2    C4 4475   0.106   3.264  16.368 -0.1215  0.7960 -0.0425
  297MPD2    C5 4476   0.007   3.175  16.354  0.1049  0.3561  0.0402
  297MPD2     H 4477   0.001   3.510  16.178 -0.1480 -0.5883 -1.3694
  297MPD2    H1 4478   0.184   3.226  16.433  0.7914 -2.5475 -3.0952
  297MPD2    H2 4479   4.540   3.133  16.265  0.6385  0.4188  0.0341
  297MPD2    H3 4480   0.011   3.083  16.411 -1.0599  0.2323 -0.0724
  297MPD2     N 4481   0.218   3.480  16.321  0.9322 -0.1069 -0.1181
  297MPD2    H5 4482   0.219   3.574  16.285 -0.4910  0.1088  0.4128
  297MPD2    N1 4483   4.502   3.376  16.148 -0.9109  0.9093  0.3861
  297MPD2    H7 4484   4.513   3.455  16.085 -1.0578  1.0669  0.5612
  298TMC3    C1 4485   4.260   3.421  16.110 -0.0842 -0.3412 -0.1782
  298TMC3    C2 4486   4.291   3.524  16.019  0.0995  0.3030  1.1618
  298TMC3    C3 4487   4.200   3.620  15.996 -0.5912 -0.5149 -0.0831
  298TMC3    C4 4488   4.143   3.416  16.181 -0.1855  0.1641 -0.3790
  298TMC3    C5 4489   4.055   3.513  16.153  0.5586  0.5859 -0.1952
  298TMC3    C6 4490   4.077   3.615  16.059  0.1407 -0.1204  0.3150
  298TMC3     C 4491   4.373   3.330  16.162 -0.2273 -0.3373  0.2712
  298TMC3     O 4492   4.331   3.238  16.236 -0.1166  0.2139 -0.3640
  298TMC3     H 4493   4.395   3.532  15.989 -0.3483  0.5387 -0.3145
  298TMC3    H1 4494   4.122   3.335  16.251 -2.5989 -0.7487 -2.1736
  298TMC3    H2 4495   4.001   3.691  16.044  0.6570  0.6497  1.5922
  298TMC3    C7 4496   3.939   3.524  16.234  0.2220  0.1000 -0.4606
  298TMC3    C8 4497   4.206   3.701  15.875 -0.0683  0.2953 -0.7502
  298TMC3    O1 4498   3.949   3.487  16.351  0.3280 -0.4836  0.4045
  298TMC3    O2 4499   4.130   3.790  15.868 -0.4937 -0.6254 -0.2505
  299MPD2     C 4500   1.041   2.711  10.772 -0.1991  0.7120  0.3781
  299MPD2    C1 4501   1.025   2.836  10.721  0.0273  0.2473  0.4113
  299MPD2    C2 4502   0.953   2.848  10.605 -0.0542  0.5711 -0.2191
  299MPD2    C3 4503   0.901   2.743  10.538  0.0712  0.3790  0.2596
  299MPD2    C4 4504   0.926   2.613  10.576  0.2105  0.0012 -0.9951
  299MPD2    C5 4505   1.002   2.606  10.694  0.7960  0.3272  0.0733
  299MPD2     H 4506   0.950   2.946  10.558  0.1324  0.8556  0.3646
  299MPD2    H1 4507   0.903   2.527  10.513  0.4990 -1.5822  1.0653
  299MPD2    H2 4508   1.091   2.699  10.868  1.9910  0.7141 -0.7585
  299MPD2    H3 4509   1.029   2.508  10.732  0.4544 -0.3590 -1.4544
  299MPD2     N 4510   0.810   2.763  10.429  0.3274 -0.7140 -0.3940
  299MPD2    H5 4511   0.755   2.683  10.398 -0.3379 -0.8331  1.0859
  299MPD2    N1 4512   1.085   2.934  10.794 -1.0086 -0.7319 -0.1889
  299MPD2    H7 4513   1.148   2.904  10.867  0.5267 -0.9018 -1.5640
  300TMC3    C1 4514   0.644   2.882  10.319 -0.2446 -1.2773 -0.0956
  300TMC3    C2 4515   0.609   2.989  10.252 -0.3836 -0.3290 -0.3000
  300TMC3    C3 4516   0.482   3.033  10.247  0.4224 -0.0242  0.3977
  300TMC3    C4 4517   0.550   2.812  10.390 -0.3179  0.0009 -0.2119
  300TMC3    C5 4518   0.423   2.863  10.387 -0.0281 -0.0441  0.4879
  300TMC3    C6 4519   0.378   2.975  10.320 -0.7784 -0.2313  0.4759
  300TMC3     C 4520   0.779   2.884  10.370 -0.0436  0.4968  0.0167
  300TMC3     O 4521   0.837   2.991  10.378 -0.0208 -0.3427 -0.1870
  300TMC3     H 4522   0.676   3.036  10.180 -1.9680  1.8450 -0.3467
  300TMC3    H1 4523   0.578   2.731  10.456  1.8449  1.2383  0.3649
  300TMC3    H2 4524   0.279   3.018  10.329 -1.2673 -1.0069 -1.2567
  300TMC3    C7 4525   0.325   2.773  10.427 -0.7207 -0.0285  1.0552
  300TMC3    C8 4526   0.474   3.173  10.206  1.0334 -0.2124 -0.1433
  300TMC3    O1 4527   0.358   2.658  10.441 -0.1599  0.7697  0.3334
  300TMC3    O2 4528   0.498   3.210  10.090 -0.0915  0.0400  0.2427
  301MPD2     C 4529   2.213   0.198   0.708 -0.3341  0.0393 -0.4581
  301MPD2    C1 4530   2.169   0.093   0.792 -0.4221  0.3720 -0.0193
  301MPD2    C2 4531   2.213   4.687   0.762  0.1684 -0.0510 -0.2127
  301MPD2    C3 4532   2.290   4.652   0.654 -0.1284 -0.4564 -0.4456
  301MPD2    C4 4533   2.319   0.036   0.562  0.1771 -0.1541  0.7473
  301MPD2    C5 4534   2.287   0.171   0.594 -0.0278  0.3358 -0.0560
  301MPD2     H 4535   2.176   4.612   0.831 -1.5522  0.1621 -0.8883
  301MPD2    H1 4536   2.371   0.011   0.470  1.7347 -1.0877  1.8879
  301MPD2    H2 4537   2.192   0.301   0.733  1.0580 -0.0449  1.0310
  301MPD2    H3 4538   2.311   0.254   0.529  1.9638  0.3611  0.7342
  301MPD2     N 4539   2.335   4.520   0.619  0.2422 -0.3522 -0.4053
  301MPD2    H5 4540   2.385   4.502   0.532  1.1546  1.2698 -0.2208
  301MPD2    N1 4541   2.084   0.106   0.904 -0.2154 -0.7054 -0.2672
  301MPD2    H7 4542   2.058   0.021   0.952  1.2513 -0.0844  1.6457
  302TMC3    C1 4543   2.372   4.283   0.650  0.2113  0.3924 -0.5875
  302TMC3    C2 4544   2.492   4.277   0.576  0.4054 -0.2709  0.0797
  302TMC3    C3 4545   2.557   4.160   0.559 -0.3669  0.8098 -0.0101
  302TMC3    C4 4546   2.315   4.171   0.700  0.0498  0.1656  0.2878
  302TMC3    C5 4547   2.387   4.055   0.685 -0.3881  0.6305 -1.1750
  302TMC3    C6 4548   2.501   4.047   0.611  0.1284  0.7643 -0.3465
  302TMC3     C 4549   2.314   4.410   0.703 -0.0118 -0.1993  0.0499
  302TMC3     O 4550   2.250   4.405   0.812  0.7888 -0.1160  0.5094
  302TMC3     H 4551   2.533   4.362   0.522 -3.2515  0.3986 -1.6569
  302TMC3    H1 4552   2.226   4.173   0.762  0.2197 -1.1497  0.5869
  302TMC3    H2 4553   2.554   3.953   0.596 -2.0617 -0.6264  0.5737
  302TMC3    C7 4554   2.344   3.933   0.744  0.2885  0.6152 -0.3896
  302TMC3    C8 4555   2.676   4.150   0.481  0.1853 -0.2006  0.2618
  302TMC3    O1 4556   2.413   3.832   0.718 -0.0546  0.2994  0.5178
  302TMC3    O2 4557   2.743   4.051   0.502 -0.1239 -0.6103 -0.4446
  303MPD2     C 4558   3.386   3.376  10.450  0.4398  0.0132  0.3430
  303MPD2    C1 4559   3.250   3.343  10.460 -0.8009  0.4654 -0.0069
  303MPD2    C2 4560   3.188   3.263  10.360 -0.2509 -0.1207  0.0478
  303MPD2    C3 4561   3.256   3.226  10.242  0.7079 -0.9868  0.1877
  303MPD2    C4 4562   3.388   3.259  10.231 -0.3275  0.5228  0.5869
  303MPD2    C5 4563   3.448   3.333  10.331  0.4462  0.3648  0.4573
  303MPD2     H 4564   3.083   3.242  10.374 -0.1309 -0.2721  0.6903
  303MPD2    H1 4565   3.452   3.234  10.147 -0.5680 -0.9175  0.8375
  303MPD2    H2 4566   3.435   3.430  10.530  0.1887  0.9208 -0.1257
  303MPD2    H3 4567   3.555   3.347  10.320  0.3777 -0.1376 -0.7557
  303MPD2     N 4568   3.196   3.154  10.133 -0.1927 -1.0258  0.9097
  303MPD2    H5 4569   3.259   3.115  10.063 -0.3272  1.3453 -0.5150
  303MPD2    N1 4570   3.189   3.397  10.576 -0.0515  0.1973 -0.1873
  303MPD2    H7 4571   3.247   3.455  10.636 -0.4045 -0.5185  0.8378
  304TMC3    C1 4572   3.022   3.449  10.731 -0.8788 -0.7676  0.3041
  304TMC3    C2 4573   2.915   3.533  10.703  0.2524 -0.1130 -0.2579
  304TMC3    C3 4574   2.807   3.531  10.781  0.3751  0.2249  0.2572
  304TMC3    C4 4575   3.011   3.357  10.838 -0.3373 -0.0994  0.8110
  304TMC3    C5 4576   2.911   3.376  10.925 -0.4084  0.4921 -0.1951
  304TMC3    C6 4577   2.804   3.455  10.900 -0.0229  0.0966 -0.0932
  304TMC3     C 4578   3.055   3.383  10.606 -0.0629 -0.4997 -0.3349
  304TMC3     O 4579   2.954   3.347  10.540 -0.1179  0.2506 -0.1372
  304TMC3     H 4580   2.909   3.575  10.603 -0.8370 -3.0748 -1.4402
  304TMC3    H1 4581   3.073   3.269  10.839 -0.2202 -0.0277  0.1771
  304TMC3    H2 4582   2.724   3.474  10.970  1.8729  0.9390  1.8238
  304TMC3    C7 4583   2.864   3.251  10.987 -0.2028  0.2795  0.3511
  304TMC3    C8 4584   2.683   3.502  10.712  0.2242 -0.5003 -0.5438
  304TMC3    O1 4585   2.742   3.229  10.977  0.3432  0.2534  0.2328
  304TMC3    O2 4586   2.661   3.565  10.607 -0.1830  0.2145 -0.4532
  305MPD2     C 4587   0.401   4.328  14.041  0.2776  0.4134 -0.1093
  305MPD2    C1 4588   0.528   4.345  14.001  0.2265  0.1350 -0.5210
  305MPD2    C2 4589   0.547   4.375  13.870 -0.8352  0.5433 -0.2819
  305MPD2    C3 4590   0.446   4.373  13.777  0.5563 -0.1719 -0.3413
  305MPD2    C4 4591   0.324   4.334  13.821 -0.4522 -0.6435  0.6719
  305MPD2    C5 4592   0.300   4.323  13.955 -0.2197 -0.4011 -0.4860
  305MPD2     H 4593   0.642   4.413  13.835 -0.6746  1.6065  1.3403
  305MPD2    H1 4594   0.239   4.316  13.755  0.2578  0.2797 -0.5053
  305MPD2    H2 4595   0.366   4.309  14.142 -0.1645  1.4211 -0.0729
  305MPD2    H3 4596   0.200   4.321  13.998  0.5260 -3.2138  1.0912
  305MPD2     N 4597   0.476   4.376  13.638 -0.2331 -0.2178  0.0762
  305MPD2    H5 4598   0.399   4.392  13.574  0.2441 -0.7697 -0.6195
  305MPD2    N1 4599   0.635   4.356  14.092 -0.0883 -0.3913  0.3716
  305MPD2    H7 4600   0.724   4.392  14.061  0.6450 -1.9581  0.6686
  306TMC3    C1 4601   0.747   4.355  14.295 -0.1344 -0.2866 -0.0825
  306TMC3    C2 4602   0.803   4.249  14.364 -0.3054  0.7117 -0.3525
  306TMC3    C3 4603   0.927   4.273  14.404  0.2288  0.2792 -0.4173
  306TMC3    C4 4604   0.806   4.476  14.272  0.0128  0.3049 -0.9393
  306TMC3    C5 4605   0.920   4.500  14.337  0.2251 -0.0327 -0.4184
  306TMC3    C6 4606   0.992   4.398  14.396  0.4914  0.9262 -0.1234
  306TMC3     C 4607   0.635   4.310  14.222  0.1295 -0.9444  0.0597
  306TMC3     O 4608   0.542   4.252  14.280  0.7121 -0.2067 -0.0802
  306TMC3     H 4609   0.768   4.146  14.374  3.5888 -0.5251  0.3142
  306TMC3    H1 4610   0.745   4.558  14.236 -2.1009 -0.1105  1.6996
  306TMC3    H2 4611   1.091   4.409  14.437  0.4690 -0.2506  0.2564
  306TMC3    C7 4612   0.941   4.633  14.391 -0.1790  0.4089 -0.5014
  306TMC3    C8 4613   0.996   4.172  14.475  0.0969 -0.0417  0.2861
  306TMC3    O1 4614   0.878   4.721  14.336 -0.3317  0.2445 -0.0901
  306TMC3    O2 4615   1.117   4.181  14.476  0.0439  0.1467  0.0072
  307MPD2     C 4616   3.346   1.109   0.547  0.3308 -0.2833  0.8232
  307MPD2    C1 4617   3.332   1.248   0.560 -0.0666 -0.1414  0.1280
  307MPD2    C2 4618   3.220   1.300   0.623 -0.3871 -0.6416 -0.3894
  307MPD2    C3 4619   3.119   1.219   0.668 -0.0441  0.0905 -0.0679
  307MPD2    C4 4620   3.139   1.084   0.665  0.0769  0.7079 -0.2998
  307MPD2    C5 4621   3.244   1.031   0.607 -0.0643  0.2073 -0.2493
  307MPD2     H 4622   3.202   1.405   0.606 -1.1892 -0.4719  1.4520
  307MPD2    H1 4623   3.074   1.017   0.721  0.0335 -1.0780 -2.4965
  307MPD2    H2 4624   3.423   1.061   0.488  0.1202 -0.9172  1.0687
  307MPD2    H3 4625   3.270   0.926   0.610 -1.7338 -0.2374 -1.3853
  307MPD2     N 4626   3.000   1.282   0.707 -0.1733  0.5162 -0.4342
  307MPD2    H5 4627   2.996   1.383   0.700 -0.1158  0.5650  0.2010
  307MPD2    N1 4628   3.420   1.342   0.497  0.3954  0.0071  0.3558
  307MPD2    H7 4629   3.383   1.436   0.486 -0.4588 -0.2618  0.9748
  308TMC3    C1 4630   2.597   1.438   0.704 -0.7620  0.1564 -1.1736
  308TMC3    C2 4631   2.655   1.549   0.765 -0.3678  0.2582 -0.7450
  308TMC3    C3 4632   2.759   1.526   0.856 -0.5577  0.0001 -0.5985
  308TMC3    C4 4633   2.662   1.313   0.711 -0.6245  0.0732 -0.0795
  308TMC3    C5 4634   2.774   1.308   0.778 -0.4719  0.4968  0.0851
  308TMC3    C6 4635   2.819   1.406   0.861  0.2321  0.1498 -0.4880
  308TMC3     C 4636   2.495   1.447   0.603  0.5966 -0.2504 -0.1923
  308TMC3     O 4637   2.465   1.347   0.540  0.2453 -0.0115 -0.3176
  308TMC3     H 4638   2.618   1.650   0.754  1.5097  1.1108  0.6366
  308TMC3    H1 4639   2.634   1.229   0.648  0.7135 -0.3934 -0.0528
  308TMC3    H2 4640   2.908   1.397   0.922  1.4976  0.7188 -2.2407
  308TMC3    C7 4641   2.880   1.219   0.731  0.5072  0.2991  0.0243
  308TMC3    C8 4642   2.834   1.636   0.914  0.3161 -0.0281  0.5455
  308TMC3    O1 4643   2.868   1.099   0.740 -0.2014 -0.2540 -0.1041
  308TMC3    O2 4644   2.894   1.604   1.016 -0.2277 -0.2020 -0.1209
  309MPD2     C 4645   2.662   2.643  17.244  0.6238 -0.0078  0.2901
  309MPD2    C1 4646   2.599   2.709  17.144 -0.6033  0.3519  0.0162
  309MPD2    C2 4647   2.474   2.764  17.172 -0.1701  0.5244  0.1975
  309MPD2    C3 4648   2.398   2.715  17.269  0.2384  0.8549  0.0967
  309MPD2    C4 4649   2.454   2.632  17.361 -0.1270  0.3746  0.4777
  309MPD2    C5 4650   2.588   2.604  17.349 -0.1786  0.0634  0.4533
  309MPD2     H 4651   2.435   2.832  17.096 -2.0931 -2.3258 -1.3746
  309MPD2    H1 4652   2.397   2.595  17.446 -0.3810  0.6485  0.4287
  309MPD2    H2 4653   2.765   2.616  17.223  1.8170  2.3035  3.1587
  309MPD2    H3 4654   2.635   2.557  17.435 -2.4349 -0.7811  1.2200
  309MPD2     N 4655   2.267   2.761  17.302 -0.1457 -0.5434 -0.5860
  309MPD2    H5 4656   2.224   2.741  17.391 -0.6305  1.2087 -0.4133
  309MPD2    N1 4657   2.657   2.737  17.011 -0.7426  0.3728  0.1805
  309MPD2    H7 4658   2.612   2.808  16.954 -1.0089  1.1686  1.3597
  310TMC3    C1 4659   2.788   2.700  16.813  0.5041  0.5049  0.3183
  310TMC3    C2 4660   2.728   2.813  16.760  0.1925 -0.9830  0.3986
  310TMC3    C3 4661   2.786   2.875  16.653 -0.5873 -0.0209 -0.0800
  310TMC3    C4 4662   2.896   2.632  16.750 -0.3989  0.7718  0.2003
  310TMC3    C5 4663   2.947   2.698  16.642 -0.1466 -0.0576  0.2195
  310TMC3    C6 4664   2.893   2.819  16.589 -0.5402 -0.1243  0.5346
  310TMC3     C 4665   2.762   2.668  16.956  0.7101 -0.3999  0.6240
  310TMC3     O 4666   2.826   2.582  17.010 -0.1729  0.0070 -0.0697
  310TMC3     H 4667   2.631   2.847  16.794 -0.8522 -0.4508 -3.1180
  310TMC3    H1 4668   2.946   2.553  16.804  2.3273  2.2964 -0.1109
  310TMC3    H2 4669   2.934   2.854  16.495  0.7202  0.9329  1.4813
  310TMC3    C7 4670   3.057   2.632  16.564  0.5151 -0.0086 -0.8292
  310TMC3    C8 4671   2.716   2.972  16.571  0.2210  0.7098 -0.3443
  310TMC3    O1 4672   3.081   2.517  16.592  0.1494 -0.2342  0.6432
  310TMC3    O2 4673   2.596   2.966  16.567 -0.0923 -0.0054  0.2296
  311MPD2     C 4674   4.540   4.484  12.553  0.1917  0.8801 -0.0371
  311MPD2    C1 4675   4.554   4.603  12.622  0.1740  0.0638  0.0434
  311MPD2    C2 4676   4.459   4.632  12.722 -0.3937  0.1210 -0.3194
  311MPD2    C3 4677   4.353   4.546  12.751 -0.1511  0.2130 -0.8172
  311MPD2    C4 4678   4.352   4.423  12.679 -0.0650  0.5983 -0.3545
  311MPD2    C5 4679   4.438   4.394  12.578  0.5063  0.7124  0.0663
  311MPD2     H 4680   4.489   4.722  12.775  0.8313 -0.0434 -0.7291
  311MPD2    H1 4681   4.278   4.350  12.710  0.0612  0.2175 -0.9552
  311MPD2    H2 4682   4.608   4.450  12.476  0.9630  0.8122  0.6792
  311MPD2    H3 4683   4.433   4.299  12.527 -2.2860  0.0816  1.4626
  311MPD2     N 4684   4.271   4.581  12.857  0.0459  0.1324 -0.2420
  311MPD2    H5 4685   4.275   4.673  12.899  2.2516  0.0496 -0.2861
  311MPD2    N1 4686   4.659   4.691  12.603  0.2390  0.1370  0.0370
  311MPD2    H7 4687   4.654   0.056  12.653 -0.3787  0.9602 -1.4433
  312TMC3    C1 4688   4.145   4.553  13.052  0.5402 -0.7822  0.3918
  312TMC3    C2 4689   4.039   4.490  13.116 -0.1915  0.2448 -0.6804
  312TMC3    C3 4690   4.011   4.520  13.245  0.1762  0.1212 -0.2507
  312TMC3    C4 4691   4.220   4.643  13.112  0.0061 -0.0175 -0.4703
  312TMC3    C5 4692   4.192   4.673  13.242  0.4120 -0.2521 -0.6524
  312TMC3    C6 4693   4.082   4.617  13.313 -0.5868 -0.3691  0.3439
  312TMC3     C 4694   4.203   4.490  12.931  0.3862  0.4145  0.7583
  312TMC3     O 4695   4.186   4.372  12.911 -0.6887  0.4602  0.8675
  312TMC3     H 4696   3.985   4.413  13.061  0.5173 -1.6238  1.2634
  312TMC3    H1 4697   4.309   4.683  13.065  0.1919  0.2286  0.0922
  312TMC3    H2 4698   4.054   4.649  13.412 -0.3960  2.1656 -0.4084
  312TMC3    C7 4699   4.271   0.050  13.306 -0.4257  0.1875  0.0221
  312TMC3    C8 4700   3.901   4.453  13.309 -0.1225  0.4761  0.0795
  312TMC3    O1 4701   4.304   0.145  13.233 -0.3988  0.1160  0.0193
  312TMC3    O2 4702   3.879   4.339  13.276  0.6641 -0.3256 -0.7544
  313MPD2     C 4703   0.112   3.236  10.153 -1.0560  0.3130  0.1066
  313MPD2    C1 4704   4.700   3.276  10.146  0.4576  0.3916 -0.1981
  313MPD2    C2 4705   4.622   3.225  10.041  0.5519 -0.0301  0.4823
  313MPD2    C3 4706   4.667   3.126   9.954  0.0177  0.0371  0.2296
  313MPD2    C4 4707   0.077   3.096   9.949 -0.0576 -0.0237  0.0370
  313MPD2    C5 4708   0.156   3.146  10.059  0.1187  0.5555 -0.0993
  313MPD2     H 4709   4.521   3.263  10.036  1.2942  1.9603  0.5681
  313MPD2    H1 4710   0.129   3.042   9.871 -1.2936 -2.5010  0.9268
  313MPD2    H2 4711   0.181   3.275  10.228  0.5238  1.5463 -1.9979
  313MPD2    H3 4712   0.260   3.117  10.051 -0.6357 -2.1792 -0.2176
  313MPD2     N 4713   4.581   3.083   9.852  0.1293  0.3678 -0.4599
  313MPD2    H5 4714   4.486   3.118   9.852  0.4458  1.2458 -1.2301
  313MPD2    N1 4715   4.639   3.363  10.233  0.2313 -0.9595 -0.0238
  313MPD2    H7 4716   4.543   3.387  10.213  0.1482 -0.8618  0.4945
  314TMC3    C1 4717   4.616   3.505  10.417  0.1527  0.1917 -0.4991
  314TMC3    C2 4718   4.688   3.577  10.513  0.2909 -0.0856  1.0043
  314TMC3    C3 4719   4.614   3.658  10.595 -0.7762 -0.1303 -0.9373
  314TMC3    C4 4720   4.473   3.505  10.407  0.3856  0.7690 -0.3890
  314TMC3    C5 4721   4.412   3.589  10.494 -0.2452  0.0744  0.4448
  314TMC3    C6 4722   4.477   3.662  10.591  0.2233  0.5650 -0.5608
  314TMC3     C 4723   4.695   3.411  10.346 -0.6220  0.1994  0.4849
  314TMC3     O 4724   0.081   3.392  10.398 -0.2370 -0.1261  0.5614
  314TMC3     H 4725   0.074   3.582  10.516  0.2472  0.6866  1.3498
  314TMC3    H1 4726   4.420   3.476  10.317 -1.2192 -1.0413  1.1389
  314TMC3    H2 4727   4.428   3.726  10.663  2.9382  0.6851  1.2263
  314TMC3    C7 4728   4.283   3.628  10.443 -0.0746  0.1563 -0.1703
  314TMC3    C8 4729   4.695   3.738  10.686 -0.0015  0.3908 -0.5173
  314TMC3    O1 4730   4.225   3.542  10.379  0.5052  0.2858 -0.0695
  314TMC3    O2 4731   0.086   3.698  10.712  0.3748  0.5373  0.1136
  315MPD2     C 4732   3.796   2.766  17.347  0.0851 -0.4648 -0.3117
  315MPD2    C1 4733   3.885   2.749  17.449 -0.2217 -0.3327  0.9038
  315MPD2    C2 4734   3.968   2.861  17.471 -0.5431  0.3736  0.9811
  315MPD2    C3 4735   3.973   2.979  17.391 -0.8999  0.6654  0.2265
  315MPD2    C4 4736   3.885   2.973  17.283  0.1726  0.1197  0.7578
  315MPD2    C5 4737   3.792   2.873  17.269  0.0216 -0.4632 -0.1403
  315MPD2     H 4738   4.044   2.858  17.548 -0.2825  1.8822  0.7835
  315MPD2    H1 4739   3.883   3.049  17.206 -1.0226 -0.5749  0.1144
  315MPD2    H2 4740   3.719   2.695  17.319  0.0028 -1.0774  1.5009
  315MPD2    H3 4741   3.718   2.877  17.190 -1.1807  0.9787  1.0738
  315MPD2     N 4742   4.061   3.087  17.423  0.1188 -0.3233  0.7049
  315MPD2    H5 4743   4.123   3.068  17.502 -0.7984  0.0444  1.5157
  315MPD2    N1 4744   3.912   2.632  17.521  0.0598  0.3399  0.3695
  315MPD2    H7 4745   3.994   2.635  17.581  0.0999 -0.5416  0.3556
  316TMC3    C1 4746   4.152   3.304  17.422 -0.1065 -0.3877 -0.0539
  316TMC3    C2 4747   4.243   3.269  17.523  0.1821  0.0650  0.0586
  316TMC3    C3 4748   4.316   3.374  17.575  0.6719 -0.1969 -0.3771
  316TMC3    C4 4749   4.151   3.427  17.368  0.1007 -0.0692  0.3656
  316TMC3    C5 4750   4.217   3.526  17.435 -0.0460  0.0481 -0.5154
  316TMC3    C6 4751   4.303   3.503  17.540 -0.6219  0.3848  0.1800
  316TMC3     C 4752   4.075   3.203  17.357  0.0728 -0.0707 -0.0614
  316TMC3     O 4753   4.036   3.222  17.243  0.0175  0.2578 -0.0030
  316TMC3     H 4754   4.257   3.169  17.562 -1.0676 -0.9165 -2.0385
  316TMC3    H1 4755   4.081   3.449  17.288  0.8535  3.1539  0.5770
  316TMC3    H2 4756   4.353   3.584  17.591 -0.9440 -1.3154  3.1456
  316TMC3    C7 4757   4.204   3.657  17.383  0.4679  0.7670 -0.1891
  316TMC3    C8 4758   4.429   3.344  17.653 -0.4689  0.0264 -0.7035
  316TMC3    O1 4759   4.272   3.743  17.439  0.1012 -0.0352 -0.1926
  316TMC3    O2 4760   4.501   3.435   0.000 -0.2864 -0.2642  0.1940
  317MPD2     C 4761   0.629   1.694  13.113 -0.5315  0.1189 -0.0783
  317MPD2    C1 4762   0.727   1.609  13.067  0.8259 -0.0620  0.3028
  317MPD2    C2 4763   0.781   1.519  13.157  0.2367  0.0784 -0.9300
  317MPD2    C3 4764   0.756   1.517  13.289  0.0043  0.3565 -0.3734
  317MPD2    C4 4765   0.677   1.617  13.340  0.2127  0.4567  0.3005
  317MPD2    C5 4766   0.610   1.699  13.249  0.0144  0.3358  0.5581
  317MPD2     H 4767   0.845   1.441  13.118 -0.7646 -1.0938 -0.2167
  317MPD2    H1 4768   0.672   1.640  13.445  0.5232  0.7167  0.2580
  317MPD2    H2 4769   0.586   1.771  13.050 -1.2811  0.6864  1.1270
  317MPD2    H3 4770   0.557   1.787  13.283  0.9221  1.7401 -1.6490
  317MPD2     N 4771   0.835   1.425  13.360 -0.1236  0.3756  0.5188
  317MPD2    H5 4772   0.874   1.346  13.311  0.0743  0.1558  1.0322
  317MPD2    N1 4773   0.771   1.609  12.938 -0.5611 -0.0023 -0.2089
  317MPD2    H7 4774   0.828   1.526  12.923  1.5640  1.1469  1.4822
  318TMC3    C1 4775   0.943   1.310  13.516 -0.1047 -0.8717 -0.6700
  318TMC3    C2 4776   0.923   1.199  13.434  0.4561  0.0881 -0.4068
  318TMC3    C3 4777   1.001   1.090  13.465 -0.3295 -0.0299  0.5870
  318TMC3    C4 4778   1.042   1.327  13.605  0.2267  0.7751 -0.1657
  318TMC3    C5 4779   1.121   1.215  13.626  0.3855 -0.4893 -0.2730
  318TMC3    C6 4780   1.094   1.093  13.565 -0.6804 -0.0145  0.3585
  318TMC3     C 4781   0.867   1.424  13.494  0.4853  0.1812 -0.4114
  318TMC3     O 4782   0.835   1.504  13.582 -0.2837 -0.4058 -0.5362
  318TMC3     H 4783   0.831   1.191  13.377 -0.0742 -1.4402  0.6649
  318TMC3    H1 4784   1.043   1.415  13.669 -0.6253  0.7147 -0.0768
  318TMC3    H2 4785   1.138   0.998  13.594 -0.5936 -0.5596 -1.5979
  318TMC3    C7 4786   1.244   1.239  13.705 -0.2391  0.1387 -0.6148
  318TMC3    C8 4787   1.014   0.985  13.358  0.1579 -0.1690 -0.8111
  318TMC3    O1 4788   1.259   1.359  13.733 -0.1219 -0.5580  0.0017
  318TMC3    O2 4789   1.087   0.884  13.378  0.4353  0.0581  0.1826
  319MPD2     C 4790   2.166   2.559  16.967 -0.2070 -0.0207 -0.7227
  319MPD2    C1 4791   2.154   2.423  16.960  0.3391 -0.6061 -0.0053
  319MPD2    C2 4792   2.046   2.372  16.893  0.0307 -0.9152  0.1224
  319MPD2    C3 4793   1.945   2.454  16.836  0.5299 -0.6043 -0.0048
  319MPD2    C4 4794   1.950   2.589  16.859  0.5242  0.1650 -0.0540
  319MPD2    C5 4795   2.062   2.635  16.919  0.1269 -0.2162 -0.0885
  319MPD2     H 4796   2.035   2.265  16.887 -0.5038 -0.8553  0.0353
  319MPD2    H1 4797   1.864   2.654  16.849  0.5420  0.1373 -0.3812
  319MPD2    H2 4798   2.259   2.600  17.003 -0.4757 -0.7510  0.8378
  319MPD2    H3 4799   2.068   2.743  16.920  0.8845 -0.2867  2.3069
  319MPD2     N 4800   1.840   2.408  16.757 -0.2196  0.0719 -0.0518
  319MPD2    H5 4801   1.772   2.480  16.734 -1.1205 -0.7716 -0.0429
  319MPD2    N1 4802   2.250   2.337  17.023  0.0262 -0.6040 -0.4830
  319MPD2    H7 4803   2.220   2.246  17.056 -0.3331 -0.2194  0.2498
  320TMC3    C1 4804   1.725   2.266  16.611 -0.3308  0.2031  0.6552
  320TMC3    C2 4805   1.694   2.365  16.527  0.1931 -0.2365 -0.6262
  320TMC3    C3 4806   1.598   2.336  16.430 -0.5290 -0.2794  0.1811
  320TMC3    C4 4807   1.680   2.141  16.600  0.3517 -0.3169  0.4299
  320TMC3    C5 4808   1.591   2.118  16.503 -0.2671  0.0923 -0.9142
  320TMC3    C6 4809   1.542   2.213  16.419 -1.1029 -0.2350  0.5080
  320TMC3     C 4810   1.820   2.279  16.720 -0.4794 -0.1027  0.5933
  320TMC3     O 4811   1.871   2.179  16.770 -0.0104  0.2877  0.1460
  320TMC3     H 4812   1.741   2.463  16.533 -1.3524  0.4454  0.5455
  320TMC3    H1 4813   1.711   2.078  16.683 -1.1309 -1.7176 -0.0738
  320TMC3    H2 4814   1.483   2.179  16.335 -0.7482 -0.8796  0.5218
  320TMC3    C7 4815   1.552   1.977  16.473 -0.1502 -0.4000  0.9499
  320TMC3    C8 4816   1.575   2.433  16.326  0.7829  0.6016  0.0744
  320TMC3    O1 4817   1.467   1.957  16.387  0.6736 -0.8594 -0.0551
  320TMC3    O2 4818   1.625   2.543  16.347 -0.6545 -0.7015  0.1033
  321TMC3    C1 4819   2.442   2.294  17.141  0.4235  0.5492  0.5340
  321TMC3    C2 4820   2.365   2.245  17.250  0.1965 -0.2704  0.1279
  321TMC3    C3 4821   2.426   2.191  17.360  0.1333  1.0067  0.8335
  321TMC3    C4 4822   2.574   2.315  17.173 -0.0448  0.4479 -0.1960
  321TMC3    C5 4823   2.629   2.272  17.286 -0.1599  0.8179  0.5239
  321TMC3    C6 4824   2.553   2.219  17.387  0.1763 -0.3323  0.7504
  321TMC3     C 4825   2.383   2.366  17.036  0.7097 -0.8149  0.4556
  321TMC3     O 4826   2.446   2.458  16.984  0.2471  0.9267  0.4525
  321TMC3     H 4827   2.258   2.229  17.241  0.6902 -3.5348 -0.2149
  321TMC3    H1 4828   2.638   2.346  17.091 -1.5442  0.5691 -1.3326
  321TMC3    H2 4829   2.601   2.176  17.473  0.3533  0.5206  1.0822
  321TMC3    C7 4830   2.761   2.208  17.278 -0.0240  0.2158 -0.2724
  321TMC3    C8 4831   2.412   2.048  17.376 -0.4504  0.6584 -0.5622
  321TMC3    O1 4832   2.851   2.286  17.249 -0.0427 -0.7975 -0.5384
  321TMC3    O2 4833   2.510   1.989  17.420  0.4651  0.1470  0.7138
  322MPD2     C 4834   0.874   3.757  13.644 -0.0520 -0.0287  1.0852
  322MPD2    C1 4835   0.882   3.667  13.745 -0.3945 -0.3893  0.5235
  322MPD2    C2 4836   0.903   3.535  13.705  0.2329 -0.6024 -0.2225
  322MPD2    C3 4837   0.912   3.493  13.573  0.3576  0.8684 -0.1931
  322MPD2    C4 4838   0.913   3.584  13.471 -0.0018 -0.5898  0.1027
  322MPD2    C5 4839   0.887   3.715  13.511  0.7474 -0.6434  0.8423
  322MPD2     H 4840   0.920   3.455  13.776  0.2072 -0.3268  0.0992
  322MPD2    H1 4841   0.934   3.561  13.367  2.5613 -1.3365  0.7773
  322MPD2    H2 4842   0.855   3.863  13.655 -0.8120 -0.2438  1.7622
  322MPD2    H3 4843   0.886   3.794  13.437 -1.7707  0.0289  1.6009
  322MPD2     N 4844   0.943   3.359  13.550  0.0418  0.9082 -0.0086
  322MPD2    H5 4845   0.936   3.295  13.628  1.3924  2.8983  1.7291
  322MPD2    N1 4846   0.867   3.699  13.880 -0.2656  0.0669 -0.1652
  322MPD2    H7 4847   0.867   3.796  13.909 -1.2607  0.3597 -1.1383
  323TMC3    C1 4848   0.853   3.670  14.120 -0.3416 -0.3726 -0.2273
  323TMC3    C2 4849   0.906   3.791  14.142 -0.2340  0.6401  0.2002
  323TMC3    C3 4850   0.942   3.827  14.271  0.5745  1.1487  0.2940
  323TMC3    C4 4851   0.827   3.589  14.233 -0.8220 -0.3476  0.3338
  323TMC3    C5 4852   0.871   3.623  14.355  0.7715 -1.0206 -0.0747
  323TMC3    C6 4853   0.920   3.749  14.380  0.4726  0.1087 -0.0688
  323TMC3     C 4854   0.849   3.610  13.984  0.4120  0.1392  0.3480
  323TMC3     O 4855   0.829   3.490  13.983  0.4513 -0.6138  0.4070
  323TMC3     H 4856   0.944   3.850  14.059 -1.6612  2.6003  0.9381
  323TMC3    H1 4857   0.795   3.486  14.223  2.2910 -1.3861  1.0596
  323TMC3    H2 4858   0.960   3.780  14.476  0.3323  1.1233 -0.3293
  323TMC3    C7 4859   0.933   3.510  14.418 -0.4654  0.4145  0.2442
  323TMC3    C8 4860   1.083   3.882  14.277  0.0179 -0.4619  0.2844
  323TMC3    O1 4861   0.962   3.415  14.344 -0.5144  0.5551 -0.2416
  323TMC3    O2 4862   1.158   3.837  14.356 -0.6903  0.5479  0.2843
  324MPD2     C 4863   2.337   4.341  14.706  0.2565  0.1128  0.2909
  324MPD2    C1 4864   2.363   4.452  14.624  0.1547  0.2167 -0.0185
  324MPD2    C2 4865   2.260   4.531  14.578 -0.3680  0.1950  0.1202
  324MPD2    C3 4866   2.130   4.504  14.630  0.4586  0.3943  0.1955
  324MPD2    C4 4867   2.114   4.411  14.725  0.7174 -0.0522  0.1497
  324MPD2    C5 4868   2.216   4.334  14.767 -0.0074  0.2970  0.1163
  324MPD2     H 4869   2.290   4.605  14.505  1.2551  0.4109  1.0068
  324MPD2    H1 4870   2.014   4.401  14.765  1.1941 -2.9209  0.6284
  324MPD2    H2 4871   2.413   4.267  14.731  0.9120  0.8197  0.3699
  324MPD2    H3 4872   2.187   4.251  14.831  1.6155  0.1093  0.5981
  324MPD2     N 4873   2.010   4.573  14.585  0.2046  0.1003 -0.7068
  324MPD2    H5 4874   1.924   4.541  14.628  0.0439  2.0316  0.4143
  324MPD2    N1 4875   2.491   4.481  14.574 -0.1739 -0.2197  0.5787
  324MPD2    H7 4876   2.503   4.562  14.515  1.2863  1.1744  2.7901
  325TMC3    C1 4877   1.880   0.020  14.479  0.0711  0.5673  0.5095
  325TMC3    C2 4878   1.776   4.674  14.434 -1.0960  0.0558  0.3241
  325TMC3    C3 4879   1.667   0.017  14.372 -0.0779 -0.0443 -0.0852
  325TMC3    C4 4880   1.894   0.151  14.452 -0.7299 -0.2068 -0.0470
  325TMC3    C5 4881   1.784   0.217  14.405  0.1058 -0.1041 -0.3882
  325TMC3    C6 4882   1.668   0.152  14.361  0.6437 -0.3068  0.2899
  325TMC3     C 4883   2.008   4.674  14.487 -0.1861  0.3441 -0.4002
  325TMC3     O 4884   2.101   4.716  14.418  0.4441  0.2839 -0.0124
  325TMC3     H 4885   1.777   4.568  14.452  1.3872  0.0342  0.1306
  325TMC3    H1 4886   1.984   0.205  14.478 -0.3508 -1.0783  0.4509
  325TMC3    H2 4887   1.591   0.209  14.311  0.2596 -1.1415 -0.0606
  325TMC3    C7 4888   1.805   0.357  14.366 -0.8373  0.8567  0.4522
  325TMC3    C8 4889   1.580   4.661  14.284  0.1778 -0.1718  0.4018
  325TMC3    O1 4890   1.920   0.385  14.331 -0.5529  0.2451 -0.2316
  325TMC3    O2 4891   1.618   4.553  14.243 -0.1415  0.3318  0.0402
  326MPD2     C 4892   3.303   1.478  10.944  0.2981  0.1847  0.1470
  326MPD2    C1 4893   3.382   1.392  10.871 -0.5732  0.4869  0.4196
  326MPD2    C2 4894   3.512   1.431  10.847 -0.8170 -0.6847  0.0622
  326MPD2    C3 4895   3.561   1.547  10.906 -0.1628  0.0882 -0.6731
  326MPD2    C4 4896   3.481   1.635  10.982 -0.0472 -0.2959 -0.2032
  326MPD2    C5 4897   3.354   1.593  11.002  0.1046  0.4570 -0.2690
  326MPD2     H 4898   3.577   1.374  10.782 -2.6192 -0.7346 -1.6806
  326MPD2    H1 4899   3.521   1.724  11.028  2.5185 -1.9959  0.8612
  326MPD2    H2 4900   3.196   1.462  10.949 -0.3942  4.0995 -2.0981
  326MPD2    H3 4901   3.290   1.653  11.066  0.5278  0.0398  0.5438
  326MPD2     N 4902   3.691   1.602  10.884 -0.8839 -0.4387  0.4111
  326MPD2    H5 4903   3.720   1.682  10.940 -1.8252 -1.0334  1.7419
  326MPD2    N1 4904   3.325   1.277  10.807  0.4481 -0.7003 -0.8290
  326MPD2    H7 4905   3.224   1.278  10.804  0.4225  2.8955  2.0776
  327TMC3    C1 4906   3.308   1.074  10.679 -0.9667  0.9873 -0.2603
  327TMC3    C2 4907   3.208   1.137  10.606  0.3675 -0.4187 -0.3498
  327TMC3    C3 4908   3.214   1.139  10.466  0.0271 -0.0607 -0.5246
  327TMC3    C4 4909   3.410   1.013  10.612 -1.1491  0.2415 -0.7752
  327TMC3    C5 4910   3.414   1.019  10.472 -0.3791 -0.1402  0.2087
  327TMC3    C6 4911   3.318   1.087  10.401  0.3088  0.0038  0.3214
  327TMC3     C 4912   3.389   1.176  10.748 -0.3344  0.3411 -0.3840
  327TMC3     O 4913   3.510   1.166  10.728  0.2409 -0.0542 -0.1027
  327TMC3     H 4914   3.136   1.193  10.665 -0.3562 -0.3748 -1.2905
  327TMC3    H1 4915   3.464   0.941  10.672  2.9034  2.0842 -2.2540
  327TMC3    H2 4916   3.333   1.093  10.294 -0.5771 -0.8086  0.1456
  327TMC3    C7 4917   3.540   1.004  10.412  0.2217 -0.2343  0.5498
  327TMC3    C8 4918   3.161   1.256  10.406  0.1352 -0.3919 -0.1277
  327TMC3    O1 4919   3.551   0.992  10.290 -0.3614 -0.1947 -0.4162
  327TMC3    O2 4920   3.234   1.308  10.321 -0.0210  0.3363 -0.1610
  328MPD2     C 4921   1.331   0.872  17.305 -0.1291  0.6914 -0.3408
  328MPD2    C1 4922   1.250   0.880  17.199 -0.1668 -0.7697  0.4334
  328MPD2    C2 4923   1.230   1.006  17.134 -0.1973  0.6803  0.0043
  328MPD2    C3 4924   1.259   1.121  17.205  0.0157 -0.3031  0.2607
  328MPD2    C4 4925   1.337   1.106  17.322  0.2990  0.0676 -0.3948
  328MPD2    C5 4926   1.374   0.985  17.369  0.1185 -0.1828  0.2303
  328MPD2     H 4927   1.185   1.008  17.035  0.4020  1.0221 -0.2641
  328MPD2    H1 4928   1.376   1.195  17.369  1.3105 -0.3691 -0.4080
  328MPD2    H2 4929   1.353   0.774  17.345 -1.2113  0.0632 -1.2789
  328MPD2    H3 4930   1.426   0.975  17.464 -0.4718  0.5366  0.6292
  328MPD2     N 4931   1.227   1.251  17.150  0.7123  0.2516  0.1055
  328MPD2    H5 4932   1.256   1.336  17.198  0.1166  1.5670 -1.8857
  328MPD2    N1 4933   1.189   0.759  17.147 -0.4200 -0.0404 -0.0987
  328MPD2    H7 4934   1.191   0.673  17.200  0.4014  1.0895  1.6932
  329TMC3    C1 4935   1.039   0.639  17.023 -0.8203  0.4998 -0.3232
  329TMC3    C2 4936   0.914   0.681  16.989  0.1495 -0.3552  0.5050
  329TMC3    C3 4937   0.807   0.624  17.048  0.2750  0.0895  0.4363
  329TMC3    C4 4938   1.063   0.529  17.098 -0.5893 -1.0468  0.3594
  329TMC3    C5 4939   0.947   0.474  17.149 -0.2489 -0.5900  0.0531
  329TMC3    C6 4940   0.820   0.520  17.134 -0.8420  0.5521  0.1381
  329TMC3     C 4941   1.130   0.753  17.024  0.3579  0.0639  0.7835
  329TMC3     O 4942   1.115   0.832  16.926  0.1936  0.4968 -0.0051
  329TMC3     H 4943   0.894   0.777  16.944  0.9083 -2.0510 -3.4393
  329TMC3    H1 4944   1.157   0.479  17.119  0.7466  2.0511  1.6514
  329TMC3    H2 4945   0.733   0.471  17.176 -1.3807  1.5802  0.2198
  329TMC3    C7 4946   0.976   0.340  17.203 -0.2902 -0.0936  0.0087
  329TMC3    C8 4947   0.685   0.695  17.034  0.2106  0.0853  0.7308
  329TMC3    O1 4948   1.034   0.263  17.125 -0.0199 -0.9530  0.6366
  329TMC3    O2 4949   0.658   0.746  16.923 -0.0684  0.1615 -0.0425
  330TMC3    C1 4950   4.308   1.166   9.160  0.6042 -1.4154 -0.0228
  330TMC3    C2 4951   4.269   1.056   9.082  0.2206 -0.1726 -0.6279
  330TMC3    C3 4952   4.326   0.936   9.116 -0.2516  0.2109 -0.3901
  330TMC3    C4 4953   4.403   1.151   9.258 -0.6362 -0.2840  0.0192
  330TMC3    C5 4954   4.462   1.034   9.283  0.1096  0.0464 -0.1878
  330TMC3    C6 4955   4.426   0.920   9.217 -0.6827 -0.1350  0.6216
  330TMC3     C 4956   4.223   1.281   9.167 -0.5046 -1.0168 -0.0420
  330TMC3     O 4957   4.280   1.387   9.197 -0.1475 -0.4330  0.1207
  330TMC3     H 4958   4.200   1.053   8.998 -1.5546  3.2960  0.7361
  330TMC3    H1 4959   4.410   1.232   9.329  2.9415  0.0563 -0.7211
  330TMC3    H2 4960   4.479   0.827   9.233 -1.2407 -0.2311  1.8775
  330TMC3    C7 4961   4.567   1.033   9.388  0.6595 -0.2898  0.6410
  330TMC3    C8 4962   4.279   0.816   9.051 -0.0977 -0.0567 -1.3195
  330TMC3    O1 4963   4.577   1.137   9.453 -0.1575  0.3471  0.0296
  330TMC3    O2 4964   4.243   0.824   8.936 -0.1674 -0.0660  0.1671
  331MPD2     C 4965   1.617   4.325  12.318 -0.1145  0.8340  0.2413
  331MPD2    C1 4966   1.705   4.251  12.247 -0.6438 -0.0518  0.5588
  331MPD2    C2 4967   1.808   4.182  12.315 -0.1264 -1.1414  0.2634
  331MPD2    C3 4968   1.817   4.177  12.449  0.5526 -0.0058 -0.3408
  331MPD2    C4 4969   1.716   4.242  12.520  0.7523 -0.6551  0.0503
  331MPD2    C5 4970   1.613   4.310  12.452  0.1404  0.3752  0.4505
  331MPD2     H 4971   1.891   4.129  12.272  0.9476  0.4074  0.4025
  331MPD2    H1 4972   1.710   4.234  12.628 -0.1256 -1.7709 -0.0738
  331MPD2    H2 4973   1.550   4.393  12.266  2.6095  1.6110 -2.3152
  331MPD2    H3 4974   1.539   4.366  12.509 -0.8374 -1.5703  1.0598
  331MPD2     N 4975   1.926   4.108  12.505  0.1314 -0.5179  0.4580
  331MPD2    H5 4976   1.992   4.078  12.434 -2.6774 -1.8065 -1.6505
  331MPD2    N1 4977   1.699   4.261  12.105  0.2998  0.1054 -0.1815
  331MPD2    H7 4978   1.634   4.329  12.067  0.2262  1.4884  2.4345
  332TMC3    C1 4979   2.079   4.015  12.657  0.0914  0.1068 -0.0410
  332TMC3    C2 4980   2.143   3.948  12.556  0.9227  0.4386 -0.1190
  332TMC3    C3 4981   2.259   3.881  12.587 -0.6642  0.7918  0.5783
  332TMC3    C4 4982   2.130   4.028  12.777  0.0030 -0.3817 -0.1711
  332TMC3    C5 4983   2.245   3.967  12.807  0.4448  0.6532 -0.9450
  332TMC3    C6 4984   2.315   3.890  12.713 -0.5175 -0.1709 -0.8720
  332TMC3     C 4985   1.960   4.089  12.637 -0.1683 -0.4673  0.0316
  332TMC3     O 4986   1.877   4.095  12.730  0.3272 -0.8189  0.3615
  332TMC3     H 4987   2.096   3.933  12.459  0.5734  1.3922 -0.0946
  332TMC3    H1 4988   2.075   4.081  12.854  0.2296 -1.8425  1.0027
  332TMC3    H2 4989   2.403   3.833  12.739 -0.2967  1.4391  1.8940
  332TMC3    C7 4990   2.302   4.005  12.928  0.2498  0.5552  0.8361
  332TMC3    C8 4991   2.342   3.816  12.481 -0.0366 -0.4469  0.3467
  332TMC3    O1 4992   2.220   4.023  13.016  0.0007 -0.0404  0.0690
  332TMC3    O2 4993   2.281   3.796  12.379 -0.2173  0.3008 -0.3293
  333MPD2     C 4994   2.054   4.612  11.027  0.4231 -0.7435 -0.3234
  333MPD2    C1 4995   2.167   4.526  11.034 -0.1503 -0.1630 -0.7676
  333MPD2    C2 4996   2.163   4.401  11.092 -0.3636 -0.2356 -0.0192
  333MPD2    C3 4997   2.045   4.360  11.154  0.1701  0.5788 -0.1053
  333MPD2    C4 4998   1.946   4.454  11.180  0.2504  0.5847 -1.3382
  333MPD2    C5 4999   1.954   4.571  11.108  0.2599  0.4922 -0.3329
  333MPD2     H 5000   2.242   4.328  11.082 -1.0668 -1.0052  0.0746
  333MPD2    H1 5001   1.854   4.429  11.232  3.2568 -2.0710  2.7097
  333MPD2    H2 5002   2.047   4.705  10.973  0.0560  0.5383  1.9632
  333MPD2    H3 5003   1.869   4.637  11.098  1.0856  1.7081  0.6805
  333MPD2     N 5004   2.034   4.226  11.197 -0.3317 -0.2370 -0.1570
  333MPD2    H5 5005   2.105   4.157  11.173  0.3522  0.8560 -1.2940
  333MPD2    N1 5006   2.270   4.571  10.949  0.4949  0.2353 -0.4276
  333MPD2    H7 5007   2.245   4.653  10.894 -0.1445  0.9894  0.9847
  334TMC3    C1 5008   2.482   4.580  10.839 -0.2627  0.2090  0.3584
  334TMC3    C2 5009   2.562   4.486  10.777  0.3352  0.2298 -0.1812
  334TMC3    C3 5010   2.648   4.533  10.681  0.3075 -0.6998 -0.1521
  334TMC3    C4 5011   2.488   4.713  10.805 -0.2795  0.0779 -0.1799
  334TMC3    C5 5012   2.577   0.029  10.711  0.1853 -0.3128  0.5122
  334TMC3    C6 5013   2.654   4.664  10.640 -0.1069  0.3132 -0.0716
  334TMC3     C 5014   2.397   4.519  10.940 -0.6307  0.6286  0.8763
  334TMC3     O 5015   2.444   4.435  11.017  0.1297 -0.6844 -0.1857
  334TMC3     H 5016   2.568   4.384  10.812 -0.2979 -0.2263 -1.3766
  334TMC3    H1 5017   2.431   0.057  10.870  2.3968 -0.3550  2.6331
  334TMC3    H2 5018   2.712   4.696  10.555 -0.8969  2.5461  0.2325
  334TMC3    C7 5019   2.552   0.170  10.659  0.3943  0.4754  0.4217
  334TMC3    C8 5020   2.742   4.436  10.631  0.2132  0.6883  0.4460
  334TMC3    O1 5021   2.439   0.202  10.692 -0.4092 -0.4210 -0.3380
  334TMC3    O2 5022   2.709   4.321  10.650 -0.4447  0.3943 -0.2633
  335TMC3    C1 5023   1.819   0.905  17.431 -0.2211  0.9076  0.1138
  335TMC3    C2 5024   1.711   0.845  17.366  0.0239  0.2956 -0.5795
  335TMC3    C3 5025   1.739   0.763  17.259  0.0365  0.0409  0.5224
  335TMC3    C4 5026   1.948   0.885  17.383  0.3104  0.3095 -0.6427
  335TMC3    C5 5027   1.964   0.799  17.280  0.1104  1.1159 -0.1563
  335TMC3    C6 5028   1.864   0.729  17.218  0.7217 -0.6541 -0.0446
  335TMC3     C 5029   1.788   1.006  17.528  0.3499  0.4099  0.3448
  335TMC3     O 5030   1.678   1.057  17.535  0.1123 -0.1824 -0.1320
  335TMC3     H 5031   1.604   0.860  17.380  0.0089 -1.3052  1.1002
  335TMC3    H1 5032   2.035   0.938  17.422  0.3483 -0.2357  0.0188
  335TMC3    H2 5033   1.893   0.654  17.145  0.9913 -1.3026  0.7232
  335TMC3    C7 5034   2.098   0.735  17.267 -0.4813  0.2097 -0.1477
  335TMC3    C8 5035   1.630   0.666  17.213 -0.8345 -0.5580 -0.3068
  335TMC3    O1 5036   2.195   0.810  17.291  0.3035  0.2476  0.1901
  335TMC3    O2 5037   1.554   0.617  17.296  0.0261  0.6162 -0.2130
  336MPD2     C 5038   1.949   3.474  16.201 -0.6659  0.5759 -0.1666
  336MPD2    C1 5039   1.902   3.419  16.083  0.3559  0.0794  0.0593
  336MPD2    C2 5040   1.891   3.283  16.074 -0.4646  0.5981  0.1221
  336MPD2    C3 5041   1.945   3.198  16.178 -0.1872 -0.3584 -0.1704
  336MPD2    C4 5042   1.992   3.252  16.291 -0.0114 -1.0111  0.2565
  336MPD2    C5 5043   1.986   3.388  16.303 -0.7638  0.0078 -0.4233
  336MPD2     H 5044   1.847   3.247  15.982  0.9716  0.9806 -0.7074
  336MPD2    H1 5045   2.022   3.188  16.373 -0.4133 -0.5267  0.7842
  336MPD2    H2 5046   1.930   3.577  16.228  2.8639  1.2984 -0.4874
  336MPD2    H3 5047   2.009   3.436  16.398 -2.3388  0.0718 -0.0839
  336MPD2     N 5048   1.942   3.058  16.171  0.3949  0.2836  0.0877
  336MPD2    H5 5049   1.979   3.007  16.251  0.8984 -0.7883 -0.8419
  336MPD2    N1 5050   1.837   3.500  15.994  0.1924  0.3649  0.5174
  336MPD2    H7 5051   1.772   3.451  15.933  0.7652  1.0047 -0.6057
  337TMC3    C1 5052   1.742   3.693  15.907 -0.1733 -0.1055  0.5466
  337TMC3    C2 5053   1.629   3.621  15.875  0.0519  0.1771  0.7289
  337TMC3    C3 5054   1.546   3.675  15.778 -0.7652 -0.2382  0.2596
  337TMC3    C4 5055   1.781   3.808  15.837  0.2958 -0.2133 -0.1038
  337TMC3    C5 5056   1.701   3.851  15.742 -0.1989  0.7514 -0.0708
  337TMC3    C6 5057   1.591   3.784  15.708 -0.0316 -0.5054 -0.3118
  337TMC3     C 5058   1.839   3.643  15.995 -0.3349 -0.7268 -0.3637
  337TMC3     O 5059   1.935   3.718  16.016 -0.5709 -0.0906  0.3166
  337TMC3     H 5060   1.605   3.540  15.943  1.2859  1.0895  2.2455
  337TMC3    H1 5061   1.856   3.877  15.874 -1.4404  1.2286  0.6904
  337TMC3    H2 5062   1.531   3.837  15.635 -1.7280  1.8407  2.7828
  337TMC3    C7 5063   1.683   3.995  15.722  0.6329  0.1697 -0.2097
  337TMC3    C8 5064   1.405   3.636  15.792 -0.5038 -0.3835  0.0938
  337TMC3    O1 5065   1.569   4.039  15.710  0.1463  0.1970 -0.5844
  337TMC3    O2 5066   1.392   3.562  15.889  0.5839  0.1589  0.1547
  338MPD2     C 5067   2.083   2.378   1.058 -0.0871  0.6873  0.3060
  338MPD2    C1 5068   2.060   2.466   0.955  0.7338 -0.9411  0.4115
  338MPD2    C2 5069   1.983   2.581   0.982  0.0374 -0.2126  0.2280
  338MPD2    C3 5070   1.933   2.600   1.114  0.0206  0.1344 -0.0219
  338MPD2    C4 5071   1.964   2.509   1.216  0.1404  1.4121 -0.1660
  338MPD2    C5 5072   2.034   2.399   1.181 -0.2480  0.3940 -0.1712
  338MPD2     H 5073   1.969   2.652   0.901  0.4204  2.2103  2.3042
  338MPD2    H1 5074   1.936   2.514   1.321  0.1852 -0.1965 -0.0757
  338MPD2    H2 5075   2.143   2.288   1.046 -1.7457 -0.6354  1.9675
  338MPD2    H3 5076   2.046   2.324   1.258 -0.2065 -1.1032 -1.6374
  338MPD2     N 5077   1.864   2.722   1.144  0.3072 -0.1338  0.3868
  338MPD2    H5 5078   1.839   2.786   1.069  1.2298  0.5577  0.6583
  338MPD2    N1 5079   2.096   2.439   0.818 -0.4945  0.0112 -0.0541
  338MPD2    H7 5080   2.058   2.512   0.759 -0.6634 -0.3167 -0.3514
  339TMC3    C1 5081   1.789   2.903   1.280 -0.1722 -0.3298  0.9527
  339TMC3    C2 5082   1.667   2.927   1.338  0.5733  0.3740  0.5551
  339TMC3    C3 5083   1.610   3.050   1.302 -0.2377  0.4995 -0.2069
  339TMC3    C4 5084   1.839   2.978   1.179  0.0230  0.5033 -0.2519
  339TMC3    C5 5085   1.766   3.087   1.137  0.2563 -0.2312 -0.0096
  339TMC3    C6 5086   1.653   3.128   1.199 -0.2452  0.4665  0.0881
  339TMC3     C 5087   1.806   2.754   1.267  0.2790 -0.3387 -0.2914
  339TMC3     O 5088   1.787   2.692   1.371 -0.0339 -0.4211  0.3972
  339TMC3     H 5089   1.625   2.872   1.421 -2.0784 -0.7915 -1.5705
  339TMC3    H1 5090   1.939   2.958   1.140 -0.7497 -3.7548 -0.0781
  339TMC3    H2 5091   1.612   3.225   1.175 -0.1854  0.8070  1.3504
  339TMC3    C7 5092   1.810   3.168   1.028 -0.0441  0.5245  0.3907
  339TMC3    C8 5093   1.476   3.088   1.346  0.1243 -1.1179  0.2490
  339TMC3    O1 5094   1.744   3.271   1.004 -0.3496  0.6228 -0.0985
  339TMC3    O2 5095   1.418   3.154   1.263 -0.0104 -0.2315 -0.5836
  340MPD2     C 5096   2.101   0.775  10.266 -0.2831  0.4301 -0.5653
  340MPD2    C1 5097   2.170   0.835  10.159  0.5532 -0.5459 -0.0101
  340MPD2    C2 5098   2.237   0.953  10.186  0.0276 -0.5185  0.1078
  340MPD2    C3 5099   2.239   1.008  10.318 -0.0595 -0.1141  0.9516
  340MPD2    C4 5100   2.183   0.941  10.422 -0.9409  0.1808  0.0345
  340MPD2    C5 5101   2.121   0.817  10.395 -0.1803  0.0569  0.2672
  340MPD2     H 5102   2.297   1.001  10.109 -2.8237  0.3644 -1.5409
  340MPD2    H1 5103   2.173   0.981  10.522 -1.8655  0.7945 -0.3052
  340MPD2    H2 5104   2.047   0.684  10.242  0.3458  0.3284 -1.6035
  340MPD2    H3 5105   2.089   0.762  10.483 -1.2163 -1.5600 -1.1186
  340MPD2     N 5106   2.298   1.134  10.339 -1.1242 -0.3817  0.0100
  340MPD2    H5 5107   2.331   1.152  10.433 -1.1455 -1.1842  0.1646
  340MPD2    N1 5108   2.168   0.781  10.029  0.6957 -0.4241 -0.5491
  340MPD2    H7 5109   2.139   0.684  10.021  1.7912 -0.8006  0.0469
  341TMC3    C1 5110   2.220   0.733   9.805  0.2935  0.2689 -0.4367
  341TMC3    C2 5111   2.097   0.688   9.780 -0.8610  0.4460  0.0216
  341TMC3    C3 5112   2.076   0.631   9.658  0.1513 -0.5777  0.2579
  341TMC3    C4 5113   2.325   0.720   9.712  0.2704  0.5891  0.2654
  341TMC3    C5 5114   2.301   0.656   9.594 -0.2273 -0.5662  0.2278
  341TMC3    C6 5115   2.175   0.613   9.561 -0.6103  0.1840  0.2279
  341TMC3     C 5116   2.228   0.828   9.918  0.9902 -0.2222  0.0878
  341TMC3     O 5117   2.262   0.941   9.896 -0.3620  0.9804  0.1448
  341TMC3     H 5118   2.014   0.699   9.849 -0.4843 -0.8666  0.6880
  341TMC3    H1 5119   2.430   0.739   9.729  0.4440 -1.3558  1.4493
  341TMC3    H2 5120   2.164   0.540   9.481 -0.0135 -0.0760  0.3767
  341TMC3    C7 5121   2.422   0.596   9.531 -0.3605 -0.2635  0.3341
  341TMC3    C8 5122   1.964   0.536   9.663 -0.0620 -0.5330 -0.5083
  341TMC3    O1 5123   2.514   0.561   9.601 -0.0678  0.2150  0.1950
  341TMC3    O2 5124   1.927   0.492   9.769  0.4997 -0.3036 -0.8187
  342MPD2     C 5125   0.134   3.799  17.040 -0.5278 -0.2238 -0.1320
  342MPD2    C1 5126   0.214   3.784  17.150  0.2436  0.7458  0.2960
  342MPD2    C2 5127   0.248   3.900  17.219  0.3078  0.6358  0.1954
  342MPD2    C3 5128   0.178   4.014  17.189 -0.2761 -0.2840  0.3887
  342MPD2    C4 5129   0.081   4.016  17.091  0.2173  1.0643  1.1072
  342MPD2    C5 5130   0.078   3.918  17.006 -0.0528 -0.0770 -0.2364
  342MPD2     H 5131   0.322   3.893  17.297  0.1361  2.2407  0.4994
  342MPD2    H1 5132   0.018   4.101  17.071  0.8942  0.9313 -1.6167
  342MPD2    H2 5133   0.117   3.716  16.973 -0.5396 -0.4639  0.1700
  342MPD2    H3 5134   0.010   3.921  16.922  0.0600  1.9135 -0.2548
  342MPD2     N 5135   0.201   4.137  17.255  0.0586 -0.2536  0.5750
  342MPD2    H5 5136   0.158   4.224  17.224 -1.6889 -1.2868  0.1267
  342MPD2    N1 5137   0.270   3.660  17.195  0.0252 -0.3758  0.2050
  342MPD2    H7 5138   0.294   3.649  17.292 -2.4931  3.4258  1.2817
  343TMC3    C1 5139   0.299   3.430  17.217 -0.0583 -0.4335  0.5381
  343TMC3    C2 5140   0.386   3.456  17.316  0.2900 -0.8128  0.6668
  343TMC3    C3 5141   0.418   3.354  17.397  1.0318 -1.0426  0.3759
  343TMC3    C4 5142   0.252   3.305  17.187 -0.3485 -0.5104  0.0207
  343TMC3    C5 5143   0.291   3.202  17.270 -0.0743 -0.3652 -0.2773
  343TMC3    C6 5144   0.374   3.225  17.381  0.8910  0.7499  0.4586
  343TMC3     C 5145   0.246   3.536  17.141  0.2259  0.1806  0.6205
  343TMC3     O 5146   0.191   3.508  17.037 -0.8382  0.3037  0.1692
  343TMC3     H 5147   0.458   3.537  17.316 -0.5506 -0.0798  0.2902
  343TMC3    H1 5148   0.177   3.289  17.111  1.1570  2.2044 -2.0486
  343TMC3    H2 5149   0.400   3.152  17.457 -0.9522  0.1922  0.5577
  343TMC3    C7 5150   0.184   3.104  17.283  0.5895  0.4243  0.4746
  343TMC3    C8 5151   0.562   3.345  17.424  0.9234 -0.4248 -0.0999
  343TMC3    O1 5152   0.086   3.125  17.208  0.1574  0.3084  0.3364
  343TMC3    O2 5153   0.597   3.373  17.536  0.2943 -0.3247  0.1263
  344MPD2     C 5154   1.451   3.640  10.933 -0.8362 -0.2351  0.2594
  344MPD2    C1 5155   1.358   3.600  10.837 -0.5963  0.0961  0.3201
  344MPD2    C2 5156   1.371   3.651  10.710  0.3941 -0.3074  0.5142
  344MPD2    C3 5157   1.477   3.735  10.679 -0.2810 -0.1372  0.5393
  344MPD2    C4 5158   1.566   3.770  10.772 -0.3487  0.2726  0.1605
  344MPD2    C5 5159   1.554   3.720  10.894 -0.2692 -0.3481 -0.3151
  344MPD2     H 5160   1.291   3.633  10.639  0.8958 -0.8696  0.0884
  344MPD2    H1 5161   1.647   3.838  10.748 -0.6731 -0.0124 -1.7325
  344MPD2    H2 5162   1.432   3.617  11.037 -0.5969 -2.0912 -0.1097
  344MPD2    H3 5163   1.626   3.747  10.970 -2.1815 -1.6631  1.9931
  344MPD2     N 5164   1.488   3.794  10.556 -0.0341 -0.3178  0.6016
  344MPD2    H5 5165   1.557   3.866  10.536 -1.0553  0.6143  0.4867
  344MPD2    N1 5166   1.253   3.506  10.860  0.0013  0.5839 -0.4398
  344MPD2    H7 5167   1.202   3.476  10.777  0.5810 -3.5697  0.6939
  345TMC3    C1 5168   1.454   3.856  10.339 -0.2766 -0.2785 -0.2244
  345TMC3    C2 5169   1.479   3.814  10.212  0.2230 -0.5265  0.0615
  345TMC3    C3 5170   1.488   3.900  10.109 -0.1384 -0.7254 -0.1481
  345TMC3    C4 5171   1.439   3.988  10.368  0.0865  0.1559 -0.6392
  345TMC3    C5 5172   1.443   4.074  10.267  0.5417 -0.2237  0.0880
  345TMC3    C6 5173   1.465   4.033  10.135  0.7150 -0.2293 -0.3943
  345TMC3     C 5174   1.423   3.759  10.439 -0.1690  0.1964  0.1905
  345TMC3     O 5175   1.363   3.658  10.405  0.4664 -0.3691  0.6743
  345TMC3     H 5176   1.473   3.709  10.188  2.4517  0.0043 -2.8278
  345TMC3    H1 5177   1.421   4.019  10.470 -4.5893  0.2245 -1.5062
  345TMC3    H2 5178   1.462   4.097  10.047 -1.8174 -1.0249 -0.9089
  345TMC3    C7 5179   1.430   4.215  10.298  0.3941  0.6421 -0.1047
  345TMC3    C8 5180   1.483   3.843   9.970 -0.3695 -0.2655 -0.6372
  345TMC3    O1 5181   1.505   4.290  10.235 -0.0341 -0.0463 -0.1050
  345TMC3    O2 5182   1.423   3.739   9.962  0.3072 -0.5301  0.1515
  346MPD2     C 5183   0.546   0.474  13.982 -0.4929  0.4839  0.6129
  346MPD2    C1 5184   0.666   0.511  13.919 -0.0547  0.4243 -0.0714
  346MPD2    C2 5185   0.742   0.607  13.984  0.3729 -0.2133 -0.2673
  346MPD2    C3 5186   0.704   0.662  14.111 -0.4867  0.3226 -0.4756
  346MPD2    C4 5187   0.585   0.624  14.162 -0.2261  0.6822  0.6266
  346MPD2    C5 5188   0.505   0.533  14.092 -0.2158  0.2447  0.7473
  346MPD2     H 5189   0.838   0.640  13.944 -1.1700  4.1482 -0.4409
  346MPD2    H1 5190   0.548   0.669  14.253 -0.1221  0.1177  0.9501
  346MPD2    H2 5191   0.474   0.415  13.926  0.9423 -0.9318  0.2668
  346MPD2    H3 5192   0.405   0.512  14.129  0.2389 -1.0930  1.2564
  346MPD2     N 5193   0.786   0.749  14.181  0.6937 -0.0319 -0.3200
  346MPD2    H5 5194   0.862   0.787  14.125 -1.6007  1.3442 -2.5115
  346MPD2    N1 5195   0.724   0.457  13.799  0.1966  0.9114  0.0036
  346MPD2    H7 5196   0.819   0.486  13.779 -0.2000  1.7814 -0.6031
  347TMC3    C1 5197   0.935   0.817  14.360 -0.7064  0.4316  0.3251
  347TMC3    C2 5198   1.050   0.789  14.287 -0.1699  0.1252 -0.0596
  347TMC3    C3 5199   1.174   0.824  14.349 -0.6324  0.0777  0.2953
  347TMC3    C4 5200   0.944   0.876  14.485 -0.5362 -0.4534 -0.3970
  347TMC3    C5 5201   1.062   0.897  14.544  0.1577 -0.0277  0.3326
  347TMC3    C6 5202   1.178   0.884  14.473 -0.2522 -0.1926  0.3745
  347TMC3     C 5203   0.808   0.763  14.319 -0.1346 -0.1919 -0.2498
  347TMC3     O 5204   0.729   0.745  14.414 -0.2158 -0.0752 -0.2207
  347TMC3     H 5205   1.048   0.714  14.208 -0.6323  1.5481 -1.3849
  347TMC3    H1 5206   0.860   0.881  14.552 -0.2110 -0.0501 -0.0220
  347TMC3    H2 5207   1.276   0.889  14.520  0.2680 -2.2102 -0.4841
  347TMC3    C7 5208   1.060   0.953  14.679  0.1390  0.5515 -0.1911
  347TMC3    C8 5209   1.287   0.741  14.313  0.6439  0.2987 -0.5283
  347TMC3    O1 5210   0.957   0.933  14.742 -0.0529 -0.3762  0.4309
  347TMC3    O2 5211   1.265   0.636  14.258  0.6548  0.1969  0.2436
  348MPD2     C 5212   4.433   0.600  11.834 -0.1823  0.5918 -1.0037
  348MPD2    C1 5213   4.566   0.604  11.798 -0.1757  0.1503  0.2057
  348MPD2    C2 5214   4.596   0.665  11.673  0.1456 -0.4698 -0.6759
  348MPD2    C3 5215   4.493   0.722  11.591 -0.0484 -0.2142 -0.5408
  348MPD2    C4 5216   4.363   0.706  11.634  0.0618 -0.2416 -0.5417
  348MPD2    C5 5217   4.330   0.652  11.759 -0.3908 -0.3094 -0.6849
  348MPD2     H 5218   4.698   0.676  11.638  1.5490  1.3311  4.0427
  348MPD2    H1 5219   4.274   0.745  11.585  1.2418  1.2945 -1.4396
  348MPD2    H2 5220   4.406   0.543  11.923  1.0178 -1.2356 -1.8105
  348MPD2    H3 5221   4.224   0.649  11.779 -0.1169 -0.2427  0.8001
  348MPD2     N 5222   4.534   0.783  11.470 -0.0474  0.1057 -0.4095
  348MPD2    H5 5223   4.632   0.799  11.450  0.9186 -3.7569  1.2863
  348MPD2    N1 5224   4.670   0.556  11.875 -0.0634 -0.3566 -0.4919
  348MPD2    H7 5225   0.041   0.583  11.846 -0.0717  1.9601  1.6745
  349TMC3    C1 5226   0.070   0.446  12.027  0.0077 -0.2027 -0.9209
  349TMC3    C2 5227   0.050   0.324  12.084 -0.0019 -0.0433 -0.3827
  349TMC3    C3 5228   0.134   0.225  12.043 -0.1544  0.1835 -0.2161
  349TMC3    C4 5229   0.167   0.468  11.936 -0.1038 -0.6499  0.9970
  349TMC3    C5 5230   0.236   0.359  11.885 -0.0482  0.5736 -0.1862
  349TMC3    C6 5231   0.227   0.233  11.944 -0.6984 -0.1232  0.6807
  349TMC3     C 5232   4.663   0.498  11.996 -0.3514 -0.2720 -0.1006
  349TMC3     O 5233   4.567   0.465  12.062  0.3128  0.0011 -0.0401
  349TMC3     H 5234   4.696   0.313  12.160  0.8674  2.4225  0.8378
  349TMC3    H1 5235   0.196   0.566  11.901 -0.5401 -0.4694  1.1359
  349TMC3    H2 5236   0.278   0.145  11.907 -0.5038 -0.5237  1.9137
  349TMC3    C7 5237   0.222   0.344  11.744 -0.1370  0.1029  0.4021
  349TMC3    C8 5238   0.103   0.080  12.079  0.7644 -0.5301  0.0418
  349TMC3    O1 5239   0.192   0.235  11.691 -0.2456 -0.8308 -0.0171
  349TMC3    O2 5240   0.202   0.007  12.085 -0.0297  0.0694  0.0532
  350MPD2     C 5241   3.672   3.149   9.860 -0.2925 -0.1161  0.1212
  350MPD2    C1 5242   3.703   3.015   9.851 -0.1371  0.4368 -0.0168
  350MPD2    C2 5243   3.815   2.974   9.787  0.5788 -0.3456 -0.1200
  350MPD2    C3 5244   3.919   3.065   9.764  0.3908  0.0805  0.9614
  350MPD2    C4 5245   3.893   3.203   9.791  0.0652 -0.4318  0.0750
  350MPD2    C5 5246   3.769   3.236   9.832  0.1143 -0.0912 -0.0689
  350MPD2     H 5247   3.829   2.869   9.764 -0.6062 -0.5071 -0.1110
  350MPD2    H1 5248   3.966   3.280   9.774 -0.2914 -0.1980 -0.3963
  350MPD2    H2 5249   3.573   3.187   9.882  0.3484  1.7264 -0.1633
  350MPD2    H3 5250   3.753   3.341   9.854  0.2010 -0.3416  1.1826
  350MPD2     N 5251   4.039   3.018   9.714  0.3050 -0.0596 -0.3310
  350MPD2    H5 5252   4.033   2.920   9.690  3.8597 -0.8107  1.7550
  350MPD2    N1 5253   3.615   2.908   9.888  0.4917 -0.2943  0.1790
  350MPD2    H7 5254   3.655   2.815   9.874  0.0192 -0.4636 -0.0303
  351TMC3    C1 5255   3.436   2.790   9.995 -0.1835  0.0399  0.1766
  351TMC3    C2 5256   3.479   2.676   9.935  0.1828 -0.4267  0.4921
  351TMC3    C3 5257   3.457   2.558   9.998 -0.2127 -0.0640  0.7681
  351TMC3    C4 5258   3.368   2.791  10.110 -0.0075  0.3747 -0.3819
  351TMC3    C5 5259   3.335   2.671  10.164 -0.4766  0.3671 -0.0882
  351TMC3    C6 5260   3.378   2.550  10.110 -0.4912 -0.4784 -1.0035
  351TMC3     C 5261   3.494   2.921   9.946 -0.2796  0.4385 -0.5522
  351TMC3     O 5262   3.433   3.025   9.974  0.0457  0.2874 -0.2797
  351TMC3     H 5263   3.549   2.686   9.852 -0.4127  0.5627  0.1086
  351TMC3    H1 5264   3.332   2.883  10.156  1.5686  1.0934 -0.5592
  351TMC3    H2 5265   3.344   2.454  10.149 -0.0028 -1.0187 -1.8959
  351TMC3    C7 5266   3.253   2.666  10.284 -0.7749  0.3494 -0.7450
  351TMC3    C8 5267   3.516   2.440   9.934  0.1442  0.5405  0.2147
  351TMC3    O1 5268   3.198   2.558  10.302  0.1248  0.0765  0.1034
  351TMC3    O2 5269   3.550   2.453   9.818  0.3338 -0.3531  0.0746
  352MPD2     C 5270   1.181   0.413   1.397  0.3091 -0.5625  0.3089
  352MPD2    C1 5271   1.227   0.451   1.272 -0.0364 -0.1737 -0.1517
  352MPD2    C2 5272   1.366   0.436   1.253  0.4567 -0.0869 -0.3176
  352MPD2    C3 5273   1.446   0.374   1.348  0.8699  0.4637  0.4131
  352MPD2    C4 5274   1.392   0.336   1.468 -0.6425 -0.4189 -0.0408
  352MPD2    C5 5275   1.260   0.359   1.496  0.1859 -0.3001 -0.1467
  352MPD2     H 5276   1.407   0.454   1.154  1.7805 -2.3238 -0.1805
  352MPD2    H1 5277   1.454   0.297   1.548  2.0601  2.1448 -0.9203
  352MPD2    H2 5278   1.078   0.419   1.430  0.3742 -0.0530  0.4214
  352MPD2    H3 5279   1.221   0.346   1.596  1.9429 -0.5581  0.5085
  352MPD2     N 5280   1.574   0.315   1.332 -0.6851  0.6212 -0.0008
  352MPD2    H5 5281   1.615   0.274   1.415  0.1723 -1.5492 -1.5018
  352MPD2    N1 5282   1.136   0.493   1.169  0.6905 -0.3153  0.6555
  352MPD2    H7 5283   1.042   0.515   1.201  0.1222 -0.5033 -0.9064
  353TMC3    C1 5284   1.783   0.252   1.224  0.5295 -0.2248 -0.1561
  353TMC3    C2 5285   1.873   0.282   1.117  0.8553  0.4758  0.3066
  353TMC3    C3 5286   1.964   0.186   1.079  0.1348  0.0905 -0.0978
  353TMC3    C4 5287   1.797   0.141   1.296  0.6338  0.5679 -0.8163
  353TMC3    C5 5288   1.888   0.052   1.255 -0.5572  0.6868 -0.9400
  353TMC3    C6 5289   1.967   0.065   1.143 -0.0978 -0.3136 -0.1183
  353TMC3     C 5290   1.654   0.320   1.218 -0.6868 -0.1441 -0.3960
  353TMC3     O 5291   1.631   0.388   1.123  0.2988 -0.3457  0.2779
  353TMC3     H 5292   1.875   0.381   1.073 -3.1031  1.6998  2.9184
  353TMC3    H1 5293   1.714   0.110   1.359  0.4773  1.6143 -0.5112
  353TMC3    H2 5294   2.034   4.703   1.127  0.2260  0.1718 -1.3064
  353TMC3    C7 5295   1.863   4.635   1.283 -0.0547 -0.8313 -0.2350
  353TMC3    C8 5296   2.023   0.218   0.950 -0.0105  0.2141 -0.2885
  353TMC3    O1 5297   1.862   4.560   1.184  0.1542 -0.2332  0.1545
  353TMC3    O2 5298   1.999   0.325   0.892  0.5580  0.2353 -0.1398
  354TMC3    C1 5299   3.612   1.517  13.286  0.4668  0.4711 -0.2545
  354TMC3    C2 5300   3.631   1.649  13.289 -0.2482 -0.1765  0.1219
  354TMC3    C3 5301   3.661   1.711  13.170 -0.6919 -0.3840 -0.5071
  354TMC3    C4 5302   3.621   1.443  13.173 -0.0855  0.0710  0.7854
  354TMC3    C5 5303   3.670   1.509  13.060 -0.5638 -0.1725 -0.1677
  354TMC3    C6 5304   3.683   1.643  13.053 -0.4922 -0.1248  0.1761
  354TMC3     C 5305   3.606   1.449  13.407 -0.0154 -0.1300 -0.1895
  354TMC3     O 5306   3.531   1.351  13.406  0.4545 -0.3500  0.1795
  354TMC3     H 5307   3.624   1.704  13.383  0.3815 -0.5274  0.3664
  354TMC3    H1 5308   3.635   1.335  13.177 -0.3840  0.0130  0.3193
  354TMC3    H2 5309   3.709   1.685  12.956  2.5997  0.8733  1.4485
  354TMC3    C7 5310   3.744   1.440  12.955 -0.1170 -0.6751  0.2336
  354TMC3    C8 5311   3.685   1.854  13.171 -0.4625 -0.0095 -0.8028
  354TMC3    O1 5312   3.722   1.320  12.944  0.2697 -0.3025 -0.2393
  354TMC3    O2 5313   3.712   1.905  13.278  0.7619 -0.0827  0.0059
  355MPD2     C 5314   3.643   2.374  11.524  0.1823  0.4135 -0.7748
  355MPD2    C1 5315   3.687   2.433  11.409  0.2462  0.6506  0.4608
  355MPD2    C2 5316   3.824   2.446  11.399  0.5283 -0.2139  1.2278
  355MPD2    C3 5317   3.913   2.426  11.502  0.0319  0.7138 -1.2791
  355MPD2    C4 5318   3.860   2.384  11.624  0.2013 -0.2292 -0.2944
  355MPD2    C5 5319   3.726   2.356  11.636  0.3375 -0.2483 -0.1789
  355MPD2     H 5320   3.847   2.478  11.298 -1.3174  0.5383  1.0356
  355MPD2    H1 5321   3.927   2.372  11.709  0.9177  0.6216 -0.7417
  355MPD2    H2 5322   3.535   2.372  11.538  0.2954 -0.9512 -0.0810
  355MPD2    H3 5323   3.686   2.313  11.727  0.1122 -2.0308 -1.1034
  355MPD2     N 5324   4.053   2.452  11.493 -0.0336 -0.9351  0.4294
  355MPD2    H5 5325   4.111   2.429  11.573 -1.0395  1.4569  1.8208
  355MPD2    N1 5326   3.584   2.486  11.324 -0.2009  0.4333  0.0347
  355MPD2    H7 5327   3.500   2.444  11.362  1.4500 -1.0755  2.0500
  356TMC3    C1 5328   4.259   2.528  11.412  0.6610  0.0755  0.4758
  356TMC3    C2 5329   4.323   2.592  11.309  0.5167  0.9117 -0.3131
  356TMC3    C3 5330   4.433   2.663  11.345  0.1327 -0.3513  0.6272
  356TMC3    C4 5331   4.297   2.539  11.544  0.8047  0.1473  0.1483
  356TMC3    C5 5332   4.399   2.616  11.578 -0.3685  0.4431 -0.0429
  356TMC3    C6 5333   4.472   2.677  11.479 -0.3481 -0.4739 -0.7548
  356TMC3     C 5334   4.126   2.483  11.377 -0.2486  0.0994 -0.2196
  356TMC3     O 5335   4.088   2.497  11.263  0.2635  0.0322  0.1546
  356TMC3     H 5336   4.294   2.584  11.205  0.8851  1.2681 -0.4435
  356TMC3    H1 5337   4.245   2.496  11.629  2.3237  0.7531  1.3705
  356TMC3    H2 5338   4.566   2.719  11.513 -0.9186  0.0251  0.1970
  356TMC3    C7 5339   4.427   2.645  11.720  0.2827 -0.0418 -0.0273
  356TMC3    C8 5340   4.499   2.735  11.241  0.7605  0.0339  0.1344
  356TMC3    O1 5341   4.387   2.551  11.789 -0.2854  0.5802  0.4381
  356TMC3    O2 5342   4.459   2.720  11.123 -0.6968 -0.1910  0.2531
  357MPD2     C 5343   3.707   1.801   1.216 -0.6080  0.3177  0.4071
  357MPD2    C1 5344   3.842   1.773   1.213 -0.0830 -0.4323  1.0185
  357MPD2    C2 5345   3.914   1.815   1.319  0.0861  0.4662  0.2810
  357MPD2    C3 5346   3.854   1.879   1.425 -0.0238 -0.7209 -0.5707
  357MPD2    C4 5347   3.728   1.905   1.422 -0.3615 -0.2511 -1.0989
  357MPD2    C5 5348   3.650   1.875   1.312 -0.6384 -0.0524  0.4516
  357MPD2     H 5349   4.022   1.805   1.310 -0.1202 -0.4300 -1.1364
  357MPD2    H1 5350   3.678   1.948   1.508  2.5531  0.8705  0.0189
  357MPD2    H2 5351   3.642   1.774   1.133  2.5557  1.0946 -2.3330
  357MPD2    H3 5352   3.542   1.885   1.310 -0.7192 -0.9442  0.7475
  357MPD2     N 5353   3.929   1.912   1.543  0.2520  0.0414  0.1779
  357MPD2    H5 5354   3.878   1.958   1.618 -0.2728 -2.4882  1.3707
  357MPD2    N1 5355   3.914   1.721   1.106  0.2232 -0.2647 -0.4004
  357MPD2    H7 5356   4.014   1.721   1.122  0.2318  1.4099 -0.5097
  358TMC3    C1 5357   3.984   1.656   0.906 -0.0777  0.3556 -0.0826
  358TMC3    C2 5358   4.001   1.528   0.862  0.1001  0.7342  0.2563
  358TMC3    C3 5359   4.127   1.478   0.874 -0.0217  0.3966 -0.2635
  358TMC3    C4 5360   4.087   1.732   0.952 -0.0596 -0.6783 -0.3449
  358TMC3    C5 5361   4.204   1.670   0.971  0.6008 -0.7207  0.5185
  358TMC3    C6 5362   4.228   1.540   0.942 -0.1186 -0.4325 -0.0545
  358TMC3     C 5363   3.864   1.673   0.987  0.1991 -0.5264 -0.8937
  358TMC3     O 5364   3.748   1.648   0.953 -0.1571 -0.0390 -0.0299
  358TMC3     H 5365   3.912   1.471   0.838  0.1164  0.8175 -0.0013
  358TMC3    H1 5366   4.078   1.840   0.964  0.4949 -0.6118 -0.5337
  358TMC3    H2 5367   4.329   1.503   0.928 -0.2743 -1.1811  0.7858
  358TMC3    C7 5368   4.273   1.737   1.086  0.0951  0.0075 -0.1342
  358TMC3    C8 5369   4.138   1.346   0.819 -0.0378  0.2427 -0.3007
  358TMC3    O1 5370   4.210   1.824   1.143 -0.2026 -0.3725 -0.2036
  358TMC3    O2 5371   4.039   1.312   0.760 -0.1532  0.3132 -0.1563
  359MPD2     C 5372   4.493   0.730  12.370  0.5535 -0.3707  0.3002
  359MPD2    C1 5373   4.423   0.768  12.254  0.5091 -0.3567 -0.1727
  359MPD2    C2 5374   4.304   0.703  12.221  0.5092  0.5174  1.0725
  359MPD2    C3 5375   4.268   0.586  12.281 -0.0684  0.2330 -0.1265
  359MPD2    C4 5376   4.338   0.555  12.399 -1.2226 -0.0423 -0.0060
  359MPD2    C5 5377   4.447   0.620  12.437  0.4814 -0.2871 -0.0228
  359MPD2     H 5378   4.260   0.738  12.129  2.4122  0.0702 -0.0061
  359MPD2    H1 5379   4.310   0.473  12.463  1.3743 -0.6696  0.3275
  359MPD2    H2 5380   4.581   0.784  12.404  1.5864 -1.7214 -0.2493
  359MPD2    H3 5381   4.494   0.584  12.528  1.6973  0.7803 -0.2311
  359MPD2     N 5382   4.170   0.492  12.238 -0.4316  0.2701  0.3233
  359MPD2    H5 5383   4.150   0.407  12.289 -0.8097 -0.4178 -0.9701
  359MPD2    N1 5384   4.460   0.870  12.157 -0.4818  0.0684  0.1147
  359MPD2    H7 5385   4.397   0.901  12.083 -3.0608 -2.6919  1.1882
  360TMC3    C1 5386   4.612   1.007  12.043  0.6873  0.0251 -0.0122
  360TMC3    C2 5387   4.694   1.123  12.062  1.0133  0.1952 -0.0110
  360TMC3    C3 5388   4.710   1.210  11.959 -0.4145 -1.1339  0.0166
  360TMC3    C4 5389   4.525   1.012  11.929  0.0870  0.5901  0.3202
  360TMC3    C5 5390   4.536   1.115  11.839 -0.5215 -0.6995  0.7070
  360TMC3    C6 5391   4.633   1.213  11.847  0.0256 -0.2768  0.3582
  360TMC3     C 5392   4.584   0.928  12.156 -0.0931 -0.1359  0.3476
  360TMC3     O 5393   4.673   0.915  12.241  0.8830 -0.0068  0.2812
  360TMC3     H 5394   0.046   1.120  12.141  0.9579 -0.7250  0.0087
  360TMC3    H1 5395   4.456   0.931  11.910 -0.9904  1.7127 -0.5409
  360TMC3    H2 5396   4.642   1.290  11.771  2.8794  1.6242  2.6259
  360TMC3    C7 5397   4.449   1.113  11.715  0.5907  0.0042  0.6223
  360TMC3    C8 5398   0.112   1.294  11.964 -0.0525  0.0568 -0.0568
  360TMC3    O1 5399   4.484   1.204  11.636  0.1928 -0.0628 -0.0472
  360TMC3    O2 5400   0.211   1.245  12.021  0.3080  0.0683 -0.3079
  361MPD2     C 5401   1.129   4.503  16.706 -0.3653 -0.5273  0.0636
  361MPD2    C1 5402   1.053   4.477  16.822  0.1773  0.2651  0.9015
  361MPD2    C2 5403   1.099   4.370  16.893  0.3967 -0.1569  0.8372
  361MPD2    C3 5404   1.211   4.290  16.867  0.0692 -0.5957  0.4713
  361MPD2    C4 5405   1.287   4.319  16.755  0.4813 -0.5530 -0.6890
  361MPD2    C5 5406   1.241   4.425  16.676 -0.1551 -0.0781 -0.0254
  361MPD2     H 5407   1.050   4.350  16.987  0.7656 -0.2741  1.0048
  361MPD2    H1 5408   1.372   4.260  16.722  1.2416 -0.0805  0.4174
  361MPD2    H2 5409   1.107   4.587  16.641  0.5296 -1.0927 -0.9787
  361MPD2    H3 5410   1.283   4.437  16.577  1.6090 -3.1327  0.3715
  361MPD2     N 5411   1.260   4.181  16.947 -0.0716  1.0757  0.6352
  361MPD2    H5 5412   1.343   4.130  16.918 -3.4248 -3.2339 -1.3637
  361MPD2    N1 5413   0.954   4.562  16.868  0.1183  0.1559  0.4793
  361MPD2    H7 5414   0.939   4.650  16.820 -1.3881 -1.2086 -1.5719
  362TMC3    C1 5415   0.793   4.670  17.026 -0.2068 -0.5274  0.2615
  362TMC3    C2 5416   0.681   4.654  17.102 -0.7917 -0.0460  0.6242
  362TMC3    C3 5417   0.593   0.031  17.112  0.3333 -1.0355  0.5330
  362TMC3    C4 5418   0.820   0.070  16.981 -0.5593  0.4416  0.0241
  362TMC3    C5 5419   0.721   0.171  16.984 -0.1830  0.0384  0.2405
  362TMC3    C6 5420   0.602   0.150  17.047  0.1339  0.2459  0.1612
  362TMC3     C 5421   0.876   4.550  16.982 -0.1847  0.4127  0.2414
  362TMC3     O 5422   0.854   4.450  17.047 -0.1764 -0.2454  0.8052
  362TMC3     H 5423   0.674   4.565  17.164 -0.8631 -0.3463  0.1851
  362TMC3    H1 5424   0.912   0.082  16.924 -0.1239  2.3477  1.1562
  362TMC3    H2 5425   0.525   0.226  17.053 -1.0150 -1.0923  2.5395
  362TMC3    C7 5426   0.738   0.290  16.901 -0.7131 -0.5409 -0.4928
  362TMC3    C8 5427   0.477   4.720  17.187  0.3573 -1.3923  0.3604
  362TMC3    O1 5428   0.645   0.368  16.902  0.0292  0.1705 -0.4485
  362TMC3    O2 5429   0.458   4.602  17.188  0.6696  0.6922  0.2316
  363TMC3    C1 5430   4.229   2.460   9.122  0.2051 -0.0409  0.0712
  363TMC3    C2 5431   4.227   2.385   9.239 -0.1762 -0.0807  0.0183
  363TMC3    C3 5432   4.133   2.400   9.335 -0.1538 -0.3399  0.7499
  363TMC3    C4 5433   4.128   2.551   9.106  0.6483 -0.8236 -0.0981
  363TMC3    C5 5434   4.026   2.561   9.206  0.1100 -0.4026 -0.2184
  363TMC3    C6 5435   4.029   2.486   9.315 -0.4034  0.4334  1.0310
  363TMC3     C 5436   4.344   2.467   9.032 -1.2509 -0.6734 -0.0395
  363TMC3     O 5437   4.311   2.504   8.920 -0.0214  0.1988 -0.1990
  363TMC3     H 5438   4.319   2.330   9.254 -1.1246 -2.9425 -4.6301
  363TMC3    H1 5439   4.121   2.627   9.029 -0.6216 -0.8754 -0.0279
  363TMC3    H2 5440   3.958   2.486   9.397 -0.7066  1.6647  0.7694
  363TMC3    C7 5441   3.918   2.644   9.174 -0.2311  0.0775  0.1119
  363TMC3    C8 5442   4.152   2.333   9.466 -0.2344  0.5072  0.2904
  363TMC3    O1 5443   3.937   2.754   9.120 -0.2749 -0.2286 -0.5205
  363TMC3    O2 5444   4.068   2.349   9.548  0.0061  0.1168  0.1507
  364MPD2     C 5445   2.813   1.628  10.384  0.6225  0.2942  0.1146
  364MPD2    C1 5446   2.925   1.608  10.305  0.0805 -0.1260 -0.5893
  364MPD2    C2 5447   3.006   1.499  10.334  0.5604  0.8359  0.4408
  364MPD2    C3 5448   2.970   1.406  10.433  0.9605  0.4512 -0.3996
  364MPD2    C4 5449   2.860   1.436  10.509  0.0965  0.8812  0.3119
  364MPD2    C5 5450   2.784   1.542  10.484 -0.0615  0.7440 -0.3895
  364MPD2     H 5451   3.093   1.491  10.269 -0.2716 -0.0823 -0.5617
  364MPD2    H1 5452   2.837   1.374  10.595 -2.1997 -0.2921 -1.1448
  364MPD2    H2 5453   2.740   1.707  10.371  0.9941  0.7320  0.6799
  364MPD2    H3 5454   2.700   1.564  10.549 -0.5545 -1.5678 -0.2580
  364MPD2     N 5455   3.046   1.293  10.465  0.4115  0.7761  0.7856
  364MPD2    H5 5456   3.000   1.238  10.537 -0.6392  3.9387  2.5541
  364MPD2    N1 5457   2.959   1.706  10.210  0.6666  0.1177  0.1955
  364MPD2    H7 5458   2.909   1.795  10.212 -0.2777 -0.3542 -2.2750
  365TMC3    C1 5459   3.100   1.830  10.076  0.4600  0.6314 -0.4005
  365TMC3    C2 5460   3.167   1.835   9.959 -0.6575  0.4448 -0.1261
  365TMC3    C3 5461   3.249   1.941   9.941 -0.3733  0.1075  0.2755
  365TMC3    C4 5462   3.110   1.929  10.171 -0.4874  0.5345 -0.0303
  365TMC3    C5 5463   3.199   2.037  10.149 -0.4932  0.1616 -0.0126
  365TMC3    C6 5464   3.267   2.042  10.031 -0.2185  0.2368  0.6553
  365TMC3     C 5465   3.066   1.700  10.123  0.7026 -0.1772 -0.1649
  365TMC3     O 5466   3.145   1.618  10.087 -0.1463  0.1772  0.4363
  365TMC3     H 5467   3.169   1.760   9.880 -0.1369  1.8800 -1.4858
  365TMC3    H1 5468   3.063   1.906  10.266 -1.4021 -0.5520 -0.7480
  365TMC3    H2 5469   3.342   2.118  10.010 -0.3925  0.8306  2.1804
  365TMC3    C7 5470   3.234   2.133  10.252  0.2867 -0.0136  0.0134
  365TMC3    C8 5471   3.349   1.927   9.832 -0.2820 -0.1449  0.4556
  365TMC3    O1 5472   3.300   2.231  10.227 -0.2394 -0.2618  0.0133
  365TMC3    O2 5473   3.376   2.033   9.776  0.3453 -0.2140  0.2187
  366MPD2     C 5474   1.409   2.433  15.587 -0.4822 -0.4774 -0.0409
  366MPD2    C1 5475   1.471   2.549  15.547  0.1393 -0.3699 -0.5956
  366MPD2    C2 5476   1.598   2.528  15.492 -0.1167 -0.3435 -0.3299
  366MPD2    C3 5477   1.655   2.402  15.471  0.1447 -0.0709  0.0783
  366MPD2    C4 5478   1.591   2.298  15.516  0.4771  0.0458  0.4410
  366MPD2    C5 5479   1.462   2.311  15.572  0.0478 -0.1260 -0.0504
  366MPD2     H 5480   1.642   2.614  15.444  2.0038 -2.3671 -1.9634
  366MPD2    H1 5481   1.638   2.201  15.522  1.0012  0.3099  0.6071
  366MPD2    H2 5482   1.311   2.441  15.633 -0.4112  0.6991 -0.1163
  366MPD2    H3 5483   1.404   2.225  15.604 -0.6568  0.4736  0.2882
  366MPD2     N 5484   1.786   2.400  15.421  0.1386  0.4572  0.3091
  366MPD2    H5 5485   1.838   2.487  15.411 -1.9932  1.5528 -1.2310
  366MPD2    N1 5486   1.417   2.682  15.555 -0.0621  0.3654 -0.7510
  366MPD2    H7 5487   1.479   2.757  15.527 -1.3215  0.9682 -1.9658
  367TMC3    C1 5488   1.275   2.847  15.577  0.3822 -0.4387  0.3800
  367TMC3    C2 5489   1.384   2.918  15.622 -0.0265 -0.2736  0.2962
  367TMC3    C3 5490   1.409   3.046  15.573 -0.3623  0.1663  0.1801
  367TMC3    C4 5491   1.204   2.896  15.473 -0.3524  0.0070 -0.0040
  367TMC3    C5 5492   1.239   3.020  15.418 -0.2201  0.5541  0.7663
  367TMC3    C6 5493   1.342   3.100  15.470  0.0136  0.4156 -0.6899
  367TMC3     C 5494   1.290   2.708  15.593  0.4320  0.7461 -0.1000
  367TMC3     O 5495   1.185   2.644  15.618 -0.0588 -0.6855  0.0068
  367TMC3     H 5496   1.433   2.866  15.704  0.1793  1.3259  1.1856
  367TMC3    H1 5497   1.119   2.844  15.429  0.4816 -0.2968 -1.2355
  367TMC3    H2 5498   1.348   3.200  15.428  2.4138  0.4351 -0.3243
  367TMC3    C7 5499   1.157   3.077  15.319 -0.1769  0.0958 -0.5690
  367TMC3    C8 5500   1.521   3.119  15.640  0.0012 -0.1866 -0.4421
  367TMC3    O1 5501   1.177   3.196  15.299  0.6704 -0.3263 -0.6210
  367TMC3    O2 5502   1.555   3.060  15.743 -0.4100  0.2803  0.2189
  368MPD2     C 5503   2.571   4.694  12.839 -0.7007 -0.2578 -0.0561
  368MPD2    C1 5504   2.614   0.074  12.913 -0.3480  0.2061  0.2675
  368MPD2    C2 5505   2.749   0.110  12.907  0.2368 -0.2497  0.0977
  368MPD2    C3 5506   2.825   0.044  12.818  0.1851 -0.5600 -0.0259
  368MPD2    C4 5507   2.784   4.651  12.754 -0.6617 -0.1478  0.0056
  368MPD2    C5 5508   2.656   4.611  12.768 -0.2677  0.0115 -0.1514
  368MPD2     H 5509   2.787   0.187  12.973 -0.0860  0.5135 -0.5915
  368MPD2    H1 5510   2.850   4.592  12.691 -2.0305 -0.5561 -1.0498
  368MPD2    H2 5511   2.467   4.665  12.845 -0.6118 -0.6840 -0.5860
  368MPD2    H3 5512   2.621   4.520  12.721  0.8823 -0.0575 -0.8643
  368MPD2     N 5513   2.958   0.086  12.803 -0.0075 -0.1999 -0.2645
  368MPD2    H5 5514   3.017   0.024  12.748 -0.3624  1.0485 -2.0692
  368MPD2    N1 5515   2.519   0.142  12.988 -0.2446 -0.5327 -0.2427
  368MPD2    H7 5516   2.420   0.131  12.966  0.3539 -1.7183 -2.3617
  369TMC3    C1 5517   2.418   0.318  13.093  0.3738  0.2688 -0.3987
  369TMC3    C2 5518   2.426   0.449  13.049  0.1061  0.2374 -0.3060
  369TMC3    C3 5519   2.314   0.503  12.989  0.0784  0.1374  0.6750
  369TMC3    C4 5520   2.308   0.247  13.098 -0.2534  0.0564  0.4078
  369TMC3    C5 5521   2.192   0.316  13.057  0.5567  0.1068 -0.0185
  369TMC3    C6 5522   2.193   0.440  12.997 -0.0937 -0.0207 -0.0331
  369TMC3     C 5523   2.542   0.247  13.073 -0.4172  0.3901  1.2700
  369TMC3     O 5524   2.641   0.306  13.107 -0.8054  0.7835  0.0823
  369TMC3     H 5525   2.519   0.499  13.027  0.0416  0.3466 -0.3264
  369TMC3    H1 5526   2.302   0.145  13.133  0.3912 -0.0263  0.2719
  369TMC3    H2 5527   2.114   0.488  12.939  0.4004  1.7673  0.7745
  369TMC3    C7 5528   2.066   0.252  13.093 -0.0918  0.0487 -0.1247
  369TMC3    C8 5529   2.339   0.555  12.860 -0.6300  0.1055  0.3664
  369TMC3    O1 5530   2.074   0.137  13.138  0.4865 -0.1677  0.3632
  369TMC3    O2 5531   2.260   0.526  12.768 -0.2829  0.0512  0.0420
  370TMC3    C1 5532   2.002   0.484  16.341  0.7849 -0.0362 -0.1095
  370TMC3    C2 5533   1.913   0.414  16.421  0.7433 -0.1006  0.0735
  370TMC3    C3 5534   1.881   0.289  16.382 -0.1929  0.7586  0.3699
  370TMC3    C4 5535   2.044   0.437  16.214  0.4117  0.1027 -0.1678
  370TMC3    C5 5536   1.990   0.320  16.178  0.1797 -0.3309  0.3642
  370TMC3    C6 5537   1.916   0.238  16.255 -0.5293 -0.4401  0.1132
  370TMC3     C 5538   2.095   0.563  16.414 -0.3454 -0.3830 -0.2835
  370TMC3     O 5539   2.100   0.558  16.540 -0.3425 -0.3090  0.2753
  370TMC3     H 5540   1.894   0.455  16.519  1.9848 -0.3448  0.4125
  370TMC3    H1 5541   2.112   0.484  16.144 -0.2561  0.5950 -0.4814
  370TMC3    H2 5542   1.869   0.147  16.218  2.6458 -2.2821  0.6045
  370TMC3    C7 5543   2.046   0.247  16.062 -0.1427 -0.1990  0.0029
  370TMC3    C8 5544   1.864   0.189  16.475 -0.6579 -0.5279  1.0143
  370TMC3    O1 5545   2.066   0.301  15.954 -0.0327  0.0719  0.1790
  370TMC3    O2 5546   1.916   0.080  16.452  0.0935 -0.2478 -0.3458
  371TMC3    C1 5547   3.598   3.501  15.703  0.4045 -1.0812 -0.6117
  371TMC3    C2 5548   3.495   3.502  15.794  0.6954 -0.5747  0.1309
  371TMC3    C3 5549   3.410   3.609  15.779 -0.4041  0.2613  0.3247
  371TMC3    C4 5550   3.633   3.606  15.617  1.0046 -0.0837  0.7601
  371TMC3    C5 5551   3.545   3.715  15.619  0.2030  0.7156 -0.8579
  371TMC3    C6 5552   3.429   3.712  15.694  0.3249 -0.3233  0.0542
  371TMC3     C 5553   3.661   3.374  15.670 -0.3005  0.4978 -0.7849
  371TMC3     O 5554   3.757   3.386  15.598  0.0016 -0.1841  0.5236
  371TMC3     H 5555   3.485   3.415  15.858  0.5708 -1.0980 -0.6038
  371TMC3    H1 5556   3.724   3.595  15.560  1.1015  0.7724  0.7557
  371TMC3    H2 5557   3.350   3.786  15.684 -0.0364 -0.9647 -1.8693
  371TMC3    C7 5558   3.571   3.831  15.537 -0.6372  0.0944 -0.0127
  371TMC3    C8 5559   3.275   3.589  15.837 -0.1370  0.1298  1.0734
  371TMC3    O1 5560   3.490   3.925  15.542 -0.3366  0.1232 -0.1488
  371TMC3    O2 5561   3.241   3.474  15.857  0.1732  0.0959 -0.5387
  372MPD2     C 5562   2.621   0.013  13.691 -0.3734  0.1148 -1.1212
  372MPD2    C1 5563   2.583   4.706  13.823 -0.0224  0.3816  0.0106
  372MPD2    C2 5564   2.518   4.583  13.844  0.2685  0.4601  0.1891
  372MPD2    C3 5565   2.493   4.484  13.749 -0.7567 -0.4287  0.2832
  372MPD2    C4 5566   2.538   4.521  13.617 -0.3578  0.1180  0.2575
  372MPD2    C5 5567   2.597   4.641  13.592 -0.1279  0.4818 -0.1960
  372MPD2     H 5568   2.497   4.551  13.946 -3.7425  0.5514 -0.6387
  372MPD2    H1 5569   2.517   4.467  13.526  3.0908 -0.9770  0.1278
  372MPD2    H2 5570   2.666   0.107  13.660 -0.5503  0.4780 -0.2947
  372MPD2    H3 5571   2.627   4.666  13.491  0.9591  0.1818  0.0582
  372MPD2     N 5572   2.440   4.361  13.781 -0.5464  0.5772 -0.5197
  372MPD2    H5 5573   2.411   4.344  13.876 -0.5097  0.6060 -0.5030
  372MPD2    N1 5574   2.613   0.078  13.932 -0.2407  0.1065 -0.4561
  372MPD2    H7 5575   2.572   0.057  14.023 -0.5713  1.5773 -0.2677
  373TMC3    C1 5576   2.436   4.128  13.754  0.3418 -0.1466 -0.8935
  373TMC3    C2 5577   2.510   4.124  13.867  0.0811 -0.1239  0.2733
  373TMC3    C3 5578   2.591   4.017  13.890  0.4478 -0.4436  0.6487
  373TMC3    C4 5579   2.411   4.030  13.667 -1.3230 -0.4222  0.0584
  373TMC3    C5 5580   2.479   3.911  13.698 -0.1421 -0.4874  0.0465
  373TMC3    C6 5581   2.575   3.907  13.803 -0.2897  0.3906 -0.5409
  373TMC3     C 5582   2.427   4.259  13.689 -0.4124 -0.2985 -0.1175
  373TMC3     O 5583   2.425   4.272  13.567  0.2817  0.6367 -0.4227
  373TMC3     H 5584   2.537   4.212  13.925  0.4351 -0.4690  0.6341
  373TMC3    H1 5585   2.338   4.040  13.587 -1.0038  2.2821  0.1033
  373TMC3    H2 5586   2.653   3.832  13.801 -3.2781 -2.7012  0.0377
  373TMC3    C7 5587   2.502   3.832  13.580  0.3731 -0.8316 -0.5466
  373TMC3    C8 5588   2.701   4.032  13.980  0.2762  0.7960  0.1903
  373TMC3    O1 5589   2.617   3.802  13.560 -0.1834  0.0569 -0.4299
  373TMC3    O2 5590   2.747   4.147  14.004  0.3779 -0.3747  0.4425
  374TMC3    C1 5591   3.573   0.555   9.547  0.1237  0.0842 -0.1529
  374TMC3    C2 5592   3.681   0.635   9.548 -0.7569  0.4164 -1.0215
  374TMC3    C3 5593   3.715   0.685   9.423  0.1640  0.6559  0.3489
  374TMC3    C4 5594   3.487   0.538   9.444  0.1426 -0.0708  0.0085
  374TMC3    C5 5595   3.522   0.591   9.325  0.4053 -0.7292  0.1444
  374TMC3    C6 5596   3.639   0.662   9.314 -0.0036 -0.1329 -0.1099
  374TMC3     C 5597   3.563   0.470   9.664  0.1744  0.4869 -0.0288
  374TMC3     O 5598   3.660   0.474   9.741  0.2524  0.1109  0.0419
  374TMC3     H 5599   3.735   0.655   9.640 -0.7560 -2.1115 -0.4884
  374TMC3    H1 5600   3.388   0.494   9.455 -1.4553  3.0591 -1.9947
  374TMC3    H2 5601   3.655   0.725   9.228 -0.1796 -0.5901 -0.4765
  374TMC3    C7 5602   3.407   0.647   9.256 -0.5162 -0.2500  0.0785
  374TMC3    C8 5603   3.809   0.792   9.417 -0.2665  0.1108  0.6041
  374TMC3    O1 5604   3.415   0.757   9.202  0.3370 -0.3369  0.0472
  374TMC3    O2 5605   3.793   0.888   9.342 -0.5874  0.2496 -0.0234
  375MPD2     C 5606   3.230   0.031  16.823 -0.4820  0.1611  0.1504
  375MPD2    C1 5607   3.236   0.160  16.799 -0.6380 -0.1533 -0.3096
  375MPD2    C2 5608   3.334   0.211  16.714 -0.4249 -0.7506  0.7337
  375MPD2    C3 5609   3.420   0.130  16.651 -0.6465 -0.0068 -0.3115
  375MPD2    C4 5610   3.404   4.713  16.666 -0.1760  0.3141  0.7718
  375MPD2    C5 5611   3.313   4.670  16.755  0.1921 -0.2683  0.2358
  375MPD2     H 5612   3.338   0.318  16.697 -1.6400 -0.8958 -0.5005
  375MPD2    H1 5613   3.480   4.652  16.620  0.3239  1.6983 -0.2273
  375MPD2    H2 5614   3.143   4.711  16.872  0.2379 -2.0053 -0.4773
  375MPD2    H3 5615   3.292   4.564  16.760 -1.3139 -0.0478 -1.2015
  375MPD2     N 5616   3.526   0.179  16.575  0.3973 -0.1881 -0.6655
  375MPD2    H5 5617   3.587   0.111  16.531  0.9835 -0.9361  1.3387
  375MPD2    N1 5618   3.157   0.268  16.846 -0.2968  0.5495  0.2874
  375MPD2    H7 5619   3.184   0.362  16.818  0.3792 -0.2684 -1.7561
  376TMC3    C1 5620   3.674   0.312  16.456 -0.6755 -0.7196 -0.0035
  376TMC3    C2 5621   3.780   0.407  16.458  0.4651  0.1891 -0.1893
  376TMC3    C3 5622   3.830   0.452  16.342  0.1920  0.1887 -0.0777
  376TMC3    C4 5623   3.637   0.251  16.336 -0.7321 -0.3500  0.4387
  376TMC3    C5 5624   3.689   0.315  16.221  0.6456 -0.0038  0.1478
  376TMC3    C6 5625   3.787   0.410  16.220 -0.1444 -0.6270 -0.4709
  376TMC3     C 5626   3.575   0.306  16.566 -0.4037  0.1318  0.4669
  376TMC3     O 5627   3.532   0.410  16.615 -0.0132 -0.5458  0.4957
  376TMC3     H 5628   3.808   0.455  16.551  3.8320  1.7806 -1.9963
  376TMC3    H1 5629   3.556   0.180  16.325 -1.0098 -0.2077  1.6158
  376TMC3    H2 5630   3.846   0.436  16.133 -1.1572 -1.5702 -1.4428
  376TMC3    C7 5631   3.617   0.281  16.096 -0.3169 -0.4020 -0.9737
  376TMC3    C8 5632   3.966   0.508  16.340 -0.2095 -0.2847  0.1737
  376TMC3    O1 5633   3.540   0.187  16.099 -0.1155 -0.5546 -0.2564
  376TMC3    O2 5634   3.998   0.573  16.236 -0.0905 -0.9092  0.0932
  377MPD2     C 5635   1.896   0.495  12.535  0.3835 -0.4719 -0.2515
  377MPD2    C1 5636   1.818   0.378  12.521  0.0480  0.5188 -0.9687
  377MPD2    C2 5637   1.727   0.339  12.627  0.1640  0.6540 -0.6111
  377MPD2    C3 5638   1.739   0.407  12.744 -0.0608  0.0831  0.1685
  377MPD2    C4 5639   1.821   0.513  12.763 -0.2820 -0.1835  0.3957
  377MPD2    C5 5640   1.895   0.560  12.660  0.1634 -0.1027  0.1116
  377MPD2     H 5641   1.663   0.255  12.604 -0.8489  1.3637 -0.4088
  377MPD2    H1 5642   1.833   0.562  12.859  0.8694 -3.2388  1.7849
  377MPD2    H2 5643   1.956   0.529  12.451 -0.4441  1.2808 -0.1355
  377MPD2    H3 5644   1.962   0.644  12.676  1.2310 -0.7441 -0.9383
  377MPD2     N 5645   1.647   0.379  12.846 -0.2857  0.0564 -0.7694
  377MPD2    H5 5646   1.661   0.442  12.925  2.5051 -0.5660 -0.7371
  377MPD2    N1 5647   1.824   0.316  12.394 -0.7363 -0.0949  0.2691
  377MPD2    H7 5648   1.884   0.352  12.321 -3.7129  1.4308 -1.4234
  378TMC3    C1 5649   1.834   0.210  12.005  0.0015  0.3282 -0.5236
  378TMC3    C2 5650   1.777   0.241  12.127 -0.3053 -0.2168 -0.3317
  378TMC3    C3 5651   1.788   0.154  12.228  0.5716 -0.0844  0.7059
  378TMC3    C4 5652   1.901   0.094  11.991  1.0795 -0.5811 -0.2932
  378TMC3    C5 5653   1.903   0.003  12.096  0.1165 -0.4230 -0.6873
  378TMC3    C6 5654   1.846   0.028  12.218 -0.4198  0.1175  0.6537
  378TMC3     C 5655   1.832   0.292  11.885 -0.3142 -0.4647 -0.1033
  378TMC3     O 5656   1.921   0.273  11.804 -0.0032  0.5815 -0.8378
  378TMC3     H 5657   1.748   0.345  12.142  0.3486 -0.1502  0.4389
  378TMC3    H1 5658   1.949   0.071  11.897  0.4320 -0.3193 -0.6900
  378TMC3    H2 5659   1.879   4.688  12.300  1.3298 -0.5322 -0.5615
  378TMC3    C7 5660   1.956   4.592  12.082 -0.1567  0.1786  0.0668
  378TMC3    C8 5661   1.753   0.205  12.359 -0.1372 -0.0103  0.7417
  378TMC3    O1 5662   1.919   4.511  12.167 -0.7898  0.3314 -0.1266
  378TMC3    O2 5663   1.696   0.119  12.424 -0.1220 -0.0882 -0.1194
  379MPD2     C 5664   2.689   3.300  16.186 -0.6061 -0.4457  0.2741
  379MPD2    C1 5665   2.597   3.212  16.232 -0.5073 -0.0646 -0.1334
  379MPD2    C2 5666   2.626   3.126  16.331  0.6802 -1.1471 -0.1936
  379MPD2    C3 5667   2.755   3.134  16.382 -0.0354  0.3813 -0.2820
  379MPD2    C4 5668   2.852   3.216  16.330  0.7549  0.2509 -0.6509
  379MPD2    C5 5669   2.820   3.297  16.231 -0.4396  0.1138 -0.3922
  379MPD2     H 5670   2.554   3.052  16.364 -1.6760  1.1248 -0.2258
  379MPD2    H1 5671   2.952   3.211  16.371  0.7310 -0.8885 -0.7298
  379MPD2    H2 5672   2.674   3.374  16.109 -0.5289  0.1636  0.8398
  379MPD2    H3 5673   2.890   3.360  16.178 -0.9821  0.6339 -0.4994
  379MPD2     N 5674   2.800   3.047  16.490 -0.3477  0.1194  0.1930
  379MPD2    H5 5675   2.898   3.047  16.514  0.3465 -1.3407 -2.7106
  379MPD2    N1 5676   2.473   3.214  16.159  0.1855 -0.2795 -0.9069
  379MPD2    H7 5677   2.461   3.278  16.081  0.4008 -2.1437 -2.4760
  380TMC3    C1 5678   2.291   3.115  16.058  0.3397 -0.1836 -0.2497
  380TMC3    C2 5679   2.295   2.992  15.995 -0.1176  0.1918  0.2423
  380TMC3    C3 5680   2.258   2.976  15.861 -0.1132  0.0832  0.3985
  380TMC3    C4 5681   2.258   3.223  15.981 -0.9095 -0.8751 -0.2158
  380TMC3    C5 5682   2.208   3.197  15.855  0.5630  0.1705  0.2517
  380TMC3    C6 5683   2.186   3.073  15.801  0.0481  0.4989 -0.7462
  380TMC3     C 5684   2.371   3.120  16.179  0.1289  0.1167 -0.0636
  380TMC3     O 5685   2.361   3.028  16.263 -0.1961  0.2975 -0.0297
  380TMC3     H 5686   2.318   2.911  16.063 -0.1320 -0.0102  0.0067
  380TMC3    H1 5687   2.270   3.322  16.023  0.4065 -0.9284 -0.4441
  380TMC3    H2 5688   2.143   3.063  15.702 -0.3057  0.8120 -0.6252
  380TMC3    C7 5689   2.120   3.304  15.809 -0.2189 -0.3020  0.0570
  380TMC3    C8 5690   2.360   2.921  15.777  0.1433 -0.3829  0.1228
  380TMC3    O1 5691   2.168   3.417  15.811  0.3871 -0.4783 -0.9040
  380TMC3    O2 5692   2.358   2.951  15.658 -0.1835  0.6010  0.0169
  381TMC3    C1 5693   1.837   4.494  16.324 -0.2065 -0.1508  0.1035
  381TMC3    C2 5694   1.965   4.538  16.315 -0.5646  0.7709  0.1075
  381TMC3    C3 5695   2.062   4.466  16.382 -0.3068  0.2206  0.3266
  381TMC3    C4 5696   1.799   4.392  16.406  0.0207 -0.0498 -0.2915
  381TMC3    C5 5697   1.894   4.327  16.479  0.4385  0.0992 -0.2760
  381TMC3    C6 5698   2.025   4.363  16.465 -1.0271 -0.4478  0.3368
  381TMC3     C 5699   1.740   4.585  16.262  0.4795 -0.5182 -0.6249
  381TMC3     O 5700   1.630   4.600  16.316  0.0289  0.6230 -0.1973
  381TMC3     H 5701   1.994   4.628  16.262 -0.5498 -0.4233 -1.9369
  381TMC3    H1 5702   1.696   4.359  16.400 -0.3071  0.9461  0.0201
  381TMC3    H2 5703   2.105   4.333  16.532  1.2777  0.6812 -1.9344
  381TMC3    C7 5704   1.857   4.267  16.605 -0.6511  0.1306  0.0520
  381TMC3    C8 5705   2.183   4.532  16.410  1.0072 -0.0057 -0.5841
  381TMC3    O1 5706   1.925   4.170  16.628 -0.0388  0.2765  0.5514
  381TMC3    O2 5707   2.280   4.462  16.392 -0.1659 -0.1437  0.3464
  382MPD2     C 5708   1.732   1.984  17.312  0.2074 -0.2126  0.3891
  382MPD2    C1 5709   1.615   2.055  17.281 -0.0028 -0.2257  0.0391
  382MPD2    C2 5710   1.497   1.990  17.324 -0.5950 -0.0696 -0.1570
  382MPD2    C3 5711   1.501   1.874  17.405 -0.2863 -0.0902 -0.4157
  382MPD2    C4 5712   1.631   1.827  17.441  0.0440 -0.0663 -0.4038
  382MPD2    C5 5713   1.746   1.877  17.389  0.0108  0.3197  0.0893
  382MPD2     H 5714   1.406   2.035  17.288 -1.4917 -2.4763 -0.9179
  382MPD2    H1 5715   1.632   1.733  17.495  2.2691  1.4689  2.2937
  382MPD2    H2 5716   1.828   2.021  17.280  0.0530  1.3308  1.7268
  382MPD2    H3 5717   1.843   1.829  17.399 -0.7249 -1.2677 -0.3476
  382MPD2     N 5718   1.377   1.812  17.438 -0.1653  1.0386  0.3932
  382MPD2    H5 5719   1.388   1.730  17.497  0.8102  1.3074  0.5798
  382MPD2    N1 5720   1.617   2.180  17.209 -0.5471 -0.5060 -0.2488
  382MPD2    H7 5721   1.521   2.210  17.197 -0.2550  0.4141 -0.2760
  383TMC3    C1 5722   1.153   1.747  17.441  0.4573 -0.7846  0.0874
  383TMC3    C2 5723   1.060   1.713  17.348 -0.2410 -0.3117  0.7546
  383TMC3    C3 5724   0.960   1.634  17.397  0.1259  0.4716  0.5042
  383TMC3    C4 5725   1.151   1.712  17.574 -0.5271 -0.3474  0.0563
  383TMC3    C5 5726   1.053   1.623  17.609  0.4033 -0.0430 -0.3757
  383TMC3    C6 5727   0.955   1.591  17.525 -0.4362  0.6543 -0.6425
  383TMC3     C 5728   1.255   1.837  17.385 -0.2572 -0.0487 -0.0204
  383TMC3     O 5729   1.220   1.907  17.292 -0.2707 -0.2226  0.4126
  383TMC3     H 5730   1.062   1.727  17.240  1.4215  2.6292  1.1477
  383TMC3    H1 5731   1.218   1.765  17.641  1.2297 -1.9914 -0.4100
  383TMC3    H2 5732   0.881   1.517  17.556  2.9812 -2.0315  1.0689
  383TMC3    C7 5733   1.024   1.603   0.058  0.3888  0.4850 -0.5165
  383TMC3    C8 5734   0.871   1.569  17.300 -0.1686  0.0354 -0.1419
  383TMC3    O1 5735   0.948   1.515   0.088 -0.0223 -0.4665 -0.3214
  383TMC3    O2 5736   0.856   1.629  17.192 -0.5316 -0.1612  0.3122
  384MPD2     C 5737   2.972   3.200  11.762  0.0448 -0.9201 -0.3856
  384MPD2    C1 5738   2.942   3.141  11.883  1.2236 -0.2553 -0.1407
  384MPD2    C2 5739   3.005   3.017  11.915 -0.2249 -0.3486  0.5765
  384MPD2    C3 5740   3.102   2.963  11.836 -0.2865  0.7879  0.7712
  384MPD2    C4 5741   3.140   3.040  11.729  0.3819 -0.3058 -0.1466
  384MPD2    C5 5742   3.078   3.155  11.686  0.5625  0.1088  0.4402
  384MPD2     H 5743   2.976   2.966  12.005  0.8892  1.4578  1.9702
  384MPD2    H1 5744   3.224   2.995  11.676  0.1961 -1.9455  0.9485
  384MPD2    H2 5745   2.921   3.290  11.728 -1.7539 -1.8441 -0.1292
  384MPD2    H3 5746   3.108   3.202  11.593 -2.2561  0.3853 -0.3176
  384MPD2     N 5747   3.158   2.836  11.875  0.3347  0.1648 -0.0492
  384MPD2    H5 5748   3.128   2.808  11.968  1.1192  0.6207  0.3368
  384MPD2    N1 5749   2.854   3.197  11.978  0.2585  0.5367 -0.7275
  384MPD2    H7 5750   2.856   3.158  12.072 -3.7768 -0.6845 -1.1593
  385TMC3    C1 5751   3.256   2.640  11.901  0.5796  0.5441  0.5621
  385TMC3    C2 5752   3.208   2.525  11.850 -0.6295  0.2329  0.7093
  385TMC3    C3 5753   3.134   2.443  11.937 -0.1693 -0.2915 -0.2686
  385TMC3    C4 5754   3.233   2.672  12.034  0.4658 -0.8367 -0.0873
  385TMC3    C5 5755   3.155   2.592  12.119 -0.6533  0.4310 -0.3044
  385TMC3    C6 5756   3.104   2.479  12.066 -0.1016  0.5481  0.3937
  385TMC3     C 5757   3.242   2.757  11.806  0.3674  0.8063 -0.2603
  385TMC3     O 5758   3.268   2.750  11.686 -0.0406 -0.2569 -0.6480
  385TMC3     H 5759   3.240   2.499  11.749  3.2823 -1.1503  2.3165
  385TMC3    H1 5760   3.272   2.760  12.083  0.2223  0.1874 -1.7216
  385TMC3    H2 5761   3.045   2.420  12.136 -0.5390 -2.5606 -2.5991
  385TMC3    C7 5762   3.062   2.680  12.184  0.0925 -0.3307 -1.3238
  385TMC3    C8 5763   3.097   2.305  11.914 -0.7081  0.8545 -0.5832
  385TMC3    O1 5764   3.067   2.796  12.151  0.4530 -0.5053  0.1981
  385TMC3    O2 5765   3.052   2.241  12.012  0.3027 -0.8805 -0.3064
  386TMC3    C1 5766   3.403   0.461  11.384 -0.3348  0.1083  0.3709
  386TMC3    C2 5767   3.329   0.525  11.287 -0.0180 -0.6921  0.1830
  386TMC3    C3 5768   3.195   0.545  11.313  0.2063  0.1452  0.2304
  386TMC3    C4 5769   3.347   0.418  11.503  0.3741 -0.1277 -0.7165
  386TMC3    C5 5770   3.214   0.441  11.516  0.6310 -0.6418  0.0683
  386TMC3    C6 5771   3.138   0.503  11.427 -0.2841  0.4010 -0.6561
  386TMC3     C 5772   3.530   0.410  11.348  0.4018 -0.6212 -0.3731
  386TMC3     O 5773   3.584   0.467  11.257 -0.5058  0.6074  0.7647
  386TMC3     H 5774   3.378   0.543  11.192 -0.8673 -2.0753 -0.5142
  386TMC3    H1 5775   3.400   0.358  11.576 -0.6180 -0.4399 -0.2622
  386TMC3    H2 5776   3.033   0.519  11.450  0.6406  0.1180  3.7782
  386TMC3    C7 5777   3.152   0.409  11.640  0.1403  0.2824  0.2301
  386TMC3    C8 5778   3.113   0.624  11.213 -0.5009  0.2560  0.9500
  386TMC3    O1 5779   3.031   0.386  11.638 -0.1602  0.6325 -0.0816
  386TMC3    O2 5780   2.998   0.600  11.222  0.3621 -0.8284 -0.1801
  387MPD2     C 5781   1.143   0.883   9.660  0.6837  0.6041 -0.2634
  387MPD2    C1 5782   1.257   0.868   9.732 -1.2886  0.0961  0.5973
  387MPD2    C2 5783   1.274   0.770   9.825  0.4953 -0.1266  0.9370
  387MPD2    C3 5784   1.173   0.674   9.835  0.0667  0.1918 -0.5233
  387MPD2    C4 5785   1.060   0.690   9.759 -0.5058  0.5688  1.2769
  387MPD2    C5 5786   1.045   0.792   9.672 -0.2284  0.2119  0.2149
  387MPD2     H 5787   1.372   0.760   9.869  0.2957  0.2280  1.4652
  387MPD2    H1 5788   0.981   0.616   9.756 -0.1122  0.2352 -0.8682
  387MPD2    H2 5789   1.139   0.950   9.575  2.9627  0.7699 -0.2356
  387MPD2    H3 5790   0.962   0.795   9.603  0.0076 -1.6115 -0.1435
  387MPD2     N 5791   1.190   0.574   9.938  0.2300 -0.0670 -0.2736
  387MPD2    H5 5792   1.281   0.565   9.981  0.3547  0.4579 -0.4351
  387MPD2    N1 5793   1.372   0.939   9.719  0.0552  0.6191 -0.1046
  387MPD2    H7 5794   1.452   0.897   9.765  0.4879  2.2228  0.5874
  388TMC3    C1 5795   1.530   1.103   9.687  0.0391 -0.4327  0.1468
  388TMC3    C2 5796   1.616   1.147   9.592  0.3299 -0.3360 -0.3257
  388TMC3    C3 5797   1.732   1.202   9.636 -0.6347  0.2384  0.5642
  388TMC3    C4 5798   1.567   1.088   9.815  0.0010 -0.3411  0.1083
  388TMC3    C5 5799   1.696   1.124   9.848  0.2667  0.0087 -0.0766
  388TMC3    C6 5800   1.779   1.180   9.759 -0.1739 -0.4836 -0.3801
  388TMC3     C 5801   1.398   1.050   9.648 -1.0908  0.3493 -0.0628
  388TMC3     O 5802   1.332   1.114   9.572  0.3420  0.2688 -0.4124
  388TMC3     H 5803   1.579   1.165   9.492 -0.6969  0.3629  0.1786
  388TMC3    H1 5804   1.503   1.053   9.895 -0.1113  1.9379  1.0339
  388TMC3    H2 5805   1.875   1.213   9.795 -0.4800 -0.5157  0.4640
  388TMC3    C7 5806   1.765   1.026   9.928 -0.3302 -0.2010  0.1419
  388TMC3    C8 5807   1.812   1.282   9.540 -0.3605 -0.1261  0.2409
  388TMC3    O1 5808   1.877   0.996   9.884 -0.1479 -0.1005  0.0252
  388TMC3    O2 5809   1.781   1.265   9.420  0.0740  0.1881  0.3916
  389MPD2     C 5810   0.380   3.884  11.371  0.3414 -0.1314 -0.0235
  389MPD2    C1 5811   0.341   3.813  11.264 -0.2171  0.4817  0.1601
  389MPD2    C2 5812   0.214   3.756  11.254  0.2417 -0.1436 -0.2147
  389MPD2    C3 5813   0.131   3.771  11.367 -0.1849  0.7935 -0.5940
  389MPD2    C4 5814   0.165   3.849  11.471  0.1211  0.0458 -0.5044
  389MPD2    C5 5815   0.293   3.900  11.473 -0.6305  0.4087 -0.0198
  389MPD2     H 5816   0.171   3.701  11.172 -0.1625  1.3553 -0.9957
  389MPD2    H1 5817   0.122   3.859  11.570 -1.2937 -1.4705 -0.9640
  389MPD2    H2 5818   0.471   3.942  11.361 -0.1227  0.6541  0.3369
  389MPD2    H3 5819   0.318   3.963  11.558  1.1426  2.4226 -2.0407
  389MPD2     N 5820   0.007   3.699  11.382  0.1464 -0.2913 -0.7057
  389MPD2    H5 5821   4.664   3.729  11.454  0.8237  0.7317 -0.5304
  389MPD2    N1 5822   0.425   3.820  11.157  0.1438  0.1796 -0.1626
  389MPD2    H7 5823   0.516   3.862  11.173 -0.2976  1.8926 -2.1766
  390TMC3    C1 5824   4.571   3.517  11.373  0.2295 -0.7586 -0.6162
  390TMC3    C2 5825   4.566   3.383  11.386  0.0650 -0.1977 -0.5259
  390TMC3    C3 5826   4.491   3.336  11.485  0.0403 -0.0989  0.8025
  390TMC3    C4 5827   4.491   3.607  11.436  0.4345 -0.4923  0.0705
  390TMC3    C5 5828   4.420   3.549  11.532  0.8663 -0.0612 -0.3194
  390TMC3    C6 5829   4.420   3.419  11.567 -0.0292  0.5604 -1.3382
  390TMC3     C 5830   4.702   3.573  11.325  0.0885  0.2110 -0.3446
  390TMC3     O 5831   0.055   3.512  11.254  0.1163 -0.1680 -0.1945
  390TMC3     H 5832   4.611   3.314  11.315 -1.2226 -0.2080 -1.3277
  390TMC3    H1 5833   4.495   3.715  11.429  1.4480 -0.4976  0.5003
  390TMC3    H2 5834   4.369   3.379  11.654  0.8737  1.4838 -0.3810
  390TMC3    C7 5835   4.317   3.630  11.582 -0.2092 -0.1003 -0.6695
  390TMC3    C8 5836   4.448   3.202  11.474  0.4100  0.1899  0.5892
  390TMC3    O1 5837   4.346   3.739  11.624  0.0547 -0.1846 -0.0949
  390TMC3    O2 5838   4.478   3.138  11.375  0.2925  0.4070 -0.9208
  391MPD2     C 5839   4.393   0.467  10.767  0.0168 -0.3304 -0.0571
  391MPD2    C1 5840   4.471   0.578  10.772  0.5587  0.4779 -0.2035
  391MPD2    C2 5841   4.480   0.639  10.650  0.3958  0.1036 -0.4992
  391MPD2    C3 5842   4.443   0.577  10.531  0.1178  1.0199  0.4009
  391MPD2    C4 5843   4.364   0.464  10.540 -0.2905 -0.0667 -0.4695
  391MPD2    C5 5844   4.340   0.406  10.658 -0.3467 -0.1823 -0.3669
  391MPD2     H 5845   4.520   0.739  10.635 -0.8608  0.6397 -0.2853
  391MPD2    H1 5846   4.314   0.418  10.455  0.5308 -0.0630 -0.9537
  391MPD2    H2 5847   4.375   0.427  10.866  0.6372 -1.7102 -0.5061
  391MPD2    H3 5848   4.287   0.311  10.660  0.6372 -0.7166  0.7752
  391MPD2     N 5849   4.469   0.646  10.403  0.1579 -0.1825 -0.7162
  391MPD2    H5 5850   4.530   0.727  10.397  0.0788 -0.1480 -1.0385
  391MPD2    N1 5851   4.524   0.635  10.888  0.5856  0.2353  0.0066
  391MPD2    H7 5852   4.495   0.596  10.977  0.6040 -0.3677 -0.2542
  392TMC3    C1 5853   4.461   0.687  10.165  0.5815  0.2007 -0.7947
  392TMC3    C2 5854   4.378   0.687  10.059  0.2581  0.8250 -0.3287
  392TMC3    C3 5855   4.402   0.787   9.965  0.4684 -0.4384  0.2538
  392TMC3    C4 5856   4.575   0.770  10.174  0.7164  0.8171  0.2023
  392TMC3    C5 5857   4.582   0.867  10.083 -0.5262  0.2068 -0.3601
  392TMC3    C6 5858   4.496   0.878   9.978  0.2596  0.1445 -0.1295
  392TMC3     C 5859   4.405   0.617  10.281 -1.0327  0.2434  0.1542
  392TMC3     O 5860   4.305   0.554  10.274  0.0851  0.6927 -0.0287
  392TMC3     H 5861   4.299   0.615  10.045  0.0629  1.3135 -1.8571
  392TMC3    H1 5862   4.635   0.780  10.263 -2.2534 -0.0033  2.2807
  392TMC3    H2 5863   4.504   0.962   9.911 -0.9506  1.0129  0.8241
  392TMC3    C7 5864   4.691   0.964  10.098 -0.0616  0.3179  0.0383
  392TMC3    C8 5865   4.321   0.779   9.844 -0.0202 -0.1143 -0.1818
  392TMC3    O1 5866   0.042   0.947  10.197 -0.1290 -0.2059 -0.2160
  392TMC3    O2 5867   4.262   0.673   9.840 -0.7939  0.3449 -0.8441
  393TMC3    C1 5868   3.927   3.264  10.208  0.2176 -0.4428  0.6238
  393TMC3    C2 5869   3.882   3.283  10.335 -0.4353 -0.2738  0.1687
  393TMC3    C3 5870   3.825   3.177  10.402  0.3782  0.8141  0.0137
  393TMC3    C4 5871   3.940   3.140  10.155  0.4826  0.5853 -0.7352
  393TMC3    C5 5872   3.900   3.035  10.232 -0.7663  0.6066 -0.2507
  393TMC3    C6 5873   3.838   3.057  10.349 -0.1405  0.6294  0.3184
  393TMC3     C 5874   3.870   3.360  10.117  0.1618 -0.3616  0.4742
  393TMC3     O 5875   3.755   3.392  10.148 -0.7702  0.1707 -0.0711
  393TMC3     H 5876   3.878   3.383  10.376  2.2205 -0.5373  1.1188
  393TMC3    H1 5877   3.970   3.123  10.052 -0.8480  3.0273 -1.5252
  393TMC3    H2 5878   3.800   2.972  10.404  1.0074 -0.7839 -1.0891
  393TMC3    C7 5879   3.867   2.910  10.164 -0.0807 -0.3314  0.1328
  393TMC3    C8 5880   3.733   3.208  10.504 -0.0650 -1.0819  0.2043
  393TMC3    O1 5881   3.761   2.861  10.194 -1.1845  0.4605 -0.2022
  393TMC3    O2 5882   3.729   3.325  10.531 -0.0552  0.3662 -0.5817
  394TMC3    C1 5883   0.508   3.811  10.934  0.0410  0.1105 -0.0659
  394TMC3    C2 5884   0.460   3.762  10.815 -0.2957  0.2653 -0.6611
  394TMC3    C3 5885   0.445   3.844  10.707 -0.2276 -0.0317  0.6869
  394TMC3    C4 5886   0.548   3.944  10.946  0.4002  0.5321  0.2060
  394TMC3    C5 5887   0.530   4.021  10.839 -0.3396 -0.3294  0.7545
  394TMC3    C6 5888   0.476   3.975  10.720  0.3531  0.0127  0.1649
  394TMC3     C 5889   0.410   3.768  11.031 -0.6756  0.2767 -0.6428
  394TMC3     O 5890   0.322   3.683  11.000  0.1460 -0.1278 -0.3606
  394TMC3     H 5891   0.430   3.660  10.797  0.3901 -0.4954  2.5551
  394TMC3    H1 5892   0.564   3.996  11.039 -0.4265  0.9413  0.1211
  394TMC3    H2 5893   0.452   4.049  10.644 -0.4719 -1.2315 -0.7889
  394TMC3    C7 5894   0.591   4.158  10.839  0.3254 -0.4958 -0.7882
  394TMC3    C8 5895   0.403   3.805  10.573 -0.5013 -0.2470 -0.3650
  394TMC3    O1 5896   0.662   4.188  10.933 -0.2936  0.0067 -0.0607
  394TMC3    O2 5897   0.363   3.891  10.494 -0.3462 -0.1462 -0.3362
  395TMC3    C1 5898   4.149   1.332  14.619  0.3431 -0.0782 -0.0618
  395TMC3    C2 5899   4.099   1.236  14.711 -0.1306 -0.0597  0.4799
  395TMC3    C3 5900   4.180   1.204  14.819  0.1438 -0.1429  0.7858
  395TMC3    C4 5901   4.254   1.415  14.662  0.3262 -0.1501  0.0165
  395TMC3    C5 5902   4.332   1.376  14.767  0.3227  0.0472 -0.5718
  395TMC3    C6 5903   4.299   1.266  14.845 -0.1942 -0.4915  1.1048
  395TMC3     C 5904   4.067   1.383  14.509  0.8061 -0.5582 -0.0077
  395TMC3     O 5905   4.078   1.503  14.477 -0.3948 -0.0911  0.0112
  395TMC3     H 5906   4.002   1.191  14.694  0.0522 -0.7980  1.4009
  395TMC3    H1 5907   4.271   1.498  14.595 -0.3734  1.3607  1.7239
  395TMC3    H2 5908   4.368   1.227  14.919  0.3449 -1.4803  0.0677
  395TMC3    C7 5909   4.472   1.401  14.753  0.1190 -1.0730 -0.8443
  395TMC3    C8 5910   4.151   1.085  14.886 -0.6043  0.0733 -1.3769
  395TMC3    O1 5911   4.506   1.515  14.717  0.0062 -0.5034 -0.1465
  395TMC3    O2 5912   4.191   1.079  15.002 -0.3450  0.2417  0.2337
  396MPD2     C 5913   3.954   1.568  17.282  0.0689  0.6370 -0.3191
  396MPD2    C1 5914   4.078   1.609  17.255 -0.5156 -0.1239  0.0142
  396MPD2    C2 5915   4.094   1.718  17.167  0.6873 -0.8597 -0.3389
  396MPD2    C3 5916   3.986   1.771  17.103 -0.4372 -0.0207  0.4636
  396MPD2    C4 5917   3.860   1.728  17.122  1.0543  0.1898  0.0359
  396MPD2    C5 5918   3.846   1.631  17.217  0.6590  0.2204  0.0185
  396MPD2     H 5919   4.185   1.775  17.152  0.4209 -0.4134 -0.2650
  396MPD2    H1 5920   3.774   1.772  17.071  0.1699 -1.8314 -0.1972
  396MPD2    H2 5921   3.933   1.498  17.363 -1.1025  0.3878 -0.8364
  396MPD2    H3 5922   3.746   1.600  17.245 -0.1158  3.0169  0.3343
  396MPD2     N 5923   4.014   1.874  17.017 -0.2829  0.1801 -0.0674
  396MPD2    H5 5924   4.111   1.902  17.006 -0.7612  1.4287 -1.1025
  396MPD2    N1 5925   4.189   1.538  17.307 -0.6168  0.2548 -0.4392
  396MPD2    H7 5926   4.167   1.462  17.371  0.0170 -0.9127 -1.6211
  397TMC3    C1 5927   4.422   1.481  17.328  0.0159  0.9797  0.2664
  397TMC3    C2 5928   4.505   1.451  17.219  0.1739  0.6354  0.4849
  397TMC3    C3 5929   4.472   1.334  17.153  0.3850 -0.2975  0.0908
  397TMC3    C4 5930   4.366   1.375  17.396  0.9824  0.2570  0.2236
  397TMC3    C5 5931   4.343   1.253  17.328 -0.9464 -0.6299 -0.2330
  397TMC3    C6 5932   4.397   1.232  17.206  0.4153 -0.3792  0.0617
  397TMC3     C 5933   4.322   1.574  17.286 -0.2962  0.1430  0.2679
  397TMC3     O 5934   4.364   1.674  17.228  0.0316  0.3517  0.5615
  397TMC3     H 5935   4.533   1.537  17.159 -2.7800 -0.1498 -1.9762
  397TMC3    H1 5936   4.309   1.404  17.483 -0.7321 -0.5885 -0.6316
  397TMC3    H2 5937   4.365   1.143  17.153 -1.0544  1.0987 -1.5408
  397TMC3    C7 5938   4.336   1.125  17.397 -0.2258  0.1427  0.4673
  397TMC3    C8 5939   4.454   1.335  17.003 -0.1757  0.9952  0.2388
  397TMC3    O1 5940   4.298   1.023  17.337 -0.1305 -0.6509  0.3671
  397TMC3    O2 5941   4.372   1.253  16.960  0.8068 -0.6645  0.6629
  398MPD2     C 5942   2.288   2.339  17.688 -0.1597  0.0707 -0.3669
  398MPD2    C1 5943   2.336   2.232   0.065 -0.0259 -0.7159 -0.0591
  398MPD2    C2 5944   2.447   2.239   0.160 -0.0508 -0.1361 -0.1412
  398MPD2    C3 5945   2.506   2.359   0.169  0.3474  0.2940 -0.7851
  398MPD2    C4 5946   2.458   2.470   0.101 -0.7054 -0.0175  0.0471
  398MPD2    C5 5947   2.353   2.458   0.021  0.3983  0.3201 -0.3221
  398MPD2     H 5948   2.480   2.153   0.216 -1.0086  0.5691  1.5030
  398MPD2    H1 5949   2.505   2.564   0.125 -0.5429 -0.1337  0.1863
  398MPD2    H2 5950   2.208   2.341  17.616  0.1036  1.2423 -0.6258
  398MPD2    H3 5951   2.312   2.539  17.653 -2.8249  0.1774  1.7254
  398MPD2     N 5952   2.627   2.369   0.242 -1.1164 -0.4594  0.3056
  398MPD2    H5 5953   2.643   2.279   0.286 -0.7408 -1.4679 -1.8649
  398MPD2    N1 5954   2.288   2.103   0.039  0.4387  0.4966 -0.5361
  398MPD2    H7 5955   2.336   2.022   0.079 -1.5576  0.8510  2.5911
  399TMC3    C1 5956   2.148   1.932  17.652 -0.3583  1.1162 -0.2537
  399TMC3    C2 5957   2.245   1.837  17.667 -0.2633  0.7562  0.1501
  399TMC3    C3 5958   2.205   1.708  17.660  0.8766 -0.4223  0.5269
  399TMC3    C4 5959   2.013   1.901  17.645 -0.7812  0.0878  0.2583
  399TMC3    C5 5960   1.983   1.770  17.646  0.2569 -0.4843 -0.1307
  399TMC3    C6 5961   2.077   1.674  17.648 -0.3527  0.7110 -0.2610
  399TMC3     C 5962   2.171   2.074  17.666 -0.0732 -0.3995 -0.3071
  399TMC3     O 5963   2.084   2.143  17.621 -0.1867  0.4753  0.4380
  399TMC3     H 5964   2.350   1.863  17.673  0.0822 -0.7686  0.8421
  399TMC3    H1 5965   1.935   1.975  17.631 -1.4728 -0.3875  1.5774
  399TMC3    H2 5966   2.048   1.569  17.650 -1.4377  1.0442  1.5756
  399TMC3    C7 5967   1.870   1.732   0.039  0.5955 -0.0506 -0.0759
  399TMC3    C8 5968   2.313   1.607  17.677 -0.1941 -1.1950 -0.0958
  399TMC3    O1 5969   1.825   1.617   0.023 -0.1224 -0.3505  0.1732
  399TMC3    O2 5970   2.425   1.649   0.007  0.3597  0.4199  0.3919
  400TMC3    C1 5971   1.102   1.412  17.023 -0.8872 -0.1732  0.1494
  400TMC3    C2 5972   0.983   1.419  16.956 -0.8818  0.2643  0.1134
  400TMC3    C3 5973   0.942   1.539  16.907  0.8355  0.1081  0.0391
  400TMC3    C4 5974   1.181   1.520  17.040  0.5199  0.4040  0.1547
  400TMC3    C5 5975   1.140   1.645  16.996  0.9428 -0.6354 -0.8257
  400TMC3    C6 5976   1.028   1.648  16.923 -0.2310 -0.7396  0.4142
  400TMC3     C 5977   1.149   1.274  17.037  0.8592 -0.1733 -0.1827
  400TMC3     O 5978   1.092   1.203  16.960  0.2642 -0.0361  0.0255
  400TMC3     H 5979   0.925   1.328  16.953  1.4499 -1.1642 -1.0642
  400TMC3    H1 5980   1.281   1.510  17.081  0.2224 -1.2852  0.4925
  400TMC3    H2 5981   1.005   1.738  16.867 -1.1258 -1.5012 -0.4349
  400TMC3    C7 5982   1.234   1.747  16.976 -0.2056  0.3646  0.6636
  400TMC3    C8 5983   0.834   1.542  16.802 -0.1789 -0.1380 -0.2491
  400TMC3    O1 5984   1.354   1.720  16.964  0.4865 -0.4372 -0.6961
  400TMC3    O2 5985   0.780   1.649  16.776  0.0180  0.4550 -0.1686
  401MPD2     C 5986   3.645   4.080   0.153 -0.4256 -0.1368 -0.1189
  401MPD2    C1 5987   3.744   4.154   0.216 -0.6972 -0.4375 -0.7218
  401MPD2    C2 5988   3.839   4.094   0.292 -0.1223  0.1182 -0.4963
  401MPD2    C3 5989   3.836   3.958   0.303 -0.1794 -0.2853 -0.0362
  401MPD2    C4 5990   3.754   3.881   0.212  0.4491 -0.6909  1.0665
  401MPD2    C5 5991   3.652   3.947   0.146  0.2379 -0.9026  0.3393
  401MPD2     H 5992   3.921   4.147   0.339 -0.1677 -0.3554  0.1288
  401MPD2    H1 5993   3.758   3.773   0.206 -2.4386 -0.7015 -0.8483
  401MPD2    H2 5994   3.562   4.130   0.104 -0.9337  1.0663  1.9520
  401MPD2    H3 5995   3.575   3.907   0.081  2.0615 -0.5356 -2.0359
  401MPD2     N 5996   3.929   3.890   0.377  0.8218  0.2222  0.1432
  401MPD2    H5 5997   3.999   3.947   0.423  0.1008  2.2029 -1.2075
  401MPD2    N1 5998   3.757   4.299   0.209 -0.0186  0.4286  0.4170
  401MPD2    H7 5999   3.832   4.343   0.261 -1.3877 -0.1990  2.8821
  402TMC3    C1 6000   4.032   3.715   0.495  0.2776  0.9404  0.3543
  402TMC3    C2 6001   4.005   3.619   0.584  0.6898 -0.4726 -0.1206
  402TMC3    C3 6002   4.109   3.555   0.651 -0.3316 -0.4274  0.2045
  402TMC3    C4 6003   4.158   3.762   0.469 -0.0717  0.0461  0.4881
  402TMC3    C5 6004   4.267   3.703   0.540  1.2015  0.2423 -0.2102
  402TMC3    C6 6005   4.237   3.608   0.635  0.3666  0.5084 -0.5246
  402TMC3     C 6006   3.915   3.760   0.416  0.2690 -0.1846  0.5388
  402TMC3     O 6007   3.838   3.673   0.378  0.1282  0.2013 -0.4577
  402TMC3     H 6008   3.908   3.571   0.575  0.2879  0.1081  1.0845
  402TMC3    H1 6009   4.183   3.807   0.373 -0.6745 -2.8878 -1.0482
  402TMC3    H2 6010   4.321   3.581   0.699 -0.3231  1.9919  1.0019
  402TMC3    C7 6011   4.398   3.707   0.470 -0.0981 -0.3937  0.1856
  402TMC3    C8 6012   4.084   3.474   0.767 -0.2596 -0.0920  0.2240
  402TMC3    O1 6013   4.418   3.808   0.407  0.1174 -0.2123 -0.1492
  402TMC3    O2 6014   4.182   3.414   0.806  0.5790 -0.1340  0.0105
  403MPD2     C 6015   2.500   3.129  13.749  0.3406  0.4304  0.4373
  403MPD2    C1 6016   2.599   3.057  13.675  0.4685  0.1048  0.3376
  403MPD2    C2 6017   2.732   3.097  13.714  0.1586 -0.2182  0.9767
  403MPD2    C3 6018   2.765   3.196  13.814  0.0485  0.0874 -0.3198
  403MPD2    C4 6019   2.659   3.255  13.879 -0.1412  0.3243 -0.0825
  403MPD2    C5 6020   2.531   3.220  13.844 -0.4004  0.6051  0.3842
  403MPD2     H 6021   2.816   3.045  13.668 -1.5012 -2.3173  0.3473
  403MPD2    H1 6022   2.661   3.339  13.947 -0.4967  1.4317 -1.4236
  403MPD2    H2 6023   2.393   3.128  13.733  0.7381 -1.1599 -2.1437
  403MPD2    H3 6024   2.449   3.267  13.898 -0.2129  1.3399  0.0226
  403MPD2     N 6025   2.901   3.226  13.849 -0.2535  0.2092  0.6001
  403MPD2    H5 6026   2.975   3.186  13.792 -0.1065  0.4083  0.6527
  403MPD2    N1 6027   2.558   2.957  13.587  0.2444  0.2960  0.3227
  403MPD2    H7 6028   2.457   2.967  13.582  0.3720  1.9801  1.0166
  404TMC3    C1 6029   2.559   2.783  13.435  0.4507  0.3196 -0.0250
  404TMC3    C2 6030   2.465   2.709  13.507 -0.0117  0.0816  0.6369
  404TMC3    C3 6031   2.414   2.594  13.448 -0.5007  1.0375 -0.0104
  404TMC3    C4 6032   2.598   2.752  13.308  0.1405 -0.1543  0.1579
  404TMC3    C5 6033   2.536   2.651  13.248  0.3164 -0.5535  0.2888
  404TMC3    C6 6034   2.440   2.573  13.311  0.5957 -0.4373 -0.3271
  404TMC3     C 6035   2.637   2.883  13.501 -0.4532 -0.1828 -0.5979
  404TMC3     O 6036   2.753   2.905  13.461 -0.0771 -0.0190 -0.0115
  404TMC3     H 6037   2.450   2.724  13.613  0.6985  1.0725  0.5895
  404TMC3    H1 6038   2.665   2.818  13.253  0.3487 -0.5422 -0.0534
  404TMC3    H2 6039   2.391   2.490  13.261  1.7499 -2.2795  1.6262
  404TMC3    C7 6040   2.596   2.609  13.133 -0.2544 -0.3423  0.1223
  404TMC3    C8 6041   2.406   2.475  13.527  0.7691 -0.5282 -0.0818
  404TMC3    O1 6042   2.719   2.614  13.121 -0.4852 -0.1153  0.5128
  404TMC3    O2 6043   2.431   2.372  13.464  0.5417  0.1332  0.9065
  405MPD2     C 6044   2.953   3.482  14.840  0.7693  0.1569  0.1498
  405MPD2    C1 6045   2.908   3.412  14.730 -0.2710  0.4529 -0.2146
  405MPD2    C2 6046   2.831   3.477  14.636 -0.2943  0.4697 -0.2958
  405MPD2    C3 6047   2.821   3.614  14.642 -0.3108  0.6812 -0.6971
  405MPD2    C4 6048   2.888   3.684  14.740  0.3770 -0.6362 -0.1616
  405MPD2    C5 6049   2.949   3.619  14.842  0.5161  0.6581  0.6638
  405MPD2     H 6050   2.762   3.429  14.568 -0.6190  1.8299 -0.9330
  405MPD2    H1 6051   2.878   3.791  14.752 -1.5480 -0.8379  0.1330
  405MPD2    H2 6052   3.015   3.430  14.912  1.1727 -0.4907 -0.6597
  405MPD2    H3 6053   3.005   3.673  14.917  3.4548 -0.8617 -0.4303
  405MPD2     N 6054   2.740   3.679  14.550 -0.2500  0.8476 -0.3734
  405MPD2    H5 6055   2.706   3.608  14.485  1.6180  0.0282 -0.4375
  405MPD2    N1 6056   2.912   3.271  14.738 -0.0463  0.2534 -0.4012
  405MPD2    H7 6057   2.970   3.234  14.812  0.1828 -1.3688 -1.3826
  406TMC3    C1 6058   2.378   3.922  14.414 -0.7144  0.9085 -0.1616
  406TMC3    C2 6059   2.319   3.801  14.381 -0.0166 -0.0309 -0.2496
  406TMC3    C3 6060   2.399   3.690  14.370 -0.5048  0.0748  1.0125
  406TMC3    C4 6061   2.512   3.931  14.444  0.2450 -0.3015  0.0804
  406TMC3    C5 6062   2.588   3.819  14.436  0.1446  0.5672 -0.6243
  406TMC3    C6 6063   2.535   3.699  14.394  0.4188  0.3321  0.0800
  406TMC3     C 6064   2.291   4.026  14.463  0.0533  0.1460  0.4831
  406TMC3     O 6065   2.310   4.138  14.425  0.2713 -0.1202 -0.1488
  406TMC3     H 6066   2.215   3.792  14.352 -0.5776 -1.8351  2.3336
  406TMC3    H1 6067   2.548   4.022  14.492  0.1455  0.3435 -1.0764
  406TMC3    H2 6068   2.601   3.617  14.368  1.3157  1.2167 -0.4845
  406TMC3    C7 6069   2.697   3.813  14.531  0.1135  0.2388 -0.2643
  406TMC3    C8 6070   2.325   3.564  14.390  0.2031  0.0184 -0.0039
  406TMC3    O1 6071   2.731   3.908  14.597  0.3281 -0.1424  0.2601
  406TMC3    O2 6072   2.204   3.575  14.410  0.3883 -0.5217 -0.2943
  407MPD2     C 6073   0.539   0.489   9.724  0.2997 -0.5926 -0.6998
  407MPD2    C1 6074   0.666   0.492   9.779 -0.3113 -0.5328  1.3181
  407MPD2    C2 6075   0.705   0.605   9.850  0.8521  0.6308  0.2386
  407MPD2    C3 6076   0.627   0.720   9.861 -0.3732  0.3805 -0.3388
  407MPD2    C4 6077   0.512   0.722   9.786  0.2359  0.4860  0.2212
  407MPD2    C5 6078   0.471   0.603   9.722  0.1900  0.2672  0.7976
  407MPD2     H 6079   0.793   0.597   9.913  1.6426 -0.4136 -1.0115
  407MPD2    H1 6080   0.449   0.809   9.774  0.7855  0.8150 -0.2625
  407MPD2    H2 6081   0.500   0.408   9.664 -1.4168  1.0716 -1.8128
  407MPD2    H3 6082   0.371   0.593   9.681 -0.0810  1.4139  1.2045
  407MPD2     N 6083   0.662   0.838   9.930 -0.2385 -0.3614  0.1786
  407MPD2    H5 6084   0.596   0.914   9.925 -1.3572 -1.3757 -0.5237
  407MPD2    N1 6085   0.750   0.376   9.792  1.0626 -0.4260  0.0023
  407MPD2    H7 6086   0.839   0.374   9.841  1.1276  0.8517 -0.0715
  408TMC3    C1 6087   0.821   0.149   9.749  0.1273 -0.5983 -0.4343
  408TMC3    C2 6088   0.948   0.185   9.757  0.1711  0.1324 -0.0385
  408TMC3    C3 6089   1.041   0.087   9.739  0.5466 -0.1917  0.0467
  408TMC3    C4 6090   0.778   0.018   9.752  0.1045 -0.8567  0.0205
  408TMC3    C5 6091   0.877   4.641   9.754 -0.5876  0.2387  0.7205
  408TMC3    C6 6092   1.014   4.677   9.751 -0.0657 -0.5592 -1.1490
  408TMC3     C 6093   0.721   0.253   9.729  0.2243  0.3887 -0.0294
  408TMC3     O 6094   0.637   0.224   9.643 -0.0843  0.1493  0.1306
  408TMC3     H 6095   0.981   0.287   9.740  1.8880 -0.3612  0.3671
  408TMC3    H1 6096   0.673   4.712   9.747  0.4061 -1.3083 -3.5829
  408TMC3    H2 6097   1.090   4.600   9.745  1.8050  1.1057  1.3117
  408TMC3    C7 6098   0.834   4.506   9.792  0.0137  0.0042 -0.0805
  408TMC3    C8 6099   1.177   0.127   9.773 -0.0095 -1.1257 -0.1766
  408TMC3    O1 6100   0.715   4.492   9.820 -0.2779  0.3182  0.4918
  408TMC3    O2 6101   1.238   0.070   9.868  0.0164 -0.2787  0.1726
  409MPD2     C 6102   4.415   0.830  17.066 -0.1520 -0.1986 -0.4880
  409MPD2    C1 6103   4.541   0.843  17.131  0.0317 -0.2039 -0.4330
  409MPD2    C2 6104   4.634   0.940  17.087  0.3941  0.8221  0.2419
  409MPD2    C3 6105   4.607   0.998  16.968  0.3579  0.4972 -0.2612
  409MPD2    C4 6106   4.488   0.970  16.907 -0.7881  0.2674 -0.1519
  409MPD2    C5 6107   4.387   0.902  16.959  0.2270  0.3684 -0.5400
  409MPD2     H 6108   0.005   0.951  17.141  1.3391  1.3477 -1.4876
  409MPD2    H1 6109   4.475   1.019  16.811  2.6238 -2.3536 -1.9523
  409MPD2    H2 6110   4.340   0.763  17.106  0.6905 -0.4423  0.6484
  409MPD2    H3 6111   4.295   0.889  16.902 -1.2714 -0.4163  2.0225
  409MPD2     N 6112   4.696   1.092  16.904  0.3237 -0.1468 -0.1629
  409MPD2    H5 6113   4.680   1.110  16.806 -1.6650 -0.3534  0.1252
  409MPD2    N1 6114   4.572   0.782  17.246 -0.0742  0.3837 -0.5921
  409MPD2    H7 6115   4.662   0.801  17.288  1.1845 -1.5162 -2.4635
  410TMC3    C1 6116   0.144   1.258  16.905 -0.0641 -0.6705 -0.0375
  410TMC3    C2 6117   0.264   1.290  16.961 -0.4178 -0.6814  0.1042
  410TMC3    C3 6118   0.336   1.389  16.894  0.4425 -0.3946 -0.0366
  410TMC3    C4 6119   0.107   1.307  16.782 -0.2539 -0.7892 -0.5686
  410TMC3    C5 6120   0.182   1.404  16.718  0.1586  0.0384  0.5945
  410TMC3    C6 6121   0.300   1.445  16.774  0.5802  0.3164 -0.0328
  410TMC3     C 6122   0.063   1.160  16.977  0.0178  0.0795 -0.1054
  410TMC3     O 6123   0.091   1.149  17.096  0.2425  0.3064 -0.2041
  410TMC3     H 6124   0.293   1.268  17.063 -2.0731 -1.7710  0.3392
  410TMC3    H1 6125   0.018   1.265  16.736 -1.2511 -0.9386  1.5002
  410TMC3    H2 6126   0.358   1.524  16.727 -1.4487  1.1529 -1.1132
  410TMC3    C7 6127   0.169   1.393  16.576 -0.3451 -0.1388  0.0125
  410TMC3    C8 6128   0.467   1.419  16.947  0.4445 -0.4252 -0.2880
  410TMC3    O1 6129   0.108   1.296  16.534  0.6515  0.2265 -0.5961
  410TMC3    O2 6130   0.491   1.533  16.977 -0.3248 -0.4283 -0.0129
  411MPD2     C 6131   0.406   1.772  14.539  0.1191 -1.0622 -0.7089
  411MPD2    C1 6132   0.286   1.831  14.507 -0.0197 -0.0427  0.4774
  411MPD2    C2 6133   0.177   1.745  14.498 -0.3229 -0.5236  0.8753
  411MPD2    C3 6134   0.189   1.604  14.508  0.1487  0.2927 -0.2108
  411MPD2    C4 6135   0.305   1.553  14.554  0.5667  0.1130 -0.3355
  411MPD2    C5 6136   0.409   1.640  14.560 -0.3832  0.3445 -0.9163
  411MPD2     H 6137   0.088   1.792  14.456  0.5471 -0.9516 -1.4752
  411MPD2    H1 6138   0.316   1.447  14.572 -0.4605  0.3418  1.5675
  411MPD2    H2 6139   0.502   1.816  14.563 -0.2687  0.2378 -1.4916
  411MPD2    H3 6140   0.502   1.593  14.590 -0.7538 -0.1605 -0.5749
  411MPD2     N 6141   0.077   1.519  14.498 -0.0331 -0.1744  0.3995
  411MPD2    H5 6142   0.093   1.422  14.475  1.7757  0.1424  0.3263
  411MPD2    N1 6143   0.258   1.969  14.497 -0.5337  0.1867  0.4081
  411MPD2    H7 6144   0.162   2.001  14.490 -0.9901 -1.5835 -1.1266
  412TMC3    C1 6145   4.574   1.467  14.436  0.2183 -0.1440 -0.0160
  412TMC3    C2 6146   4.454   1.528  14.404 -0.7681  0.0665 -0.4787
  412TMC3    C3 6147   4.389   1.491  14.288  0.5874 -0.1187  0.1851
  412TMC3    C4 6148   4.611   1.351  14.374  1.1200  0.1272 -0.0351
  412TMC3    C5 6149   4.544   1.318  14.262 -0.3599 -0.1926  0.0031
  412TMC3    C6 6150   4.437   1.383  14.218  0.2561 -1.1173  0.4369
  412TMC3     C 6151   4.670   1.564  14.483  0.1578  0.4677  0.4944
  412TMC3     O 6152   4.630   1.681  14.489  0.1598 -0.3190  0.2666
  412TMC3     H 6153   4.412   1.619  14.446  0.2021 -0.5278  1.7735
  412TMC3    H1 6154   4.708   1.309  14.399  1.2096 -1.0741 -2.3675
  412TMC3    H2 6155   4.397   1.353  14.122  1.4720  1.7821 -0.9661
  412TMC3    C7 6156   4.639   1.289  14.155  0.5370 -0.6181  0.3746
  412TMC3    C8 6157   4.390   1.606  14.204 -0.2037 -0.5711 -0.2417
  412TMC3    O1 6158   4.611   1.345  14.047  0.4665 -0.1236  0.7225
  412TMC3    O2 6159   4.326   1.703  14.242 -0.5124  1.0720  0.0486
  413MPD2     C 6160   1.945   0.078  15.420 -0.3249 -0.2273  0.1865
  413MPD2    C1 6161   1.867   4.720  15.341 -0.6120 -0.6034  0.5131
  413MPD2    C2 6162   1.914   4.596  15.306  0.1024 -0.3190 -0.2172
  413MPD2    C3 6163   2.038   4.556  15.344  0.0610  0.2717  0.4175
  413MPD2    C4 6164   2.118   4.636  15.424  0.3700  0.7027  0.5346
  413MPD2    C5 6165   2.070   0.039  15.461  0.3858 -0.1078 -0.7966
  413MPD2     H 6166   1.858   4.515  15.262 -3.0382  2.5462 -1.5846
  413MPD2    H1 6167   2.216   4.600  15.454 -0.1684 -1.4394 -0.2741
  413MPD2    H2 6168   1.917   0.177  15.454  0.0309  0.4589 -1.5157
  413MPD2    H3 6169   2.131   0.101  15.526  1.3521 -1.0421 -0.8053
  413MPD2     N 6170   2.082   4.431  15.299 -0.1186  0.4978 -0.4405
  413MPD2    H5 6171   2.020   4.395  15.227 -0.8736 -1.7956  1.3312
  413MPD2    N1 6172   1.741   0.045  15.296 -0.0381 -0.8195 -0.3598
  413MPD2    H7 6173   1.718   0.128  15.350 -1.2132 -0.6226 -1.1861
  414TMC3    C1 6174   2.194   4.224  15.280  0.3905 -0.0273  0.2083
  414TMC3    C2 6175   2.268   4.132  15.354 -0.1933 -0.5554  0.0691
  414TMC3    C3 6176   2.276   4.006  15.302  0.0064  0.5534  0.1532
  414TMC3    C4 6177   2.132   4.193  15.166 -0.1764  0.2442 -0.1605
  414TMC3    C5 6178   2.144   4.062  15.123 -0.6715 -0.8405  0.4762
  414TMC3    C6 6179   2.213   3.967  15.190  0.1669 -0.0572 -0.8382
  414TMC3     C 6180   2.184   4.358  15.340 -0.3509  0.0334  0.2113
  414TMC3     O 6181   2.263   4.374  15.433  0.4521  0.2987 -0.1041
  414TMC3     H 6182   2.326   4.168  15.439 -2.3071  0.7255  0.9562
  414TMC3    H1 6183   2.082   4.265  15.102 -0.1549  1.3121  1.0191
  414TMC3    H2 6184   2.225   3.872  15.139 -3.7154 -0.6702 -0.6186
  414TMC3    C7 6185   2.055   4.025  15.017 -0.1065  0.1125 -0.2200
  414TMC3    C8 6186   2.359   3.910  15.365  0.5082 -0.8698 -0.2361
  414TMC3    O1 6187   1.949   4.084  15.009 -0.1961 -0.6885 -0.0634
  414TMC3    O2 6188   2.350   3.794  15.324 -0.2418 -0.0944 -0.0296
  415TMC3    C1 6189   3.034   3.051  10.009 -0.5044 -0.4562 -0.6409
  415TMC3    C2 6190   3.128   3.040   9.905 -0.3116  0.9274 -0.2003
  415TMC3    C3 6191   3.116   2.927   9.828  0.6418  0.5205 -0.1500
  415TMC3    C4 6192   2.934   2.961  10.028 -0.4026  0.2939 -0.5343
  415TMC3    C5 6193   2.950   2.845   9.963 -0.1281  0.2476  0.4171
  415TMC3    C6 6194   3.038   2.822   9.862  0.6459  0.0535  0.2198
  415TMC3     C 6195   3.058   3.146  10.114  0.2926 -0.4368  0.0976
  415TMC3     O 6196   2.964   3.178  10.186 -0.1061  0.2455  0.6559
  415TMC3     H 6197   3.174   3.134   9.878 -1.8009  1.5262 -0.6807
  415TMC3    H1 6198   2.866   2.967  10.113  0.4936  3.0697 -0.0165
  415TMC3    H2 6199   3.045   2.727   9.810 -1.1480  0.2193 -0.3442
  415TMC3    C7 6200   2.876   2.725  10.004  0.6710  0.1323 -0.2136
  415TMC3    C8 6201   3.229   2.890   9.749  0.5539  0.2555  0.3116
  415TMC3    O1 6202   2.886   2.628   9.927 -0.1805  0.2741 -0.5180
  415TMC3    O2 6203   3.249   2.768   9.742  0.0343  0.2502  0.3780
  416MPD2     C 6204   4.332   2.012  10.869 -0.9130 -0.4138 -0.4210
  416MPD2    C1 6205   4.276   1.946  10.977 -0.2575 -0.2061  0.4769
  416MPD2    C2 6206   4.286   1.803  10.973  0.3350  0.1939  0.1450
  416MPD2    C3 6207   4.357   1.737  10.870 -0.0817  0.5495 -0.0999
  416MPD2    C4 6208   4.429   1.802  10.778  0.0735 -0.6806  0.4430
  416MPD2    C5 6209   4.401   1.939  10.772  0.4443 -0.0905 -0.0698
  416MPD2     H 6210   4.225   1.762  11.052 -2.5831  0.7962 -1.7832
  416MPD2    H1 6211   4.473   1.752  10.692 -2.1237  0.6843 -1.4595
  416MPD2    H2 6212   4.334   2.121  10.868  2.3686 -0.4718 -1.6178
  416MPD2    H3 6213   4.445   1.988  10.686 -1.6950  2.6503  0.3720
  416MPD2     N 6214   4.353   1.595  10.859 -0.5868  0.2424  0.3551
  416MPD2    H5 6215   4.398   1.563  10.774 -2.6201 -1.8219  0.0371
  416MPD2    N1 6216   4.205   2.019  11.076  0.1086  0.1996 -0.2210
  416MPD2    H7 6217   4.187   2.117  11.059 -2.9284 -0.8408 -2.9869
  417TMC3    C1 6218   4.083   2.050  11.271 -0.0520 -0.1271  0.2998
  417TMC3    C2 6219   4.050   2.008  11.396  0.5499 -0.0851 -0.5889
  417TMC3    C3 6220   3.922   2.042  11.446  0.2659  1.2606  0.2556
  417TMC3    C4 6221   4.000   2.134  11.192  0.1442 -0.1650  0.6803
  417TMC3    C5 6222   3.879   2.166  11.248  0.3613 -0.2489  0.5359
  417TMC3    C6 6223   3.835   2.125  11.374 -0.1724 -0.0871  0.3363
  417TMC3     C 6224   4.177   1.961  11.198 -0.4331 -0.0033 -0.4120
  417TMC3     O 6225   4.219   1.855  11.247 -0.4014  0.4747  0.1277
  417TMC3     H 6226   4.104   1.922  11.435  0.5914 -0.5013 -1.5537
  417TMC3    H1 6227   4.025   2.172  11.094 -0.7607 -0.6728  0.2685
  417TMC3    H2 6228   3.733   2.146  11.406 -0.4026 -0.2995 -0.2468
  417TMC3    C7 6229   3.782   2.231  11.161 -0.2944  0.6410 -0.5977
  417TMC3    C8 6230   3.897   2.025  11.592 -0.0811  0.1596  0.7139
  417TMC3    O1 6231   3.841   2.306  11.082  0.1120 -0.3186  0.2902
  417TMC3    O2 6232   3.777   2.038  11.627 -0.0631  0.6736 -0.1963
  418TMC3    C1 6233   3.066   2.367   0.298 -0.0337  0.4376  0.3458
  418TMC3    C2 6234   2.962   2.432   0.242  0.5904  0.0691  0.0030
  418TMC3    C3 6235   2.839   2.423   0.307  0.2927  0.2470 -0.3980
  418TMC3    C4 6236   3.054   2.307   0.428 -0.2714  0.3713 -0.0140
  418TMC3    C5 6237   2.938   2.311   0.489  0.9216  0.6306 -0.1950
  418TMC3    C6 6238   2.823   2.367   0.429 -1.1873 -0.7842  0.0360
  418TMC3     C 6239   3.173   2.347   0.199 -0.2884 -0.0312 -0.3086
  418TMC3     O 6240   3.196   2.435   0.116 -0.1660  0.9189 -0.4170
  418TMC3     H 6241   2.970   2.463   0.138  2.5778  1.0278  0.4398
  418TMC3    H1 6242   3.139   2.255   0.471  0.1022 -0.3059 -1.5845
  418TMC3    H2 6243   2.727   2.364   0.479 -0.2932  1.7105  1.9061
  418TMC3    C7 6244   2.902   2.199   0.573  0.0159 -0.1694  0.4882
  418TMC3    C8 6245   2.722   2.459   0.232 -0.6423  0.1245 -0.0009
  418TMC3    O1 6246   2.804   2.128   0.546  0.2667  0.2540  0.0310
  418TMC3    O2 6247   2.733   2.542   0.145 -0.0903 -0.1304  0.2020
  419MPD2     C 6248   1.268   1.676  12.561 -0.0843 -0.1072  0.4787
  419MPD2    C1 6249   1.187   1.781  12.528  0.0251  0.0552 -0.3832
  419MPD2    C2 6250   1.129   1.851  12.629 -0.2132  0.2479 -0.1524
  419MPD2    C3 6251   1.141   1.816  12.760  0.1233 -0.0380 -0.3381
  419MPD2    C4 6252   1.221   1.705  12.791 -0.5267  0.5589  0.2015
  419MPD2    C5 6253   1.282   1.636  12.689  0.1786  0.1769 -0.1734
  419MPD2     H 6254   1.082   1.941  12.592 -1.0438  0.1529  0.6937
  419MPD2    H1 6255   1.226   1.672  12.894 -3.0661 -0.6893 -0.0645
  419MPD2    H2 6256   1.331   1.633  12.484  0.3555  0.7567  0.3526
  419MPD2    H3 6257   1.343   1.550  12.713 -0.1902  0.1468  0.6388
  419MPD2     N 6258   1.068   1.880  12.854  0.6754 -0.1329  0.3450
  419MPD2    H5 6259   1.019   1.960  12.815  0.2096 -0.4457  0.2906
  419MPD2    N1 6260   1.170   1.821  12.395 -0.1839  0.7659 -0.5509
  419MPD2    H7 6261   1.129   1.913  12.384 -0.1065  0.8249 -0.3295
  420TMC3    C1 6262   0.945   1.918  13.057 -0.2550 -0.1333 -0.2861
  420TMC3    C2 6263   0.832   1.963  12.989  0.0172 -0.3973  0.1122
  420TMC3    C3 6264   0.728   2.015  13.058  0.0568  0.0445 -0.0271
  420TMC3    C4 6265   0.950   1.914  13.195 -0.2626 -0.0930  0.1813
  420TMC3    C5 6266   0.842   1.969  13.259 -0.0449 -0.3025 -0.1849
  420TMC3    C6 6267   0.727   2.019  13.196 -0.5825  0.2828  0.0576
  420TMC3     C 6268   1.056   1.853  12.987 -0.0336  0.2055  0.4800
  420TMC3     O 6269   1.127   1.781  13.053  0.0532 -0.0377  0.2133
  420TMC3     H 6270   0.831   1.972  12.881 -1.4035 -0.6063  0.1023
  420TMC3    H1 6271   1.032   1.866  13.248  0.9175  0.5574 -1.0533
  420TMC3    H2 6272   0.653   2.068  13.258 -0.4840  0.4320  0.0555
  420TMC3    C7 6273   0.838   1.942  13.404 -0.7456  0.0601  0.0167
  420TMC3    C8 6274   0.634   2.098  12.982  0.2968  0.0495 -0.9709
  420TMC3    O1 6275   0.939   1.890  13.450 -0.2694  0.1560  0.3078
  420TMC3    O2 6276   0.578   2.190  13.033 -0.1964  0.1072  0.2883
  421TMC3    C1 6277   3.084   3.298  13.981  0.0516 -0.0449 -0.2791
  421TMC3    C2 6278   3.130   3.401  14.049 -1.0606  0.2364 -0.2613
  421TMC3    C3 6279   3.267   3.418  14.058  0.0892 -0.0193 -0.2206
  421TMC3    C4 6280   3.169   3.215  13.916 -0.7873  0.4464 -0.2307
  421TMC3    C5 6281   3.305   3.240  13.909  0.5700  0.2052 -0.8255
  421TMC3    C6 6282   3.360   3.342  13.990 -0.1332  0.1887  0.0651
  421TMC3     C 6283   2.940   3.298  13.964 -0.5438 -0.4616 -0.1776
  421TMC3     O 6284   2.874   3.379  14.028 -0.3377  0.4772  0.0857
  421TMC3     H 6285   3.067   3.461  14.113 -0.2085  0.7511  0.1038
  421TMC3    H1 6286   3.124   3.129  13.869  0.2553 -0.2438  0.0441
  421TMC3    H2 6287   3.467   3.361  13.992  0.1294 -1.2685  0.3990
  421TMC3    C7 6288   3.396   3.148  13.843 -0.4159 -0.1848  0.1948
  421TMC3    C8 6289   3.318   3.528  14.141  0.1390 -0.4955  0.4752
  421TMC3    O1 6290   3.511   3.154  13.877 -0.0461 -0.2707 -0.0389
  421TMC3    O2 6291   3.408   3.587  14.083 -0.0981 -0.7289 -0.0274
  422TMC3    C1 6292   0.326   0.092  12.355 -0.0132 -0.0414 -0.3873
  422TMC3    C2 6293   0.305   0.225  12.381  0.4064  0.0712  0.3319
  422TMC3    C3 6294   0.193   0.264  12.447 -0.1750 -0.1408  0.7995
  422TMC3    C4 6295   0.237   4.714  12.399 -0.5947 -0.2375  0.5630
  422TMC3    C5 6296   0.127   0.036  12.467  0.6834 -0.1626  0.2480
  422TMC3    C6 6297   0.106   0.171  12.500  0.6383 -0.2076  0.1850
  422TMC3     C 6298   0.445   0.056  12.283  0.2483  0.4965 -0.4745
  422TMC3     O 6299   0.492   0.138  12.206 -0.1212 -0.1427  0.4555
  422TMC3     H 6300   0.371   0.297  12.334  0.4079 -1.5714 -2.1919
  422TMC3    H1 6301   0.257   4.609  12.384  0.0379  0.5294 -3.9011
  422TMC3    H2 6302   0.009   0.199  12.538 -0.7771 -2.3414 -1.8855
  422TMC3    C7 6303   0.047   4.648  12.525  0.9935 -0.3306  0.0265
  422TMC3    C8 6304   0.174   0.414  12.478 -0.0319 -0.0305 -0.1952
  422TMC3    O1 6305   0.091   4.535  12.512 -0.2614 -0.3482 -0.1892
  422TMC3    O2 6306   0.277   0.479  12.460  0.1592 -0.1372  0.0918
  423MPD2     C 6307   1.146   0.657   0.372  0.5306  0.5228 -0.1622
  423MPD2    C1 6308   1.174   0.545   0.445 -0.7354  0.1058  0.6338
  423MPD2    C2 6309   1.257   0.451   0.393  0.4668 -0.0396  0.3639
  423MPD2    C3 6310   1.321   0.477   0.269  0.0182 -0.2795 -0.3892
  423MPD2    C4 6311   1.302   0.597   0.207  0.7737  0.1574 -0.4496
  423MPD2    C5 6312   1.211   0.686   0.258 -0.4216  0.6690  0.3884
  423MPD2     H 6313   1.272   0.362   0.452  2.1374 -1.0180 -1.5054
  423MPD2    H1 6314   1.333   0.619   0.106  0.6977 -0.1635 -0.5421
  423MPD2    H2 6315   1.072   0.729   0.405  2.5926  1.9920  1.2577
  423MPD2    H3 6316   1.179   0.772   0.200  1.7360  0.7652 -0.6716
  423MPD2     N 6317   1.401   0.387   0.205  0.3040  0.5131 -0.4074
  423MPD2    H5 6318   1.426   0.410   0.110  1.1998 -2.0732 -0.7962
  423MPD2    N1 6319   1.102   0.519   0.568 -0.4621 -0.6096 -0.5558
  423MPD2    H7 6320   1.124   0.440   0.628 -0.0532 -0.8187 -0.9801
  424TMC3    C1 6321   0.967   0.554   0.746 -0.1456  0.2198  0.4518
  424TMC3    C2 6322   1.076   0.537   0.824 -0.6408  0.0033 -0.4444
  424TMC3    C3 6323   1.056   0.553   0.959 -0.1640 -0.0273  0.1846
  424TMC3    C4 6324   0.841   0.557   0.793  0.2631 -0.2010  0.3326
  424TMC3    C5 6325   0.824   0.577   0.931 -0.4677  0.6116 -0.6853
  424TMC3    C6 6326   0.934   0.579   1.017 -0.1407  0.3881  0.4589
  424TMC3     C 6327   0.988   0.594   0.610 -0.3861  0.1611  0.1044
  424TMC3     O 6328   0.898   0.655   0.550 -0.4263 -0.3533  0.1178
  424TMC3     H 6329   1.176   0.528   0.784 -0.4630 -1.4082  0.3124
  424TMC3    H1 6330   0.752   0.569   0.731  0.5862 -0.1969 -0.1324
  424TMC3    H2 6331   0.928   0.607   1.122  0.7773  0.1962  0.5608
  424TMC3    C7 6332   0.686   0.604   0.972  0.4221  0.3284  0.2783
  424TMC3    C8 6333   1.169   0.512   1.037  0.2768 -0.1835  0.2396
  424TMC3    O1 6334   0.610   0.662   0.892 -0.3360 -0.0781 -0.5158
  424TMC3    O2 6335   1.263   0.474   0.972 -0.2695 -0.1873  0.3137
  425MPD2     C 6336   0.899   4.313   0.250  0.0589 -0.0092 -0.0364
  425MPD2    C1 6337   0.891   4.236   0.139  0.3919 -0.5921 -0.5080
  425MPD2    C2 6338   0.798   4.270   0.039 -0.2416 -0.0407  0.1374
  425MPD2    C3 6339   0.710   4.376   0.069  0.4323 -0.2361  0.0121
  425MPD2    C4 6340   0.716   4.449   0.189  0.0293  0.3303 -0.3921
  425MPD2    C5 6341   0.808   4.408   0.280  0.0192 -0.1738  0.2556
  425MPD2     H 6342   0.787   4.197  17.652 -2.4501  1.6151 -1.1001
  425MPD2    H1 6343   0.649   4.530   0.214 -0.1964  0.2518 -0.7524
  425MPD2    H2 6344   0.961   4.281   0.333 -2.3401  0.8748  2.0720
  425MPD2    H3 6345   0.823   4.462   0.373  1.2172  1.5432 -0.9371
  425MPD2     N 6346   0.612   4.399  17.656  0.2013 -0.1163 -0.1400
  425MPD2    H5 6347   0.618   4.342  17.572  0.1211 -0.5901  0.1767
  425MPD2    N1 6348   0.959   4.112   0.137  0.0077  0.4664 -0.7766
  425MPD2    H7 6349   1.005   4.082   0.222  2.2381 -0.1422 -2.1727
  426TMC3    C1 6350   0.998   3.918   0.043 -0.2165 -0.1318 -0.0060
  426TMC3    C2 6351   1.027   3.843  17.621  0.3873  0.2275 -0.1693
  426TMC3    C3 6352   0.953   3.731  17.592 -0.2338 -0.0928 -0.4354
  426TMC3    C4 6353   0.898   3.863   0.123  0.1178 -0.6536  0.2187
  426TMC3    C5 6354   0.832   3.747   0.093 -0.0425 -0.2083  0.5855
  426TMC3    C6 6355   0.861   3.677  17.674  0.1273 -0.1374 -0.1731
  426TMC3     C 6356   0.999   4.056   0.020  0.0123  0.0449 -0.4763
  426TMC3     O 6357   0.979   4.088  17.595  0.2539  0.5364  0.3369
  426TMC3     H 6358   1.098   3.880  17.548  0.2866 -0.9131 -0.8502
  426TMC3    H1 6359   0.857   3.914   0.209  1.4725  0.1357  0.4032
  426TMC3    H2 6360   0.829   3.578  17.643 -0.2224 -0.2160  0.4389
  426TMC3    C7 6361   0.744   3.682   0.185 -0.7335  0.0958  0.2685
  426TMC3    C8 6362   0.951   3.676  17.457  0.0081 -0.1508  0.2726
  426TMC3    O1 6363   0.734   3.560   0.160  0.0051 -0.2019 -0.2589
  426TMC3    O2 6364   1.055   3.683  17.394  0.0906  0.3989  0.2165
  427MPD2     C 6365   4.247   1.748  14.693  0.1126  0.1539 -0.4504
  427MPD2    C1 6366   4.226   1.729  14.825 -0.7619 -0.4283  0.2140
  427MPD2    C2 6367   4.093   1.752  14.873 -0.1348 -0.2099  0.2027
  427MPD2    C3 6368   3.990   1.791  14.784  0.7899 -0.0785  0.2252
  427MPD2    C4 6369   4.015   1.799  14.649 -0.5529 -0.3616  0.0804
  427MPD2    C5 6370   4.145   1.776  14.602  0.5641 -0.6206 -0.6569
  427MPD2     H 6371   4.077   1.745  14.980  1.5431 -1.6913  0.3662
  427MPD2    H1 6372   3.935   1.824  14.580 -2.1642 -0.6632  1.8533
  427MPD2    H2 6373   4.348   1.749  14.653 -0.3951 -0.5236 -1.7283
  427MPD2    H3 6374   4.167   1.805  14.500  0.0042  2.3128  0.0312
  427MPD2     N 6375   3.858   1.817  14.835 -0.2981  0.0994  0.0209
  427MPD2    H5 6376   3.791   1.840  14.762  0.5909  1.5542 -0.3222
  427MPD2    N1 6377   4.340   1.691  14.911 -0.7988 -0.5209 -0.4531
  427MPD2    H7 6378   4.431   1.684  14.866  1.4586 -1.7252  4.3214
  428TMC3    C1 6379   4.445   1.589  15.093 -0.4311 -0.0761  0.1275
  428TMC3    C2 6380   4.443   1.463  15.154 -0.0344 -0.2702 -0.2161
  428TMC3    C3 6381   4.562   1.418  15.193  0.1667  0.0410  0.1561
  428TMC3    C4 6382   4.562   1.662  15.071 -0.0353  0.0440 -0.0511
  428TMC3    C5 6383   4.683   1.604  15.105  0.3020 -0.6225 -0.0444
  428TMC3    C6 6384   4.681   1.483  15.160 -0.1480 -0.1058 -0.3239
  428TMC3     C 6385   4.320   1.633  15.036  0.5087  0.1190  0.2305
  428TMC3     O 6386   4.217   1.599  15.090 -0.1131 -0.4378  0.2291
  428TMC3     H 6387   4.343   1.427  15.179 -0.1621  0.6187  0.5604
  428TMC3    H1 6388   4.571   1.752  15.012  1.2401 -1.0234 -1.5001
  428TMC3    H2 6389   0.051   1.426  15.162 -0.7574 -1.0536  0.9674
  428TMC3    C7 6390   0.073   1.675  15.168 -0.2958 -0.1936  0.8535
  428TMC3    C8 6391   4.558   1.272  15.193 -0.1421 -0.4460 -0.7024
  428TMC3    O1 6392   0.144   1.632  15.265  0.4261 -0.8937 -0.1865
  428TMC3    O2 6393   4.447   1.217  15.185 -0.4387  0.0447  0.3499
  429MPD2     C 6394   0.395   2.129  17.566 -0.4619 -0.3868 -0.3263
  429MPD2    C1 6395   0.407   2.070  17.437  0.2624 -0.4885  0.4527
  429MPD2    C2 6396   0.453   2.151  17.337  0.0852  1.1080 -0.3101
  429MPD2    C3 6397   0.498   2.278  17.363 -0.5562 -0.3306  0.1524
  429MPD2    C4 6398   0.485   2.332  17.494 -0.3441  0.0692  0.2816
  429MPD2    C5 6399   0.436   2.257  17.598  1.1126 -0.3963  0.2198
  429MPD2     H 6400   0.470   2.110  17.238 -0.1358  1.4402 -0.4842
  429MPD2    H1 6401   0.523   2.430  17.519 -2.1303  0.4151  1.6021
  429MPD2    H2 6402   0.351   2.074  17.648 -1.3381 -2.0373 -1.8793
  429MPD2    H3 6403   0.411   2.299   0.003  0.1711  0.1415 -0.2648
  429MPD2     N 6404   0.569   2.350  17.258 -0.5126 -0.2337  0.4143
  429MPD2    H5 6405   0.569   2.302  17.169  1.8873 -1.4511  1.0682
  429MPD2    N1 6406   0.349   1.946  17.396 -0.2785  0.7254 -0.2966
  429MPD2    H7 6407   0.368   1.919  17.300  0.0413  0.2347 -0.0956
  430TMC3    C1 6408   0.698   2.498  17.155  0.4006 -0.5664  0.4392
  430TMC3    C2 6409   0.621   2.492  17.040  0.4665 -0.0902 -0.3126
  430TMC3    C3 6410   0.674   2.462  16.920 -0.3426 -0.2055  0.3658
  430TMC3    C4 6411   0.828   2.476  17.147 -0.1690  0.5174 -0.2837
  430TMC3    C5 6412   0.887   2.452  17.031 -0.1388  0.3533  0.4496
  430TMC3    C6 6413   0.812   2.446  16.914 -0.3136 -0.3871  0.0983
  430TMC3     C 6414   0.629   2.477  17.277  0.0502  0.6392 -0.9546
  430TMC3     O 6415   0.668   2.536  17.377  0.3072 -0.0815  0.9027
  430TMC3     H 6416   0.513   2.508  17.046  0.5210  0.3323 -0.4301
  430TMC3    H1 6417   0.880   2.468  17.241 -1.1614 -1.3298  0.1069
  430TMC3    H2 6418   0.863   2.412  16.824  0.1991  3.1392 -0.9545
  430TMC3    C7 6419   0.974   2.344  17.051  0.1873  0.1162 -0.4884
  430TMC3    C8 6420   0.587   2.446  16.804  0.2758 -1.0009 -0.1672
  430TMC3    O1 6421   0.952   2.263  17.138 -0.1127  0.7348 -0.2150
  430TMC3    O2 6422   0.640   2.385  16.712  0.5380 -0.2241 -0.0033
  431MPD2     C 6423   1.484   2.499  12.379 -0.6086 -0.1159  0.4647
  431MPD2    C1 6424   1.572   2.435  12.284  0.6246  0.3571 -0.4379
  431MPD2    C2 6425   1.519   2.336  12.197 -0.2765 -0.0329 -0.0093
  431MPD2    C3 6426   1.388   2.311  12.216  0.6855  0.5538  0.1041
  431MPD2    C4 6427   1.301   2.384  12.300  0.0374 -0.4249  0.0286
  431MPD2    C5 6428   1.353   2.474  12.387 -0.4433 -0.7460 -0.7372
  431MPD2     H 6429   1.580   2.285  12.123 -0.3454 -0.5349  0.2850
  431MPD2    H1 6430   1.198   2.357  12.320  0.3240 -1.4072  0.1672
  431MPD2    H2 6431   1.521   2.568  12.454 -1.1576  1.0779 -0.3580
  431MPD2    H3 6432   1.294   2.520  12.465  0.5514  0.5694 -0.7635
  431MPD2     N 6433   1.322   2.204  12.158 -0.1273 -0.3805 -0.2973
  431MPD2    H5 6434   1.221   2.197  12.155 -0.0369 -2.0028  0.3640
  431MPD2    N1 6435   1.715   2.452  12.284  0.3843 -0.3361  0.7059
  431MPD2    H7 6436   1.767   2.396  12.217 -1.0634 -1.6367  0.6779
  432TMC3    C1 6437   1.294   2.000  12.053 -0.0261  0.0685  0.2545
  432TMC3    C2 6438   1.310   1.918  11.944  0.0328 -0.0485  0.1035
  432TMC3    C3 6439   1.278   1.791  11.947 -0.1587 -0.1855  0.0059
  432TMC3    C4 6440   1.233   1.950  12.163  0.7998 -0.4485  0.7400
  432TMC3    C5 6441   1.184   1.817  12.157  1.1456  0.0226 -0.0969
  432TMC3    C6 6442   1.207   1.738  12.051  1.0073  0.4365  0.2392
  432TMC3     C 6443   1.380   2.108  12.079  0.8859  0.5954  0.2985
  432TMC3     O 6444   1.484   2.112  12.014 -0.3329 -0.0840 -0.0649
  432TMC3     H 6445   1.379   1.953  11.868 -0.0718 -0.4223 -0.1634
  432TMC3    H1 6446   1.225   2.006  12.255  2.2747  0.7206  0.1482
  432TMC3    H2 6447   1.171   1.636  12.053 -0.2975  0.8954 -0.2583
  432TMC3    C7 6448   1.209   1.746  12.280 -0.6030  0.0445  0.1205
  432TMC3    C8 6449   1.298   1.716  11.827  0.2405 -0.5639 -0.1287
  432TMC3    O1 6450   1.257   1.631  12.262  0.1543  0.2866 -0.2721
  432TMC3    O2 6451   1.320   1.777  11.726  1.0832  0.2839 -0.2554
  433MPD2     C 6452   0.524   1.198  10.701 -0.2553 -0.1136  0.0605
  433MPD2    C1 6453   0.478   1.089  10.768  0.0641 -0.2355  0.0962
  433MPD2    C2 6454   0.481   1.090  10.907  0.0239 -0.8435  0.0890
  433MPD2    C3 6455   0.529   1.198  10.974 -0.3897 -0.1366  0.0689
  433MPD2    C4 6456   0.569   1.315  10.906 -0.5724 -0.3814  0.9861
  433MPD2    C5 6457   0.561   1.313  10.760  0.0832  0.5171  0.4999
  433MPD2     H 6458   0.443   1.006  10.963 -2.6735 -0.6868 -1.4763
  433MPD2    H1 6459   0.629   1.383  10.965  0.9809  1.8413 -3.1168
  433MPD2    H2 6460   0.517   1.204  10.593 -1.5921  0.6737  0.1872
  433MPD2    H3 6461   0.607   1.390  10.699 -0.8169 -0.1047 -0.9674
  433MPD2     N 6462   0.545   1.172  11.114 -0.6528 -0.1076 -0.3440
  433MPD2    H5 6463   0.514   1.084  11.155  1.1652 -0.4140  0.3700
  433MPD2    N1 6464   0.445   0.979  10.694 -0.0018 -0.4021  0.1715
  433MPD2    H7 6465   0.472   0.989  10.596 -1.4314 -1.4948 -0.3339
  434TMC3    C1 6466   0.377   0.756  10.657  0.1548 -0.9370 -0.2000
  434TMC3    C2 6467   0.446   0.668  10.734 -0.0320 -0.6120  0.2501
  434TMC3    C3 6468   0.557   0.607  10.684 -1.0028 -0.3154  0.3289
  434TMC3    C4 6469   0.409   0.766  10.521 -0.0037  0.3445  0.2764
  434TMC3    C5 6470   0.521   0.709  10.471  0.1517  0.5418  0.1515
  434TMC3    C6 6471   0.601   0.626  10.553  0.2588  0.6931  0.1078
  434TMC3     C 6472   0.369   0.879  10.731 -0.2444 -0.8494 -0.1315
  434TMC3     O 6473   0.309   0.872  10.837 -0.6395  0.2109  0.0717
  434TMC3     H 6474   0.428   0.672  10.841  0.5215 -2.8393  0.4201
  434TMC3    H1 6475   0.344   0.830  10.463  0.9966  0.6462 -0.5075
  434TMC3    H2 6476   0.698   0.593  10.517  0.6007 -1.2688  2.8372
  434TMC3    C7 6477   0.542   0.733  10.330 -0.0473  0.0883 -0.2002
  434TMC3    C8 6478   0.626   0.506  10.768 -0.1717  0.0219  0.4930
  434TMC3    O1 6479   0.496   0.835  10.282  0.2908 -0.0980 -0.2484
  434TMC3    O2 6480   0.551   0.448  10.847  0.0409  0.0396  0.8097
  435MPD2     C 6481   2.310   0.331  15.526 -0.3256  0.1590 -0.2536
  435MPD2    C1 6482   2.272   0.338  15.660 -1.3077 -0.7489  0.6440
  435MPD2    C2 6483   2.353   0.277  15.756  0.4476  0.0187 -0.5343
  435MPD2    C3 6484   2.471   0.215  15.717 -0.2700 -0.3748 -1.1646
  435MPD2    C4 6485   2.517   0.219  15.585 -0.2395  0.4257  0.0506
  435MPD2    C5 6486   2.426   0.272  15.497 -0.5710  0.3747 -1.0123
  435MPD2     H 6487   2.327   0.277  15.862  0.2716 -0.1568 -0.5760
  435MPD2    H1 6488   2.599   0.154  15.554 -2.1858 -1.9975 -0.0340
  435MPD2    H2 6489   2.257   0.364  15.437 -3.0455  2.4949  2.2429
  435MPD2    H3 6490   2.446   0.269  15.390  0.9512 -1.2033 -0.6966
  435MPD2     N 6491   2.546   0.146  15.820  0.3949 -0.2409  0.6292
  435MPD2    H5 6492   2.512   0.150  15.915 -0.3367  0.7694  0.3294
  435MPD2    N1 6493   2.157   0.404  15.705  0.0479  0.2299 -0.4763
  435MPD2    H7 6494   2.135   0.390  15.803 -1.9223  2.0390 -0.6515
  436TMC3    C1 6495   1.864   0.647  15.879 -0.0776 -0.7048  0.5338
  436TMC3    C2 6496   1.973   0.580  15.819 -0.4182 -0.3852 -0.0130
  436TMC3    C3 6497   1.957   0.531  15.693 -0.4119 -0.9351  0.0421
  436TMC3    C4 6498   1.744   0.655  15.813  0.3341 -0.0352 -0.3639
  436TMC3    C5 6499   1.736   0.612  15.687 -0.1363 -0.3785  0.0385
  436TMC3    C6 6500   1.840   0.555  15.623  0.6334  0.4837 -0.1008
  436TMC3     C 6501   1.895   0.698  16.016 -0.7131  0.5547  0.1650
  436TMC3     O 6502   2.008   0.683  16.060  0.1423 -0.1982 -0.3692
  436TMC3     H 6503   2.067   0.567  15.871 -0.2136  1.6669  0.1385
  436TMC3    H1 6504   1.659   0.716  15.841 -0.7679 -1.9278  0.4921
  436TMC3    H2 6505   1.835   0.489  15.536  0.1810 -0.3522  0.5558
  436TMC3    C7 6506   1.620   0.630  15.605 -0.2997  0.3594  0.2877
  436TMC3    C8 6507   2.060   0.460  15.621  0.3301 -0.6112  0.0134
  436TMC3    O1 6508   1.515   0.599  15.657 -0.1147 -0.3275 -0.0357
  436TMC3    O2 6509   2.067   0.487  15.503  0.7359 -0.3199 -0.4899
  437TMC3    C1 6510   0.782   2.661  12.758 -0.1036 -0.2398 -0.5826
  437TMC3    C2 6511   0.771   2.786  12.814 -0.8437  0.0796  0.2819
  437TMC3    C3 6512   0.750   2.885  12.729 -0.1345 -0.3554 -0.1470
  437TMC3    C4 6513   0.775   2.643  12.629 -0.1748 -0.2421  0.1290
  437TMC3    C5 6514   0.752   2.747  12.540  0.1448  0.3773 -0.1916
  437TMC3    C6 6515   0.737   2.875  12.592 -0.8213  0.6217  0.0725
  437TMC3     C 6516   0.831   2.555  12.839 -0.3842  0.0200  0.1736
  437TMC3     O 6517   0.888   2.461  12.784 -0.5560  0.6891 -0.1744
  437TMC3     H 6518   0.786   2.801  12.921  1.1615 -0.4045  0.0723
  437TMC3    H1 6519   0.797   2.544  12.591 -1.2811 -0.5167  0.1980
  437TMC3    H2 6520   0.724   2.957  12.522 -1.8035 -0.3152 -0.8552
  437TMC3    C7 6521   0.822   2.751  12.417  0.1258 -0.4724 -0.9272
  437TMC3    C8 6522   0.708   3.011  12.790  0.2350  0.1895  0.4387
  437TMC3    O1 6523   0.787   2.670  12.336 -0.3708  0.0021  0.1021
  437TMC3    O2 6524   0.678   3.003  12.908  0.0192 -0.3247 -0.3914
  438MPD2     C 6525   2.958   3.099  16.813  0.0800  0.4888  0.7539
  438MPD2    C1 6526   3.067   3.021  16.835  0.1900 -0.5476 -0.0195
  438MPD2    C2 6527   3.085   2.955  16.963  0.0006 -0.4233 -0.2133
  438MPD2    C3 6528   2.979   2.961  17.050  0.9368  0.3054 -0.2830
  438MPD2    C4 6529   2.867   3.028  17.017 -0.2682 -0.1335 -0.4918
  438MPD2    C5 6530   2.856   3.100  16.900  0.2507 -0.6030  0.6020
  438MPD2     H 6531   3.184   2.912  16.978  0.3120  0.8474  1.4130
  438MPD2    H1 6532   2.782   3.041  17.084 -0.1993 -0.8775 -0.2695
  438MPD2    H2 6533   2.964   3.167  16.729  2.3006 -0.8189 -0.1301
  438MPD2    H3 6534   2.765   3.157  16.889  1.0687  0.8431  1.3673
  438MPD2     N 6535   2.980   2.899  17.171 -0.0824 -0.2383 -0.4593
  438MPD2    H5 6536   2.893   2.917  17.220  0.5239  0.2137  0.4499
  438MPD2    N1 6537   3.176   3.011  16.743  0.3920  0.6063 -0.3076
  438MPD2    H7 6538   3.266   2.986  16.783 -0.6014 -0.6401  1.1334
  439TMC3    C1 6539   3.303   3.036  16.543  0.1717  0.2301  0.2063
  439TMC3    C2 6540   3.312   3.086  16.413 -0.2883 -0.0093 -0.6539
  439TMC3    C3 6541   3.438   3.106  16.365  0.1301  0.2905 -0.3501
  439TMC3    C4 6542   3.420   3.007  16.619 -0.4285 -0.0468  0.0822
  439TMC3    C5 6543   3.536   3.046  16.570  0.5973 -0.5971  0.6069
  439TMC3    C6 6544   3.551   3.088  16.438  0.2835  0.0092  0.1838
  439TMC3     C 6545   3.175   3.045  16.613  0.2779  0.1149  0.2951
  439TMC3     O 6546   3.079   3.081  16.546  0.1232  0.6734 -0.1191
  439TMC3     H 6547   3.226   3.098  16.348 -0.7911  1.6321  0.3067
  439TMC3    H1 6548   3.421   2.991  16.726  0.2703 -0.9627 -0.0624
  439TMC3    H2 6549   3.650   3.108  16.398 -0.5302  0.8781 -1.3686
  439TMC3    C7 6550   3.650   3.037  16.663  0.4761  0.6864  0.1944
  439TMC3    C8 6551   3.462   3.101  16.221  0.4204 -0.0409  0.6451
  439TMC3    O1 6552   3.643   2.964  16.768 -0.7584 -0.1004  0.0868
  439TMC3    O2 6553   3.395   3.022  16.156 -0.0372 -0.1921 -0.0060
  440MPD2     C 6554   2.230   3.427  14.944  0.6995 -0.4913  0.1237
  440MPD2    C1 6555   2.268   3.477  15.061 -0.2516  0.8907  0.2569
  440MPD2    C2 6556   2.398   3.466  15.110  0.0670 -0.6981 -0.0656
  440MPD2    C3 6557   2.481   3.373  15.051  0.2017 -0.4740 -0.1678
  440MPD2    C4 6558   2.438   3.301  14.942 -0.1225 -0.2839  0.6864
  440MPD2    C5 6559   2.312   3.337  14.886  0.2405 -0.5547 -0.6014
  440MPD2     H 6560   2.428   3.510  15.205 -2.4372  0.2475  0.3066
  440MPD2    H1 6561   2.503   3.242  14.879 -1.6692 -0.0676 -1.0958
  440MPD2    H2 6562   2.140   3.466  14.898 -0.7202 -0.9841  2.5148
  440MPD2    H3 6563   2.284   3.287  14.794 -3.3419  1.9542 -0.9143
  440MPD2     N 6564   2.609   3.344  15.099  0.7898  0.4145  0.2957
  440MPD2    H5 6565   2.650   3.262  15.057  2.4761 -0.4146  3.4949
  440MPD2    N1 6566   2.189   3.577  15.128 -0.0605  0.4551 -0.4247
  440MPD2    H7 6567   2.233   3.631  15.201  0.9063 -0.0974 -0.5930
  441TMC3    C1 6568   2.802   3.365  15.238 -0.3141  0.4570  0.6059
  441TMC3    C2 6569   2.871   3.465  15.301 -0.0512  0.5939 -0.1191
  441TMC3    C3 6570   2.920   3.440  15.431  0.9937 -0.2860  0.8522
  441TMC3    C4 6571   2.770   3.246  15.298  0.0176  0.5467  0.2542
  441TMC3    C5 6572   2.819   3.222  15.419  0.4984  0.3232 -0.2727
  441TMC3    C6 6573   2.897   3.313  15.486 -0.3751  0.9993  0.1600
  441TMC3     C 6574   2.673   3.423  15.193 -0.4360 -0.5285 -0.1578
  441TMC3     O 6575   2.648   3.533  15.240 -0.1829 -0.0382  0.2390
  441TMC3     H 6576   2.878   3.563  15.254 -0.4446  0.2674 -0.8670
  441TMC3    H1 6577   2.696   3.182  15.253 -1.6170  0.0084  3.7725
  441TMC3    H2 6578   2.924   3.300  15.591 -1.1323  1.4529  0.4094
  441TMC3    C7 6579   2.750   3.124  15.496  0.0080 -0.1275 -0.3306
  441TMC3    C8 6580   2.884   3.539  15.529  0.4939  0.2652  0.2369
  441TMC3    O1 6581   2.652   3.068  15.449 -0.4249  0.2962  0.1321
  441TMC3    O2 6582   2.969   3.554  15.617 -0.4270  0.1758 -0.2051
  442MPD2     C 6583   0.460   4.427  16.431  0.2124  0.9882  0.5083
  442MPD2    C1 6584   0.356   4.353  16.477  0.1259 -0.0238 -0.5122
  442MPD2    C2 6585   0.363   4.215  16.477  0.0318 -0.0455 -0.6822
  442MPD2    C3 6586   0.482   4.147  16.437  0.3849  0.7461  0.0197
  442MPD2    C4 6587   0.579   4.222  16.394  0.1032  0.4345  0.4612
  442MPD2    C5 6588   0.570   4.356  16.392  0.4273  0.1078 -0.4768
  442MPD2     H 6589   0.273   4.167  16.513 -3.4310  4.3582 -3.3415
  442MPD2    H1 6590   0.670   4.170  16.367 -0.5645  0.6246 -2.0874
  442MPD2    H2 6591   0.466   4.535  16.423  0.5588  0.8471 -1.1362
  442MPD2    H3 6592   0.648   4.413  16.343 -0.1585  0.7680 -0.6350
  442MPD2     N 6593   0.504   4.010  16.433 -0.4889  0.1432 -0.5459
  442MPD2    H5 6594   0.593   3.989  16.388  0.0465  2.2501 -0.4877
  442MPD2    N1 6595   0.238   4.409  16.534 -0.2488  0.5142 -0.4540
  442MPD2    H7 6596   0.184   4.346  16.593 -1.7975  1.4816 -0.8512
  443TMC3    C1 6597   0.077   4.553  16.601 -0.2410 -0.4693 -0.2640
  443TMC3    C2 6598   4.713   4.658  16.568  0.0257  0.5280  0.2363
  443TMC3    C3 6599   4.580   4.649  16.616  0.2197 -0.0998 -0.8506
  443TMC3    C4 6600   0.043   4.462  16.702  0.4148 -0.3171 -0.5244
  443TMC3    C5 6601   4.648   4.486  16.765 -0.4370  0.1186 -0.7075
  443TMC3    C6 6602   4.556   4.574  16.722  0.0988 -0.7671 -0.3409
  443TMC3     C 6603   0.197   4.537  16.521 -0.3076 -0.8843 -0.2503
  443TMC3     O 6604   0.229   4.615  16.432 -0.1589  0.3881 -0.3049
  443TMC3     H 6605   0.008   4.707  16.473  2.6712 -0.3542  0.2731
  443TMC3    H1 6606   0.109   4.384  16.735  1.0115  0.4829  0.1646
  443TMC3    H2 6607   4.463   4.588  16.776 -0.5442 -1.6309 -1.2231
  443TMC3    C7 6608   4.617   4.396  16.873 -0.6838 -0.4679 -0.7206
  443TMC3    C8 6609   4.477   0.010  16.563 -0.3573  0.2142  0.5987
  443TMC3    O1 6610   4.663   4.280  16.871  0.5508  0.4790 -0.1527
  443TMC3    O2 6611   4.415   0.062  16.653  0.2682 -0.1662  1.1754
  444MPD2     C 6612   0.858   3.349  17.393  1.1471 -0.0224  0.5894
  444MPD2    C1 6613   0.770   3.307  17.296 -0.4058  1.0295 -0.0701
  444MPD2    C2 6614   0.814   3.263  17.172  0.0964  0.5384 -0.4707
  444MPD2    C3 6615   0.951   3.256  17.146  1.4659 -0.5311  0.5630
  444MPD2    C4 6616   1.042   3.301  17.243 -0.0065 -0.2966  0.4472
  444MPD2    C5 6617   0.994   3.354  17.363  0.0478  0.2397  0.2114
  444MPD2     H 6618   0.738   3.227  17.103  0.8144 -1.4517 -0.2297
  444MPD2    H1 6619   1.148   3.311  17.227  0.2524 -1.1931  1.6670
  444MPD2    H2 6620   0.817   3.385  17.487 -1.0542  0.9106 -0.7248
  444MPD2    H3 6621   1.065   3.398  17.432 -0.5714  0.7244  0.5415
  444MPD2     N 6622   0.986   3.198  17.023 -0.0010  0.4100 -0.0750
  444MPD2    H5 6623   0.914   3.174  16.956 -0.9947  0.8734  0.8283
  444MPD2    N1 6624   0.633   3.309  17.312  0.2739  0.0778 -0.2503
  444MPD2    H7 6625   0.574   3.280  17.235  0.1447 -0.0006 -0.1205
  445TMC3    C1 6626   1.125   3.084  16.859  0.0331 -0.2616 -0.6713
  445TMC3    C2 6627   1.014   3.013  16.810  1.1472  0.2926  0.1157
  445TMC3    C3 6628   1.031   2.909  16.714  0.5711  0.2939 -0.2766
  445TMC3    C4 6629   1.252   3.030  16.835 -0.1989 -0.2208  0.8286
  445TMC3    C5 6630   1.257   2.921  16.760 -0.1654  0.7676  0.4165
  445TMC3    C6 6631   1.153   2.860  16.693  0.0445  0.2567 -0.3568
  445TMC3     C 6632   1.115   3.168  16.981  0.6723 -0.1998 -0.1370
  445TMC3     O 6633   1.217   3.205  17.040  0.2969 -0.1037 -0.0835
  445TMC3     H 6634   0.912   3.046  16.819  1.2970  0.8155 -0.1136
  445TMC3    H1 6635   1.339   3.083  16.872 -0.2955 -0.3239  1.2105
  445TMC3    H2 6636   1.173   2.783  16.620 -0.5303 -0.1978 -0.0402
  445TMC3    C7 6637   1.385   2.862  16.736  0.3454  0.1634  0.1821
  445TMC3    C8 6638   0.918   2.831  16.662 -0.2422  0.0051  0.0429
  445TMC3    O1 6639   1.378   2.752  16.687  0.5273  0.1593 -0.8378
  445TMC3    O2 6640   0.947   2.720  16.628 -0.3134  0.0989  0.3376
  446MPD2     C 6641   0.174   0.223  11.185 -0.4718 -0.0054  0.1192
  446MPD2    C1 6642   0.190   0.251  11.057  0.8773 -0.3141  0.6568
  446MPD2    C2 6643   0.291   0.345  11.039  0.7509  0.6965 -0.0561
  446MPD2    C3 6644   0.374   0.392  11.136 -0.2173  0.0554 -0.2040
  446MPD2    C4 6645   0.363   0.341  11.261 -0.4087  0.0399 -0.0103
  446MPD2    C5 6646   0.258   0.259  11.283  0.2195  0.3347 -0.1954
  446MPD2     H 6647   0.303   0.381  10.938  1.1333  0.8029  0.0288
  446MPD2    H1 6648   0.425   0.366  11.346 -0.7590 -2.7169  1.0674
  446MPD2    H2 6649   0.083   0.173  11.218 -0.1390 -0.8109 -0.1871
  446MPD2    H3 6650   0.233   0.232  11.385  1.1012 -0.8944 -0.3047
  446MPD2     N 6651   0.487   0.472  11.107  0.1932  0.3720  0.1824
  446MPD2    H5 6652   0.500   0.504  11.011  0.3065 -2.3035 -0.7010
  446MPD2    N1 6653   0.121   0.191  10.944 -0.3595 -0.2052  0.4094
  446MPD2    H7 6654   0.117   0.251  10.862  0.9973 -0.1234  0.4034
  447TMC3    C1 6655   0.701   0.576  11.152 -0.6976  0.9139 -0.0359
  447TMC3    C2 6656   0.677   0.690  11.080  0.0014  0.8190 -0.0291
  447TMC3    C3 6657   0.782   0.778  11.058  0.2960 -0.2659 -0.5448
  447TMC3    C4 6658   0.820   0.555  11.214  0.1725  0.0601 -0.4553
  447TMC3    C5 6659   0.924   0.643  11.190 -0.1720 -0.8726 -1.0598
  447TMC3    C6 6660   0.909   0.756  11.113 -0.3091  0.6929  0.2092
  447TMC3     C 6661   0.594   0.494  11.194  0.9510  0.2711  0.3570
  447TMC3     O 6662   0.616   0.455  11.305  0.4382 -0.0029 -0.3384
  447TMC3     H 6663   0.583   0.723  11.038 -0.9794 -2.0881 -0.1647
  447TMC3    H1 6664   0.830   0.460  11.266  3.1464  1.2686  1.1919
  447TMC3    H2 6665   0.994   0.806  11.068 -0.1645  0.5588  0.3324
  447TMC3    C7 6666   1.056   0.587  11.213  0.5977  0.1342 -0.5662
  447TMC3    C8 6667   0.777   0.877  10.951  0.0818  0.6878 -0.0886
  447TMC3    O1 6668   1.146   0.623  11.140 -0.4576  0.2212 -0.2300
  447TMC3    O2 6669   0.709   0.843  10.855 -0.0642 -0.1015 -0.2974
  448TMC3    C1 6670   3.512   0.113  17.214 -0.5112  0.2955  0.2620
  448TMC3    C2 6671   3.423   0.012  17.182  0.1470 -0.5197  0.2907
  448TMC3    C3 6672   3.470   4.611  17.183 -0.2801 -0.2899  0.5294
  448TMC3    C4 6673   3.643   0.089  17.243  0.1782  0.4415  0.0336
  448TMC3    C5 6674   3.674   4.684  17.267 -0.0010  0.4933 -0.4210
  448TMC3    C6 6675   3.597   4.580  17.234  0.2844  0.1021  0.4115
  448TMC3     C 6676   3.474   0.253  17.219  0.3095 -0.9411 -0.7372
  448TMC3     O 6677   3.559   0.337  17.233 -0.1560  0.4893  1.2072
  448TMC3     H 6678   3.348   0.034  17.107  1.1654  0.2281 -0.4976
  448TMC3    H1 6679   3.713   0.168  17.269 -1.0400  1.9262 -1.2208
  448TMC3    H2 6680   3.638   4.480  17.237 -1.7305 -0.7314 -0.0614
  448TMC3    C7 6681   3.793   4.641  17.333 -0.6576  0.2543 -0.1394
  448TMC3    C8 6682   3.397   4.508  17.115  1.0912  0.2532 -0.2405
  448TMC3    O1 6683   3.890   4.711  17.309  0.0226  0.1824  0.2730
  448TMC3    O2 6684   3.457   4.402  17.098  0.4259 -0.2745 -0.0056
  449MPD2     C 6685   0.128   3.567  13.804 -0.0199  0.2393  0.6819
  449MPD2    C1 6686   0.007   3.627  13.764  0.1923 -0.2183 -0.3368
  449MPD2    C2 6687   4.651   3.576  13.657  0.4380 -0.7751  0.3127
  449MPD2    C3 6688   4.696   3.465  13.592 -0.0657  0.0008  0.9087
  449MPD2    C4 6689   0.088   3.399  13.631  0.6351  0.4330 -0.7140
  449MPD2    C5 6690   0.157   3.444  13.743 -0.2387 -0.5536  0.2772
  449MPD2     H 6691   4.560   3.626  13.625  2.3297  1.6299 -1.2380
  449MPD2    H1 6692   0.131   3.316  13.577  1.6799  1.6523 -1.7518
  449MPD2    H2 6693   0.180   3.608  13.889  1.1938 -3.2373  1.6162
  449MPD2    H3 6694   0.247   3.392  13.773  0.6660  1.2988  0.8305
  449MPD2     N 6695   4.625   3.415  13.475  0.2499 -0.7291  0.4119
  449MPD2    H5 6696   4.569   3.485  13.427 -0.2314 -0.3441  1.5176
  449MPD2    N1 6697   4.669   3.733  13.829  0.0507 -0.3791 -0.2061
  449MPD2    H7 6698   4.575   3.763  13.804  0.0493  0.1518  0.4106
  450TMC3    C1 6699   4.630   3.905  13.982 -0.4228 -0.0476  0.4454
  450TMC3    C2 6700   4.677   4.027  13.934 -0.4239 -0.0149 -0.0122
  450TMC3    C3 6701   4.594   4.111  13.869  0.2731 -0.4645 -0.1751
  450TMC3    C4 6702   4.497   3.866  13.964  0.0701 -0.3418 -0.0988
  450TMC3    C5 6703   4.425   3.941  13.883  0.3299 -0.1702  0.0935
  450TMC3    C6 6704   4.465   4.066  13.844  0.7035 -0.1922  0.6193
  450TMC3     C 6705   0.002   3.802  13.935 -0.1410  0.0036  0.5069
  450TMC3     O 6706   0.113   3.792  13.983 -0.7982 -0.7103 -0.2350
  450TMC3     H 6707   0.048   4.076  13.960 -1.8166  1.8140  1.5811
  450TMC3    H1 6708   4.470   3.763  13.983 -0.8449  0.2201  1.5664
  450TMC3    H2 6709   4.411   4.114  13.763 -0.8050 -1.2964  0.9655
  450TMC3    C7 6710   4.360   3.865  13.782  0.1048 -0.9811  0.2099
  450TMC3    C8 6711   4.654   4.181  13.752  0.2242  0.4257  0.4308
  450TMC3    O1 6712   4.399   3.747  13.768 -0.2654  0.3931  0.0895
  450TMC3    O2 6713   4.574   4.260  13.696 -0.4486 -0.2969  0.0067
  451MPD2     C 6714   1.776   1.906   1.616  0.1080 -0.3465  0.3170
  451MPD2    C1 6715   1.697   1.913   1.499 -0.1893 -0.1941 -0.1413
  451MPD2    C2 6716   1.607   1.812   1.470  0.5549  0.4958 -0.5994
  451MPD2    C3 6717   1.597   1.702   1.555 -0.0080 -0.1819 -0.0058
  451MPD2    C4 6718   1.671   1.698   1.673 -0.1020 -0.2863 -0.0465
  451MPD2    C5 6719   1.758   1.793   1.701 -1.0631 -0.3589  0.2360
  451MPD2     H 6720   1.542   1.827   1.385  0.3318  2.0164 -0.1621
  451MPD2    H1 6721   1.668   1.615   1.743 -1.4000  1.1562  1.6124
  451MPD2    H2 6722   1.851   1.979   1.645  0.4279 -0.0846 -1.1603
  451MPD2    H3 6723   1.828   1.792   1.784 -0.9072  0.1424  0.1113
  451MPD2     N 6724   1.509   1.592   1.529  0.1058 -0.3412  0.2496
  451MPD2    H5 6725   1.504   1.514   1.593  0.5759  0.6477  1.5118
  451MPD2    N1 6726   1.711   2.032   1.423 -0.3654  0.2048 -0.1544
  451MPD2    H7 6727   1.765   2.107   1.466 -0.5371  0.5855 -0.6088
  452TMC3    C1 6728   1.381   1.440   1.409  0.2380 -0.4446 -0.0633
  452TMC3    C2 6729   1.338   1.368   1.519  0.7239  0.1592 -0.0925
  452TMC3    C3 6730   1.261   1.258   1.489 -0.3716  0.2906  0.0796
  452TMC3    C4 6731   1.354   1.400   1.285 -0.3220 -0.5589 -0.1861
  452TMC3    C5 6732   1.290   1.287   1.258  0.0119 -0.3097 -0.0571
  452TMC3    C6 6733   1.232   1.215   1.362  0.0795  0.1285  0.5108
  452TMC3     C 6734   1.448   1.572   1.411 -0.3205  0.8414  0.4215
  452TMC3     O 6735   1.438   1.642   1.307  0.0940  0.2015  0.5622
  452TMC3     H 6736   1.372   1.394   1.619  2.3243 -1.5439 -0.1958
  452TMC3    H1 6737   1.381   1.463   1.202  0.9654  0.3802  0.9490
  452TMC3    H2 6738   1.186   1.120   1.339  1.0736 -0.0659 -0.6872
  452TMC3    C7 6739   1.244   1.271   1.123  1.1210 -0.0435  0.0856
  452TMC3    C8 6740   1.208   1.186   1.604  0.5388  0.2362 -0.6526
  452TMC3    O1 6741   1.307   1.333   1.038  0.4143  0.8335 -0.1185
  452TMC3    O2 6742   1.251   1.228   1.707  0.8487 -0.1773 -0.0321
  453TMC3    C1 6743   3.026   4.007  11.416 -0.0597 -0.1354  0.1366
  453TMC3    C2 6744   2.926   3.923  11.367 -0.4681 -0.2149  0.3249
  453TMC3    C3 6745   2.869   3.959  11.249  0.5997  0.9069  0.5739
  453TMC3    C4 6746   3.050   4.125  11.364  0.3550 -0.2957 -0.3630
  453TMC3    C5 6747   2.970   4.166  11.264 -0.3746  0.8486  0.2189
  453TMC3    C6 6748   2.876   4.093  11.198  1.2042 -1.1693 -0.8491
  453TMC3     C 6749   3.038   3.999  11.561 -0.2536  1.2022  0.2383
  453TMC3     O 6750   3.148   4.008  11.610  0.3761  0.2485 -0.1685
  453TMC3     H 6751   2.923   3.826  11.415  1.5552  0.1813  1.2403
  453TMC3    H1 6752   3.121   4.192  11.412 -1.1204  1.0756 -0.0543
  453TMC3    H2 6753   2.836   4.131  11.105  0.8395 -0.8478 -0.5588
  453TMC3    C7 6754   3.030   4.273  11.175  0.0607  0.7898 -0.6538
  453TMC3    C8 6755   2.792   3.863  11.173 -0.5871  0.1392 -0.3864
  453TMC3    O1 6756   3.152   4.298  11.193  0.3613 -0.2166 -0.5298
  453TMC3    O2 6757   2.724   3.912  11.079 -0.5739 -0.1860  0.0714
  454MPD2     C 6758   1.702   3.199  16.516  0.6007 -0.6159  0.3351
  454MPD2    C1 6759   1.644   3.297  16.439 -0.1616 -0.1258 -0.9943
  454MPD2    C2 6760   1.570   3.395  16.491 -0.3392  0.0577  0.1907
  454MPD2    C3 6761   1.543   3.400  16.624 -0.0262  0.1364  0.4920
  454MPD2    C4 6762   1.610   3.314  16.709 -0.0543 -0.0943  0.7067
  454MPD2    C5 6763   1.696   3.217  16.651  0.3361 -0.8541  0.1717
  454MPD2     H 6764   1.504   3.456  16.431 -1.5058 -1.4463 -0.0521
  454MPD2    H1 6765   1.599   3.318  16.817 -1.9329  1.1641  0.4727
  454MPD2    H2 6766   1.763   3.120  16.475  1.7127 -0.0091  0.8256
  454MPD2    H3 6767   1.741   3.152  16.725  2.0180 -0.8597 -0.8598
  454MPD2     N 6768   1.440   3.488  16.680  0.3312  0.1284 -0.4781
  454MPD2    H5 6769   1.402   3.465  16.771  1.1074 -1.8775 -0.6772
  454MPD2    N1 6770   1.628   3.293  16.301  0.2072 -0.1955  0.4795
  454MPD2    H7 6771   1.591   3.379  16.262  0.2187  0.0237  0.9506
  455TMC3    C1 6772   1.235   3.581  16.628  0.3985 -0.4163 -0.9903
  455TMC3    C2 6773   1.200   3.576  16.763 -0.7703  0.3668 -0.0405
  455TMC3    C3 6774   1.081   3.521  16.803  0.1291 -0.1045 -0.0235
  455TMC3    C4 6775   1.165   3.506  16.541 -0.2270 -0.2691  0.0325
  455TMC3    C5 6776   1.047   3.442  16.576  0.3022  0.2087 -0.3186
  455TMC3    C6 6777   1.003   3.458  16.705 -0.7263 -0.6399 -0.4875
  455TMC3     C 6778   1.378   3.588  16.601 -0.4798 -0.1513 -0.1900
  455TMC3     O 6779   1.406   3.633  16.490 -0.3115  0.5509  0.3206
  455TMC3     H 6780   1.257   3.625  16.842 -0.2363  1.4719 -1.1190
  455TMC3    H1 6781   1.203   3.504  16.439 -2.1112  0.2212 -0.6641
  455TMC3    H2 6782   0.912   3.404  16.726  0.3680 -2.2943 -0.0006
  455TMC3    C7 6783   1.033   3.306  16.528  0.0603  0.1593 -0.1313
  455TMC3    C8 6784   1.038   3.548  16.939  0.1055 -0.3363 -0.3008
  455TMC3    O1 6785   0.942   3.228  16.555  0.5428  0.3259  0.1628
  455TMC3    O2 6786   1.124   3.574  17.020  0.1044  0.3306  0.4832
  456MPD2     C 6787   3.613   3.625  16.108 -0.2402  0.3570 -0.4044
  456MPD2    C1 6788   3.711   3.610  16.205  0.1055  0.3899 -0.2773
  456MPD2    C2 6789   3.690   3.647  16.338  0.6414 -0.7671  0.3669
  456MPD2    C3 6790   3.567   3.691  16.381 -0.0814  0.4807  0.4478
  456MPD2    C4 6791   3.466   3.706  16.287  0.0325  0.3607 -0.8499
  456MPD2    C5 6792   3.492   3.678  16.157  0.3407 -0.2983 -0.3110
  456MPD2     H 6793   3.767   3.641  16.413  1.5455  0.6617 -0.4292
  456MPD2    H1 6794   3.363   3.733  16.306 -0.7727 -1.8857 -2.0171
  456MPD2    H2 6795   3.630   3.586  16.009  0.3746 -1.4628  0.4248
  456MPD2    H3 6796   3.407   3.687  16.090 -0.0237  0.1305  0.2062
  456MPD2     N 6797   3.552   3.725  16.517  0.1348  0.2115  0.1844
  456MPD2    H5 6798   3.637   3.715  16.572 -0.2089  0.7836  0.8118
  456MPD2    N1 6799   3.831   3.570  16.160  0.4373  0.6435  0.4447
  456MPD2    H7 6800   3.853   3.579  16.061  1.0089  1.8530  0.6781
  457TMC3    C1 6801   3.453   3.783  16.723 -1.2735  0.6428 -0.8389
  457TMC3    C2 6802   3.343   3.848  16.778  0.1107  0.1922  0.1687
  457TMC3    C3 6803   3.368   3.940  16.880  0.8863  0.5538  0.1295
  457TMC3    C4 6804   3.581   3.792  16.767  0.4152 -0.1790  0.5070
  457TMC3    C5 6805   3.602   3.875  16.875 -0.3952 -0.1022 -0.6136
  457TMC3    C6 6806   3.501   3.954  16.925 -0.3319 -0.2997 -0.4015
  457TMC3     C 6807   3.433   3.763  16.581 -0.0278 -0.2907 -0.8254
  457TMC3     O 6808   3.324   3.784  16.527 -0.9080 -0.4779 -0.0823
  457TMC3     H 6809   3.242   3.832  16.742  0.6982 -2.9033 -0.0966
  457TMC3    H1 6810   3.663   3.734  16.727 -0.9467 -1.3526 -0.6103
  457TMC3    H2 6811   3.522   4.011  17.014 -2.7912  3.7687 -2.3991
  457TMC3    C7 6812   3.722   3.844  16.948  0.3071 -0.5684 -0.1966
  457TMC3    C8 6813   3.307   4.068  16.863  0.3695 -0.0119 -0.3888
  457TMC3    O1 6814   3.797   3.757  16.899  0.1958  0.0173  0.1423
  457TMC3    O2 6815   3.392   4.153  16.834  0.2032 -0.0978 -0.0886
  458MPD2     C 6816   1.276   2.763  12.209  0.2478  0.2815 -0.0282
  458MPD2    C1 6817   1.289   2.818  12.335  0.0369  0.3244 -1.0464
  458MPD2    C2 6818   1.174   2.841  12.409 -0.2068 -0.4994 -0.3677
  458MPD2    C3 6819   1.052   2.807  12.362  0.1459 -0.0130  0.6162
  458MPD2    C4 6820   1.039   2.772  12.230  1.0696  0.1414 -0.2770
  458MPD2    C5 6821   1.150   2.757  12.152  0.9069 -0.2188 -0.1034
  458MPD2     H 6822   1.180   2.880  12.509  0.7736 -0.5696 -0.4041
  458MPD2    H1 6823   0.941   2.753  12.189  2.3221 -1.5538 -2.4790
  458MPD2    H2 6824   1.368   2.759  12.152  1.2210  0.5075  1.5167
  458MPD2    H3 6825   1.146   2.720  12.050  0.2716  1.7296 -0.7800
  458MPD2     N 6826   0.948   2.796  12.454 -0.2523 -0.4416  0.0763
  458MPD2    H5 6827   0.971   2.822  12.549  4.1177 -0.7587 -0.8677
  458MPD2    N1 6828   1.423   2.849  12.388  0.5971  0.3196  0.0694
  458MPD2    H7 6829   1.499   2.837  12.323  0.6385 -0.2749  0.2287
  459TMC3    C1 6830   1.590   2.906  12.553  0.0063 -0.1690 -0.5337
  459TMC3    C2 6831   1.690   2.913  12.461 -0.0966 -0.0170  0.1423
  459TMC3    C3 6832   1.814   2.896  12.506 -0.3543  0.2063  1.6084
  459TMC3    C4 6833   1.610   2.869  12.684  0.3840  0.4121 -0.5723
  459TMC3    C5 6834   1.737   2.840  12.712  0.1531  0.0635 -0.5669
  459TMC3    C6 6835   1.844   2.855  12.632 -0.1570 -0.4585 -0.4377
  459TMC3     C 6836   1.449   2.898  12.515  0.3429  0.2227 -0.5972
  459TMC3     O 6837   1.375   2.911  12.609 -0.2677 -0.2021  0.4985
  459TMC3     H 6838   1.656   2.961  12.370  0.9757 -1.6122 -1.0881
  459TMC3    H1 6839   1.535   2.852  12.761  1.0222  1.9202  0.3756
  459TMC3    H2 6840   1.948   2.833  12.655  0.1591  1.4935 -0.0192
  459TMC3    C7 6841   1.767   2.807  12.850 -0.2970 -0.3765 -0.2368
  459TMC3    C8 6842   1.921   2.928  12.419 -0.2031 -0.2722  0.4290
  459TMC3    O1 6843   1.680   2.744  12.906 -0.3348  0.3067 -0.1076
  459TMC3    O2 6844   2.031   2.908  12.460 -0.5913  0.1432 -0.1282
  460MPD2     C 6845   0.909   1.226  10.921 -1.2025 -0.1194 -0.4331
  460MPD2    C1 6846   0.872   1.091  10.885  0.4514 -0.0601 -1.0788
  460MPD2    C2 6847   0.849   1.067  10.753 -0.4739 -0.0931 -0.4571
  460MPD2    C3 6848   0.859   1.173  10.658  0.0926 -0.9585 -0.6966
  460MPD2    C4 6849   0.888   1.301  10.695 -0.0405 -0.0455 -0.0787
  460MPD2    C5 6850   0.912   1.330  10.826  0.5297 -0.6027 -0.7744
  460MPD2     H 6851   0.838   0.967  10.713 -2.1486  0.6267 -1.8044
  460MPD2    H1 6852   0.898   1.381  10.622  1.5578  0.6668  0.9141
  460MPD2    H2 6853   0.929   1.258  11.023  1.7500 -0.2960 -0.9570
  460MPD2    H3 6854   0.931   1.432  10.859 -0.6811 -0.7244  0.2515
  460MPD2     N 6855   0.832   1.159  10.518  0.5183  0.4387 -0.2651
  460MPD2    H5 6856   0.836   1.243  10.462 -1.9390  0.8345  0.1750
  460MPD2    N1 6857   0.855   0.986  10.972 -0.1708  0.5395  0.4652
  460MPD2    H7 6858   0.907   0.999  11.059  0.9583 -1.4875  0.1045
  461TMC3    C1 6859   0.775   1.067  10.304 -0.1787  0.1242  0.0754
  461TMC3    C2 6860   0.808   0.966  10.219 -0.3623  0.3642  0.0436
  461TMC3    C3 6861   0.763   0.974  10.094 -0.4478  0.1199 -0.0977
  461TMC3    C4 6862   0.703   1.178  10.264  0.0113  0.3085  0.0511
  461TMC3    C5 6863   0.662   1.184  10.134 -0.3933 -0.1698  0.3059
  461TMC3    C6 6864   0.680   1.076  10.048 -0.0592 -1.1051  0.3348
  461TMC3     C 6865   0.807   1.045  10.447  0.0729 -0.4745  0.0559
  461TMC3     O 6866   0.829   0.930  10.484 -0.3236  0.1274 -0.3195
  461TMC3     H 6867   0.844   0.874  10.265 -2.7018 -0.7799 -0.3950
  461TMC3    H1 6868   0.660   1.251  10.332 -1.4660  1.3763 -2.0284
  461TMC3    H2 6869   0.666   1.097   9.943 -1.1965  1.3374  0.9537
  461TMC3    C7 6870   0.612   1.299  10.078 -1.0570 -0.6046 -0.1472
  461TMC3    C8 6871   0.776   0.854  10.008  0.1799 -0.2375  0.7441
  461TMC3    O1 6872   0.521   1.282   9.997  0.2577 -0.3647  0.2335
  461TMC3    O2 6873   0.852   0.769  10.052 -0.1035  1.1298  0.1043
  462TMC3    C1 6874   0.551   1.449   0.026 -0.5047  0.2424 -0.7662
  462TMC3    C2 6875   0.543   1.382  17.602 -0.4213  0.5132 -0.3412
  462TMC3    C3 6876   0.491   1.254  17.593 -0.4306  0.3339  0.2890
  462TMC3    C4 6877   0.500   1.388   0.136 -0.1289  0.4300  0.2093
  462TMC3    C5 6878   0.454   1.263   0.128 -0.3851  0.2769  0.1284
  462TMC3    C6 6879   0.441   1.187   0.015 -0.0711 -0.8824 -0.2973
  462TMC3     C 6880   0.603   1.586   0.042 -0.2352  0.1301 -0.5162
  462TMC3     O 6881   0.602   1.627   0.159 -0.4995 -0.1428  0.0907
  462TMC3     H 6882   0.577   1.419  17.506 -0.8523  0.2046 -0.6139
  462TMC3    H1 6883   0.527   1.432   0.232  0.6680  3.0331 -1.2001
  462TMC3    H2 6884   0.357   1.119   0.006 -2.9676  2.4657  1.3377
  462TMC3    C7 6885   0.419   1.204   0.252  0.2168 -1.3223  0.3324
  462TMC3    C8 6886   0.445   1.206  17.466 -0.3359 -0.0073  0.4869
  462TMC3    O1 6887   0.423   1.276   0.351  0.5058 -0.6308 -0.2613
  462TMC3    O2 6888   0.412   1.290  17.386 -0.2526  0.1230 -0.1733
  463MPD2     C 6889   1.343   0.284   2.095  0.7546 -0.2792 -0.1955
  463MPD2    C1 6890   1.250   0.276   1.993 -0.3563 -0.5365  0.4382
  463MPD2    C2 6891   1.248   0.379   1.899  0.3575 -0.1318 -0.0327
  463MPD2    C3 6892   1.341   0.481   1.901 -0.4650  0.0065 -0.3215
  463MPD2    C4 6893   1.441   0.470   1.996  0.5889 -0.2370 -0.4531
  463MPD2    C5 6894   1.442   0.381   2.098  0.7629  0.7005 -1.1681
  463MPD2     H 6895   1.157   0.381   1.840 -1.8069  0.1720  3.2943
  463MPD2    H1 6896   1.519   0.544   2.011 -1.2066  1.6493 -0.5315
  463MPD2    H2 6897   1.356   0.212   2.175  0.0956 -0.6226 -0.3974
  463MPD2    H3 6898   1.515   0.386   2.178  0.0274  2.6763 -0.6115
  463MPD2     N 6899   1.346   0.589   1.804 -0.0811 -0.0567 -0.4088
  463MPD2    H5 6900   1.428   0.649   1.798  0.2440 -0.0728  3.4619
  463MPD2    N1 6901   1.158   0.172   1.974 -0.4843  0.2498  0.0170
  463MPD2    H7 6902   1.091   0.176   1.899 -0.4050 -1.0511 -0.1213
  464TMC3    C1 6903   1.068   4.674   1.991  0.1805  0.9584  0.3327
  464TMC3    C2 6904   0.960   4.718   1.919 -0.2103 -0.4050  0.4216
  464TMC3    C3 6905   0.887   4.632   1.848  0.0896 -0.4288  0.4183
  464TMC3    C4 6906   1.102   4.540   1.992  0.6519 -0.3742  0.2442
  464TMC3    C5 6907   1.018   4.454   1.918  0.6514 -0.7391 -0.4644
  464TMC3    C6 6908   0.909   4.501   1.849 -0.3350  0.1934  0.0606
  464TMC3     C 6909   1.162   0.048   2.043  0.1369  0.0439 -0.3641
  464TMC3     O 6910   1.230   0.016   2.140 -0.3918  0.1458  0.0083
  464TMC3     H 6911   0.929   0.099   1.914 -0.7367 -0.4225  3.1013
  464TMC3    H1 6912   1.176   4.492   2.056 -0.8229 -0.8450  1.5765
  464TMC3    H2 6913   0.848   4.435   1.788  0.3255 -1.5355  1.2517
  464TMC3    C7 6914   1.062   4.315   1.904  0.6906 -0.5816  0.2678
  464TMC3    C8 6915   0.760   4.678   1.790 -0.3125 -0.9840 -0.1137
  464TMC3    O1 6916   1.182   4.284   1.912  0.4216 -0.1206  0.0050
  464TMC3    O2 6917   0.750   0.070   1.744 -0.3808  0.2954  0.4583
  465MPD2     C 6918   3.421   3.310  16.779 -0.2857  0.2674 -0.3902
  465MPD2    C1 6919   3.321   3.317  16.875  0.3538 -0.6296 -0.0784
  465MPD2    C2 6920   3.195   3.363  16.839  0.3386  0.0684  0.3678
  465MPD2    C3 6921   3.168   3.394  16.712  0.3800 -0.7698 -0.4128
  465MPD2    C4 6922   3.273   3.392  16.617  0.3152  0.6069 -1.0157
  465MPD2    C5 6923   3.395   3.355  16.651 -0.1706 -0.1482  0.2008
  465MPD2     H 6924   3.127   3.375  16.923  0.5237  0.2186  0.4976
  465MPD2    H1 6925   3.256   3.427  16.516  0.0125 -0.9416 -1.5064
  465MPD2    H2 6926   3.517   3.264  16.800 -0.1797  1.5149  1.8069
  465MPD2    H3 6927   3.478   3.352  16.582 -0.5530 -2.3316 -0.1664
  465MPD2     N 6928   3.038   3.437  16.677  0.0393 -0.3703 -0.0820
  465MPD2    H5 6929   2.971   3.452  16.752 -0.4116 -1.6845 -0.2194
  465MPD2    N1 6930   3.340   3.295  17.016  0.2941  0.3973 -0.2879
  465MPD2    H7 6931   3.264   3.324  17.077  0.0499 -1.5804  0.3481
  466TMC3    C1 6932   2.653   3.414  16.567 -0.3452 -0.3835 -0.0538
  466TMC3    C2 6933   2.593   3.523  16.503 -0.0591 -0.2482 -0.4151
  466TMC3    C3 6934   2.677   3.620  16.449  0.8820 -0.5426 -1.0695
  466TMC3    C4 6935   2.787   3.407  16.586  0.3254 -1.6287  0.6423
  466TMC3    C5 6936   2.865   3.497  16.528 -0.3768  0.1266 -0.5217
  466TMC3    C6 6937   2.812   3.599  16.453 -0.0991  0.4442  0.2807
  466TMC3     C 6938   2.574   3.328  16.652  0.7560 -0.3751  0.1500
  466TMC3     O 6939   2.623   3.310  16.763  0.0394 -0.4253 -0.3870
  466TMC3     H 6940   2.491   3.543  16.534  0.1981  1.5599 -0.7122
  466TMC3    H1 6941   2.828   3.316  16.630  1.4938 -0.4201  2.0407
  466TMC3    H2 6942   2.882   3.645  16.385  0.2964 -1.3044 -0.4876
  466TMC3    C7 6943   3.007   3.481  16.546 -0.5026 -0.0612 -0.2604
  466TMC3    C8 6944   2.614   3.740  16.389  0.2037 -0.1048  0.0382
  466TMC3    O1 6945   3.078   3.506  16.448 -0.5469 -0.1693  0.3868
  466TMC3    O2 6946   2.672   3.810  16.311  0.0549 -0.4783 -0.3490
  467TMC3    C1 6947   3.212   2.370  13.757 -0.3399  0.0931 -0.1679
  467TMC3    C2 6948   3.201   2.361  13.621  0.3179  0.5719 -0.1749
  467TMC3    C3 6949   3.077   2.400  13.563  0.1494 -0.2764  0.9434
  467TMC3    C4 6950   3.117   2.440  13.824  0.4888 -0.1035  0.5089
  467TMC3    C5 6951   3.014   2.498  13.762 -0.1555  0.5944 -0.9122
  467TMC3    C6 6952   2.988   2.484  13.630 -0.4014 -0.1240  0.1378
  467TMC3     C 6953   3.345   2.378  13.811  0.1255  0.3052  0.2003
  467TMC3     O 6954   3.361   2.453  13.901 -0.0727  0.7188 -0.4894
  467TMC3     H 6955   3.272   2.303  13.562 -1.5020 -3.4900  1.5890
  467TMC3    H1 6956   3.137   2.460  13.929 -0.0472  0.3345  0.5272
  467TMC3    H2 6957   2.902   2.521  13.575 -0.0708  0.8680  0.2992
  467TMC3    C7 6958   2.897   2.514  13.845  0.3476  0.1891 -0.4786
  467TMC3    C8 6959   3.102   2.451  13.428  0.1393  0.1450 -0.5111
  467TMC3    O1 6960   2.799   2.581  13.805  0.1508 -0.6676 -0.2316
  467TMC3    O2 6961   3.089   2.572  13.419 -0.3632  0.5830  0.2335
  468MPD2     C 6962   2.688   0.621  10.482  0.1990 -0.7475  0.6452
  468MPD2    C1 6963   2.568   0.580  10.535 -0.9771  0.1483 -0.4458
  468MPD2    C2 6964   2.551   0.445  10.564  0.2290 -0.0043  0.6499
  468MPD2    C3 6965   2.654   0.354  10.541 -0.1136  0.6124 -0.3747
  468MPD2    C4 6966   2.774   0.402  10.489  0.6162  0.1122  0.3411
  468MPD2    C5 6967   2.787   0.531  10.456 -0.3215  0.3258 -0.3730
  468MPD2     H 6968   2.457   0.412  10.608 -0.2218  0.4917  0.0610
  468MPD2    H1 6969   2.865   0.345  10.476 -0.4541 -1.1688 -1.4890
  468MPD2    H2 6970   2.714   0.721  10.450 -1.7560 -0.2291  0.6845
  468MPD2    H3 6971   2.878   0.576  10.416 -0.4613 -1.3354 -2.5936
  468MPD2     N 6972   2.655   0.225  10.588  0.4204 -0.7925  0.2097
  468MPD2    H5 6973   2.736   0.168  10.563  0.8121  0.3162 -1.1089
  468MPD2    N1 6974   2.472   0.668  10.591  0.2320 -0.0066  0.1151
  468MPD2    H7 6975   2.411   0.624  10.659 -0.7195 -2.3393 -2.2432
  469TMC3    C1 6976   2.436   0.873  10.699  0.3784  0.9994  0.0279
  469TMC3    C2 6977   2.553   0.925  10.752  0.2818 -0.5335  0.2079
  469TMC3    C3 6978   2.555   0.948  10.885 -0.1284  0.7254  0.2292
  469TMC3    C4 6979   2.346   0.820  10.783  0.2983  0.6794 -0.3670
  469TMC3    C5 6980   2.362   0.833  10.914  0.3407 -0.2688 -0.3770
  469TMC3    C6 6981   2.469   0.898  10.980  0.1746  0.3945  0.1519
  469TMC3     C 6982   2.468   0.804  10.574 -0.2190 -0.4922  0.2729
  469TMC3     O 6983   2.517   0.881  10.496  0.3838  0.1605 -0.0103
  469TMC3     H 6984   2.627   0.973  10.689  0.0885 -0.7583 -0.1917
  469TMC3    H1 6985   2.272   0.750  10.746  0.2434  1.1370 -1.1268
  469TMC3    H2 6986   2.469   0.926  11.084 -3.0580  1.5554 -0.1568
  469TMC3    C7 6987   2.271   0.764  10.997 -0.0549 -0.0925  0.0517
  469TMC3    C8 6988   2.681   1.012  10.922  0.2651 -0.3684  0.6095
  469TMC3    O1 6989   2.165   0.739  10.944  0.3226  0.2839 -0.7472
  469TMC3    O2 6990   2.693   1.132  10.913 -0.1825 -0.6977 -0.3988
  470TMC3    C1 6991   0.761   1.255   1.777 -0.4095  0.1046 -0.2156
  470TMC3    C2 6992   0.791   1.381   1.744  0.1287  0.0521 -0.4668
  470TMC3    C3 6993   0.891   1.436   1.818  0.1427 -0.5025 -0.4542
  470TMC3    C4 6994   0.817   1.184   1.885 -0.1335 -0.7444 -0.2334
  470TMC3    C5 6995   0.905   1.247   1.966 -0.1050 -0.2133  0.2584
  470TMC3    C6 6996   0.943   1.371   1.926  0.1769  0.2718  0.1922
  470TMC3     C 6997   0.679   1.182   1.678 -0.2887  0.2149  0.1902
  470TMC3     O 6998   0.688   1.231   1.565  0.0492  0.3218 -0.1238
  470TMC3     H 6999   0.743   1.443   1.669 -0.8657 -0.1230  0.0346
  470TMC3    H1 7000   0.791   1.083   1.914 -0.1339 -1.2734 -2.0975
  470TMC3    H2 7001   1.001   1.430   1.995 -0.0377 -0.7841  1.2815
  470TMC3    C7 7002   0.970   1.179   2.076 -0.0219 -0.3303  0.0270
  470TMC3    C8 7003   0.918   1.575   1.798  0.4575  0.6002  0.5934
  470TMC3    O1 7004   1.070   1.238   2.111 -0.9632 -0.1271  0.2760
  470TMC3    O2 7005   0.813   1.634   1.779  0.2459  0.6349 -0.1539
  471MPD2     C 7006   0.178   2.560  16.514  0.2347 -0.0955 -0.6194
  471MPD2    C1 7007   0.265   2.458  16.506  0.0979  0.1939  0.2847
  471MPD2    C2 7008   0.373   2.454  16.600  0.4116  0.4277 -0.1205
  471MPD2    C3 7009   0.376   2.536  16.709  0.4474 -0.9905 -0.0510
  471MPD2    C4 7010   0.275   2.628  16.727  0.4538  0.3728 -0.0491
  471MPD2    C5 7011   0.194   2.653  16.617  0.1019 -0.2743 -0.3546
  471MPD2     H 7012   0.450   2.378  16.607 -0.2187 -0.3465 -1.7155
  471MPD2    H1 7013   0.260   2.677  16.823  0.4300 -1.8710  1.1017
  471MPD2    H2 7014   0.091   2.567  16.450  0.0169 -2.3135 -0.5692
  471MPD2    H3 7015   0.108   2.715  16.640  1.6931  2.1833 -0.9999
  471MPD2     N 7016   0.472   2.523  16.815 -0.2038 -0.0298 -0.2783
  471MPD2    H5 7017   0.467   2.588  16.893  0.5536 -4.0792  3.1259
  471MPD2    N1 7018   0.270   2.364  16.399  0.6461  0.5716  0.7162
  471MPD2    H7 7019   0.348   2.300  16.388  0.2987  0.4702 -1.1442
  472TMC3    C1 7020   0.197   2.248  16.203  0.0168 -0.1443 -0.3252
  472TMC3    C2 7021   0.090   2.230  16.120 -0.1374  0.4452  0.0373
  472TMC3    C3 7022   0.076   2.108  16.055  0.0111  0.1617  0.4664
  472TMC3    C4 7023   0.291   2.148  16.231 -0.1963 -0.3264 -0.1245
  472TMC3    C5 7024   0.269   2.030  16.169 -0.3683  0.4136  0.4951
  472TMC3    C6 7025   0.156   2.007  16.092  0.3178  0.2749  0.1919
  472TMC3     C 7026   0.179   2.360  16.300  0.3327  0.0663  0.0118
  472TMC3     O 7027   0.084   2.436  16.287  0.3795  0.0154 -0.4231
  472TMC3     H 7028   0.014   2.308  16.113 -3.0811 -2.4076  0.4422
  472TMC3    H1 7029   0.383   2.171  16.281 -0.7388  0.1225  0.6596
  472TMC3    H2 7030   0.147   1.914  16.039  1.4678  1.3161 -1.8420
  472TMC3    C7 7031   0.335   1.930  16.234  0.1611 -0.0073  0.0600
  472TMC3    C8 7032   4.663   2.085  15.998  0.0768 -0.0921 -1.0856
  472TMC3    O1 7033   0.372   1.948  16.350  0.2685  0.3794  0.6901
  472TMC3    O2 7034   4.602   2.172  15.935  0.2984 -0.4098 -0.4687
  473MPD2     C 7035   0.622   4.690  13.785 -0.1213  0.3044  0.0115
  473MPD2    C1 7036   0.521   0.049  13.837  0.4342  0.2275  0.3646
  473MPD2    C2 7037   0.539   0.102  13.962 -0.5414  0.5238  0.4709
  473MPD2    C3 7038   0.652   0.079  14.039 -0.2821  0.1657  0.9527
  473MPD2    C4 7039   0.750   4.721  13.984  0.1120  0.1687  0.0196
  473MPD2    C5 7040   0.734   4.663  13.866  0.0976 -0.0299 -0.0455
  473MPD2     H 7041   0.462   0.164  14.005  0.3907  1.8034  0.2845
  473MPD2    H1 7042   0.840   4.722  14.045  0.4382  2.1116 -0.4853
  473MPD2    H2 7043   0.621   4.640  13.688  0.9073 -0.3631  0.3470
  473MPD2    H3 7044   0.811   4.599  13.826 -1.8391 -1.8846 -0.8128
  473MPD2     N 7045   0.677   0.136  14.162 -0.1878 -0.5647  0.0646
  473MPD2    H5 7046   0.755   0.105  14.219  0.1506  0.4303  0.1301
  473MPD2    N1 7047   0.401   0.087  13.772  0.0499 -0.2664  0.1057
  473MPD2    H7 7048   0.329   0.138  13.822 -0.6471  1.3908 -2.5886
  474TMC3    C1 7049   0.640   0.276  14.360  0.2769  0.4266 -0.4731
  474TMC3    C2 7050   0.541   0.343  14.428 -0.0773  0.3025 -0.7324
  474TMC3    C3 7051   0.575   0.445  14.511 -0.8290  0.2621 -0.0520
  474TMC3    C4 7052   0.768   0.315  14.373 -0.2728 -0.4213 -0.0345
  474TMC3    C5 7053   0.799   0.412  14.464 -0.7840  0.7467  0.3375
  474TMC3    C6 7054   0.701   0.483  14.533  0.3575 -0.2369  0.2054
  474TMC3     C 7055   0.591   0.215  14.236 -0.5271 -0.1329 -0.2144
  474TMC3     O 7056   0.476   0.248  14.211  0.3207 -0.3306 -0.0014
  474TMC3     H 7057   0.438   0.317  14.410  0.2223 -1.1013 -0.3626
  474TMC3    H1 7058   0.851   0.260  14.330  0.5741 -1.3900  2.8368
  474TMC3    H2 7059   0.731   0.565  14.597  0.2233 -0.2285  0.2566
  474TMC3    C7 7060   0.943   0.444  14.483 -0.1245  0.0779  0.4548
  474TMC3    C8 7061   0.467   0.532  14.548  0.5304 -0.8393  0.2690
  474TMC3    O1 7062   1.020   0.414  14.387 -0.4575  0.1485  0.0079
  474TMC3    O2 7063   0.354   0.488  14.576  0.1815 -0.1612 -0.0988
  475MPD2     C 7064   3.955   2.548   9.818  1.2306 -0.3075 -0.2663
  475MPD2    C1 7065   4.066   2.632   9.807  1.1903  0.8997  0.6535
  475MPD2    C2 7066   4.065   2.733   9.899 -0.0057  0.5576 -0.7505
  475MPD2    C3 7067   3.960   2.763   9.988  0.0054 -0.3699 -0.4387
  475MPD2    C4 7068   3.855   2.678   9.996 -0.2789 -1.1775 -0.4430
  475MPD2    C5 7069   3.854   2.562   9.916  0.3095  0.3265 -0.1511
  475MPD2     H 7070   4.146   2.805   9.899  0.5641 -0.0872  0.4835
  475MPD2    H1 7071   3.769   2.688  10.062  0.9896  1.5266  0.8016
  475MPD2    H2 7072   3.950   2.460   9.755 -2.0321 -0.1375 -0.2520
  475MPD2    H3 7073   3.781   2.485   9.939 -1.1258  1.8272  0.3942
  475MPD2     N 7074   3.962   2.878  10.070  0.2152  0.4783 -0.6191
  475MPD2    H5 7075   4.044   2.936  10.056 -0.9223  2.1346 -0.3527
  475MPD2    N1 7076   4.162   2.585   9.717  0.2511  0.6325 -0.2435
  475MPD2    H7 7077   4.143   2.496   9.672  1.3390  0.1019  0.3570
  476TMC3    C1 7078   4.322   2.765   9.700  0.6711  0.5168 -0.0285
  476TMC3    C2 7079   4.223   2.852   9.660 -0.1004  0.8343  0.4140
  476TMC3    C3 7080   4.252   2.985   9.666  0.2546  0.4107  0.6670
  476TMC3    C4 7081   4.454   2.799   9.720  0.4707 -0.2361  1.0746
  476TMC3    C5 7082   4.481   2.934   9.716  0.2988  0.3301 -0.8946
  476TMC3    C6 7083   4.378   3.025   9.688 -0.2208  0.1240 -0.7215
  476TMC3     C 7084   4.298   2.625   9.699  0.0892 -0.4195  0.3334
  476TMC3     O 7085   4.376   2.551   9.647 -0.0258 -0.6481  0.2095
  476TMC3     H 7086   4.138   2.808   9.611  0.4475  2.3306 -1.8780
  476TMC3    H1 7087   4.525   2.721   9.745  0.8342  0.0571  0.9319
  476TMC3    H2 7088   4.407   3.129   9.683  1.4209 -0.2967 -0.0394
  476TMC3    C7 7089   4.604   2.979   9.773  0.5520 -0.0106  0.5800
  476TMC3    C8 7090   4.151   3.088   9.688 -0.0254  0.4262 -0.0710
  476TMC3    O1 7091   4.703   2.906   9.762  0.3936  0.2194 -0.2402
  476TMC3    O2 7092   4.180   3.205   9.707  0.6088  0.5200 -0.0530
  477MPD2     C 7093   1.244   4.658  11.608 -0.7286 -0.4106  0.1278
  477MPD2    C1 7094   1.123   4.605  11.654 -0.5268  0.1348  0.5514
  477MPD2    C2 7095   1.132   4.504  11.750  0.5472 -0.1296 -0.0194
  477MPD2    C3 7096   1.257   4.476  11.812 -0.0433  0.6660  0.6550
  477MPD2    C4 7097   1.371   4.548  11.781  0.6086  0.1987 -0.3957
  477MPD2    C5 7098   1.360   4.634  11.673  0.5661 -1.2161  0.2827
  477MPD2     H 7099   1.039   4.466  11.791 -0.4318  2.8647  0.4581
  477MPD2    H1 7100   1.460   4.524  11.837 -0.3232 -3.2322 -0.4059
  477MPD2    H2 7101   1.248   0.013  11.532 -2.2102 -0.2863  0.1794
  477MPD2    H3 7102   1.447   4.693  11.647  0.4036 -0.7648  0.7449
  477MPD2     N 7103   1.253   4.380  11.917 -0.0445 -0.2711 -0.0763
  477MPD2    H5 7104   1.168   4.327  11.932  0.7011 -1.1613  1.0080
  477MPD2    N1 7105   1.006   4.649  11.588  0.2208 -0.2219 -0.3022
  477MPD2    H7 7106   1.010   4.720  11.516 -2.4852  0.9423  0.6893
  478TMC3    C1 7107   0.801   4.650  11.513 -0.0330 -0.5053  0.2608
  478TMC3    C2 7108   0.692   4.709  11.559 -0.2669 -0.0776 -0.2785
  478TMC3    C3 7109   0.646   0.094  11.487  0.0261  0.4645 -0.3189
  478TMC3    C4 7110   0.869   4.685  11.398  0.4399  0.5344 -0.4208
  478TMC3    C5 7111   0.820   0.064  11.327 -0.4852 -0.4466 -0.3101
  478TMC3    C6 7112   0.708   0.133  11.370 -0.0534 -0.2074  0.4939
  478TMC3     C 7113   0.885   4.605  11.619 -0.3734 -0.4984  0.1326
  478TMC3     O 7114   0.840   4.544  11.717 -0.4585 -0.0654  0.1562
  478TMC3     H 7115   0.658   4.683  11.658  1.0844 -1.6690 -0.2335
  478TMC3    H1 7116   0.951   4.633  11.350 -0.6870 -0.4065 -1.3419
  478TMC3    H2 7117   0.668   0.217  11.316 -1.7986 -0.3220  1.6083
  478TMC3    C7 7118   0.907   0.124  11.227  0.3330  0.2447 -0.4275
  478TMC3    C8 7119   0.595   0.204  11.577 -0.7469  0.0272 -0.6924
  478TMC3    O1 7120   1.030   0.105  11.239 -0.5342 -0.2685 -0.3102
  478TMC3    O2 7121   0.557   0.157  11.688  0.2953  0.6871 -0.1258
  479MPD2     C 7122   0.212   2.010  15.097 -0.1006  0.0997  0.1973
  479MPD2    C1 7123   0.169   1.904  15.174 -0.0156  0.0508 -0.2801
  479MPD2    C2 7124   0.185   1.914  15.316  0.3388  0.4506 -0.1774
  479MPD2    C3 7125   0.233   2.032  15.370  0.2894 -0.6452  0.1785
  479MPD2    C4 7126   0.282   2.130  15.291  0.3128  0.9128 -0.7603
  479MPD2    C5 7127   0.264   2.120  15.159 -0.0027 -0.1467 -0.4601
  479MPD2     H 7128   0.160   1.830  15.379 -0.5538  1.8916  1.3667
  479MPD2    H1 7129   0.315   2.224  15.333  0.7632  0.2174  0.4363
  479MPD2    H2 7130   0.203   2.014  14.989  1.1100 -1.6849  0.0426
  479MPD2    H3 7131   0.291   2.208  15.101  1.0942  0.1488  0.5013
  479MPD2     N 7132   0.215   2.069  15.509 -0.2187  0.1190 -0.5388
  479MPD2    H5 7133   0.277   2.143  15.540  0.9273 -1.3578  0.6915
  479MPD2    N1 7134   0.095   1.799  15.116  0.5213  0.5998 -0.6457
  479MPD2    H7 7135   0.063   1.812  15.020  0.0348 -0.7022 -0.6575
  480TMC3    C1 7136   4.610   1.741  15.569  0.1700  0.4242 -0.3136
  480TMC3    C2 7137   4.538   1.785  15.459 -0.7384  0.3364  0.0881
  480TMC3    C3 7138   4.566   1.904  15.408  0.9370 -0.1945 -0.2975
  480TMC3    C4 7139   4.705   1.818  15.627  0.2870  0.2063 -0.3738
  480TMC3    C5 7140   0.015   1.936  15.563 -0.7697  0.5097  0.4874
  480TMC3    C6 7141   4.664   1.984  15.454  0.3685 -0.1573  0.5894
  480TMC3     C 7142   4.578   1.623  15.649  0.2155  0.6024  0.3979
  480TMC3     O 7143   4.675   1.575  15.698 -0.0981  0.1221 -0.1396
  480TMC3     H 7144   4.459   1.721  15.422 -0.7407  0.9346 -0.9284
  480TMC3    H1 7145   0.041   1.778  15.709 -1.2974 -0.5199  0.4023
  480TMC3    H2 7146   4.693   2.082  15.419 -1.1566  0.4626  1.0472
  480TMC3    C7 7147   0.146   1.992  15.606 -0.1674 -0.2306 -0.2053
  480TMC3    C8 7148   4.506   1.940  15.275 -0.4244  0.1545  0.1276
  480TMC3    O1 7149   0.159   2.002  15.730 -0.3550  0.0503  0.0093
  480TMC3    O2 7150   4.397   1.885  15.251 -1.1862 -0.3386 -0.4012
  481MPD2     C 7151   1.362   1.605  14.010  0.1724  1.0199  0.2275
  481MPD2    C1 7152   1.325   1.501  14.098 -0.0276  0.0510 -0.2487
  481MPD2    C2 7153   1.421   1.445  14.179 -1.0801  0.6180  0.0939
  481MPD2    C3 7154   1.554   1.481  14.174 -0.2542  0.4289 -0.2527
  481MPD2    C4 7155   1.588   1.579  14.081 -0.5733  0.2068  0.9236
  481MPD2    C5 7156   1.494   1.637  14.004  0.0789  0.0601 -0.7818
  481MPD2     H 7157   1.383   1.372  14.250  0.3410 -0.0322  0.1886
  481MPD2    H1 7158   1.692   1.607  14.066  0.1554 -2.7517  0.4493
  481MPD2    H2 7159   1.291   1.655  13.946  0.9054  1.6828 -0.0647
  481MPD2    H3 7160   1.524   1.712  13.932  0.8232  1.5086  1.0476
  481MPD2     N 7161   1.651   1.432  14.265 -0.1745 -0.0700  0.6846
  481MPD2    H5 7162   1.739   1.481  14.277  0.0329 -0.0417 -1.0198
  481MPD2    N1 7163   1.183   1.479  14.104 -0.0308 -0.4594  0.8814
  481MPD2    H7 7164   1.119   1.538  14.051  0.7982  0.6228  1.0784
  482TMC3    C1 7165   0.993   1.363  14.084  0.2646 -0.6409  0.2798
  482TMC3    C2 7166   0.962   1.252  14.010 -0.0306  0.6796  0.4961
  482TMC3    C3 7167   0.867   1.267  13.914  0.1637  0.4039 -0.5072
  482TMC3    C4 7168   0.935   1.483  14.070 -0.3487  0.0219 -1.0716
  482TMC3    C5 7169   0.833   1.489  13.976  0.1896  0.0217 -0.2787
  482TMC3    C6 7170   0.806   1.386  13.893  0.4619  0.2314 -0.1452
  482TMC3     C 7171   1.128   1.363  14.137  0.1958  0.4263 -0.0113
  482TMC3     O 7172   1.175   1.256  14.167  0.6503  0.1105  0.2122
  482TMC3     H 7173   1.024   1.163  14.016 -1.0797 -0.0676  0.2701
  482TMC3    H1 7174   0.954   1.570  14.133 -3.4203 -0.6775  0.7946
  482TMC3    H2 7175   0.738   1.396  13.809 -0.1884 -2.6788  0.0191
  482TMC3    C7 7176   0.764   1.618  13.943  0.0902 -0.6876  0.4433
  482TMC3    C8 7177   0.842   1.147  13.835 -0.2129 -0.1064  0.3960
  482TMC3    O1 7178   0.777   1.704  14.033  0.7657  0.6633  0.0189
  482TMC3    O2 7179   0.926   1.056  13.846  0.7348 -0.0805 -0.1599
  483TMC3    C1 7180   3.684   4.523   0.160  0.5466  0.1456 -0.9758
  483TMC3    C2 7181   3.770   4.566   0.260  0.2978  0.0787 -0.3431
  483TMC3    C3 7182   3.734   4.693   0.312  0.6043  0.2338 -0.0805
  483TMC3    C4 7183   3.575   4.596   0.118 -0.2610 -0.3921  0.3779
  483TMC3    C5 7184   3.542   4.709   0.189  0.6265  0.5906  0.9826
  483TMC3    C6 7185   3.622   0.043   0.286  0.3162 -0.1150 -0.0352
  483TMC3     C 7186   3.671   4.384   0.137 -0.4046 -0.1590 -0.4424
  483TMC3     O 7187   3.583   4.347   0.061  0.4408  0.0224 -0.4238
  483TMC3     H 7188   3.854   4.514   0.306  0.6228  1.6621  0.8470
  483TMC3    H1 7189   3.506   4.553   0.045  1.2125  1.6252 -2.1872
  483TMC3    H2 7190   3.607   0.143   0.326 -0.1504  0.6735 -2.1635
  483TMC3    C7 7191   3.434   0.063   0.144  0.2085 -0.0445  0.7352
  483TMC3    C8 7192   3.845   0.041   0.376  0.4101 -0.4519 -0.0362
  483TMC3    O1 7193   3.460   0.179   0.114  0.6391  0.1773  0.4104
  483TMC3    O2 7194   3.959   0.009   0.339  0.0222 -0.3936 -0.4027
  484MPD2     C 7195   1.901   3.020  12.068  0.0107  0.2096  1.0024
  484MPD2    C1 7196   1.958   3.022  12.197  0.0707  0.4754  0.4806
  484MPD2    C2 7197   2.090   3.066  12.210 -0.2491  0.4070  1.0046
  484MPD2    C3 7198   2.155   3.121  12.099  0.4794  0.6059  0.2235
  484MPD2    C4 7199   2.096   3.118  11.969 -0.1578  0.0174 -0.6604
  484MPD2    C5 7200   1.983   3.054  11.957  0.0764  0.0161 -0.3066
  484MPD2     H 7201   2.128   3.073  12.311  0.3687  1.6158  0.6887
  484MPD2    H1 7202   2.154   3.151  11.884 -1.4587  0.2457 -1.4670
  484MPD2    H2 7203   1.805   2.972  12.050 -0.0202  0.6377  0.0407
  484MPD2    H3 7204   1.936   3.042  11.860  0.6236  0.9509 -0.6864
  484MPD2     N 7205   2.278   3.179  12.105  0.3504 -0.0684  0.1576
  484MPD2    H5 7206   2.317   3.222  12.021  2.1101  0.5663  1.3062
  484MPD2    N1 7207   1.878   2.957  12.290 -0.2200 -0.0171  0.0851
  484MPD2    H7 7208   1.782   2.933  12.266 -1.1746  1.4170  2.3742
  485TMC3    C1 7209   2.488   3.238  12.203  0.2617 -0.1749  0.2934
  485TMC3    C2 7210   2.579   3.219  12.307 -0.0975 -0.4023  0.3475
  485TMC3    C3 7211   2.714   3.230  12.305 -0.0363  0.0200  0.0647
  485TMC3    C4 7212   2.547   3.279  12.078 -0.5421  0.0673 -0.5127
  485TMC3    C5 7213   2.679   3.298  12.078 -0.4535  0.0100 -0.2260
  485TMC3    C6 7214   2.759   3.280  12.191  0.6033  0.0349  0.3313
  485TMC3     C 7215   2.366   3.163  12.214  0.5743  0.6383 -0.3890
  485TMC3     O 7216   2.356   3.088  12.309  0.3560  0.0207  0.1335
  485TMC3     H 7217   2.533   3.174  12.394  0.9537 -0.6320  0.7767
  485TMC3    H1 7218   2.502   3.278  11.979 -2.6438 -3.6017  0.4772
  485TMC3    H2 7219   2.859   3.321  12.193  0.0270  1.5281 -1.8906
  485TMC3    C7 7220   2.752   3.277  11.955 -0.3786  0.6361 -0.8372
  485TMC3    C8 7221   2.774   3.104  12.312  0.9423  1.0373 -0.2507
  485TMC3    O1 7222   2.714   3.330  11.851  0.5038 -0.1256 -0.0015
  485TMC3    O2 7223   2.854   3.086  12.221  0.1804 -0.1895 -0.2879
  486MPD2     C 7224   4.557   2.275  13.097  0.6339  0.0059  1.4532
  486MPD2    C1 7225   4.504   2.248  12.970  0.2079  0.3670 -0.2112
  486MPD2    C2 7226   4.448   2.356  12.898 -0.5356  0.1656  0.3706
  486MPD2    C3 7227   4.449   2.477  12.952  0.8136 -0.1197 -0.7840
  486MPD2    C4 7228   4.502   2.505  13.079 -0.6877 -0.0164 -0.0183
  486MPD2    C5 7229   4.561   2.402  13.144  0.1713  0.1998  0.0109
  486MPD2     H 7230   4.403   2.344  12.800 -0.3750 -2.1617  0.5869
  486MPD2    H1 7231   4.497   2.605  13.120  0.5921  0.3197 -0.6623
  486MPD2    H2 7232   4.602   2.203  13.164  1.8492 -0.0521  0.5780
  486MPD2    H3 7233   4.611   2.403  13.240  1.1573 -0.9908 -0.4911
  486MPD2     N 7234   4.388   2.581  12.871 -0.1597  0.9335 -0.4043
  486MPD2    H5 7235   4.341   2.551  12.787  0.7321 -2.8358  0.4767
  486MPD2    N1 7236   4.503   2.117  12.924 -0.6318  0.1062 -0.2362
  486MPD2    H7 7237   4.555   2.049  12.978 -0.9667 -0.9129 -1.1857
  487TMC3    C1 7238   4.479   1.933  12.779 -0.0996  0.0906  1.5198
  487TMC3    C2 7239   4.389   1.851  12.719 -0.2306 -0.4519 -0.1566
  487TMC3    C3 7240   4.443   1.732  12.666 -0.2426 -0.3551  0.1543
  487TMC3    C4 7241   4.615   1.903  12.782  0.3709  0.0330 -0.1903
  487TMC3    C5 7242   4.650   1.778  12.755  0.2005  0.7161 -0.0629
  487TMC3    C6 7243   4.565   1.689  12.699  0.7747  0.3111 -0.1787
  487TMC3     C 7244   4.433   2.069  12.815 -0.0863  0.0322 -0.5535
  487TMC3     O 7245   4.341   2.120  12.756 -0.0798  0.2488  0.5360
  487TMC3     H 7246   4.284   1.873  12.713 -0.7199 -1.3871  4.9920
  487TMC3    H1 7247   4.678   1.984  12.819  0.4439 -0.4357  0.7142
  487TMC3    H2 7248   4.583   1.583  12.689 -1.5669 -0.2234  1.3082
  487TMC3    C7 7249   0.019   1.723  12.860  0.4198  0.7751 -0.4981
  487TMC3    C8 7250   4.353   1.633  12.620  0.5433  0.2115 -0.0320
  487TMC3    O1 7251   0.074   1.803  12.932 -0.0233 -0.6896 -0.1104
  487TMC3    O2 7252   4.393   1.545  12.538  0.2770 -0.0798  0.6247
  488MPD2     C 7253   4.676   3.622  16.496 -0.4939  0.0948  0.0862
  488MPD2    C1 7254   4.696   3.748  16.551  0.2127  0.2435  0.2887
  488MPD2    C2 7255   4.657   3.769  16.683  0.2740  0.0623  0.2754
  488MPD2    C3 7256   4.610   3.662  16.758  0.3854 -0.2205 -0.1857
  488MPD2    C4 7257   4.581   3.544  16.700 -0.2619 -0.3356 -0.4289
  488MPD2    C5 7258   4.613   3.530  16.569 -0.2864  0.6361  0.2510
  488MPD2     H 7259   4.670   3.868  16.725  0.6904  0.0503  0.1806
  488MPD2    H1 7260   4.538   3.461  16.756  0.7346  0.0385  0.8718
  488MPD2    H2 7261   4.711   3.596  16.397 -0.4252  1.2572 -0.1903
  488MPD2    H3 7262   4.600   3.431  16.526 -2.4378  0.6751  0.8447
  488MPD2     N 7263   4.573   3.678  16.897  0.2012 -0.6773  0.4271
  488MPD2    H5 7264   4.550   3.772  16.926 -1.7316 -1.0057 -0.0620
  488MPD2    N1 7265   0.033   3.854  16.474  0.1715 -0.0497  0.5471
  488MPD2    H7 7266   0.044   3.939  16.529  0.1193 -0.9694  1.9569
  489TMC3    C1 7267   4.510   3.626  17.105 -0.2112 -1.1253  0.4104
  489TMC3    C2 7268   4.454   3.749  17.106 -0.0843 -0.6860 -0.7859
  489TMC3    C3 7269   4.472   3.834  17.210  0.4625  0.0879  0.2346
  489TMC3    C4 7270   4.594   3.589  17.205 -0.2745  0.1250  0.1239
  489TMC3    C5 7271   4.613   3.676  17.311  0.0840  0.0787 -0.1548
  489TMC3    C6 7272   4.550   3.798  17.316  0.5809 -0.0439  0.6365
  489TMC3     C 7273   4.552   3.573  16.976 -0.0214  0.2373  0.0206
  489TMC3     O 7274   4.582   3.455  16.972  0.4712 -0.1348 -0.0238
  489TMC3     H 7275   4.387   3.775  17.024 -0.0987  0.2487 -0.4666
  489TMC3    H1 7276   4.655   3.501  17.192  2.1660  1.8273  0.1091
  489TMC3    H2 7277   4.557   3.862  17.404 -0.9743  0.9311  0.0481
  489TMC3    C7 7278   4.716   3.653  17.407  0.2741 -0.6292 -0.1977
  489TMC3    C8 7279   4.467   3.967  17.154 -0.2019  0.2168  0.1194
  489TMC3    O1 7280   0.026   3.752  17.465 -0.1419  0.6647  0.0711
  489TMC3    O2 7281   4.456   3.973  17.033  0.1364 -0.2724 -0.4226
  490MPD2     C 7282   0.561   2.847  17.055  0.3859  0.1056  0.0218
  490MPD2    C1 7283   0.532   2.831  17.185  0.1126 -0.7820 -0.2881
  490MPD2    C2 7284   0.620   2.875  17.274  0.6483  0.1838 -0.0761
  490MPD2    C3 7285   0.746   2.920  17.238 -0.2267  0.1404 -0.7370
  490MPD2    C4 7286   0.785   2.914  17.106  0.9367  0.1008 -0.8144
  490MPD2    C5 7287   0.686   2.884  17.013  0.6008 -0.7950 -0.0064
  490MPD2     H 7288   0.600   2.870  17.380 -4.7494  0.0930 -1.1092
  490MPD2    H1 7289   0.883   2.943  17.069  1.4813 -0.0006  0.5459
  490MPD2    H2 7290   0.491   2.806  16.984  0.4004 -1.9236  1.1918
  490MPD2    H3 7291   0.699   2.886  16.905  1.4798 -1.9134  0.0808
  490MPD2     N 7292   0.845   2.963  17.329 -0.1091  0.2691  0.2809
  490MPD2    H5 7293   0.938   2.974  17.291 -0.0334 -0.4808  0.2411
  490MPD2    N1 7294   0.410   2.774  17.240  0.9860  0.2278  0.2579
  490MPD2    H7 7295   0.389   2.787  17.339 -2.7291  0.3840 -0.5757
  491TMC3    C1 7296   0.194   2.682  17.235 -0.3812 -0.4536 -0.0334
  491TMC3    C2 7297   0.214   2.611  17.351  0.8048  0.6603 -0.6035
  491TMC3    C3 7298   0.114   2.539  17.401 -0.6903 -0.1566 -0.7439
  491TMC3    C4 7299   0.078   2.667  17.165  0.0395 -0.9034  0.1438
  491TMC3    C5 7300   4.702   2.596  17.219  0.2550 -0.5492  0.4334
  491TMC3    C6 7301   4.720   2.530  17.339  0.8116 -0.7030 -0.2797
  491TMC3     C 7302   0.311   2.728  17.157  0.3397 -0.6701 -0.4115
  491TMC3     O 7303   0.293   2.723  17.035 -0.3464  0.0337 -0.5216
  491TMC3     H 7304   0.312   2.603  17.398  1.0112  0.5086 -1.0639
  491TMC3    H1 7305   0.070   2.700  17.062  1.3999  0.0454  0.3461
  491TMC3    H2 7306   4.638   2.472  17.381  1.8358 -2.0809 -0.1770
  491TMC3    C7 7307   4.578   2.589  17.147  1.0132 -0.0854  0.7894
  491TMC3    C8 7308   0.131   2.457  17.518  0.2025 -0.2226 -1.1017
  491TMC3    O1 7309   4.496   2.520  17.206  0.5213  0.2576  0.1140
  491TMC3    O2 7310   0.196   2.502  17.609 -0.3735  0.2325 -0.0525
  492MPD2     C 7311   0.844   3.365  11.489 -0.0066  0.3215  0.9579
  492MPD2    C1 7312   0.840   3.247  11.431 -0.3828  0.2701  0.4189
  492MPD2    C2 7313   0.727   3.167  11.448 -0.0810  0.3808 -0.6867
  492MPD2    C3 7314   0.642   3.201  11.556  0.0858  0.0715 -0.7754
  492MPD2    C4 7315   0.665   3.313  11.629  0.2566 -0.4398 -0.3177
  492MPD2    C5 7316   0.767   3.395  11.595 -0.1494  0.0259 -0.4467
  492MPD2     H 7317   0.705   3.079  11.388  0.3288  0.8842 -1.5696
  492MPD2    H1 7318   0.595   3.339  11.707  1.5514  0.3693  0.5651
  492MPD2    H2 7319   0.917   3.439  11.457 -0.5608  0.4580 -0.0197
  492MPD2    H3 7320   0.761   3.493  11.642  0.8053  0.1531 -0.6040
  492MPD2     N 7321   0.521   3.133  11.594  0.3472 -0.0119 -0.3278
  492MPD2    H5 7322   0.460   3.173  11.665  0.4210  2.5600 -1.7271
  492MPD2    N1 7323   0.936   3.235  11.331  0.3299  0.0192  0.3366
  492MPD2    H7 7324   1.002   3.312  11.337 -0.2464  0.4624  1.1431
  493TMC3    C1 7325   1.038   3.174  11.120  0.1778 -0.4973 -0.2072
  493TMC3    C2 7326   1.088   3.301  11.104 -0.0594 -0.1767  0.5924
  493TMC3    C3 7327   1.134   3.339  10.977 -0.4174  0.0911  0.2502
  493TMC3    C4 7328   1.047   3.083  11.016 -0.5206 -0.6729 -0.3061
  493TMC3    C5 7329   1.105   3.122  10.897  0.4071  0.8057 -0.6879
  493TMC3    C6 7330   1.141   3.251  10.871 -0.3372  0.8309  0.2173
  493TMC3     C 7331   0.949   3.138  11.232 -0.9000  0.3511 -0.3603
  493TMC3     O 7332   0.876   3.039  11.218 -0.4716  0.1372  0.2981
  493TMC3     H 7333   1.085   3.372  11.186 -2.4376 -1.2467  1.4320
  493TMC3    H1 7334   1.015   2.980  11.030 -0.1201 -0.8430 -0.6302
  493TMC3    H2 7335   1.175   3.276  10.771 -0.9344  2.2668  0.3665
  493TMC3    C7 7336   1.057   3.064  10.781 -0.0970 -0.5994  0.0184
  493TMC3    C8 7337   1.226   3.455  10.979 -1.1785 -0.4369  0.6284
  493TMC3    O1 7338   0.971   3.118  10.716  0.4893 -0.2480  0.2273
  493TMC3    O2 7339   1.268   3.490  11.087  0.0778  0.0080 -0.4830
  494TMC3    C1 7340   0.868   4.720   0.633  0.2341 -0.3492  0.1893
  494TMC3    C2 7341   0.908   4.607   0.699 -0.0872 -0.0323  0.1801
  494TMC3    C3 7342   1.005   4.532   0.636 -0.3659  0.5941 -0.7965
  494TMC3    C4 7343   0.940   0.046   0.524  0.1116  0.0420 -0.5499
  494TMC3    C5 7344   1.041   4.696   0.468  0.1225  0.7151  1.1137
  494TMC3    C6 7345   1.076   4.574   0.521 -0.0700 -0.2318 -0.4668
  494TMC3     C 7346   0.794   0.095   0.708  0.0539  0.0532  0.5612
  494TMC3     O 7347   0.808   0.075   0.828 -0.6756  0.3620 -0.6303
  494TMC3     H 7348   0.864   4.579   0.793 -0.2825  1.4773  0.5488
  494TMC3    H1 7349   0.918   0.147   0.490 -2.1871 -0.0574  0.6664
  494TMC3    H2 7350   1.155   4.512   0.478  0.7852  0.8109 -0.4142
  494TMC3    C7 7351   1.089   0.002   0.336 -0.7494 -0.3239  0.4156
  494TMC3    C8 7352   1.070   4.431   0.711  0.3108 -0.5608  0.0178
  494TMC3    O1 7353   1.117   4.625   0.270  0.2925 -0.0537  0.0176
  494TMC3    O2 7354   1.185   4.448   0.746 -0.8572 -0.1272 -0.5215
  495TMC3    C1 7355   0.295   2.202  14.507 -0.4302  0.4668  0.1651
  495TMC3    C2 7356   0.198   2.229  14.414  0.5680  0.1442  0.2304
  495TMC3    C3 7357   0.082   2.290  14.447  0.2868  1.2689 -0.7073
  495TMC3    C4 7358   0.260   2.229  14.633 -0.0280 -0.2050  0.0996
  495TMC3    C5 7359   0.146   2.290  14.664  0.3186 -0.6059  0.0021
  495TMC3    C6 7360   0.060   2.337  14.570 -0.0008 -0.2436 -0.0686
  495TMC3     C 7361   0.352   2.065  14.495  0.2283 -0.7627  0.5721
  495TMC3     O 7362   0.473   2.062  14.511 -0.9182  0.4623  0.7111
  495TMC3     H 7363   0.206   2.172  14.322  0.8690 -1.1408  1.0530
  495TMC3    H1 7364   0.309   2.185  14.719  1.5361  1.9494  0.3086
  495TMC3    H2 7365   4.686   2.370  14.604  0.5108  2.8493 -1.5772
  495TMC3    C7 7366   0.085   2.238  14.791  0.5492  0.1160 -0.1094
  495TMC3    C8 7367   4.682   2.288  14.362  0.3645 -0.6541  0.2444
  495TMC3    O1 7368   0.157   2.226  14.887 -0.3892 -0.8547 -0.6548
  495TMC3    O2 7369   4.570   2.287  14.414  0.1385  0.0327  0.0714
  496MPD2     C 7370   1.850   1.351  15.677 -0.0136  0.3180  0.6271
  496MPD2    C1 7371   1.932   1.438  15.611  0.2082 -0.4856  0.1441
  496MPD2    C2 7372   1.925   1.577  15.642 -0.2912  0.5287 -0.1240
  496MPD2    C3 7373   1.824   1.627  15.725 -0.1804 -0.1473 -0.9299
  496MPD2    C4 7374   1.734   1.539  15.774  0.3335 -0.2985  0.3842
  496MPD2    C5 7375   1.747   1.402  15.750 -0.5297  0.2993 -0.3730
  496MPD2     H 7376   2.003   1.645  15.608 -1.3636  2.2144  0.8011
  496MPD2    H1 7377   1.652   1.570  15.838 -2.1331 -2.7831 -1.6101
  496MPD2    H2 7378   1.851   1.244  15.660  1.8756  0.5889 -1.0089
  496MPD2    H3 7379   1.683   1.330  15.801  1.3659 -0.5636  0.8039
  496MPD2     N 7380   1.818   1.759  15.765  0.2513 -0.5373 -0.5228
  496MPD2    H5 7381   1.748   1.790  15.832 -2.1046 -1.5396 -2.5243
  496MPD2    N1 7382   2.031   1.377  15.531  0.4656 -0.2432  0.6830
  496MPD2    H7 7383   2.050   1.277  15.536  1.5341 -0.0171  1.0314
  497TMC3    C1 7384   1.895   1.979  15.804 -0.3630 -0.3318  0.6329
  497TMC3    C2 7385   1.942   2.103  15.753  0.7335 -0.4035 -0.1655
  497TMC3    C3 7386   1.933   2.206  15.841  0.5090 -0.9921  0.2771
  497TMC3    C4 7387   1.851   1.962  15.932  0.0851  0.0603 -0.3603
  497TMC3    C5 7388   1.863   2.068  16.018 -0.3903 -0.1688 -0.2854
  497TMC3    C6 7389   1.896   2.191  15.972  0.9577 -0.4594  0.1474
  497TMC3     C 7390   1.899   1.866  15.719  0.1651 -0.2286 -0.8880
  497TMC3     O 7391   1.974   1.874  15.624 -0.2608 -0.7747  0.0842
  497TMC3     H 7392   1.961   2.117  15.648  0.7821  1.1445  0.0554
  497TMC3    H1 7393   1.823   1.869  15.981 -0.7459 -0.4402 -1.7772
  497TMC3    H2 7394   1.910   2.275  16.039  2.8865 -0.2892 -0.4779
  497TMC3    C7 7395   1.857   2.041  16.158 -0.6679 -0.3402 -0.1529
  497TMC3    C8 7396   1.951   2.338  15.789 -0.1343  0.4560 -0.2392
  497TMC3    O1 7397   1.789   1.946  16.192 -0.0604 -0.2685  0.4584
  497TMC3    O2 7398   2.038   2.352  15.707 -0.3174  0.0893  0.2878
  498MPD2     C 7399   3.649   2.999   9.472 -0.6300  1.0394  0.4767
  498MPD2    C1 7400   3.599   3.119   9.515 -0.2948  0.1679  0.1835
  498MPD2    C2 7401   3.485   3.114   9.594 -0.1497  0.1769  0.0365
  498MPD2    C3 7402   3.417   2.994   9.623 -0.4658  0.1083  0.2644
  498MPD2    C4 7403   3.472   2.870   9.581 -0.1874 -0.0433 -0.0666
  498MPD2    C5 7404   3.589   2.874   9.501  0.0078 -0.2826  0.1698
  498MPD2     H 7405   3.452   3.207   9.640  1.6359  1.0509 -0.4558
  498MPD2    H1 7406   3.434   2.774   9.613 -1.8305  0.0881 -1.6125
  498MPD2    H2 7407   3.743   2.994   9.419  0.7759  1.7718  2.8828
  498MPD2    H3 7408   3.638   2.781   9.474  0.1245  0.6717 -2.9290
  498MPD2     N 7409   3.299   3.003   9.707 -0.4307  0.0888 -0.7574
  498MPD2    H5 7410   3.259   3.094   9.726 -3.3476 -1.4689  0.5599
  498MPD2    N1 7411   3.672   3.243   9.509 -0.2128  0.5023 -0.1686
  498MPD2    H7 7412   3.626   3.319   9.558  1.9420  1.2917  0.6195
  499TMC3    C1 7413   3.869   3.383   9.482  0.5197  0.2677  0.3686
  499TMC3    C2 7414   4.005   3.393   9.453  0.2930  0.0378 -0.0392
  499TMC3    C3 7415   4.058   3.522   9.456  0.2887  0.2087  0.5687
  499TMC3    C4 7416   3.790   3.493   9.511  0.3300 -0.6707  0.0299
  499TMC3    C5 7417   3.852   3.613   9.503 -0.3278  0.1261 -0.4088
  499TMC3    C6 7418   3.977   3.632   9.475 -0.3800  0.2269 -0.6303
  499TMC3     C 7419   3.803   3.256   9.463  0.5003 -0.2888 -0.6948
  499TMC3     O 7420   3.876   3.171   9.411  0.3196 -0.2026 -0.1060
  499TMC3     H 7421   4.068   3.307   9.432  0.7852  0.1213  1.0798
  499TMC3    H1 7422   3.687   3.474   9.538 -0.2827  2.2644 -0.2425
  499TMC3    H2 7423   4.027   3.727   9.496  2.3909 -1.4732  0.5294
  499TMC3    C7 7424   3.779   3.733   9.498  0.5703 -0.2922  0.2349
  499TMC3    C8 7425   4.198   3.527   9.480  0.3533  0.0162 -0.1758
  499TMC3    O1 7426   3.848   3.830   9.484  0.3588 -0.6357  0.1640
  499TMC3    O2 7427   4.247   3.610   9.552 -0.0556 -0.2218 -0.0043
  500MPD2     C 7428   0.100   4.334  10.544 -0.6440  0.2147  0.7211
  500MPD2    C1 7429   0.069   4.474  10.519  0.1501 -0.9297 -0.0894
  500MPD2    C2 7430   4.684   4.500  10.435  0.4465 -0.1509 -0.2285
  500MPD2    C3 7431   4.609   4.398  10.384  0.3835 -0.1411 -0.2932
  500MPD2    C4 7432   4.625   4.269  10.427 -0.6991 -0.2243 -0.3731
  500MPD2    C5 7433   0.008   4.241  10.503  0.2438  0.3146  0.1104
  500MPD2     H 7434   4.658   4.602  10.406  2.0657  0.5401  0.7653
  500MPD2    H1 7435   4.554   4.192  10.401 -1.9466  0.4030  1.1427
  500MPD2    H2 7436   0.188   4.311  10.603  0.1065 -1.8564 -1.2182
  500MPD2    H3 7437   0.029   4.138  10.531 -1.1472 -0.3147 -1.1460
  500MPD2     N 7438   4.491   4.424  10.314  0.1124 -0.5653 -0.2993
  500MPD2    H5 7439   4.439   4.343  10.281 -0.5666  0.2666 -1.2956
  500MPD2    N1 7440   0.146   4.582  10.569 -0.0728 -0.3433 -0.4680
  500MPD2    H7 7441   0.140   4.672  10.524  2.3594 -0.6408 -1.3567
  501TMC3    C1 7442   0.289   4.693  10.716 -0.3273 -0.3893 -0.0543
  501TMC3    C2 7443   0.326   0.052  10.617 -0.3995  0.3439 -0.4338
  501TMC3    C3 7444   0.440   0.123  10.627 -0.3759  0.3888  0.2474
  501TMC3    C4 7445   0.354   4.687  10.829 -0.2957  0.1647 -0.4039
  501TMC3    C5 7446   0.468   0.031  10.839 -0.2020  0.5636  1.0466
  501TMC3    C6 7447   0.514   0.110  10.740 -0.0275  0.2700 -0.2761
  501TMC3     C 7448   0.215   4.574  10.682 -0.2666 -0.1349 -0.2785
  501TMC3     O 7449   0.210   4.486  10.768 -0.0312 -0.4486 -0.4051
  501TMC3     H 7450   0.283   0.053  10.518  1.9725 -0.2912 -1.4720
  501TMC3    H1 7451   0.318   4.634  10.917 -0.9791  2.7541  0.8671
  501TMC3    H2 7452   0.617   0.142  10.754  0.1773 -0.7818  0.6507
  501TMC3    C7 7453   0.547   0.023  10.967 -0.1626 -0.5447 -0.4000
  501TMC3    C8 7454   0.449   0.235  10.542 -0.6855  0.1177  0.1123
  501TMC3    O1 7455   0.671   0.022  10.961 -0.1645 -0.1147 -0.1383
  501TMC3    O2 7456   0.350   0.301  10.515  0.2113 -0.5156 -0.1134
  502TMC3    C1 7457   4.215   2.707  14.949  0.3828  0.9196 -0.6298
  502TMC3    C2 7458   4.203   2.835  14.909  0.5059 -0.6986  0.1908
  502TMC3    C3 7459   4.084   2.906  14.938 -0.3201  0.2371 -0.1096
  502TMC3    C4 7460   4.099   2.639  14.969 -0.7400  0.5325 -0.3350
  502TMC3    C5 7461   3.990   2.711  15.005 -0.0685  0.4353  0.2849
  502TMC3    C6 7462   3.974   2.844  14.988 -0.0883 -0.5952  0.8004
  502TMC3     C 7463   4.317   2.699  15.048 -0.0250  0.1448  0.3351
  502TMC3     O 7464   4.417   2.765  15.040 -0.1678  0.3266  0.4810
  502TMC3     H 7465   4.288   2.899  14.888 -0.1682 -0.1884 -0.9609
  502TMC3    H1 7466   4.102   2.530  14.971  0.2491  0.5218 -1.6754
  502TMC3    H2 7467   3.883   2.901  14.999 -1.9708 -3.3119 -0.7656
  502TMC3    C7 7468   3.887   2.636  15.082  0.4676 -0.1932 -0.3214
  502TMC3    C8 7469   4.111   3.038  14.987  0.2434 -0.5033 -0.6033
  502TMC3    O1 7470   3.917   2.521  15.098 -0.2422  0.1535  0.2952
  502TMC3    O2 7471   4.203   3.102  14.936  0.3338  0.2232  0.7954
  503MPD2     C 7472   1.712   3.594  16.972 -0.5221  0.6483  0.8450
  503MPD2    C1 7473   1.640   3.578  17.086  0.7425  0.6328  0.2013
  503MPD2    C2 7474   1.681   3.474  17.169  0.1445 -0.3021 -0.5135
  503MPD2    C3 7475   1.781   3.381  17.130  0.0819  0.1898 -0.0888
  503MPD2    C4 7476   1.842   3.398  17.009 -0.1816  0.4019  0.6261
  503MPD2    C5 7477   1.812   3.509  16.934 -0.3943  0.0754 -0.2074
  503MPD2     H 7478   1.635   3.441  17.262  0.6630  1.1463  0.2530
  503MPD2    H1 7479   1.913   3.327  16.968 -1.3051  0.2284 -1.0318
  503MPD2    H2 7480   1.697   3.675  16.901 -0.0391  0.0042  0.0115
  503MPD2    H3 7481   1.874   3.521  16.846  1.8115  0.4232  1.3954
  503MPD2     N 7482   1.808   3.265  17.206  0.0332  0.4278 -0.2284
  503MPD2    H5 7483   1.763   3.255  17.296 -0.0762 -0.0070 -0.3288
  503MPD2    N1 7484   1.520   3.657  17.114 -0.2529 -0.8182  0.1354
  503MPD2    H7 7485   1.459   3.633  17.192 -0.5459 -0.1035  0.1236
  504TMC3    C1 7486   1.912   3.049  17.253 -0.5543  0.9392 -0.0900
  504TMC3    C2 7487   1.911   3.086  17.386 -0.0848  0.0770 -0.8445
  504TMC3    C3 7488   1.993   3.020  17.467 -0.6830  0.7801 -0.1700
  504TMC3    C4 7489   2.001   2.958  17.202  0.0452 -0.0737 -0.3153
  504TMC3    C5 7490   2.085   2.908  17.289 -0.1953 -0.3495  0.2517
  504TMC3    C6 7491   2.081   2.930  17.423  0.2468  0.3494 -0.1223
  504TMC3     C 7492   1.872   3.151  17.154  0.0598 -0.5964  0.5258
  504TMC3     O 7493   1.895   3.126  17.035  0.1176  0.2748 -0.6503
  504TMC3     H 7494   1.855   3.168  17.430  0.6806 -0.2122  0.6566
  504TMC3    H1 7495   2.009   2.942  17.095 -0.7142  0.5329 -0.4650
  504TMC3    H2 7496   2.155   2.888  17.490 -2.4166 -0.8234  2.0772
  504TMC3    C7 7497   2.199   2.856  17.224  0.0282 -0.3264  0.1319
  504TMC3    C8 7498   1.972   3.039  17.607  0.1434 -0.0166  0.4039
  504TMC3    O1 7499   2.233   2.898  17.114 -0.1642  0.1260 -0.2021
  504TMC3    O2 7500   1.956   3.154  17.643 -0.0078 -0.4564 -1.0416
  505MPD2     C 7501   2.356   3.131  10.563  0.0934 -0.1608  0.0708
  505MPD2    C1 7502   2.407   3.092  10.685 -0.8344  0.2161 -0.0407
  505MPD2    C2 7503   2.499   3.176  10.741  0.7640  0.4394 -0.2420
  505MPD2    C3 7504   2.536   3.299  10.685 -0.1242 -0.0473 -1.0391
  505MPD2    C4 7505   2.493   3.326  10.554 -0.3113  0.3179 -0.4488
  505MPD2    C5 7506   2.403   3.244  10.497 -0.1278 -0.2315 -0.6942
  505MPD2     H 7507   2.554   3.148  10.830 -1.8659 -1.3264  0.8086
  505MPD2    H1 7508   2.518   3.416  10.500 -0.7560  0.7976  0.1394
  505MPD2    H2 7509   2.276   3.065  10.531  0.7923 -2.4183  2.9737
  505MPD2    H3 7510   2.362   3.278  10.403 -1.0200 -2.0437 -0.9755
  505MPD2     N 7511   2.634   3.379  10.750 -0.1745  0.2746 -0.1102
  505MPD2    H5 7512   2.670   3.338  10.836 -0.3030  0.2848 -0.0513
  505MPD2    N1 7513   2.375   2.967  10.733  0.2420 -0.0229 -0.6671
  505MPD2    H7 7514   2.303   2.911  10.687  0.6659 -4.0716  3.5043
  506TMC3    C1 7515   2.408   2.760  10.855 -0.3460 -0.3291  1.0888
  506TMC3    C2 7516   2.413   2.690  10.736  0.1286 -0.1325 -0.2981
  506TMC3    C3 7517   2.472   2.568  10.734  0.4921  0.3235  0.8122
  506TMC3    C4 7518   2.468   2.702  10.965  0.1190 -0.7317  0.4884
  506TMC3    C5 7519   2.548   2.594  10.955 -0.1082 -0.2853 -0.3512
  506TMC3    C6 7520   2.532   2.522  10.843 -0.2093  0.4168  0.2605
  506TMC3     C 7521   2.433   2.903  10.845  0.4528 -0.1353 -0.7375
  506TMC3     O 7522   2.512   2.938  10.929  0.3766 -0.4347 -0.1360
  506TMC3     H 7523   2.380   2.737  10.644 -0.2030 -1.0998 -0.6690
  506TMC3    H1 7524   2.462   2.761  11.055  0.4827 -1.6474  1.1160
  506TMC3    H2 7525   2.591   2.432  10.835 -1.2777 -0.3112  0.5560
  506TMC3    C7 7526   2.686   2.627  10.975  0.0654 -0.2270  0.1447
  506TMC3    C8 7527   2.520   2.513  10.611  0.4732 -0.2147 -0.1062
  506TMC3    O1 7528   2.764   2.544  10.937  0.7138  0.7607  0.5936
  506TMC3    O2 7529   2.557   2.397  10.602 -0.0099 -0.4106 -0.1122
  507TMC3    C1 7530   2.738   2.938  14.871 -0.6993  0.0843  0.3085
  507TMC3    C2 7531   2.685   2.857  14.779  0.4834  0.5099  0.0994
  507TMC3    C3 7532   2.703   2.880  14.642  0.1694 -0.0659  0.5390
  507TMC3    C4 7533   2.829   3.036  14.833 -0.4000 -0.4609  0.3171
  507TMC3    C5 7534   2.853   3.052  14.700 -0.5195 -0.2404  0.3965
  507TMC3    C6 7535   2.781   2.985  14.608  0.5856 -0.7048 -0.2420
  507TMC3     C 7536   2.653   2.990  14.974  0.2564  0.2803  0.4389
  507TMC3     O 7537   2.693   3.084  15.040  0.5833  0.3004 -0.2948
  507TMC3     H 7538   2.628   2.770  14.807  2.3347 -1.0616 -1.0143
  507TMC3    H1 7539   2.873   3.098  14.911 -1.2371 -0.7717  1.0458
  507TMC3    H2 7540   2.817   2.999  14.507 -2.5618  0.5476 -1.1965
  507TMC3    C7 7541   2.863   3.183  14.645  0.3423 -0.4315 -0.5472
  507TMC3    C8 7542   2.570   2.900  14.589  0.4830  0.6866  0.0120
  507TMC3    O1 7543   2.825   3.204  14.530 -0.6641 -0.2228  0.8364
  507TMC3    O2 7544   2.482   2.856  14.663  0.4747  0.0729  0.3542
  508MPD2     C 7545   3.537   0.252  15.804  0.5894 -0.2034  0.2950
  508MPD2    C1 7546   3.604   0.361  15.859 -0.2529  0.5981  0.6279
  508MPD2    C2 7547   3.634   0.462  15.772  0.1668 -0.4584 -0.3907
  508MPD2    C3 7548   3.587   0.461  15.638 -0.4236 -0.0561  0.9526
  508MPD2    C4 7549   3.525   0.355  15.589 -1.1130  0.5864  0.1008
  508MPD2    C5 7550   3.492   0.252  15.672 -0.3180  0.4552 -0.4940
  508MPD2     H 7551   3.688   0.551  15.802 -2.2540  0.4673  1.1927
  508MPD2    H1 7552   3.505   0.354  15.483  1.0430  1.2178 -0.3046
  508MPD2    H2 7553   3.529   0.166  15.870  2.0532 -0.7923 -0.2971
  508MPD2    H3 7554   3.446   0.165  15.627  1.7230 -1.1171  0.4249
  508MPD2     N 7555   3.617   0.576  15.563  0.3438 -0.2168 -0.5704
  508MPD2    H5 7556   3.666   0.640  15.625  1.6975 -1.0059 -0.8248
  508MPD2    N1 7557   3.652   0.370  15.996 -0.0126  0.2550 -0.3248
  508MPD2    H7 7558   3.696   0.454  16.033 -1.5509  1.4645 -1.2342
  509TMC3    C1 7559   3.505   0.936  15.287 -0.4563 -0.4298 -0.7490
  509TMC3    C2 7560   3.632   0.997  15.298  0.0889 -0.0071  0.1361
  509TMC3    C3 7561   3.732   0.925  15.359  0.3592  0.3681  0.1788
  509TMC3    C4 7562   3.486   0.810  15.347 -0.0566 -0.3334 -0.9184
  509TMC3    C5 7563   3.588   0.750  15.417  0.4352 -0.9385  0.2050
  509TMC3    C6 7564   3.713   0.804  15.420  0.3557 -0.0264  0.0111
  509TMC3     C 7565   3.388   1.004  15.240  0.3553  0.0018 -1.0035
  509TMC3     O 7566   3.282   0.945  15.240  0.0126  0.5662  0.0375
  509TMC3     H 7567   3.660   1.081  15.235  0.5667  0.4673  0.9738
  509TMC3    H1 7568   3.391   0.760  15.334  0.2626 -1.3760  0.8821
  509TMC3    H2 7569   3.790   0.740  15.461 -1.9249 -2.9310 -0.2413
  509TMC3    C7 7570   3.565   0.612  15.442  0.1455  0.1307  0.7879
  509TMC3    C8 7571   3.865   0.988  15.381 -0.4249 -0.3775 -0.2373
  509TMC3    O1 7572   3.483   0.553  15.371 -0.2914  0.0202  0.1962
  509TMC3    O2 7573   3.966   0.920  15.378  0.2970 -0.6052 -0.4145
  510MPD2     C 7574   1.359   2.582  14.567 -0.1440 -0.0601  0.4186
  510MPD2    C1 7575   1.420   2.507  14.667  0.8788 -0.3696  0.3344
  510MPD2    C2 7576   1.561   2.493  14.664 -0.1304  0.5792 -0.1523
  510MPD2    C3 7577   1.636   2.539  14.558  0.1776  0.1166  0.1470
  510MPD2    C4 7578   1.569   2.616  14.465 -0.4067 -0.6244  0.2497
  510MPD2    C5 7579   1.434   2.642  14.478  0.2902 -0.0363  0.1571
  510MPD2     H 7580   1.607   2.421  14.730 -0.9078 -0.2159 -0.4842
  510MPD2    H1 7581   1.617   2.671  14.385  1.7166  0.7670  2.4870
  510MPD2    H2 7582   1.254   2.610  14.562 -1.2627 -4.1982  0.8744
  510MPD2    H3 7583   1.379   2.698  14.404  1.2594  1.7156  0.7805
  510MPD2     N 7584   1.765   2.486  14.541 -0.4720  0.2461 -0.5481
  510MPD2    H5 7585   1.803   2.433  14.619 -1.2335  2.7991  1.5938
  510MPD2    N1 7586   1.336   2.434  14.760 -0.0908 -1.0651  0.2272
  510MPD2    H7 7587   1.238   2.419  14.737  0.6484  0.3913 -3.8401
  511TMC3    C1 7588   1.274   2.300  14.940  0.0360 -0.6183 -0.1688
  511TMC3    C2 7589   1.289   2.269  15.075  0.1577 -0.2445 -0.3422
  511TMC3    C3 7590   1.222   2.160  15.116  0.0172 -0.4553 -0.3307
  511TMC3    C4 7591   1.209   2.213  14.855 -0.0213 -0.1893  0.1769
  511TMC3    C5 7592   1.134   2.111  14.910  0.4337  0.9611  0.7113
  511TMC3    C6 7593   1.141   2.077  15.041  0.2617 -0.2912 -0.4671
  511TMC3     C 7594   1.370   2.391  14.886  0.1734  0.1257  0.0748
  511TMC3     O 7595   1.459   2.428  14.960  0.3941 -0.3912 -0.5078
  511TMC3     H 7596   1.353   2.322  15.144  0.2592 -2.0415  0.9381
  511TMC3    H1 7597   1.208   2.228  14.747 -0.1612 -0.7948  0.0971
  511TMC3    H2 7598   1.092   1.993  15.089 -0.9708  1.1624  0.8395
  511TMC3    C7 7599   1.060   2.013  14.821  1.0511 -0.5846  0.2574
  511TMC3    C8 7600   1.227   2.128  15.257  0.3650 -1.1599 -0.1224
  511TMC3    O1 7601   1.057   2.031  14.701 -0.1190 -0.0365  0.7647
  511TMC3    O2 7602   1.269   2.017  15.283  0.0146 -0.1528  0.0959
  512TMC3    C1 7603   0.117   2.350  12.796 -0.1064 -0.2143  0.4497
  512TMC3    C2 7604   0.121   2.317  12.929  0.1769  0.1058  0.0931
  512TMC3    C3 7605   0.163   2.194  12.960 -0.0958 -0.2840  0.5631
  512TMC3    C4 7606   0.161   2.265  12.703 -0.4122 -0.4209  0.1589
  512TMC3    C5 7607   0.213   2.141  12.745  0.1279  0.0125  0.3919
  512TMC3    C6 7608   0.213   2.106  12.876  0.1767 -0.0561 -0.1614
  512TMC3     C 7609   0.068   2.475  12.749  0.1480 -0.1547 -0.5754
  512TMC3     O 7610   0.048   2.482  12.630 -0.4754 -0.0378 -0.3013
  512TMC3     H 7611   0.072   2.386  12.998  0.0111  1.5103 -1.4324
  512TMC3    H1 7612   0.156   2.287  12.597 -0.0765 -1.9024 -0.1643
  512TMC3    H2 7613   0.246   2.011  12.917 -0.7583  0.2694  1.3828
  512TMC3    C7 7614   0.245   2.043  12.638  0.0610  0.1688  0.3925
  512TMC3    C8 7615   0.152   2.154  13.099  0.1152  0.7152 -0.1118
  512TMC3    O1 7616   0.215   2.080  12.525  0.2329 -0.2585  0.0831
  512TMC3    O2 7617   0.144   2.034  13.121  0.0862 -0.1653  0.6262
  513MPD2     C 7618   1.877   1.597  13.354  0.0963 -0.8857 -0.6699
  513MPD2    C1 7619   1.926   1.508  13.261  0.1619  0.1968  1.2033
  513MPD2    C2 7620   2.060   1.512  13.215  0.2842  0.2488  0.1238
  513MPD2    C3 7621   2.148   1.590  13.281 -1.0800  0.3371 -0.9616
  513MPD2    C4 7622   2.104   1.683  13.372 -0.1956  0.0841 -0.6911
  513MPD2    C5 7623   1.967   1.683  13.407  0.6430 -0.1762  0.6556
  513MPD2     H 7624   2.096   1.448  13.136 -0.8331  1.0395 -1.0299
  513MPD2    H1 7625   2.167   1.759  13.416  1.1647 -1.4168 -0.0556
  513MPD2    H2 7626   1.778   1.603  13.398 -0.4168 -1.2137 -1.7773
  513MPD2    H3 7627   1.930   1.751  13.483 -0.0503 -1.2792  1.3050
  513MPD2     N 7628   2.284   1.577  13.234  0.2853 -0.5201 -0.4433
  513MPD2    H5 7629   2.288   1.510  13.158 -0.3037 -0.3958 -0.5835
  513MPD2    N1 7630   1.830   1.421  13.203 -0.3247  0.1802 -0.0027
  513MPD2    H7 7631   1.730   1.439  13.217 -1.1897 -4.7400 -0.0862
  514TMC3    C1 7632   1.789   1.201  13.109 -0.0440 -1.2269  0.0358
  514TMC3    C2 7633   1.705   1.241  13.020 -0.4223 -0.7321 -1.0467
  514TMC3    C3 7634   1.680   1.165  12.912  0.2827  0.4681 -0.0454
  514TMC3    C4 7635   1.847   1.077  13.098  0.3180  0.6543 -0.2453
  514TMC3    C5 7636   1.816   0.993  12.996  0.4710  0.6167 -0.1624
  514TMC3    C6 7637   1.724   1.036  12.899 -0.0327  0.4714  0.0949
  514TMC3     C 7638   1.880   1.299  13.157  0.0971 -0.1994 -0.0047
  514TMC3     O 7639   1.990   1.254  13.172  0.0128 -0.9444  0.0120
  514TMC3     H 7640   1.667   1.342  13.019  1.9965  0.1767 -0.2152
  514TMC3    H1 7641   1.916   1.054  13.179 -2.1592 -0.9855  1.3803
  514TMC3    H2 7642   1.690   0.967  12.822 -0.1402  0.3952  0.2096
  514TMC3    C7 7643   1.926   0.936  12.934  1.0808  0.2461 -0.0227
  514TMC3    C8 7644   1.609   1.228  12.796  1.0408 -0.2899 -0.1012
  514TMC3    O1 7645   1.900   0.860  12.846 -0.3553  0.2174 -0.4155
  514TMC3    O2 7646   1.572   1.345  12.810 -0.2976 -0.0243 -0.3232
  515MPD2     C 7647   4.661   3.685  15.116  0.4421 -0.2541  0.5280
  515MPD2    C1 7648   0.026   3.636  15.022 -0.2918 -0.3911 -0.1590
  515MPD2    C2 7649   0.157   3.624  15.050  0.8561  0.8119  0.5233
  515MPD2    C3 7650   0.200   3.663  15.174  0.1894  0.1538 -0.6295
  515MPD2    C4 7651   0.111   3.719  15.271  0.4796 -0.4290  1.3477
  515MPD2    C5 7652   4.707   3.721  15.238  0.3126  0.3004  0.6491
  515MPD2     H 7653   0.227   3.582  14.978 -0.8745  2.1639 -1.9497
  515MPD2    H1 7654   0.150   3.733  15.372 -0.1947  0.6364  1.4489
  515MPD2    H2 7655   4.556   3.698  15.093  0.4623  0.2626  0.7224
  515MPD2    H3 7656   4.636   3.754  15.313 -1.7542 -0.2394 -1.0669
  515MPD2     N 7657   0.334   3.641  15.213  0.4113  0.2681  0.4790
  515MPD2    H5 7658   0.360   3.686  15.300  0.9209  1.2961 -0.1970
  515MPD2    N1 7659   4.704   3.612  14.893  0.2572 -0.1234 -0.5191
  515MPD2    H7 7660   0.048   3.570  14.830  2.4225  0.1437  1.5977
  516TMC3    C1 7661   4.555   3.584  14.711 -0.0424  0.2868  0.0430
  516TMC3    C2 7662   4.472   3.634  14.618  0.1097  0.0307  0.5425
  516TMC3    C3 7663   4.448   3.551  14.509 -0.4346  0.3229 -0.2673
  516TMC3    C4 7664   4.598   3.453  14.713 -0.4541  0.1853 -0.0349
  516TMC3    C5 7665   4.565   3.370  14.606 -0.1080  0.2481  0.0870
  516TMC3    C6 7666   4.482   3.417  14.505 -0.0054 -0.2837 -0.3172
  516TMC3     C 7667   4.590   3.656  14.833  0.1304 -0.2439  1.0290
  516TMC3     O 7668   4.524   3.753  14.861 -0.3610 -0.4194  0.4052
  516TMC3     H 7669   4.431   3.735  14.616  0.5810  0.2522  1.7773
  516TMC3    H1 7670   4.652   3.403  14.792 -0.4144 -0.7592 -0.6608
  516TMC3    H2 7671   4.456   3.364  14.414 -1.4966 -0.2241  0.0668
  516TMC3    C7 7672   4.565   3.226  14.639  0.3534 -0.4091 -0.3351
  516TMC3    C8 7673   4.370   3.595  14.391  0.3622 -0.5445  0.2008
  516TMC3    O1 7674   4.666   3.184  14.694  0.3047 -0.0328 -0.1980
  516TMC3    O2 7675   4.330   3.517  14.306 -0.0343 -0.1043  0.0705
  517MPD2     C 7676   4.498   4.564   0.004  0.4458  0.0976  0.6407
  517MPD2    C1 7677   4.612   4.645  17.679  0.7792 -0.5283  0.3889
  517MPD2    C2 7678   4.615   0.046   0.051 -0.4578 -0.2004  0.0248
  517MPD2    C3 7679   4.508   0.092   0.123  0.1505 -0.2931  1.0742
  517MPD2    C4 7680   4.390   0.019   0.134  0.6416  0.0604 -0.4576
  517MPD2    C5 7681   4.391   4.620   0.064 -0.3110  0.7358 -0.5571
  517MPD2     H 7682   4.711   0.096   0.054 -0.0277 -1.0084 -0.2134
  517MPD2    H1 7683   4.297   0.041   0.186 -0.4215 -0.7063 -2.0161
  517MPD2    H2 7684   4.500   4.468  17.645  0.9110  1.0815 -1.1997
  517MPD2    H3 7685   4.298   4.564   0.070 -0.1544  0.5239 -0.0469
  517MPD2     N 7686   4.500   0.215   0.191  0.6887  0.1463 -0.6321
  517MPD2    H5 7687   4.413   0.227   0.242  1.0584  1.2300 -0.2479
  517MPD2    N1 7688   0.012   4.600  17.630  0.3064  0.0281  0.0621
  517MPD2    H7 7689   0.081   4.673  17.623  0.6189 -0.2636  0.1198
  518TMC3    C1 7690   0.162   4.449  17.515 -0.5780  0.5582 -0.2700
  518TMC3    C2 7691   0.175   4.357  17.415  0.6323 -0.1856 -0.3192
  518TMC3    C3 7692   0.302   4.306  17.397  0.0895 -0.3390  0.0476
  518TMC3    C4 7693   0.272   4.497  17.582 -0.1462  0.2397  0.3647
  518TMC3    C5 7694   0.396   4.445  17.556 -0.3048 -0.5273 -0.3612
  518TMC3    C6 7695   0.408   4.344  17.463 -0.8501 -0.3184  0.5146
  518TMC3     C 7696   0.031   4.476  17.568 -0.0801 -0.4510 -0.1493
  518TMC3     O 7697   4.674   4.388  17.572  0.0631  0.0606 -0.4548
  518TMC3     H 7698   0.085   4.316  17.371  0.9128  0.8355 -1.8279
  518TMC3    H1 7699   0.258   4.560  17.669  0.3894  0.5943  0.1935
  518TMC3    H2 7700   0.499   4.288  17.442 -0.6830 -0.2610  1.0751
  518TMC3    C7 7701   0.495   4.468  17.663 -0.1450 -0.5048  0.6512
  518TMC3    C8 7702   0.299   4.168  17.349 -0.2533 -0.0587  0.0760
  518TMC3    O1 7703   0.463   4.545   0.060 -0.3981 -0.3109  0.2984
  518TMC3    O2 7704   0.388   4.096  17.388  0.2022  0.1448 -0.2937
  519MPD2     C 7705   1.666   3.603  14.514 -0.3560  1.0033  0.0439
  519MPD2    C1 7706   1.600   3.517  14.430  1.1139 -0.1606  0.2226
  519MPD2    C2 7707   1.673   3.414  14.372 -0.0939 -0.1757 -0.1087
  519MPD2    C3 7708   1.809   3.401  14.389  0.1674 -0.1832  0.0096
  519MPD2    C4 7709   1.873   3.485  14.470  0.0481 -0.6156 -0.1212
  519MPD2    C5 7710   1.801   3.585  14.532 -0.7435 -0.2393 -0.6613
  519MPD2     H 7711   1.630   3.357  14.290 -1.6753 -0.9207  1.2467
  519MPD2    H1 7712   1.980   3.473  14.481  0.0625 -2.8206 -2.5404
  519MPD2    H2 7713   1.614   3.696  14.534 -1.5017  0.1681  0.9574
  519MPD2    H3 7714   1.859   3.667  14.573  0.2356 -0.5125 -1.4952
  519MPD2     N 7715   1.896   3.322  14.310 -0.2024  0.2230  0.3274
  519MPD2    H5 7716   1.994   3.328  14.336 -0.0709 -1.2471  0.2153
  519MPD2    N1 7717   1.475   3.555  14.378 -0.7774  0.3527 -0.1649
  519MPD2    H7 7718   1.438   3.647  14.399 -0.9471  0.4733 -0.9927
  520TMC3    C1 7719   1.960   3.167  14.144 -0.6477 -0.4169 -0.5050
  520TMC3    C2 7720   1.923   3.111  14.019  0.1473 -0.0765  0.6261
  520TMC3    C3 7721   2.013   3.035  13.950  0.3788  0.7875  0.1552
  520TMC3    C4 7722   2.088   3.176  14.175 -0.0482  0.1577 -0.0474
  520TMC3    C5 7723   2.171   3.092  14.106 -0.0928 -0.1347  0.6462
  520TMC3    C6 7724   2.138   3.020  13.994  0.3197 -0.2072  0.3370
  520TMC3     C 7725   1.855   3.232  14.214  0.0023  0.1966 -0.3508
  520TMC3     O 7726   1.748   3.224  14.157  0.3250 -0.0164 -0.2230
  520TMC3     H 7727   1.820   3.112  13.986  0.4074  0.0547 -0.1816
  520TMC3    H1 7728   2.122   3.228  14.264 -0.1080  0.7329 -0.3577
  520TMC3    H2 7729   2.214   2.972  13.934  0.5000  1.8002 -1.0399
  520TMC3    C7 7730   2.320   3.124  14.119  0.6231 -0.1028 -0.6719
  520TMC3    C8 7731   1.983   3.016  13.809 -0.2040  0.4680 -1.0820
  520TMC3    O1 7732   2.352   3.237  14.134 -0.5950  0.4823  0.3869
  520TMC3    O2 7733   2.088   3.002  13.745  0.1669  0.1291  0.0892
  521MPD2     C 7734   2.178   0.385  17.297  0.0995 -0.2523 -0.8848
  521MPD2    C1 7735   2.203   0.518  17.276 -0.5154 -0.2807  0.4325
  521MPD2    C2 7736   2.336   0.557  17.243 -0.3097 -1.1040 -0.8484
  521MPD2    C3 7737   2.444   0.459  17.236  0.4070 -1.0824 -0.6503
  521MPD2    C4 7738   2.419   0.332  17.284  0.2330  0.2936  0.2325
  521MPD2    C5 7739   2.287   0.295  17.309 -0.6346  0.2116 -0.6723
  521MPD2     H 7740   2.354   0.659  17.210 -0.7996 -0.9342 -0.5820
  521MPD2    H1 7741   2.495   0.255  17.291  0.6158  0.5960 -0.5823
  521MPD2    H2 7742   2.075   0.356  17.313 -0.0063  0.7528  0.2585
  521MPD2    H3 7743   2.260   0.200  17.353 -0.1505  0.0765 -0.6693
  521MPD2     N 7744   2.572   0.495  17.189  0.6083 -0.5586 -0.1233
  521MPD2    H5 7745   2.583   0.578  17.132 -0.7111 -1.2563 -1.3778
  521MPD2    N1 7746   2.091   0.601  17.278 -0.1039  0.4113  1.0375
  521MPD2    H7 7747   2.005   0.553  17.301 -1.0956  1.3180 -0.7498
  522TMC3    C1 7748   2.783   0.442  17.101 -0.1286  1.3365  0.1537
  522TMC3    C2 7749   2.870   0.335  17.067  0.7521  0.1079  0.6541
  522TMC3    C3 7750   2.974   0.359  16.979 -0.9195 -0.1952  0.6116
  522TMC3    C4 7751   2.801   0.564  17.043 -0.3732 -0.1415 -0.2948
  522TMC3    C5 7752   2.915   0.581  16.973 -0.0562  0.3389  1.3009
  522TMC3    C6 7753   3.002   0.487  16.933  0.2127 -0.0547 -0.6357
  522TMC3     C 7754   2.685   0.414  17.202  0.6904  0.2268 -0.5011
  522TMC3     O 7755   2.703   0.329  17.294  0.3900 -0.2130 -0.6234
  522TMC3     H 7756   2.864   0.241  17.120 -0.5225 -0.3887 -0.3736
  522TMC3    H1 7757   2.743   0.644  17.089 -0.0571  0.5152 -1.0531
  522TMC3    H2 7758   3.078   0.511  16.859 -0.0498 -1.5870 -1.4014
  522TMC3    C7 7759   2.929   0.712  16.903 -0.0136 -0.6505  0.5008
  522TMC3    C8 7760   3.044   0.247  16.925 -0.3174  0.1063 -0.4454
  522TMC3    O1 7761   3.039   0.743  16.863  0.2813 -0.1995 -0.8035
  522TMC3    O2 7762   2.992   0.145  16.964  0.1514  0.0368 -0.8395
  523MPD2     C 7763   0.673   1.643  10.179  0.4024  0.5512  0.1212
  523MPD2    C1 7764   0.621   1.544  10.100  0.3730  0.3969  0.0092
  523MPD2    C2 7765   0.528   1.572   9.999  0.2908  0.3632  0.0185
  523MPD2    C3 7766   0.491   1.706   9.986 -0.2692 -0.5348 -0.2006
  523MPD2    C4 7767   0.536   1.801  10.075  0.2245 -0.4382 -0.1939
  523MPD2    C5 7768   0.626   1.772  10.171  0.6806 -0.0196 -0.1733
  523MPD2     H 7769   0.492   1.498   9.929  0.4588  0.4746 -0.1874
  523MPD2    H1 7770   0.501   1.904  10.073 -0.2088 -0.5639  0.7486
  523MPD2    H2 7771   0.756   1.619  10.244  0.9648  2.3301  0.0630
  523MPD2    H3 7772   0.654   1.848  10.242  1.1484  1.2805 -1.7427
  523MPD2     N 7773   0.396   1.740   9.886 -0.0553 -0.3728  0.0007
  523MPD2    H5 7774   0.358   1.833   9.897  1.2199  0.1138  0.3078
  523MPD2    N1 7775   0.652   1.413  10.145  0.2489 -0.6820 -0.1440
  523MPD2    H7 7776   0.730   1.405  10.210 -2.5438 -0.2695  3.2442
  524TMC3    C1 7777   0.257   1.735   9.692  0.2721 -1.3975 -0.2055
  524TMC3    C2 7778   0.256   1.698   9.561 -0.7823  0.0517 -0.5540
  524TMC3    C3 7779   0.148   1.744   9.483  0.2880 -0.3677 -0.0254
  524TMC3    C4 7780   0.146   1.784   9.756  0.2259  0.1445 -0.5422
  524TMC3    C5 7781   0.036   1.815   9.677 -0.3970 -0.1439 -0.2309
  524TMC3    C6 7782   0.041   1.805   9.540 -0.4543 -0.4310 -0.3521
  524TMC3     C 7783   0.373   1.677   9.766 -0.6349 -0.1370  0.4225
  524TMC3     O 7784   0.428   1.582   9.709  0.3488  0.0236  0.2861
  524TMC3     H 7785   0.344   1.669   9.505  0.1302  1.2774  0.2276
  524TMC3    H1 7786   0.134   1.797   9.863 -1.5333  0.6204 -0.7937
  524TMC3    H2 7787   4.680   1.813   9.471 -0.7388  0.8493  0.1395
  524TMC3    C7 7788   4.645   1.883   9.740  0.7228 -0.0153  0.5797
  524TMC3    C8 7789   0.156   1.726   9.338 -0.0181 -0.3192 -0.0924
  524TMC3    O1 7790   4.624   1.874   9.863  0.0342 -0.1643 -0.2221
  524TMC3    O2 7791   0.235   1.639   9.306  0.2106 -0.0457 -0.2990
  525MPD2     C 7792   3.261   2.574  14.476  0.0022  0.6030  0.0067
  525MPD2    C1 7793   3.336   2.629  14.582  0.0327 -0.7061  0.2857
  525MPD2    C2 7794   3.425   2.735  14.553 -0.1979 -0.3452 -0.7944
  525MPD2    C3 7795   3.426   2.794  14.430  0.5592 -0.0013  0.5723
  525MPD2    C4 7796   3.344   2.738  14.333 -0.1428 -0.5946  0.4776
  525MPD2    C5 7797   3.271   2.624  14.354 -0.5542 -0.4377  0.6996
  525MPD2     H 7798   3.484   2.776  14.634 -1.7908  1.1985 -0.4359
  525MPD2    H1 7799   3.352   2.764  14.228  1.1886 -0.7875  0.5219
  525MPD2    H2 7800   3.194   2.490  14.495  1.3888 -0.6532 -0.6424
  525MPD2    H3 7801   3.220   2.574  14.273 -0.4448 -0.2473  0.5149
  525MPD2     N 7802   3.485   2.910  14.399  1.1625  0.4643  0.1159
  525MPD2    H5 7803   3.460   2.957  14.313 -0.8893 -1.9080 -0.5825
  525MPD2    N1 7804   3.333   2.574  14.714  0.2680 -0.5185  0.4058
  525MPD2    H7 7805   3.404   2.607  14.779 -0.1208  2.4487 -0.6704
  526TMC3    C1 7806   3.274   2.400  14.871  0.0420 -0.3923 -0.1793
  526TMC3    C2 7807   3.177   2.356  14.960  0.6695  0.4892 -0.1876
  526TMC3    C3 7808   3.224   2.272  15.061 -0.4213 -0.4470 -0.8022
  526TMC3    C4 7809   3.404   2.368  14.885  0.1559  0.3795 -0.0873
  526TMC3    C5 7810   3.441   2.277  14.979 -0.5742 -0.0735  0.4039
  526TMC3    C6 7811   3.353   2.231  15.077 -0.2252  0.1811 -0.2579
  526TMC3     C 7812   3.246   2.470  14.746  0.5091  0.1251 -0.3781
  526TMC3     O 7813   3.137   2.442  14.702  0.9589  0.7977  0.5321
  526TMC3     H 7814   3.076   2.394  14.953  0.5419 -0.1689 -1.7842
  526TMC3    H1 7815   3.479   2.418  14.825  0.2098 -3.3077 -3.0795
  526TMC3    H2 7816   3.386   2.167  15.158 -0.5113 -0.5544 -0.7185
  526TMC3    C7 7817   3.581   2.249  15.006  0.3705  0.2389 -0.5068
  526TMC3    C8 7818   3.163   2.293  15.185  0.6469 -0.1257  0.5585
  526TMC3    O1 7819   3.613   2.203  15.117  0.3772 -0.0627  0.5947
  526TMC3    O2 7820   3.236   2.300  15.283 -0.0681 -0.0050  0.3961
  527MPD2     C 7821   0.281   0.535   1.286 -0.6647  0.2736  0.2528
  527MPD2    C1 7822   0.385   0.461   1.336 -0.7084  0.2560 -0.3210
  527MPD2    C2 7823   0.510   0.462   1.267  0.2996 -0.6392  0.1240
  527MPD2    C3 7824   0.533   0.548   1.159 -0.7090  0.1742  0.6448
  527MPD2    C4 7825   0.426   0.625   1.117  0.3143 -0.2054  0.2291
  527MPD2    C5 7826   0.303   0.619   1.177 -0.2463  0.1913  0.1620
  527MPD2     H 7827   0.591   0.394   1.292  0.5484 -0.9417 -1.5178
  527MPD2    H1 7828   0.441   0.700   1.040 -0.2899 -0.4080 -0.0909
  527MPD2    H2 7829   0.177   0.521   1.314 -0.1806 -0.3452  1.7261
  527MPD2    H3 7830   0.219   0.676   1.137 -2.0732 -2.0825  0.7608
  527MPD2     N 7831   0.662   0.552   1.094 -0.5199 -0.6287 -0.0421
  527MPD2    H5 7832   0.739   0.522   1.153  1.3193  4.1763  0.0263
  527MPD2    N1 7833   0.375   0.376   1.451  0.0954  0.3249 -0.4987
  527MPD2    H7 7834   0.460   0.328   1.477 -1.2676  0.8124  4.7066
  528TMC3    C1 7835   0.289   0.302   1.650 -0.3442 -0.0951  0.1508
  528TMC3    C2 7836   0.410   0.312   1.714  0.2029  0.5795 -0.0724
  528TMC3    C3 7837   0.427   0.252   1.831 -0.0939  0.3393 -0.2807
  528TMC3    C4 7838   0.184   0.233   1.715  0.0721 -0.0758 -0.7501
  528TMC3    C5 7839   0.220   0.157   1.823  0.4706 -0.7772 -0.0326
  528TMC3    C6 7840   0.340   0.170   1.889 -0.1655 -0.4183  0.3654
  528TMC3     C 7841   0.260   0.372   1.532 -1.0833  0.0994 -0.3394
  528TMC3     O 7842   0.144   0.390   1.503  0.0511  0.6705  0.0514
  528TMC3     H 7843   0.486   0.369   1.662 -0.2513  0.9518 -0.3321
  528TMC3    H1 7844   0.084   0.231   1.672  0.4252  1.9491 -1.6739
  528TMC3    H2 7845   0.364   0.111   1.976 -2.7188  1.4443  2.3405
  528TMC3    C7 7846   0.130   0.054   1.871  0.5733 -0.4699 -0.2490
  528TMC3    C8 7847   0.544   0.286   1.912 -0.0083 -0.1246 -0.3255
  528TMC3    O1 7848   0.154   0.006   1.979 -0.0115  0.0503  0.1017
  528TMC3    O2 7849   0.596   0.396   1.915  0.2494  0.1140  0.3255
  529MPD2     C 7850   4.236   3.293   0.434 -0.5118 -0.1242  0.2166
  529MPD2    C1 7851   4.098   3.308   0.432 -0.1288 -0.0125 -0.3522
  529MPD2    C2 7852   4.042   3.399   0.338 -0.4195  0.4841 -0.4163
  529MPD2    C3 7853   4.131   3.460   0.242  0.3865 -0.9368 -0.2661
  529MPD2    C4 7854   4.261   3.436   0.250 -0.1179 -0.2065  0.0089
  529MPD2    C5 7855   4.319   3.357   0.346  0.0913  0.4636 -0.3981
  529MPD2     H 7856   3.936   3.419   0.339 -0.3545  0.8270 -0.4039
  529MPD2    H1 7857   4.325   3.477   0.172  0.4403 -0.2627  0.4332
  529MPD2    H2 7858   4.275   3.216   0.501  1.5092  3.0615  2.7156
  529MPD2    H3 7859   4.426   3.344   0.356 -0.0236  0.6143  1.1304
  529MPD2     N 7860   4.085   3.558   0.144 -0.3536 -0.0561  0.5089
  529MPD2    H5 7861   4.158   3.620   0.112 -0.9552  0.8134  0.8418
  529MPD2    N1 7862   4.015   3.246   0.527  0.0424 -0.5911  1.0306
  529MPD2    H7 7863   3.918   3.276   0.524  0.4587  0.6999  0.5180
  530TMC3    C1 7864   3.948   3.132   0.720 -0.9777 -0.0235  1.0345
  530TMC3    C2 7865   3.976   3.080   0.840 -0.1330 -0.6284 -0.1620
  530TMC3    C3 7866   3.874   3.053   0.926  0.1958 -0.4686  0.4372
  530TMC3    C4 7867   3.817   3.159   0.686 -0.7904  0.3671  0.0765
  530TMC3    C5 7868   3.719   3.126   0.774  0.2157 -0.5313 -0.1863
  530TMC3    C6 7869   3.739   3.075   0.899 -0.0144  0.4722 -0.1689
  530TMC3     C 7870   4.057   3.168   0.634  1.2586  0.2696 -0.6449
  530TMC3     O 7871   4.167   3.164   0.678 -0.1813 -0.3573  0.3645
  530TMC3     H 7872   4.078   3.044   0.852 -0.7096 -2.3793 -0.5500
  530TMC3    H1 7873   3.785   3.208   0.594 -0.6151  1.4440  0.5872
  530TMC3    H2 7874   3.657   3.057   0.967  1.0867 -2.4924  0.3598
  530TMC3    C7 7875   3.572   3.134   0.738 -0.4416 -0.6119  0.2268
  530TMC3    C8 7876   3.905   3.023   1.063 -0.8390 -0.6985 -0.2924
  530TMC3    O1 7877   3.494   3.067   0.804 -0.4912  0.0019 -0.1415
  530TMC3    O2 7878   3.812   2.980   1.128  0.0758  0.5431 -0.6304
  531MPD2     C 7879   2.417   1.023  12.786  0.1379  0.6612 -0.9651
  531MPD2    C1 7880   2.379   1.107  12.890 -0.2422 -0.2875  0.2492
  531MPD2    C2 7881   2.253   1.098  12.943  0.5937 -1.1462 -0.7927
  531MPD2    C3 7882   2.168   1.000  12.900 -0.0244  0.9276 -0.0348
  531MPD2    C4 7883   2.203   0.909  12.807  0.3600  0.5922  0.0241
  531MPD2    C5 7884   2.322   0.931  12.737  0.6543 -0.4742  0.3214
  531MPD2     H 7885   2.212   1.160  13.022  1.5931 -2.3932  0.7023
  531MPD2    H1 7886   2.143   0.828  12.768 -0.7127  1.3382  0.1105
  531MPD2    H2 7887   2.513   1.024  12.735  1.2740 -1.1945  1.1617
  531MPD2    H3 7888   2.356   0.860  12.662 -1.7574 -0.7780 -0.5082
  531MPD2     N 7889   2.038   1.006  12.962  0.2723 -0.1852  0.6594
  531MPD2    H5 7890   2.025   1.087  13.022 -0.1752  1.2609 -1.3865
  531MPD2    N1 7891   2.467   1.208  12.934  0.3884  0.2286  0.0898
  531MPD2    H7 7892   2.566   1.184  12.932  0.7873  1.7867  1.7459
  532TMC3    C1 7893   2.533   1.403  13.048  0.4942 -0.3552 -0.1694
  532TMC3    C2 7894   2.471   1.518  13.092 -1.1844 -0.2807  0.3672
  532TMC3    C3 7895   2.510   1.580  13.213  0.3774  0.3300 -0.6073
  532TMC3    C4 7896   2.622   1.349  13.135 -0.3073  0.6345 -0.2824
  532TMC3    C5 7897   2.670   1.420  13.248 -0.4987 -0.4058 -0.0965
  532TMC3    C6 7898   2.614   1.540  13.292 -0.1325 -0.3312 -0.1296
  532TMC3     C 7899   2.425   1.320  12.993 -0.3769 -0.6478 -0.3061
  532TMC3     O 7900   2.316   1.370  13.009 -0.0521  0.1476 -0.0440
  532TMC3     H 7901   2.400   1.573  13.032 -2.5131 -0.3487  1.8712
  532TMC3    H1 7902   2.675   1.266  13.090 -2.4627 -2.4155  2.8171
  532TMC3    H2 7903   2.650   1.584  13.384  0.9028  0.2237 -0.7909
  532TMC3    C7 7904   2.798   1.382  13.307  0.0079  0.4424  0.1852
  532TMC3    C8 7905   2.400   1.632  13.288 -0.4988 -0.3723  0.2492
  532TMC3    O1 7906   2.862   1.461  13.377  0.1807  0.0460 -0.0807
  532TMC3    O2 7907   2.418   1.703  13.388 -1.0776  1.1379  0.2633
  533TMC3    C1 7908   3.568   3.116  14.462 -0.9152  0.2425  0.5210
  533TMC3    C2 7909   3.684   3.181  14.505 -0.0298 -1.0445 -0.0279
  533TMC3    C3 7910   3.672   3.322  14.512  0.1115 -0.2298  0.3472
  533TMC3    C4 7911   3.439   3.172  14.458  0.5160  0.3252  0.4610
  533TMC3    C5 7912   3.429   3.304  14.498 -0.1237 -0.1813  0.3563
  533TMC3    C6 7913   3.547   3.378  14.516 -0.6435  0.5670 -0.1476
  533TMC3     C 7914   3.577   2.972  14.479 -0.3146 -0.0215 -0.3863
  533TMC3     O 7915   3.655   2.926  14.560  0.7496 -0.2960  0.2488
  533TMC3     H 7916   3.776   3.124  14.501  0.6919  0.0763  0.5348
  533TMC3    H1 7917   3.351   3.111  14.440  0.7142  0.2944 -0.4060
  533TMC3    H2 7918   3.540   3.486  14.522 -1.5023  0.5082 -0.0372
  533TMC3    C7 7919   3.347   3.311  14.613 -0.2580 -0.4193 -0.0445
  533TMC3    C8 7920   3.789   3.400  14.526  0.5485  0.3954 -0.0659
  533TMC3    O1 7921   3.248   3.242  14.612  0.2759 -0.1269 -0.0907
  533TMC3    O2 7922   3.872   3.353  14.601  0.8021 -0.5874 -0.6549
  534MPD2     C 7923   1.073   4.018   1.846  0.5925 -0.4873  0.0926
  534MPD2    C1 7924   0.952   4.103   1.843  0.1191 -0.0556 -0.4621
  534MPD2    C2 7925   0.839   4.065   1.775  0.1885  0.1023 -0.2494
  534MPD2    C3 7926   0.839   3.940   1.721 -0.1619  0.4498 -0.5771
  534MPD2    C4 7927   0.953   3.862   1.728 -0.1593 -0.1461  0.0746
  534MPD2    C5 7928   1.074   3.899   1.781  0.0643 -0.3876 -0.2540
  534MPD2     H 7929   0.753   4.130   1.775 -1.7906 -2.5431 -3.0818
  534MPD2    H1 7930   0.964   3.765   1.680 -1.1212  0.9234 -2.3273
  534MPD2    H2 7931   1.169   4.053   1.883  2.0977 -1.2576 -3.0632
  534MPD2    H3 7932   1.165   3.843   1.763  0.4472  0.9940 -2.6449
  534MPD2     N 7933   0.732   3.890   1.649 -0.3732 -0.2951 -0.2657
  534MPD2    H5 7934   0.741   3.812   1.585  1.5504  0.1395 -0.5187
  534MPD2    N1 7935   0.954   4.237   1.884  0.1516  0.1877  0.1342
  534MPD2    H7 7936   0.865   4.285   1.887 -0.6905 -1.4050  0.5884
  535TMC3    C1 7937   0.519   3.870   1.550 -0.7906 -0.1489  1.0529
  535TMC3    C2 7938   0.390   3.860   1.584  0.0941  0.4158  0.3152
  535TMC3    C3 7939   0.303   3.843   1.484 -0.2016  0.8140  0.2685
  535TMC3    C4 7940   0.566   3.854   1.420 -0.3466  0.6841 -0.8991
  535TMC3    C5 7941   0.471   3.828   1.318 -0.4510  0.0466  0.3732
  535TMC3    C6 7942   0.341   3.822   1.353  0.4781  0.1775 -1.0495
  535TMC3     C 7943   0.602   3.943   1.645 -0.0529 -0.1049  0.4245
  535TMC3     O 7944   0.556   4.035   1.707  0.3008  0.3608  0.1728
  535TMC3     H 7945   0.363   3.861   1.690  2.1901  0.5643  0.8344
  535TMC3    H1 7946   0.672   3.865   1.400 -0.5807  1.9664 -1.4357
  535TMC3    H2 7947   0.267   3.796   1.278 -1.2688  1.9127  0.0643
  535TMC3    C7 7948   0.521   3.840   1.179 -1.2190 -0.4654  0.1033
  535TMC3    C8 7949   0.173   3.801   1.516 -0.2377  0.3889 -1.0688
  535TMC3    O1 7950   0.639   3.832   1.160 -0.1759 -0.3856  0.0635
  535TMC3    O2 7951   0.111   3.740   1.428 -0.4678 -0.7726 -0.1357
  536MPD2     C 7952   4.218   2.070  16.294  0.2852 -0.0247  0.6295
  536MPD2    C1 7953   4.100   2.138  16.326  0.1286  0.0134 -0.0938
  536MPD2    C2 7954   4.036   2.213  16.231 -0.0252  0.1954 -0.0890
  536MPD2    C3 7955   4.090   2.215  16.105  0.1622 -0.6617 -0.1431
  536MPD2    C4 7956   4.200   2.143  16.070  0.6551 -0.3395 -0.7057
  536MPD2    C5 7957   4.272   2.085  16.171 -0.2308 -0.6431 -0.4851
  536MPD2     H 7958   3.941   2.261  16.251 -0.6197 -0.5469 -1.0727
  536MPD2    H1 7959   4.219   2.142  15.963  0.8281 -1.7166 -0.6625
  536MPD2    H2 7960   4.270   2.002  16.361  1.8375 -0.0608 -0.6130
  536MPD2    H3 7961   4.362   2.029  16.146  0.3460 -0.2374  0.6688
  536MPD2     N 7962   4.032   2.291  16.001  0.2829 -0.0290 -0.0136
  536MPD2    H5 7963   4.077   2.276  15.912 -0.7288  1.3101 -0.7414
  536MPD2    N1 7964   4.058   2.136  16.456  0.3846 -0.2397 -0.3369
  536MPD2    H7 7965   4.121   2.089  16.520 -1.0348  0.9230  1.9134
  537TMC3    C1 7966   3.956   2.173  16.655 -0.2810 -0.1906  0.4389
  537TMC3    C2 7967   4.032   2.268  16.715 -0.6780  0.1437 -0.2784
  537TMC3    C3 7968   4.085   2.245  16.837 -0.2024  0.5063  0.1604
  537TMC3    C4 7969   3.923   2.053  16.724  0.2959  0.4169  0.4367
  537TMC3    C5 7970   3.976   2.031  16.847 -0.3962  0.0920 -0.8256
  537TMC3    C6 7971   4.060   2.129  16.904  0.3660 -0.1369  0.3123
  537TMC3     C 7972   3.943   2.187  16.510  0.4585 -0.5411 -0.1070
  537TMC3     O 7973   3.853   2.261  16.472  0.1698  0.2731  0.2791
  537TMC3     H 7974   4.056   2.363  16.667 -0.6389 -0.3432 -1.2180
  537TMC3    H1 7975   3.872   1.976  16.666  0.6370  1.1839 -0.8932
  537TMC3    H2 7976   4.102   2.105  17.001  1.1730  1.9191  0.4581
  537TMC3    C7 7977   3.927   1.912  16.911  0.1452 -0.4385 -0.7128
  537TMC3    C8 7978   4.178   2.343  16.894  0.2121  0.3823  0.7753
  537TMC3    O1 7979   3.827   1.859  16.866 -0.1997 -0.4402 -0.1153
  537TMC3    O2 7980   4.245   2.302  16.986  0.0215 -0.4650 -0.5492
  538TMC3    C1 7981   1.266   1.391  10.868 -0.5014 -0.3781 -0.3498
  538TMC3    C2 7982   1.278   1.261  10.812 -0.4207 -0.6928 -0.5511
  538TMC3    C3 7983   1.268   1.241  10.682  0.2415  0.3399  0.8306
  538TMC3    C4 7984   1.237   1.496  10.788 -0.4162 -0.1874  0.0153
  538TMC3    C5 7985   1.220   1.475  10.657 -0.0329  0.0463  0.7086
  538TMC3    C6 7986   1.235   1.347  10.600  0.4205  0.3562  0.8349
  538TMC3     C 7987   1.255   1.407  11.008 -0.0614  0.3758 -0.5807
  538TMC3     O 7988   1.262   1.522  11.046  0.2122  0.2434  0.8259
  538TMC3     H 7989   1.305   1.182  10.883  2.1819  0.1167 -0.6419
  538TMC3    H1 7990   1.213   1.591  10.834  2.4645  0.6743 -0.3074
  538TMC3    H2 7991   1.217   1.340  10.493 -0.9051 -2.5395  1.2712
  538TMC3    C7 7992   1.134   1.563  10.578 -0.3430 -0.1909 -0.6786
  538TMC3    C8 7993   1.372   1.159  10.624  0.1055  0.5327  0.0183
  538TMC3    O1 7994   1.069   1.505  10.493  0.6451 -0.1910 -0.3881
  538TMC3    O2 7995   1.397   1.057  10.685 -0.2182 -0.0551 -0.1417
  539MPD2     C 7996   0.554   0.436  11.757 -0.6785  0.3768  0.4118
  539MPD2    C1 7997   0.603   0.445  11.629 -0.9894  0.2305  0.3949
  539MPD2    C2 7998   0.609   0.576  11.577 -0.5196 -0.8348 -0.0507
  539MPD2    C3 7999   0.565   0.685  11.644  0.0723  0.1760 -0.1426
  539MPD2    C4 8000   0.522   0.671  11.770 -0.3057  0.1556  0.0896
  539MPD2    C5 8001   0.519   0.549  11.825 -0.4155 -0.2285  0.0015
  539MPD2     H 8002   0.648   0.580  11.476 -0.3658  1.3814  0.1060
  539MPD2    H1 8003   0.484   0.757  11.825  2.2168  0.4898  1.3037
  539MPD2    H2 8004   0.538   0.345  11.814 -0.1642  0.8329  1.2688
  539MPD2    H3 8005   0.478   0.545  11.925  0.8927  2.0013  0.6303
  539MPD2     N 8006   0.569   0.817  11.588  0.4190  0.1558 -0.2115
  539MPD2    H5 8007   0.526   0.889  11.645  1.8659 -0.3137  1.4397
  539MPD2    N1 8008   0.622   0.337  11.540 -0.1317  0.5501 -0.3697
  539MPD2    H7 8009   0.651   0.368  11.448  0.8063 -1.9024 -0.9066
  540TMC3    C1 8010   0.652   0.995  11.463  0.2555 -0.3790  0.0420
  540TMC3    C2 8011   0.648   1.059  11.343  0.5448 -0.1280 -0.3126
  540TMC3    C3 8012   0.631   1.197  11.334 -0.1985  0.1970 -0.2822
  540TMC3    C4 8013   0.638   1.070  11.572  0.2844  0.6956 -0.1515
  540TMC3    C5 8014   0.631   1.209  11.566 -0.1100  0.6673  0.8237
  540TMC3    C6 8015   0.619   1.272  11.446  0.8873  0.1821 -0.6295
  540TMC3     C 8016   0.626   0.851  11.468 -0.3280  0.2933  0.1618
  540TMC3     O 8017   0.684   0.786  11.383  0.0734 -0.6298 -0.4780
  540TMC3     H 8018   0.641   0.998  11.254  0.0953  1.9965 -1.7220
  540TMC3    H1 8019   0.659   1.027  11.669  0.7688  0.3455 -0.4098
  540TMC3    H2 8020   0.611   1.378  11.425 -0.1092 -0.0161 -1.2987
  540TMC3    C7 8021   0.565   1.272  11.678  0.6304  0.7678  0.0258
  540TMC3    C8 8022   0.602   1.260  11.208  0.1613  0.4271 -0.2494
  540TMC3    O1 8023   0.522   1.193  11.763 -0.0061 -0.3588  0.5230
  540TMC3    O2 8024   0.640   1.375  11.197  0.8093  0.4435  0.6585
  541MPD2     C 8025   3.768   2.131  13.092  0.4267  0.3214  0.5376
  541MPD2    C1 8026   3.719   2.040  13.004  0.0623 -0.4436 -0.5903
  541MPD2    C2 8027   3.702   2.079  12.874 -0.1221  0.3804  0.3609
  541MPD2    C3 8028   3.748   2.210  12.835  0.8148  0.0025 -0.0124
  541MPD2    C4 8029   3.803   2.298  12.922  0.1203 -0.0876 -0.2398
  541MPD2    C5 8030   3.810   2.255  13.053 -0.0684  0.0245  0.6102
  541MPD2     H 8031   3.655   2.013  12.802  0.9445  0.4334 -0.3902
  541MPD2    H1 8032   3.835   2.397  12.893 -1.2567  1.3521  3.1586
  541MPD2    H2 8033   3.784   2.104  13.196 -1.4115 -0.1012  0.7135
  541MPD2    H3 8034   3.852   2.322  13.127  1.5295 -1.7108  1.2719
  541MPD2     N 8035   3.751   2.258  12.698  0.5322 -0.0163  0.0173
  541MPD2    H5 8036   3.772   2.355  12.678  2.8625 -0.7533 -1.1164
  541MPD2    N1 8037   3.678   1.908  13.042 -0.0876  0.9600  0.1082
  541MPD2    H7 8038   3.636   1.850  12.970 -0.3484  0.6986  0.4708
  542TMC3    C1 8039   3.734   2.257  12.473  0.6642 -0.5966 -0.3808
  542TMC3    C2 8040   3.760   2.190  12.356 -0.1044  0.2740  0.1670
  542TMC3    C3 8041   3.692   2.223  12.242 -0.1485 -0.0155 -0.2260
  542TMC3    C4 8042   3.648   2.368  12.470 -0.7135  0.9005 -0.6582
  542TMC3    C5 8043   3.587   2.393  12.355  0.8394 -0.4890  0.5825
  542TMC3    C6 8044   3.599   2.322  12.238 -0.5253 -0.3163 -0.0168
  542TMC3     C 8045   3.736   2.178  12.590  0.1556  0.0171  1.0396
  542TMC3     O 8046   3.706   2.061  12.571  0.5877  0.7536  0.0413
  542TMC3     H 8047   3.820   2.100  12.352  0.7061  0.9102 -1.8298
  542TMC3    H1 8048   3.599   2.398  12.561  2.8675  0.2132  1.4977
  542TMC3    H2 8049   3.545   2.355  12.150  0.5381  1.4445 -0.0120
  542TMC3    C7 8050   3.499   2.511  12.353 -0.5904  0.4606  0.0046
  542TMC3    C8 8051   3.741   2.158  12.120 -0.4698 -0.8339  0.0519
  542TMC3    O1 8052   3.411   2.516  12.271 -0.4206  0.4111  0.5073
  542TMC3    O2 8053   3.678   2.180  12.017  0.0785  0.0007  0.5368
  543TMC3    C1 8054   3.036   2.780  17.361 -0.3396 -0.4852 -0.2053
  543TMC3    C2 8055   3.077   2.654  17.401 -0.6297 -0.0455 -0.6782
  543TMC3    C3 8056   2.995   2.591  17.496 -1.3649  0.4620  0.5196
  543TMC3    C4 8057   2.927   2.844  17.409 -0.1560 -0.0259  0.4397
  543TMC3    C5 8058   2.863   2.783  17.510  0.9363  0.3155  0.3295
  543TMC3    C6 8059   2.891   2.658  17.555 -0.3808 -0.0440  0.2048
  543TMC3     C 8060   3.081   2.823  17.233 -0.2810  0.3553 -0.2885
  543TMC3     O 8061   3.192   2.790  17.198 -0.2903 -0.3111 -0.6639
  543TMC3     H 8062   3.161   2.613  17.347 -1.9024  0.3017 -2.9367
  543TMC3    H1 8063   2.907   2.949  17.388 -1.6880  0.1382  2.7703
  543TMC3    H2 8064   2.829   2.616  17.633  2.3958 -3.4841  0.5768
  543TMC3    C7 8065   2.735   2.843  17.551  0.0750  0.4125 -0.5767
  543TMC3    C8 8066   3.016   2.447  17.515 -0.3018  0.4622  0.1844
  543TMC3    O1 8067   2.682   2.911  17.467  0.0446  0.2396  0.4595
  543TMC3    O2 8068   3.128   2.404  17.482  0.0080 -0.5788 -0.2290
  544MPD2     C 8069   2.852   1.989   0.016  0.0225 -0.3627  0.5935
  544MPD2    C1 8070   2.981   2.024  17.665 -0.0935 -0.3625  0.1527
  544MPD2    C2 8071   3.004   2.157  17.627 -0.4103  0.5251 -0.5767
  544MPD2    C3 8072   2.904   2.251  17.622  0.0826 -0.3473 -0.1339
  544MPD2    C4 8073   2.778   2.217  17.666  0.0363  0.1999 -0.6949
  544MPD2    C5 8074   2.751   2.086   0.013 -0.5538  0.7506 -0.6741
  544MPD2     H 8075   3.094   2.193  17.580 -0.3777 -0.0111 -0.9270
  544MPD2    H1 8076   2.699   2.291  17.671 -0.2367  0.0717 -3.1729
  544MPD2    H2 8077   2.816   1.888   0.034 -0.0776 -0.2594  0.9685
  544MPD2    H3 8078   2.649   2.057   0.036 -0.1121  2.1074  2.9612
  544MPD2     N 8079   2.914   2.386  17.583 -0.2519  0.6581 -0.0227
  544MPD2    H5 8080   2.835   2.444  17.612 -0.1923 -0.1380  1.7045
  544MPD2    N1 8081   3.090   1.929  17.667  0.3557 -0.4073 -0.2260
  544MPD2    H7 8082   3.174   1.972  17.628  0.9660 -1.1994  0.2297
  545TMC3    C1 8083   3.193   1.720   0.012 -0.2373 -0.8332  0.5848
  545TMC3    C2 8084   3.277   1.744  17.604  0.9651  0.4464  0.4770
  545TMC3    C3 8085   3.382   1.655  17.577  0.1982  0.0410  0.0374
  545TMC3    C4 8086   3.203   1.603   0.082 -1.6949 -0.5113  0.1952
  545TMC3    C5 8087   3.302   1.515   0.057 -0.1880 -0.2069 -0.2167
  545TMC3    C6 8088   3.405   1.543  17.658 -0.2445 -0.3661 -0.7580
  545TMC3     C 8089   3.086   1.811   0.038  0.0861  0.8053 -0.0030
  545TMC3     O 8090   3.001   1.763   0.113 -0.0191 -0.1780 -0.5589
  545TMC3     H 8091   3.252   1.814  17.524 -1.2670 -1.3131 -0.3534
  545TMC3    H1 8092   3.127   1.585   0.158 -0.8317  0.7674  1.3635
  545TMC3    H2 8093   3.474   1.467  17.623 -0.0738 -1.1964  1.3976
  545TMC3    C7 8094   3.281   1.381   0.105  0.4605  0.2699  0.2932
  545TMC3    C8 8095   3.455   1.656  17.452 -0.6215 -0.1989 -0.2734
  545TMC3    O1 8096   3.170   1.358   0.152  0.2253 -0.3461 -0.5039
  545TMC3    O2 8097   3.487   1.547  17.403  0.0917 -0.1784 -0.3152
  546MPD2     C 8098   4.650   2.760  17.547 -0.0430  0.0157  0.5833
  546MPD2    C1 8099   4.598   2.839  17.442  0.2551 -0.0596 -0.3481
  546MPD2    C2 8100   4.681   2.941  17.399 -0.0038  0.9876 -0.3249
  546MPD2    C3 8101   0.094   2.941  17.446 -0.4110 -0.0312  0.5585
  546MPD2    C4 8102   0.127   2.876  17.559 -0.0020  0.1919 -0.0842
  546MPD2    C5 8103   0.048   2.781  17.617  0.7146  0.3552  0.3556
  546MPD2     H 8104   4.643   3.009  17.323 -0.2385  2.3541  1.0209
  546MPD2    H1 8105   0.228   2.882  17.597  0.2736  0.3886 -0.8621
  546MPD2    H2 8106   4.594   2.674  17.583  0.0329 -0.5485 -0.6492
  546MPD2    H3 8107   0.088   2.707  17.685 -0.4083 -0.2956  0.3084
  546MPD2     N 8108   0.196   3.028  17.397 -0.3882  0.5374 -0.0870
  546MPD2    H5 8109   0.287   3.024  17.442 -0.8202 -1.5045  0.6167
  546MPD2    N1 8110   4.465   2.803  17.392  0.3223  0.3768  0.2122
  546MPD2    H7 8111   4.418   2.728  17.442  1.8677 -1.1514 -0.6222
  547TMC3    C1 8112   4.276   2.800  17.254  0.5671 -0.2240 -0.1478
  547TMC3    C2 8113   4.222   2.864  17.151 -0.6757 -0.1164  0.9839
  547TMC3    C3 8114   4.114   2.796  17.094 -0.5922 -0.4173  0.2473
  547TMC3    C4 8115   4.252   2.667  17.286 -0.3999 -0.2626  0.7936
  547TMC3    C5 8116   4.140   2.610  17.231  0.2636  0.1030  0.6045
  547TMC3    C6 8117   4.074   2.670  17.130  0.9429 -0.2599  0.4475
  547TMC3     C 8118   4.391   2.871  17.299  0.1173  0.5605 -0.6184
  547TMC3     O 8119   4.406   2.978  17.243  0.4781 -0.4004 -0.0714
  547TMC3     H 8120   4.211   2.971  17.155  1.3669  0.1303 -0.2393
  547TMC3    H1 8121   4.320   2.614  17.352  0.5222  2.0730  1.7210
  547TMC3    H2 8122   3.977   2.636  17.096  1.6066 -1.9477  0.2167
  547TMC3    C7 8123   4.115   2.477  17.278 -0.1943 -0.1187 -0.6119
  547TMC3    C8 8124   4.027   2.875  17.007  0.4331 -0.9578 -0.6564
  547TMC3    O1 8125   4.170   2.453  17.382 -0.0121 -0.0667  0.6519
  547TMC3    O2 8126   3.910   2.840  16.992  0.1236 -0.6640 -0.4316
  548MPD2     C 8127   4.187   4.032  12.280 -0.1870  0.6497  0.4671
  548MPD2    C1 8128   4.277   3.971  12.366  0.6771 -0.2256 -1.1221
  548MPD2    C2 8129   4.374   3.892  12.317  0.3262 -0.0403  0.9459
  548MPD2    C3 8130   4.381   3.871  12.185 -0.5029  0.0798  0.3638
  548MPD2    C4 8131   4.291   3.929  12.098  1.3184  0.6436 -0.0448
  548MPD2    C5 8132   4.189   4.013  12.145  1.1125 -0.3658  0.0320
  548MPD2     H 8133   4.439   3.829  12.377 -0.4803 -0.7299  1.1059
  548MPD2    H1 8134   4.296   3.918  11.990  2.0411 -0.3142  0.0858
  548MPD2    H2 8135   4.101   4.078  12.328 -0.3324  1.8111 -0.9139
  548MPD2    H3 8136   4.102   4.045  12.089  0.3889 -2.4284 -0.0094
  548MPD2     N 8137   4.476   3.776  12.140  0.2952 -0.1155  0.0579
  548MPD2    H5 8138   4.540   3.742  12.211 -0.6673 -1.3168  0.3618
  548MPD2    N1 8139   4.258   3.981  12.503  0.2578 -0.0879 -0.3201
  548MPD2    H7 8140   4.183   4.046  12.524  3.2929  2.4750  2.6189
  549TMC3    C1 8141   4.237   3.929  12.723  0.1847 -0.2997 -0.3859
  549TMC3    C2 8142   4.173   4.057  12.731 -0.5275 -0.1954  0.0155
  549TMC3    C3 8143   4.061   4.065  12.804 -0.0140  0.4803 -0.6341
  549TMC3    C4 8144   4.180   3.815  12.769  0.3861  0.0277 -0.2289
  549TMC3    C5 8145   4.055   3.828  12.828 -0.5177 -0.1362  0.0448
  549TMC3    C6 8146   3.996   3.947  12.855 -0.0506  1.0938  0.3760
  549TMC3     C 8147   4.314   3.908  12.605 -0.1852 -0.5099  0.6157
  549TMC3     O 8148   4.382   3.807  12.606  0.2860 -0.0383 -0.2591
  549TMC3     H 8149   4.221   4.150  12.701  3.4933 -3.1372 -2.6400
  549TMC3    H1 8150   4.233   3.721  12.757  1.9507  1.0066 -0.9446
  549TMC3    H2 8151   3.902   3.948  12.910 -1.2513  1.2055 -1.6498
  549TMC3    C7 8152   3.958   3.724  12.806 -0.5263 -0.5685 -0.7641
  549TMC3    C8 8153   3.965   4.169  12.766  0.6437  0.4720 -0.5706
  549TMC3    O1 8154   3.848   3.765  12.782  0.5346  0.2208 -0.6611
  549TMC3    O2 8155   3.968   4.214  12.654  0.5271  0.3164  0.1370
  550TMC3    C1 8156   2.654   1.087  12.385 -0.4322  0.1703  0.5952
  550TMC3    C2 8157   2.644   1.209  12.446 -0.0661 -0.7125  0.5656
  550TMC3    C3 8158   2.534   1.286  12.419  0.1741 -0.6741 -0.5590
  550TMC3    C4 8159   2.564   1.046  12.293  0.2276  0.2887 -0.2794
  550TMC3    C5 8160   2.457   1.124  12.266  0.5766  0.0213  0.0546
  550TMC3    C6 8161   2.440   1.246  12.330 -0.3759  0.1023 -0.2519
  550TMC3     C 8162   2.778   1.022  12.396  0.5097 -0.8937 -0.3428
  550TMC3     O 8163   2.836   1.051  12.505  0.7272  0.5083 -0.2952
  550TMC3     H 8164   2.721   1.243  12.515 -1.8688  1.8372  1.3317
  550TMC3    H1 8165   2.579   0.953  12.240  0.0124 -0.1052  0.3598
  550TMC3    H2 8166   2.353   1.303  12.300 -0.7850 -0.3450  0.0853
  550TMC3    C7 8167   2.347   1.075  12.192  0.1340 -0.6420 -0.0150
  550TMC3    C8 8168   2.537   1.426  12.461 -0.2016  0.4861 -0.5262
  550TMC3    O1 8169   2.237   1.121  12.228  0.3942 -0.0402  0.3220
  550TMC3    O2 8170   2.643   1.486  12.486 -0.8519 -0.0965 -0.1791
  551TMC3    C1 8171   0.561   4.249  13.242 -0.2823 -0.3165  0.5357
  551TMC3    C2 8172   0.689   4.218  13.208  0.0840 -0.2430 -0.1694
  551TMC3    C3 8173   0.784   4.268  13.287  1.2142  0.1625 -0.1832
  551TMC3    C4 8174   0.525   4.322  13.353 -0.7722  0.1282  0.1580
  551TMC3    C5 8175   0.630   4.354  13.438 -1.1179  0.0258 -0.2582
  551TMC3    C6 8176   0.760   4.333  13.405 -0.6167 -0.4739  0.0528
  551TMC3     C 8177   0.479   4.260  13.131 -0.7566 -0.3685 -0.0694
  551TMC3     O 8178   0.463   4.162  13.058  0.2304 -0.1779 -0.0119
  551TMC3     H 8179   0.710   4.173  13.112 -1.3465  0.6215 -0.8932
  551TMC3    H1 8180   0.424   4.358  13.369 -0.2148  0.7189  2.2897
  551TMC3    H2 8181   0.842   4.380  13.458 -0.4929 -0.3789 -0.2212
  551TMC3    C7 8182   0.606   4.377  13.585  0.0297  0.2942 -0.3371
  551TMC3    C8 8183   0.923   4.242  13.238 -0.2480  0.4031 -0.3046
  551TMC3    O1 8184   0.713   4.380  13.638 -0.4447  0.0731  0.7237
  551TMC3    O2 8185   0.949   4.136  13.181  0.3255  0.2004  0.4650
  552MPD2     C 8186   2.695   1.606  13.735 -0.3523  0.5858  0.3145
  552MPD2    C1 8187   2.679   1.494  13.811  0.1885 -0.1442  0.1879
  552MPD2    C2 8188   2.755   1.483  13.927 -0.2676 -0.1082  0.7653
  552MPD2    C3 8189   2.835   1.591  13.967  0.0061  0.5992 -0.5876
  552MPD2    C4 8190   2.847   1.714  13.897  0.3200  0.1807  0.1065
  552MPD2    C5 8191   2.763   1.719  13.786  0.4179  0.1941  0.2539
  552MPD2     H 8192   2.761   1.390  13.983  0.6182 -0.6448 -0.2130
  552MPD2    H1 8193   2.916   1.793  13.924  0.3527  0.4265 -0.6882
  552MPD2    H2 8194   2.639   1.612  13.642 -0.9593  1.1830  0.7118
  552MPD2    H3 8195   2.761   1.809  13.725  1.7524  0.7516  1.0214
  552MPD2     N 8196   2.914   1.585  14.087  0.2432 -0.1004  0.1563
  552MPD2    H5 8197   2.967   1.668  14.110  2.2682 -1.1207 -0.8066
  552MPD2    N1 8198   2.582   1.397  13.784 -0.1654 -0.1523  0.1587
  552MPD2    H7 8199   2.561   1.320  13.847 -0.3835  0.0262  0.3052
  553TMC3    C1 8200   2.404   1.285  13.692  0.3449  0.0459 -0.6186
  553TMC3    C2 8201   2.360   1.213  13.581  0.5391 -0.3243 -0.5489
  553TMC3    C3 8202   2.294   1.088  13.600  0.7998  0.0194  0.3688
  553TMC3    C4 8203   2.382   1.236  13.816 -0.5034  0.0560 -0.1643
  553TMC3    C5 8204   2.325   1.108  13.828 -0.1796 -0.4102  0.0753
  553TMC3    C6 8205   2.282   1.030  13.724  0.4840  0.2128 -0.2610
  553TMC3     C 8206   2.509   1.389  13.672  0.5007 -0.4012  0.4414
  553TMC3     O 8207   2.512   1.455  13.564  0.0764 -0.1104 -0.1861
  553TMC3     H 8208   2.389   1.244  13.482  2.0143  0.5720  0.1714
  553TMC3    H1 8209   2.402   1.298  13.903 -0.0777 -0.2550 -0.0389
  553TMC3    H2 8210   2.263   0.924  13.736 -1.9097  0.6193 -0.4245
  553TMC3    C7 8211   2.350   1.040  13.951  0.2403  0.4007 -0.2219
  553TMC3    C8 8212   2.324   0.981  13.502  0.1481  0.0194 -0.1293
  553TMC3    O1 8213   2.257   1.015  14.022 -0.1002  0.4768 -0.1085
  553TMC3    O2 8214   2.434   0.986  13.448  0.5466 -0.2461  0.4468
  554TMC3    C1 8215   4.534   0.842  11.250  0.0634  0.0536 -0.0261
  554TMC3    C2 8216   4.515   0.766  11.133  0.1058 -0.9004  0.4617
  554TMC3    C3 8217   4.610   0.791  11.035  0.5898 -0.0465 -0.0194
  554TMC3    C4 8218   4.633   0.935  11.263 -0.0202 -0.3020  0.0880
  554TMC3    C5 8219   0.006   0.941  11.171  0.2475  0.6351 -0.5950
  554TMC3    C6 8220   0.003   0.870  11.051 -0.3296  0.0666  0.7356
  554TMC3     C 8221   4.449   0.808  11.361 -0.0586 -0.1214  0.3680
  554TMC3     O 8222   4.342   0.750  11.335 -0.1415  0.1554  0.0431
  554TMC3     H 8223   4.430   0.699  11.125 -2.0422  2.2366 -2.7444
  554TMC3    H1 8224   4.631   1.001  11.349 -1.5218  2.3027 -1.9509
  554TMC3    H2 8225   0.079   0.868  10.974  0.0346 -1.3058  1.1172
  554TMC3    C7 8226   0.075   1.066  11.150 -0.6416  1.0002  0.3464
  554TMC3    C8 8227   4.586   0.754  10.896  0.0908  0.0525  0.1298
  554TMC3    O1 8228   0.183   1.056  11.096  0.0299  0.5960  0.5848
  554TMC3    O2 8229   4.644   0.818  10.809 -0.1186  0.1684  0.1724
  555TMC3    C1 8230   3.567   4.642  15.197  0.2802 -0.3897 -0.4021
  555TMC3    C2 8231   3.605   0.006  15.293  0.6458  0.4490  0.3845
  555TMC3    C3 8232   3.668   4.688  15.411 -0.4814  0.3250  0.5228
  555TMC3    C4 8233   3.577   4.506  15.216 -0.2942 -0.1877  0.0689
  555TMC3    C5 8234   3.634   4.472  15.335  0.0515  0.1844  0.0094
  555TMC3    C6 8235   3.685   4.548  15.430  0.4505  0.4499 -0.0029
  555TMC3     C 8236   3.540   4.706  15.070 -0.2623 -0.0476  0.0936
  555TMC3     O 8237   3.603   0.087  15.055  0.2384  0.0165  0.2225
  555TMC3     H 8238   3.614   0.112  15.270  1.0750  0.5321  0.9637
  555TMC3    H1 8239   3.521   4.437  15.154  0.1813  0.2459 -0.8472
  555TMC3    H2 8240   3.735   4.505  15.516  0.7485 -1.3102 -1.0652
  555TMC3    C7 8241   3.636   4.330  15.364 -0.2204 -0.7350 -0.2065
  555TMC3    C8 8242   3.746   0.062  15.474 -0.3005  0.7335 -0.1807
  555TMC3    O1 8243   3.566   4.290  15.452  0.0962  0.2156  0.0491
  555TMC3    O2 8244   3.790   0.156  15.410 -0.1046  0.1218 -0.2137
  556MPD2     C 8245   2.113   2.229  10.597 -0.6077  0.0017 -0.3416
  556MPD2    C1 8246   2.101   2.110  10.666  0.2729  0.4927 -0.5542
  556MPD2    C2 8247   2.121   1.986  10.608  0.9947 -0.4565 -0.3197
  556MPD2    C3 8248   2.138   1.984  10.472  0.1715 -0.7695 -0.4402
  556MPD2    C4 8249   2.148   2.100  10.408 -1.0083 -0.1102  0.0715
  556MPD2    C5 8250   2.139   2.222  10.461 -0.9700 -0.2648 -0.8732
  556MPD2     H 8251   2.128   1.892  10.662  2.4160 -0.5060 -0.5715
  556MPD2    H1 8252   2.171   2.102  10.302 -0.8891 -0.3720  0.0931
  556MPD2    H2 8253   2.103   2.322  10.653  0.5814  0.1379 -0.3540
  556MPD2    H3 8254   2.146   2.304  10.391 -1.5485  0.1922 -0.3898
  556MPD2     N 8255   2.141   1.855  10.410 -0.3988 -0.5323 -0.5109
  556MPD2    H5 8256   2.122   1.782  10.478 -0.3768  0.5265  0.6227
  556MPD2    N1 8257   2.070   2.101  10.807 -0.1083  0.1043  0.0088
  556MPD2    H7 8258   2.075   2.014  10.859  2.4841  0.4613  0.3887
  557TMC3    C1 8259   2.128   1.690  10.244 -0.5556  0.7643 -0.0816
  557TMC3    C2 8260   2.189   1.640  10.128 -0.2174 -0.7564 -0.2642
  557TMC3    C3 8261   2.134   1.525  10.076  1.2049 -0.4191 -0.1095
  557TMC3    C4 8262   2.022   1.633  10.305  0.0156  0.3999  0.8575
  557TMC3    C5 8263   1.970   1.522  10.245  0.9399 -0.4363  0.1998
  557TMC3    C6 8264   2.023   1.469  10.132 -0.1060 -0.7511 -0.2060
  557TMC3     C 8265   2.162   1.827  10.279 -0.6844 -0.1670  0.6014
  557TMC3     O 8266   2.214   1.891  10.190 -0.0534  0.3948  0.6835
  557TMC3     H 8267   2.281   1.683  10.092  0.9962 -2.9912  0.1994
  557TMC3    H1 8268   1.976   1.667  10.397 -0.2790 -1.4201  1.3874
  557TMC3    H2 8269   1.963   1.408  10.065  0.7614  0.2854 -1.9116
  557TMC3    C7 8270   1.861   1.459  10.310  0.4723 -0.6272 -0.5810
  557TMC3    C8 8271   2.185   1.482   9.947  0.0688  0.4052 -0.4693
  557TMC3    O1 8272   1.781   1.525  10.377  0.3849  0.2871  0.3078
  557TMC3    O2 8273   2.246   1.571   9.893 -0.1807  0.1699  0.0747
  558TMC3    C1 8274   4.318   4.532  10.189 -0.2877  0.1140  0.8222
  558TMC3    C2 8275   4.236   4.428  10.229  0.5676  0.3554 -0.3921
  558TMC3    C3 8276   4.121   4.400  10.154  0.6297  0.6792  0.0286
  558TMC3    C4 8277   4.291   4.606  10.079  0.7326  0.2840 -1.0645
  558TMC3    C5 8278   4.166   4.591  10.018 -0.5571 -0.5130 -0.0306
  558TMC3    C6 8279   4.084   4.481  10.054  0.6938 -0.1577  0.1575
  558TMC3     C 8280   4.449   4.538  10.252 -0.0633  0.0672  0.8491
  558TMC3     O 8281   4.497   4.653  10.242  0.1751 -0.6792 -0.3219
  558TMC3     H 8282   4.256   4.370  10.319 -0.7594 -0.5367 -0.6748
  558TMC3    H1 8283   4.353   4.690  10.049 -2.2979  1.3617 -4.3749
  558TMC3    H2 8284   3.998   4.447   9.997 -0.1464  0.5595  0.9961
  558TMC3    C7 8285   4.152   4.652   9.888 -0.2342 -0.1449  0.1617
  558TMC3    C8 8286   4.060   4.264  10.162 -0.1929 -0.6307  0.7072
  558TMC3    O1 8287   4.224   0.026   9.869 -0.1676  0.3965 -0.3127
  558TMC3    O2 8288   3.960   4.234  10.099  0.3424  0.8480 -0.7119
  559MPD2     C 8289   4.081   0.143  10.242 -0.0897 -0.4195 -0.5425
  559MPD2    C1 8290   4.053   0.050  10.335  0.0700 -0.2555  0.3338
  559MPD2    C2 8291   4.144   0.010  10.428  0.0184  0.7039 -0.0768
  559MPD2    C3 8292   4.265   0.074  10.441 -0.2439 -0.7886 -0.1768
  559MPD2    C4 8293   4.300   0.169  10.347 -0.0318  0.0391  0.0555
  559MPD2    C5 8294   4.202   0.208  10.251  0.5954  0.0459 -0.6587
  559MPD2     H 8295   4.112   4.656  10.498 -1.1053  1.1373 -0.1290
  559MPD2    H1 8296   4.392   0.227  10.349 -0.1624  0.3100 -1.4702
  559MPD2    H2 8297   4.005   0.158  10.166 -1.4415  1.1881  1.1153
  559MPD2    H3 8298   4.216   0.295  10.187 -1.4503  0.9021  0.0606
  559MPD2     N 8299   4.352   0.027  10.539  0.0866 -0.5475  0.5197
  559MPD2    H5 8300   4.313   4.682  10.604 -3.5229  1.5940  0.6093
  559MPD2    N1 8301   3.916   0.008  10.331 -0.2931  0.5960 -0.0375
  559MPD2    H7 8302   3.854   0.058  10.268 -2.6364 -0.1325  1.7044
  560TMC3    C1 8303   4.546   0.020  10.687 -0.1691 -0.8351 -0.8950
  560TMC3    C2 8304   4.528   4.606  10.693 -0.3951 -0.6276  0.5301
  560TMC3    C3 8305   4.593   4.542  10.793 -0.0552  0.3326  0.4767
  560TMC3    C4 8306   4.636   0.084  10.761  0.0308 -0.3205 -0.6919
  560TMC3    C5 8307   4.699   0.016  10.861 -0.6298 -0.2849  0.6974
  560TMC3    C6 8308   4.668   4.602  10.889  0.1400  0.2586 -0.4599
  560TMC3     C 8309   4.474   0.084  10.574 -0.1942 -0.1937 -0.3120
  560TMC3     O 8310   4.524   0.188  10.531  0.7058 -0.4696 -0.6655
  560TMC3     H 8311   4.457   4.556  10.628 -0.7649 -1.1064  1.3097
  560TMC3    H1 8312   4.659   0.185  10.729  0.5580 -0.1573  0.2137
  560TMC3    H2 8313   4.703   4.542  10.972 -0.5289  1.1963  0.5103
  560TMC3    C7 8314   0.059   0.075  10.966 -0.5570  1.1650  0.2526
  560TMC3    C8 8315   4.590   4.398  10.778 -0.9370  0.4513 -0.2678
  560TMC3    O1 8316   0.070   0.006  11.066 -0.1648 -0.4269  0.1309
  560TMC3    O2 8317   4.492   4.350  10.719 -0.3016  0.0901  0.1993
  561TMC3    C1 8318   1.994   3.836  11.190  0.1257 -0.7923 -0.2018
  561TMC3    C2 8319   1.976   3.768  11.305 -0.7727  0.4118 -1.0642
  561TMC3    C3 8320   1.916   3.841  11.407 -0.8013  0.1859 -0.3981
  561TMC3    C4 8321   1.974   3.973  11.175 -0.6318  0.3884 -0.2283
  561TMC3    C5 8322   1.930   4.041  11.287 -0.7982 -0.1638 -0.1566
  561TMC3    C6 8323   1.898   3.978  11.402 -0.4419  0.5384 -0.0166
  561TMC3     C 8324   2.026   3.754  11.083 -0.6501 -0.3121  0.1931
  561TMC3     O 8325   1.975   3.646  11.092  0.0267  0.0654 -0.4175
  561TMC3     H 8326   1.993   3.661  11.316 -0.3158  0.5398 -0.4573
  561TMC3    H1 8327   1.976   4.018  11.076 -1.9848  1.2593  0.1430
  561TMC3    H2 8328   1.864   4.035  11.488  0.0247  0.0350  0.5037
  561TMC3    C7 8329   1.941   4.183  11.292 -0.2607 -0.0895  0.2849
  561TMC3    C8 8330   1.898   3.763  11.527 -0.2143 -0.2023  0.4246
  561TMC3    O1 8331   1.871   4.241  11.370  1.1705  0.6449  0.4704
  561TMC3    O2 8332   1.947   3.649  11.529 -0.0073  0.0622  0.2253
  562TMC3    C1 8333   3.129   0.388  16.023  0.9283 -0.2710  0.1222
  562TMC3    C2 8334   3.008   0.435  15.974  0.4493 -0.0813 -1.1249
  562TMC3    C3 8335   2.965   0.400  15.844 -0.1817  0.3675  0.5061
  562TMC3    C4 8336   3.207   0.312  15.938  0.3545 -0.4744  0.3766
  562TMC3    C5 8337   3.159   0.272  15.816  0.0782 -0.6815 -0.1942
  562TMC3    C6 8338   3.040   0.317  15.767  0.1174  0.0794 -0.3998
  562TMC3     C 8339   3.204   0.475  16.117  0.4388 -0.2449  0.7877
  562TMC3     O 8340   3.138   0.520  16.211  0.4573 -0.5924 -0.9043
  562TMC3     H 8341   2.948   0.509  16.026  0.7853 -0.9334  0.4815
  562TMC3    H1 8342   3.303   0.269  15.963  1.1459  0.9520 -0.1835
  562TMC3    H2 8343   2.995   0.258  15.689 -2.8929  0.1145  1.3156
  562TMC3    C7 8344   3.194   0.136  15.770  0.3821 -0.2905 -0.6895
  562TMC3    C8 8345   2.843   0.459  15.780 -0.3535 -0.6165 -0.3344
  562TMC3    O1 8346   3.208   0.116  15.651  0.1217 -0.0252 -0.8333
  562TMC3    O2 8347   2.762   0.515  15.854  0.3358  0.9067 -1.0121
  563MPD2     C 8348   0.932   1.785  15.648  0.4647  0.3815 -0.0617
  563MPD2    C1 8349   0.946   1.805  15.786 -0.5313  0.0905  0.0491
  563MPD2    C2 8350   1.059   1.747  15.842 -0.5094 -0.6393  1.0080
  563MPD2    C3 8351   1.148   1.671  15.767 -0.4390  0.4624  0.0664
  563MPD2    C4 8352   1.131   1.659  15.629  0.4622  0.3396 -0.1758
  563MPD2    C5 8353   1.022   1.710  15.575  0.6224 -0.7102  0.0308
  563MPD2     H 8354   1.076   1.753  15.949  2.7643  0.0380  0.4581
  563MPD2    H1 8355   1.193   1.594  15.568  1.2015  0.9361 -0.0630
  563MPD2    H2 8356   0.844   1.819  15.595 -1.2547  0.9001  3.1589
  563MPD2    H3 8357   1.011   1.703  15.468  1.8978  0.7118 -0.1918
  563MPD2     N 8358   1.233   1.599  15.852  1.3777  0.2099  0.0436
  563MPD2    H5 8359   1.210   1.620  15.949  1.6228  0.4676  0.0451
  563MPD2    N1 8360   0.846   1.868  15.863  0.8487  0.7419 -0.0414
  563MPD2    H7 8361   0.757   1.892  15.822  0.5894  0.1235  0.1561
  564TMC3    C1 8362   0.760   1.895  16.078  0.5610  0.4353  0.6134
  564TMC3    C2 8363   0.685   1.785  16.044  1.1957 -0.0958 -0.1072
  564TMC3    C3 8364   0.667   1.683  16.132 -0.0856  0.2557  0.2102
  564TMC3    C4 8365   0.812   1.906  16.204  0.2786  0.3291  0.0674
  564TMC3    C5 8366   0.802   1.798  16.286 -0.4707 -0.2257 -0.0129
  564TMC3    C6 8367   0.730   1.686  16.255  0.6643  0.3220 -0.3498
  564TMC3     C 8368   0.868   1.910  15.988  0.4044  0.0018 -0.2682
  564TMC3     O 8369   0.977   1.942  16.028  0.8804  0.4415  0.2678
  564TMC3     H 8370   0.642   1.778  15.945  0.7442 -1.2694  0.1774
  564TMC3    H1 8371   0.864   1.997  16.229 -0.4457  1.0387 -1.0176
  564TMC3    H2 8372   0.723   1.602  16.323  1.2034  0.0049 -0.6829
  564TMC3    C7 8373   0.907   1.784  16.384 -0.9468  0.0700  0.7138
  564TMC3    C8 8374   0.659   1.540  16.077 -0.3411  0.9449  0.0989
  564TMC3    O1 8375   0.964   1.889  16.412  0.1121 -0.3469 -0.3258
  564TMC3    O2 8376   0.638   1.457  16.165 -0.0471 -0.3294  0.2959
  565TMC3    C1 8377   1.644   3.069  10.417 -0.4333 -0.3746 -0.3257
  565TMC3    C2 8378   1.681   3.051  10.552  0.0140 -0.5356  0.3555
  565TMC3    C3 8379   1.695   2.923  10.593  0.2615 -0.3963 -0.4568
  565TMC3    C4 8380   1.625   2.968  10.330 -0.1865  0.6823  0.7336
  565TMC3    C5 8381   1.626   2.841  10.386  0.2422 -0.1271  0.7446
  565TMC3    C6 8382   1.672   2.813  10.515  0.5461  0.4861  0.2228
  565TMC3     C 8383   1.672   3.191  10.353 -0.4922  0.0704 -0.3299
  565TMC3     O 8384   1.667   3.190  10.230 -0.0158 -0.7172  0.6344
  565TMC3     H 8385   1.704   3.128  10.625  4.3798  0.2107 -1.8028
  565TMC3    H1 8386   1.596   2.985  10.227  4.9310  1.3427 -0.5887
  565TMC3    H2 8387   1.650   2.718  10.563  0.0036 -1.2038 -3.3980
  565TMC3    C7 8388   1.578   2.721  10.316 -0.4407  0.2329  0.0944
  565TMC3    C8 8389   1.670   2.897  10.732  1.4380  0.6422  0.5718
  565TMC3    O1 8390   1.606   2.614  10.369 -0.0170  0.0773 -0.5713
  565TMC3    O2 8391   1.614   2.986  10.793  0.2813  0.4862 -0.2045
  566MPD2     C 8392   3.044   3.862  14.330  0.4063 -0.7251  0.0459
  566MPD2    C1 8393   3.038   3.976  14.258  0.4929  0.2129  0.1413
  566MPD2    C2 8394   2.940   4.002  14.163  0.0588  0.8049 -0.4113
  566MPD2    C3 8395   2.848   3.907  14.137  0.4631  0.5085  0.7217
  566MPD2    C4 8396   2.857   3.785  14.206 -0.2584  0.2637  0.5836
  566MPD2    C5 8397   2.955   3.766  14.303  0.0811  0.6178 -0.1933
  566MPD2     H 8398   2.929   4.093  14.104  3.7733 -1.0405 -3.9813
  566MPD2    H1 8399   2.785   3.704  14.192  1.3147 -0.4176 -3.3802
  566MPD2    H2 8400   3.126   3.852  14.401 -0.2482 -0.7026  0.8070
  566MPD2    H3 8401   2.963   3.668  14.350  3.2649  0.0500 -1.9386
  566MPD2     N 8402   2.749   3.916  14.037 -0.5280  0.4201 -0.0647
  566MPD2    H5 8403   2.699   3.830  14.016 -0.0185 -0.1440  1.0539
  566MPD2    N1 8404   3.137   4.074  14.288 -0.1921  0.1486 -0.0740
  566MPD2    H7 8405   3.201   4.062  14.365 -0.3603 -1.1254 -0.1351
  567TMC3    C1 8406   3.243   4.281  14.293 -0.1127 -0.3158 -0.9376
  567TMC3    C2 8407   3.273   4.400  14.233 -0.3992 -0.6279 -0.2334
  567TMC3    C3 8408   3.335   4.502  14.300  0.1752 -0.6882 -0.1926
  567TMC3    C4 8409   3.288   4.256  14.420 -0.0417  0.5332 -0.0329
  567TMC3    C5 8410   3.356   4.359  14.479  0.7963  0.0537 -0.1412
  567TMC3    C6 8411   3.380   4.482  14.430 -0.0947  0.3499 -0.6665
  567TMC3     C 8412   3.146   4.198  14.229 -0.8981 -0.1621  0.0291
  567TMC3     O 8413   3.113   4.229  14.117 -0.7650 -0.6921  0.0507
  567TMC3     H 8414   3.240   4.418  14.131 -2.0722  0.4369  0.4992
  567TMC3    H1 8415   3.287   4.155  14.460  0.2574  1.2329  1.7554
  567TMC3    H2 8416   3.420   4.561  14.492 -0.6670  1.5400 -1.8066
  567TMC3    C7 8417   3.425   4.337  14.602  0.2622 -0.2932  0.0224
  567TMC3    C8 8418   3.288   4.634  14.265 -0.1519 -0.2289 -0.3683
  567TMC3    O1 8419   3.529   4.401  14.620  0.2773 -0.1378 -0.1236
  567TMC3    O2 8420   3.213   4.644  14.174 -0.3947  0.1283 -0.1431
  568MPD2     C 8421   1.065   0.382  16.756  0.5696 -0.0806 -0.1773
  568MPD2    C1 8422   0.930   0.393  16.771 -0.2846  0.1297 -0.3919
  568MPD2    C2 8423   0.861   0.480  16.686  0.0740 -0.1071 -0.3187
  568MPD2    C3 8424   0.929   0.562  16.599  0.5289  1.1383 -0.1929
  568MPD2    C4 8425   1.065   0.559  16.595  0.1844 -0.4289  0.0416
  568MPD2    C5 8426   1.133   0.468  16.675 -0.3860  0.1161  0.0439
  568MPD2     H 8427   0.754   0.494  16.692  0.3700  1.8649  0.3626
  568MPD2    H1 8428   1.125   0.637  16.549  0.2700 -0.6558 -0.2249
  568MPD2    H2 8429   1.117   0.317  16.824  0.3455  0.5338  0.5840
  568MPD2    H3 8430   1.241   0.475  16.684 -0.1802 -2.4790 -0.4310
  568MPD2     N 8431   0.868   0.635  16.497  0.3129 -1.1953 -0.4874
  568MPD2    H5 8432   0.767   0.638  16.498  0.3080 -1.6077  0.2336
  568MPD2    N1 8433   0.868   0.305  16.861  0.5858 -0.0522 -0.0395
  568MPD2    H7 8434   0.930   0.239  16.907  0.0757 -0.1913  0.4361
  569TMC3    C1 8435   0.837   0.769  16.311 -0.2651  0.0018 -1.0018
  569TMC3    C2 8436   0.723   0.828  16.362 -0.3552  0.4674 -0.6126
  569TMC3    C3 8437   0.643   0.899  16.279 -0.4065 -0.0841  0.0172
  569TMC3    C4 8438   0.865   0.785  16.174 -0.2148  0.1559 -0.0139
  569TMC3    C5 8439   0.772   0.848  16.089  0.4052 -0.6132 -0.0295
  569TMC3    C6 8440   0.659   0.899  16.145  0.2009 -0.3946  0.2352
  569TMC3     C 8441   0.926   0.682  16.381 -0.1289  0.3463 -0.3032
  569TMC3     O 8442   1.032   0.653  16.322  0.0532  0.1152  0.4282
  569TMC3     H 8443   0.707   0.822  16.469 -0.5235 -2.6886 -0.8227
  569TMC3    H1 8444   0.963   0.750  16.142 -0.0793  1.5577 -1.1211
  569TMC3    H2 8445   0.580   0.949  16.089  0.6910 -0.6254 -0.6673
  569TMC3    C7 8446   0.824   0.926  15.985 -0.1739 -0.1438  0.8528
  569TMC3    C8 8447   0.587   1.021  16.334  0.1836  0.5353  0.8000
  569TMC3    O1 8448   0.916   0.882  15.920  0.0474 -0.4877  0.1135
  569TMC3    O2 8449   0.486   1.069  16.277  0.5131 -0.2277  0.4096
  570TMC3    C1 8450   0.107   3.979  16.294 -0.3370  0.6922  0.5027
  570TMC3    C2 8451   0.217   3.989  16.212  0.2066  0.2554  0.4196
  570TMC3    C3 8452   0.245   4.111  16.167  0.2021  0.2952  0.1709
  570TMC3    C4 8453   0.051   4.086  16.350 -0.1534 -0.1095  0.7765
  570TMC3    C5 8454   0.082   4.208  16.301 -0.1129  0.1442  0.4428
  570TMC3    C6 8455   0.182   4.224  16.207  0.4272 -0.1683  0.8989
  570TMC3     C 8456   0.072   3.852  16.343  0.7751  0.2614 -0.3044
  570TMC3     O 8457   0.099   3.761  16.263 -0.4479  0.1775 -0.2159
  570TMC3     H 8458   0.279   3.905  16.183  1.0317  1.1715 -0.4410
  570TMC3    H1 8459   4.682   4.078  16.408  0.0124 -1.1034  0.9069
  570TMC3    H2 8460   0.214   4.315  16.157  1.1591 -0.4430  0.8674
  570TMC3    C7 8461   4.716   4.312  16.320 -0.5955  0.5205  0.0416
  570TMC3    C8 8462   0.355   4.135  16.076 -0.8388 -0.4505  0.3741
  570TMC3    O1 8463   4.662   4.319  16.432  0.3699  0.2766 -0.4623
  570TMC3    O2 8464   0.397   4.251  16.066 -0.4384  0.5568 -0.1507
  571MPD2     C 8465   2.482   4.381  17.489  0.2987 -0.4979 -0.2055
  571MPD2    C1 8466   2.347   4.405  17.510 -0.5724  0.3099  0.1519
  571MPD2    C2 8467   2.311   4.539  17.506 -0.4244  0.3087  0.2963
  571MPD2    C3 8468   2.404   4.640  17.520  0.0832  0.0302  1.2098
  571MPD2    C4 8469   2.542   4.612  17.500 -0.2337  0.1998  0.3828
  571MPD2    C5 8470   2.574   4.482  17.477 -0.7208 -0.2653  1.1071
  571MPD2     H 8471   2.207   4.571  17.500  0.3591  2.2554 -2.9822
  571MPD2    H1 8472   2.622   4.685  17.510 -1.3362  1.3626  0.7857
  571MPD2    H2 8473   2.515   4.281  17.465 -1.0650 -1.5858  2.4267
  571MPD2    H3 8474   2.673   4.450  17.446 -1.9247 -0.9300 -2.0460
  571MPD2     N 8475   2.377   0.052  17.559  0.3457  0.4107 -0.4539
  571MPD2    H5 8476   2.458   0.112  17.567  1.0881 -0.4792 -1.2886
  571MPD2    N1 8477   2.251   4.299  17.531  0.5451 -0.1202  0.2746
  571MPD2    H7 8478   2.293   4.207  17.540 -0.2988 -0.4694  0.6580
  572TMC3    C1 8479   2.246   0.238  17.654  0.2047  0.3447  0.0696
  572TMC3    C2 8480   2.123   0.267   0.001 -0.2763 -0.6783  0.2486
  572TMC3    C3 8481   2.095   0.401   0.015 -0.1299  0.4368 -0.3723
  572TMC3    C4 8482   2.342   0.327  17.617  0.1102 -0.0504  0.0183
  572TMC3    C5 8483   2.316   0.461  17.623 -0.1756  0.1038  0.2349
  572TMC3    C6 8484   2.191   0.492  17.683 -1.1171 -0.2440 -0.5801
  572TMC3     C 8485   2.255   0.094  17.606 -0.0231  0.2111 -0.0460
  572TMC3     O 8486   2.148   0.033  17.603  0.1926 -0.0378 -0.3270
  572TMC3     H 8487   2.039   0.198   0.004 -0.7637 -0.0548  1.2028
  572TMC3    H1 8488   2.429   0.293  17.564 -0.0249 -1.1012  0.4770
  572TMC3    H2 8489   2.155   0.594  17.676 -0.8167 -0.2799 -2.6201
  572TMC3    C7 8490   2.406   0.573  17.585 -0.4241  0.2788 -0.8903
  572TMC3    C8 8491   1.953   0.432  17.685 -0.3792 -0.1523  0.1743
  572TMC3    O1 8492   2.359   0.686  17.595 -0.3196  0.4353 -0.0245
  572TMC3    O2 8493   1.885   0.348  17.627  0.1232 -0.1340  0.9526
  573MPD2     C 8494   4.338   1.059   0.924  0.0225 -0.3527  0.4446
  573MPD2    C1 8495   4.264   1.133   0.841  0.5268  0.9372 -0.8024
  573MPD2    C2 8496   4.213   1.076   0.723  0.2045 -0.2624 -0.1099
  573MPD2    C3 8497   4.223   0.939   0.697  0.0287 -0.1295 -0.2401
  573MPD2    C4 8498   4.303   0.869   0.787  0.1810 -0.0231 -0.0106
  573MPD2    C5 8499   4.362   0.931   0.896  0.2934 -0.2839  0.3662
  573MPD2     H 8500   4.174   1.142   0.647  0.4382  2.0466  1.7650
  573MPD2    H1 8501   4.330   0.769   0.754 -1.1120 -0.4068  0.1137
  573MPD2    H2 8502   4.373   1.085   1.023 -2.2382 -1.2890  1.4879
  573MPD2    H3 8503   4.428   0.872   0.958  1.1726  0.2699 -0.0495
  573MPD2     N 8504   4.168   0.873   0.592  0.2214 -0.2319  0.3950
  573MPD2    H5 8505   4.193   0.776   0.577  2.2116  0.3986 -0.3837
  573MPD2    N1 8506   4.234   1.269   0.876 -0.1553  0.2339  0.1416
  573MPD2    H7 8507   4.289   1.306   0.953 -0.2885  0.5556  0.0823
  574TMC3    C1 8508   4.028   0.832   0.409 -0.0531 -0.0009  0.5044
  574TMC3    C2 8509   3.900   0.851   0.369  0.9794  0.1328 -0.2648
  574TMC3    C3 8510   3.844   0.774   0.271  0.2373 -0.9686  0.0222
  574TMC3    C4 8511   4.104   0.733   0.355  0.1569  0.2991  0.1006
  574TMC3    C5 8512   4.040   0.657   0.255  1.2214  0.1561  0.5547
  574TMC3    C6 8513   3.909   0.671   0.211  0.2187 -0.0288  0.3130
  574TMC3     C 8514   4.081   0.928   0.499  0.6695 -0.8943  0.0384
  574TMC3     O 8515   4.028   1.038   0.495  0.6800 -0.8296  0.6564
  574TMC3     H 8516   3.841   0.925   0.422 -1.1995 -2.5009  0.9408
  574TMC3    H1 8517   4.208   0.721   0.383  0.2239 -0.1459 -0.3493
  574TMC3    H2 8518   3.867   0.622   0.125  0.0968 -1.3868  1.1530
  574TMC3    C7 8519   4.117   0.554   0.192  0.5128  0.8840  0.3558
  574TMC3    C8 8520   3.708   0.786   0.238 -0.0716 -0.0446 -0.2138
  574TMC3    O1 8521   4.241   0.562   0.184  0.8331  0.5201 -0.2161
  574TMC3    O2 8522   3.632   0.689   0.232 -0.6622  0.1023 -0.4387
  575TMC3    C1 8523   1.331   3.136  11.472 -0.0932 -0.3247 -1.0232
  575TMC3    C2 8524   1.300   3.044  11.570 -0.3529 -0.4388  0.7758
  575TMC3    C3 8525   1.355   2.915  11.558  0.2125  0.4907 -0.0070
  575TMC3    C4 8526   1.419   3.106  11.366  0.7909  0.5937  0.1226
  575TMC3    C5 8527   1.479   2.985  11.368  0.0526  0.2506  0.9050
  575TMC3    C6 8528   1.440   2.888  11.459 -0.1662  0.1094  0.3068
  575TMC3     C 8529   1.269   3.269  11.476 -0.5387  0.5866  0.0413
  575TMC3     O 8530   1.244   3.327  11.370  0.7056 -0.0198  0.2376
  575TMC3     H 8531   1.214   3.052  11.634 -1.6386  1.2703 -1.1611
  575TMC3    H1 8532   1.438   3.181  11.290 -0.8957 -0.5547 -1.4106
  575TMC3    H2 8533   1.467   2.785  11.440 -2.0316  0.2238 -2.9264
  575TMC3    C7 8534   1.545   2.950  11.243 -0.2275  0.5841  0.3882
  575TMC3    C8 8535   1.345   2.830  11.673  0.1452  0.2596 -0.5513
  575TMC3    O1 8536   1.500   3.008  11.145 -0.1957  0.1673  0.4441
  575TMC3    O2 8537   1.249   2.859  11.745 -1.2320 -0.5190 -0.8068
  576MPD2     C 8538   1.133   4.187  12.706  0.7880 -0.4825 -0.5134
  576MPD2    C1 8539   1.148   4.281  12.603 -0.7072  0.7833  0.3139
  576MPD2    C2 8540   1.132   4.414  12.632 -0.3703 -1.0226  0.0902
  576MPD2    C3 8541   1.103   4.459  12.762 -0.1029  0.3462  0.3520
  576MPD2    C4 8542   1.086   4.366  12.864 -0.0592 -0.5450  0.0553
  576MPD2    C5 8543   1.106   4.237  12.832  0.1808  0.3738  0.2323
  576MPD2     H 8544   1.150   4.480  12.547 -0.2185 -1.3178 -0.1068
  576MPD2    H1 8545   1.073   4.387  12.970  1.9319  0.6640  0.0417
  576MPD2    H2 8546   1.166   4.084  12.696 -1.3897 -0.8384 -3.9493
  576MPD2    H3 8547   1.108   4.160  12.908 -1.7546 -1.8870 -2.0182
  576MPD2     N 8548   1.079   4.596  12.776 -0.0810  0.8793 -0.0269
  576MPD2    H5 8549   1.101   4.658  12.699 -1.0050 -0.6718 -1.5592
  576MPD2    N1 8550   1.192   4.260  12.471 -0.0014 -0.0796  0.2193
  576MPD2    H7 8551   1.215   4.342  12.416 -1.5724 -0.3973 -0.9260
  577TMC3    C1 8552   1.278   4.134  12.289  0.7020 -0.5185 -0.2334
  577TMC3    C2 8553   1.358   4.022  12.263 -0.1235 -0.1661  0.5050
  577TMC3    C3 8554   1.423   4.017  12.143 -0.1943 -0.2889 -0.5196
  577TMC3    C4 8555   1.252   4.229  12.196  0.6105 -0.3523 -0.0769
  577TMC3    C5 8556   1.316   4.219  12.074 -0.1509 -0.0636 -0.3294
  577TMC3    C6 8557   1.409   4.118  12.053  0.3664  0.2970  0.3248
  577TMC3     C 8558   1.214   4.136  12.420 -0.0963 -0.4550  0.0865
  577TMC3     O 8559   1.179   4.028  12.468  0.3204  0.1143  0.2479
  577TMC3     H 8560   1.372   3.946  12.338 -2.4053  0.0049  1.1077
  577TMC3    H1 8561   1.198   4.321  12.215 -0.9770 -1.2316 -0.3647
  577TMC3    H2 8562   1.479   4.135  11.972  1.5141 -2.6397  0.6923
  577TMC3    C7 8563   1.350   4.344  12.012 -0.0606  0.2470 -0.1955
  577TMC3    C8 8564   1.517   3.913  12.119 -0.4197  0.1294 -0.4924
  577TMC3    O1 8565   1.460   4.386  12.031  0.1466 -0.6326  0.0602
  577TMC3    O2 8566   1.527   3.831  12.211 -0.2883  0.1841 -0.0771
  578MPD2     C 8567   3.771   3.445   0.960 -0.2120  0.3594  0.1798
  578MPD2    C1 8568   3.902   3.435   0.933  0.5618 -0.3042  0.4713
  578MPD2    C2 8569   3.994   3.413   1.038 -0.0327 -0.3590 -0.0151
  578MPD2    C3 8570   3.944   3.393   1.167  0.2726 -0.8020  0.0833
  578MPD2    C4 8571   3.808   3.401   1.191  0.2301 -0.2525  0.3477
  578MPD2    C5 8572   3.725   3.428   1.087 -0.1554  0.0685  0.1884
  578MPD2     H 8573   4.100   3.417   1.018 -0.0088  0.5570  0.2882
  578MPD2    H1 8574   3.767   3.384   1.290 -0.1830 -0.8453  0.0750
  578MPD2    H2 8575   3.692   3.477   0.894  0.1220 -0.5603 -0.6683
  578MPD2    H3 8576   3.617   3.432   1.097 -0.1006 -0.3742  0.9342
  578MPD2     N 8577   4.047   3.378   1.268  0.0409 -0.7702 -0.2213
  578MPD2    H5 8578   4.136   3.359   1.223  0.2871  0.5162 -0.2653
  578MPD2    N1 8579   3.950   3.484   0.813  0.1881 -0.1015  0.1305
  578MPD2    H7 8580   3.878   3.512   0.746  0.1569  0.0551  0.2296
  579TMC3    C1 8581   4.154   3.387   1.474 -0.5201  0.6677 -0.1188
  579TMC3    C2 8582   4.167   3.487   1.574 -0.2456 -0.0707  0.3588
  579TMC3    C3 8583   4.288   3.493   1.628  0.7031 -0.3275  0.5507
  579TMC3    C4 8584   4.262   3.310   1.434 -0.0339 -0.3996 -1.3571
  579TMC3    C5 8585   4.377   3.329   1.508  0.9279 -0.2312  0.3611
  579TMC3    C6 8586   4.397   3.413   1.612 -0.0675 -0.0834 -0.1423
  579TMC3     C 8587   4.031   3.396   1.405 -0.3900 -0.2556 -0.2770
  579TMC3     O 8588   3.932   3.436   1.466 -0.1866  0.3204  0.3289
  579TMC3     H 8589   4.095   3.568   1.575 -1.4329 -1.1064 -1.3042
  579TMC3    H1 8590   4.249   3.229   1.364 -0.1738 -0.6287 -1.0659
  579TMC3    H2 8591   4.493   3.432   1.660 -0.1592 -0.3007  0.1230
  579TMC3    C7 8592   4.496   3.260   1.460 -0.9082  0.5405 -0.0343
  579TMC3    C8 8593   4.316   3.624   1.683  0.5081 -0.3171 -0.7434
  579TMC3    O1 8594   4.587   3.243   1.534  0.2560  0.0294 -0.3721
  579TMC3    O2 8595   4.226   3.694   1.729  0.1348 -0.1427  0.1192
  580TMC3    C1 8596   3.623   3.229  11.851  0.0672  0.2392 -0.0698
  580TMC3    C2 8597   3.621   3.182  11.720  0.9140 -0.4297 -0.7618
  580TMC3    C3 8598   3.707   3.082  11.685 -0.3782  0.4425  0.3119
  580TMC3    C4 8599   3.683   3.149  11.946  0.4007  0.1628 -0.4052
  580TMC3    C5 8600   3.751   3.039  11.908 -0.7333 -0.1595  0.1991
  580TMC3    C6 8601   3.776   3.010  11.776 -0.4939 -0.3616  0.4062
  580TMC3     C 8602   3.659   3.378  11.851  0.3415 -0.1096  0.3424
  580TMC3     O 8603   3.603   3.448  11.765 -0.4028  0.4208 -0.0583
  580TMC3     H 8604   3.579   3.240  11.638  1.8034 -0.0231 -0.9341
  580TMC3    H1 8605   3.670   3.182  12.049 -1.2825 -0.3239 -0.4583
  580TMC3    H2 8606   3.846   2.936  11.741 -2.7737 -1.5426 -1.6613
  580TMC3    C7 8607   3.815   2.957  12.011 -0.1832 -1.1643 -0.2452
  580TMC3    C8 8608   3.796   3.118  11.576 -0.1950  0.1080 -0.1151
  580TMC3    O1 8609   3.820   3.004  12.125  0.1214  0.4682  0.0159
  580TMC3    O2 8610   3.755   3.094  11.459  0.3576 -0.6267 -0.2253
  581MPD2     C 8611   2.183   2.677  14.732  0.3278 -0.3840  0.3636
  581MPD2    C1 8612   2.066   2.674  14.808  0.8465  0.5480  0.3877
  581MPD2    C2 8613   1.956   2.739  14.754  0.7732  0.2909  0.6486
  581MPD2    C3 8614   1.950   2.802  14.628 -0.3630 -0.2769  0.1080
  581MPD2    C4 8615   2.068   2.813  14.564 -0.4701  0.3734  1.2278
  581MPD2    C5 8616   2.175   2.746  14.610  1.1607 -0.1097  0.5706
  581MPD2     H 8617   1.865   2.740  14.813  0.0598  1.0930 -0.4766
  581MPD2    H1 8618   2.080   2.859  14.467  0.0072 -1.3229  0.4739
  581MPD2    H2 8619   2.271   2.621  14.761  0.4396  0.3935  1.4956
  581MPD2    H3 8620   2.271   2.748  14.558  0.6368  0.1924 -0.3834
  581MPD2     N 8621   1.833   2.871  14.588  0.2928 -0.3891  0.2446
  581MPD2    H5 8622   1.764   2.861  14.662  0.5508 -3.5314  0.0648
  581MPD2    N1 8623   2.084   2.597  14.925  0.6915  0.1683 -0.6376
  581MPD2    H7 8624   2.182   2.587  14.948  0.3948  1.6723  1.3044
  582TMC3    C1 8625   2.021   2.486  15.124  0.2617  0.5587 -0.0735
  582TMC3    C2 8626   2.137   2.520  15.182 -0.8750  0.0146 -0.3633
  582TMC3    C3 8627   2.165   2.462  15.297  0.0653  0.1706  0.3502
  582TMC3    C4 8628   1.935   2.400  15.184  0.4062  0.7530  0.3535
  582TMC3    C5 8629   1.969   2.334  15.296  0.2225 -0.5370  0.0800
  582TMC3    C6 8630   2.090   2.366  15.358  0.2420 -0.1092 -0.7164
  582TMC3     C 8631   1.984   2.561  15.009  0.5693  0.2674 -0.3339
  582TMC3     O 8632   1.864   2.567  14.991  0.7152 -0.0707  0.6252
  582TMC3     H 8633   2.188   2.610  15.149  0.8376 -0.3874  1.2008
  582TMC3    H1 8634   1.836   2.380  15.144  1.0500  1.2654 -1.4945
  582TMC3    H2 8635   2.117   2.339  15.459 -1.8705 -0.3475 -0.2078
  582TMC3    C7 8636   1.862   2.291  15.384  1.3656  0.0111  0.3796
  582TMC3    C8 8637   2.225   2.554  15.389  0.2025 -0.2049  0.5382
  582TMC3    O1 8638   1.852   2.171  15.417 -0.2045 -0.2321  0.1319
  582TMC3    O2 8639   2.160   2.654  15.415  0.4241  0.2116 -0.5380
  583MPD2     C 8640   1.735   4.169  16.849 -0.0073 -0.3149 -0.1978
  583MPD2    C1 8641   1.703   4.298  16.792  0.0804  0.2792  0.0129
  583MPD2    C2 8642   1.622   4.391  16.860 -0.4229 -0.5897  0.0072
  583MPD2    C3 8643   1.565   4.343  16.985  0.5897  0.3593  1.1090
  583MPD2    C4 8644   1.590   4.223  17.040 -0.0469  0.1480 -0.0786
  583MPD2    C5 8645   1.676   4.136  16.975 -0.7842  0.5988  0.1408
  583MPD2     H 8646   1.608   4.488  16.815  2.5291  0.6964  1.8124
  583MPD2    H1 8647   1.549   4.195  17.136 -1.0482  0.1181 -0.5183
  583MPD2    H2 8648   1.813   4.103  16.812 -0.2641 -0.9404  0.3724
  583MPD2    H3 8649   1.684   4.039  17.022  0.9398  1.2077  1.1053
  583MPD2     N 8650   1.464   4.429  17.045 -0.2709 -0.7826 -0.3128
  583MPD2    H5 8651   1.427   4.502  16.986  0.6419 -0.4418 -0.4525
  583MPD2    N1 8652   1.757   4.333  16.667 -0.8379  0.9706  0.0848
  583MPD2    H7 8653   1.730   4.426  16.635 -0.9766  1.1365  0.6757
  584TMC3    C1 8654   1.312   4.523  17.180 -0.2186 -0.6720  0.8033
  584TMC3    C2 8655   1.313   4.619  17.075  0.1158  0.1836 -0.0345
  584TMC3    C3 8656   1.307   0.026  17.126  1.0247 -0.4726 -0.0289
  584TMC3    C4 8657   1.292   4.547  17.308 -1.1203  0.2696 -0.0767
  584TMC3    C5 8658   1.262   4.676  17.345 -0.5632  0.1082 -0.5890
  584TMC3    C6 8659   1.267   0.057  17.254  0.2454  0.5085  0.5603
  584TMC3     C 8660   1.406   4.413  17.161 -0.0377 -1.1780  0.0539
  584TMC3     O 8661   1.434   4.341  17.258  0.0974  0.9903 -0.1742
  584TMC3     H 8662   1.321   4.612  16.967  0.6226  0.2189 -0.0016
  584TMC3    H1 8663   1.289   4.469  17.383  0.4022 -0.8686 -1.2130
  584TMC3    H2 8664   1.252   0.161  17.281 -0.5340  0.7318 -0.7931
  584TMC3    C7 8665   1.262   4.715  17.481 -1.1157 -0.3436  0.7108
  584TMC3    C8 8666   1.334   0.126  17.022 -0.3013 -0.3161 -0.0148
  584TMC3    O1 8667   1.307   4.628  17.558 -0.2433 -0.2972  0.0885
  584TMC3    O2 8668   1.338   0.087  16.909 -0.1467 -0.0690  0.3817
  585MPD2     C 8669   0.773   3.350   0.560  0.2813 -0.1692  0.2398
  585MPD2    C1 8670   0.879   3.410   0.493  0.2938  0.7331  0.2003
  585MPD2    C2 8671   0.932   3.360   0.375 -0.4440  0.1032  0.3601
  585MPD2    C3 8672   0.885   3.243   0.318  0.2679  0.2142  0.7130
  585MPD2    C4 8673   0.790   3.176   0.392 -0.7458 -0.3708  0.1266
  585MPD2    C5 8674   0.734   3.229   0.503  0.4067  0.0807 -0.0345
  585MPD2     H 8675   1.015   3.415   0.332  1.3498 -1.4783  1.7941
  585MPD2    H1 8676   0.760   3.075   0.366  0.2543 -1.1785  2.1091
  585MPD2    H2 8677   0.721   3.393   0.644 -0.8607  3.2898 -2.2386
  585MPD2    H3 8678   0.654   3.171   0.547 -0.1282  0.8423 -0.0012
  585MPD2     N 8679   0.937   3.189   0.199 -0.1183 -0.7656 -0.4817
  585MPD2    H5 8680   0.894   3.102   0.169 -2.5298  0.2908 -0.0187
  585MPD2    N1 8681   0.920   3.533   0.553 -0.1320 -0.5297 -0.1821
  585MPD2    H7 8682   0.861   3.576   0.624 -0.7847 -0.4432 -0.7805
  586TMC3    C1 8683   1.054   3.161   0.001  0.4609 -0.2073  0.5634
  586TMC3    C2 8684   1.176   3.163  17.618  0.3408 -0.0732 -0.3175
  586TMC3    C3 8685   1.175   3.085  17.506 -0.1174 -0.2705  0.0470
  586TMC3    C4 8686   0.935   3.102  17.632  0.0761  0.0779 -0.0680
  586TMC3    C5 8687   0.954   3.025  17.525  0.3103 -0.0651  0.6475
  586TMC3    C6 8688   1.070   3.022  17.453 -0.6930  0.0218  0.3207
  586TMC3     C 8689   1.037   3.245   0.120 -0.0179 -0.0119  0.1311
  586TMC3     O 8690   1.101   3.348   0.137 -0.6497  0.0093  0.1541
  586TMC3     H 8691   1.266   3.213  17.652  0.5234 -0.0444 -0.8319
  586TMC3    H1 8692   0.843   3.107  17.689 -0.1133 -0.1633 -0.3572
  586TMC3    H2 8693   1.079   2.952  17.371  2.2460  2.3590 -1.3602
  586TMC3    C7 8694   0.826   2.984  17.464 -0.0883  1.3192 -0.0378
  586TMC3    C8 8695   1.301   3.048  17.465  0.0096 -0.7681 -0.0587
  586TMC3    O1 8696   0.728   2.984  17.536  0.1388  0.3446  0.3318
  586TMC3    O2 8697   1.307   3.012  17.349 -0.1480  0.6343  0.5158
  587TMC3    C1 8698   3.500   1.988  16.468 -0.6528  0.5137 -0.2350
  587TMC3    C2 8699   3.491   2.124  16.446 -0.3454 -0.7078  0.3726
  587TMC3    C3 8700   3.569   2.172  16.345 -0.8456 -0.0797  0.7626
  587TMC3    C4 8701   3.596   1.908  16.413 -0.3480  0.3730  0.4768
  587TMC3    C5 8702   3.682   1.972  16.329  0.1475  0.7560  0.0652
  587TMC3    C6 8703   3.666   2.100  16.287 -0.1868 -0.4591  0.9255
  587TMC3     C 8704   3.417   1.928  16.571  0.4656  0.1156 -0.7004
  587TMC3     O 8705   3.460   1.832  16.635  0.3578 -0.3408 -0.4898
  587TMC3     H 8706   3.429   2.194  16.502  1.9749  0.1927  1.8130
  587TMC3    H1 8707   3.603   1.802  16.432 -2.2087  0.1011 -0.2529
  587TMC3    H2 8708   3.733   2.142  16.213  0.1769 -0.6042  1.1725
  587TMC3    C7 8709   3.785   1.890  16.269 -1.1041 -0.6756 -0.1252
  587TMC3    C8 8710   3.549   2.303  16.292  0.3137  0.2890  0.4603
  587TMC3    O1 8711   3.814   1.908  16.151  0.3324  0.2926  0.2387
  587TMC3    O2 8712   3.644   2.360  16.242 -0.2463  0.1300  0.1239
  588TMC3    C1 8713   1.159   0.407  10.099  0.3777 -0.3310  0.0786
  588TMC3    C2 8714   1.131   0.275  10.118  0.1464  0.4894  0.2600
  588TMC3    C3 8715   1.219   0.199  10.188  0.5161 -0.0182 -0.1319
  588TMC3    C4 8716   1.267   0.468  10.156 -1.0453  0.6735  0.3447
  588TMC3    C5 8717   1.349   0.391  10.234  0.4021 -0.4883 -0.4417
  588TMC3    C6 8718   1.335   0.256  10.249  0.2349  0.5723 -0.2026
  588TMC3     C 8719   1.104   0.480   9.981 -0.6867 -0.6451 -0.5429
  588TMC3     O 8720   0.998   0.441   9.936 -0.5632  0.3622  0.2297
  588TMC3     H 8721   1.043   0.230  10.073  1.0890  0.7560 -1.8142
  588TMC3    H1 8722   1.267   0.576  10.170  0.2149  0.7558 -0.3109
  588TMC3    H2 8723   1.405   0.197  10.308 -0.0663  0.6519  0.2348
  588TMC3    C7 8724   1.476   0.434  10.254  0.6028  0.3136 -0.3051
  588TMC3    C8 8725   1.168   0.077  10.244 -0.1416  0.0898 -0.5637
  588TMC3    O1 8726   1.561   0.346  10.242 -0.3498  0.0550  0.3191
  588TMC3    O2 8727   1.049   0.073  10.260 -0.1011 -0.2706 -0.5577
  589TMC3    C1 8728   0.630   2.352   1.702 -0.3107  0.4151  0.1166
  589TMC3    C2 8729   0.670   2.414   1.591 -0.2388  0.6265  0.2029
  589TMC3    C3 8730   0.788   2.374   1.534 -0.4768 -0.5408  0.1909
  589TMC3    C4 8731   0.693   2.239   1.750 -0.3765  0.2207  0.1066
  589TMC3    C5 8732   0.789   2.187   1.667 -0.1383 -0.3331  0.0436
  589TMC3    C6 8733   0.848   2.252   1.564  0.2683 -0.0042  0.4319
  589TMC3     C 8734   0.524   2.408   1.779  0.1864 -0.8000  0.3450
  589TMC3     O 8735   0.471   2.501   1.724 -0.2303 -0.1394 -0.3009
  589TMC3     H 8736   0.612   2.503   1.569 -0.9343 -0.1344 -1.0318
  589TMC3    H1 8737   0.662   2.182   1.837 -3.6773  0.3448 -0.9740
  589TMC3    H2 8738   0.912   2.197   1.497  1.4611  0.4495  1.1920
  589TMC3    C7 8739   0.850   2.068   1.719 -0.4014  0.1652 -0.6918
  589TMC3    C8 8740   0.831   2.446   1.407  0.9695 -0.7373 -0.1627
  589TMC3    O1 8741   0.776   1.978   1.763  0.3640 -0.0635 -0.0617
  589TMC3    O2 8742   0.741   2.486   1.333 -0.7237  0.0655 -0.2752
  590MPD2     C 8743   4.253   0.382  16.516  0.5549 -0.6477  0.3168
  590MPD2    C1 8744   4.186   0.474  16.442  0.2511 -0.1541 -0.0354
  590MPD2    C2 8745   4.256   0.565  16.364  0.0026 -0.0021  0.0876
  590MPD2    C3 8746   4.392   0.578  16.371  0.0386  0.9423 -0.2567
  590MPD2    C4 8747   4.459   0.482  16.449 -0.1439 -0.2165  0.1015
  590MPD2    C5 8748   4.385   0.385  16.515  0.5456 -0.2538  0.0877
  590MPD2     H 8749   4.200   0.635  16.303  1.2369  0.8567 -0.0700
  590MPD2    H1 8750   4.566   0.487  16.467 -0.1162  1.5958 -0.5371
  590MPD2    H2 8751   4.199   0.303  16.568 -0.6112  0.3615  0.6499
  590MPD2    H3 8752   4.433   0.322  16.589  0.4155 -1.2441 -0.6783
  590MPD2     N 8753   4.451   0.696  16.303 -0.6934  0.2556 -0.2187
  590MPD2    H5 8754   4.389   0.771  16.274  0.5883  0.7089 -1.7833
  590MPD2    N1 8755   4.045   0.462  16.444  0.4291  0.3931 -0.2697
  590MPD2    H7 8756   4.000   0.405  16.514 -1.6263 -2.0505 -3.5661
  591TMC3    C1 8757   4.613   0.848  16.239 -0.1854 -0.7105  0.6128
  591TMC3    C2 8758   0.030   0.872  16.231 -0.0792 -0.2391  0.3648
  591TMC3    C3 8759   0.060   0.969  16.137 -0.0743 -0.9196  0.0965
  591TMC3    C4 8760   4.525   0.901  16.147  0.4533 -0.7434 -0.4465
  591TMC3    C5 8761   4.567   1.000  16.060  0.3072  0.4979 -0.3968
  591TMC3    C6 8762   4.696   1.038  16.056 -0.4494  0.7242 -0.0552
  591TMC3     C 8763   4.588   0.718  16.295  0.1814  0.1831  0.2666
  591TMC3     O 8764   4.685   0.648  16.323  0.0453  0.1405 -0.0252
  591TMC3     H 8765   0.099   0.829  16.303  0.7908 -1.6115 -1.2970
  591TMC3    H1 8766   4.418   0.882  16.146  0.2661  0.3877 -2.1641
  591TMC3    H2 8767   0.010   1.106  15.980 -0.9517 -0.1921 -1.1135
  591TMC3    C7 8768   4.455   1.065  15.987 -0.6394 -0.2090 -0.4958
  591TMC3    C8 8769   0.194   0.959  16.099 -0.3177  0.2408  0.0005
  591TMC3    O1 8770   4.359   0.992  15.959 -0.0430  0.0019 -0.4884
  591TMC3    O2 8771   0.228   0.844  16.109 -0.1060  0.0484 -0.4381
  592MPD2     C 8772   0.058   3.141  11.109  0.7112  0.8643 -0.5250
  592MPD2    C1 8773   0.082   3.110  11.239 -0.0577 -0.0215 -0.8754
  592MPD2    C2 8774   0.028   3.000  11.298  0.3905  0.1982  0.4003
  592MPD2    C3 8775   4.664   2.923  11.223 -0.1015  0.5995  0.0370
  592MPD2    C4 8776   4.655   2.944  11.088 -0.9819  0.2110 -0.0993
  592MPD2    C5 8777   4.709   3.056  11.028 -0.0480 -0.4096  0.4446
  592MPD2     H 8778   0.060   2.984  11.400  2.2116 -1.5434 -0.4374
  592MPD2    H1 8779   4.598   2.876  11.027 -0.6795  1.3444 -1.6394
  592MPD2    H2 8780   0.101   3.230  11.065  1.2397  0.7014 -0.3317
  592MPD2    H3 8781   4.683   3.074  10.924  0.0103 -1.4242  0.2529
  592MPD2     N 8782   4.591   2.823  11.294  0.1977  0.3629 -0.7189
  592MPD2    H5 8783   4.602   2.825  11.395  0.4227  3.4085 -0.7905
  592MPD2    N1 8784   0.153   3.208  11.311  0.5189 -0.3953  0.0179
  592MPD2    H7 8785   0.190   3.282  11.252  1.0341  1.4022  2.5828
  593TMC3    C1 8786   0.213   3.333  11.504 -0.1259 -0.3741 -0.6316
  593TMC3    C2 8787   0.180   3.392  11.621 -0.3291 -0.3260 -0.1243
  593TMC3    C3 8788   0.232   3.511  11.652 -0.4065 -0.4581 -0.7934
  593TMC3    C4 8789   0.318   3.388  11.432  0.4922 -0.3280  0.1531
  593TMC3    C5 8790   0.376   3.498  11.471 -0.6621 -0.1415 -0.9086
  593TMC3    C6 8791   0.341   3.562  11.584  0.2625 -1.0454  0.4642
  593TMC3     C 8792   0.145   3.224  11.450 -0.5600  0.0174  0.7262
  593TMC3     O 8793   0.092   3.154  11.534 -0.0294  0.0287  0.1346
  593TMC3     H 8794   0.114   3.335  11.686 -2.5504 -0.4638 -2.4686
  593TMC3    H1 8795   0.348   3.338  11.340  0.1383  1.5840 -1.0061
  593TMC3    H2 8796   0.398   3.646  11.623 -0.8142 -0.8386  1.6134
  593TMC3    C7 8797   0.506   3.543  11.419 -0.5013  0.3499  0.7201
  593TMC3    C8 8798   0.173   3.595  11.755 -0.1940 -0.0988 -0.7084
  593TMC3    O1 8799   0.562   3.635  11.476 -0.0360  0.2631  0.1228
  593TMC3    O2 8800   0.051   3.605  11.750 -0.0886  0.3394 -0.1558
  594MPD2     C 8801   3.470   1.666  13.899  0.0729 -0.6721 -0.0871
  594MPD2    C1 8802   3.495   1.645  14.035  0.1832  0.6573 -0.5033
  594MPD2    C2 8803   3.609   1.705  14.087  0.2962 -0.6506  0.3524
  594MPD2    C3 8804   3.691   1.782  14.010  0.5686 -0.5224 -0.6308
  594MPD2    C4 8805   3.655   1.809  13.876 -0.1156 -0.4207  0.2213
  594MPD2    C5 8806   3.548   1.745  13.825  0.2965 -0.1354  0.4323
  594MPD2     H 8807   3.631   1.700  14.193 -1.0106  2.9805  0.7889
  594MPD2    H1 8808   3.708   1.878  13.811  0.1891 -1.6857 -0.8703
  594MPD2    H2 8809   3.376   1.634  13.853  0.0947 -1.3872  0.3703
  594MPD2    H3 8810   3.511   1.762  13.724 -0.9706  0.6015  1.0149
  594MPD2     N 8811   3.799   1.845  14.079  0.2215  0.3853 -0.0946
  594MPD2    H5 8812   3.803   1.819  14.177 -0.6978 -0.5592 -0.3023
  594MPD2    N1 8813   3.398   1.559  14.096  0.0769  0.1978 -0.3432
  594MPD2    H7 8814   3.321   1.524  14.039  0.5810 -0.5267 -0.5801
  595TMC3    C1 8815   4.077   2.195  14.169  0.9252 -0.1171  0.4320
  595TMC3    C2 8816   4.051   2.094  14.079 -0.2135 -0.1142 -0.3936
  595TMC3    C3 8817   3.976   1.986  14.131 -0.0185  0.3247 -0.7227
  595TMC3    C4 8818   4.021   2.197  14.292  0.1353  0.3602 -0.4417
  595TMC3    C5 8819   3.968   2.086  14.339  0.5125 -0.1035 -0.9066
  595TMC3    C6 8820   3.945   1.976  14.263  0.2436  0.0702  0.2725
  595TMC3     C 8821   4.201   2.266  14.164  0.6230  0.3892  0.6413
  595TMC3     O 8822   4.242   2.324  14.261 -0.3686 -0.7553 -0.3266
  595TMC3     H 8823   4.086   2.089  13.976 -1.0270  0.4456 -0.6975
  595TMC3    H1 8824   4.034   2.283  14.356  1.7834  0.9619 -1.5600
  595TMC3    H2 8825   3.881   1.898  14.302  1.0437 -0.3878  0.6654
  595TMC3    C7 8826   3.898   2.080  14.460 -0.2883  0.4066 -0.3432
  595TMC3    C8 8827   3.885   1.932  14.029  0.2588 -0.5029 -0.1544
  595TMC3    O1 8828   3.783   2.033  14.466  0.3746 -0.2071 -0.4864
  595TMC3    O2 8829   3.897   1.974  13.916 -0.0049  0.6854  0.1026
  596MPD2     C 8830   2.585   4.130  16.950 -0.3362  0.6997  0.4324
  596MPD2    C1 8831   2.572   4.256  16.887 -0.5905  0.2541 -0.4404
  596MPD2    C2 8832   2.601   4.266  16.754 -0.2185  0.6195 -0.5725
  596MPD2    C3 8833   2.658   4.154  16.677  0.2394  0.1503  0.3665
  596MPD2    C4 8834   2.679   4.037  16.748 -0.6454  0.7543 -0.9541
  596MPD2    C5 8835   2.651   4.028  16.882  0.9010 -1.2496 -0.7075
  596MPD2     H 8836   2.593   4.366  16.712  0.7872 -0.2314 -2.8060
  596MPD2    H1 8837   2.727   3.953  16.699  0.4865  1.1623 -0.5503
  596MPD2    H2 8838   2.565   4.105  17.053  1.9730  0.7592  0.8868
  596MPD2    H3 8839   2.659   3.938  16.942  1.2325 -0.0979  0.9826
  596MPD2     N 8840   2.677   4.158  16.538 -0.0371  0.7631 -0.8003
  596MPD2    H5 8841   2.714   4.075  16.493 -0.3308 -0.4357  1.1419
  596MPD2    N1 8842   2.516   4.369  16.960  0.2627  0.2028  0.5377
  596MPD2    H7 8843   2.524   4.460  16.915 -0.1953  0.2685  0.5927
  597TMC3    C1 8844   2.442   4.493  17.150 -0.5476 -0.1414 -0.1804
  597TMC3    C2 8845   2.530   4.587  17.103  0.0306  0.7058  0.1654
  597TMC3    C3 8846   2.485   4.712  17.084 -0.2356 -0.0847  0.1380
  597TMC3    C4 8847   2.310   4.528  17.177  0.4869 -0.1516  0.5100
  597TMC3    C5 8848   2.274   4.660  17.154  0.4174 -0.4320 -0.0404
  597TMC3    C6 8849   2.358   0.035  17.104 -0.2846 -0.3615  0.2514
  597TMC3     C 8850   2.452   4.364  17.085 -0.7937  0.4516 -0.0378
  597TMC3     O 8851   2.380   4.274  17.125 -0.1387  0.2886  0.0148
  597TMC3     H 8852   2.633   4.556  17.091  0.9031  3.2349  0.9398
  597TMC3    H1 8853   2.245   4.456  17.226 -1.0391  2.5057  2.3858
  597TMC3    H2 8854   2.335   0.141  17.111  0.9606 -0.1777  1.5032
  597TMC3    C7 8855   2.132   4.690  17.177  0.6801  0.0547 -0.3981
  597TMC3    C8 8856   2.565   0.052  16.984  0.1663  0.5353  0.7650
  597TMC3    O1 8857   2.056   4.604  17.228 -0.1800 -0.1397 -0.2705
  597TMC3    O2 8858   2.677   0.006  16.958 -0.0485 -0.1826 -0.0963
  598TMC3    C1 8859   0.700   1.293  15.316  0.3824 -0.2887 -1.1202
  598TMC3    C2 8860   0.577   1.268  15.370  0.2585  0.1030 -0.6289
  598TMC3    C3 8861   0.464   1.310  15.300 -0.5214 -0.3049 -0.2154
  598TMC3    C4 8862   0.712   1.348  15.188 -0.0460  0.6079 -0.7632
  598TMC3    C5 8863   0.603   1.378  15.120 -0.2185 -0.7225  0.0879
  598TMC3    C6 8864   0.475   1.362  15.171 -0.0022 -0.3085  0.2007
  598TMC3     C 8865   0.817   1.264  15.391  0.1668  0.2350  0.2987
  598TMC3     O 8866   0.800   1.188  15.482  1.0549  0.0127  0.2451
  598TMC3     H 8867   0.568   1.227  15.469 -1.3813 -1.8594 -1.5793
  598TMC3    H1 8868   0.811   1.345  15.144  0.8480 -0.2902  1.3093
  598TMC3    H2 8869   0.395   1.389  15.104 -0.0798 -4.3525 -1.3429
  598TMC3    C7 8870   0.622   1.443  14.993  0.4343 -0.0498 -0.2908
  598TMC3    C8 8871   0.329   1.297  15.354  0.0330  0.1852 -0.3645
  598TMC3    O1 8872   0.533   1.446  14.906 -0.3300  0.0546 -0.0864
  598TMC3    O2 8873   0.240   1.330  15.273 -0.0655  0.2412  0.6829
  599MPD2     C 8874   1.255   3.729  16.179 -0.6686 -0.9477 -0.6721
  599MPD2    C1 8875   1.192   3.610  16.193  0.4949  1.1769  0.9006
  599MPD2    C2 8876   1.065   3.603  16.235  0.4730 -0.3140  0.0667
  599MPD2    C3 8877   0.994   3.719  16.271  0.5132  0.1111 -0.3384
  599MPD2    C4 8878   1.063   3.841  16.263  0.4114 -0.5780  0.8039
  599MPD2    C5 8879   1.194   3.843  16.223 -0.7394 -0.1972 -0.5807
  599MPD2     H 8880   1.014   3.509  16.217  1.3340 -1.0505  1.4671
  599MPD2    H1 8881   1.002   3.928  16.288 -0.1772 -0.6301 -0.4726
  599MPD2    H2 8882   1.355   3.736  16.136 -1.0439 -0.1252 -1.4169
  599MPD2    H3 8883   1.249   3.936  16.228  1.5288 -1.3740 -3.9320
  599MPD2     N 8884   0.863   3.718  16.325 -0.3257  0.2078 -0.9394
  599MPD2    H5 8885   0.827   3.807  16.356  0.2395 -0.1608  0.8076
  599MPD2    N1 8886   1.260   3.504  16.131 -0.6374  0.1118  0.0313
  599MPD2    H7 8887   1.338   3.527  16.070  1.7985 -0.4800  2.9410
  600TMC3    C1 8888   0.649   3.629  16.391 -0.5345 -0.0145 -0.0901
  600TMC3    C2 8889   0.558   3.520  16.386  0.1565 -0.2227  0.2843
  600TMC3    C3 8890   0.424   3.545  16.418  0.7109 -0.4274  0.4525
  600TMC3    C4 8891   0.606   3.751  16.429  0.0165  0.3030  0.4322
  600TMC3    C5 8892   0.472   3.780  16.449  0.1335 -0.4775  0.0708
  600TMC3    C6 8893   0.385   3.673  16.445  0.0745  0.1695 -0.4340
  600TMC3     C 8894   0.776   3.613  16.325  0.1360  0.3158  0.4532
  600TMC3     O 8895   0.789   3.508  16.264 -0.2337 -0.3003 -0.2980
  600TMC3     H 8896   0.580   3.420  16.351  2.5926  0.1422  0.7367
  600TMC3    H1 8897   0.682   3.829  16.432 -0.6158  0.9621 -0.6348
  600TMC3    H2 8898   0.280   3.686  16.469  0.2901 -2.4264  1.9961
  600TMC3    C7 8899   0.423   3.918  16.488 -0.7226  0.3061  0.4906
  600TMC3    C8 8900   0.335   3.440  16.388 -0.0666  0.1373  0.7466
  600TMC3    O1 8901   0.319   3.939  16.542 -0.2890 -0.1776  0.0948
  600TMC3    O2 8902   0.376   3.327  16.410  0.1914  0.4323  0.1401
  601MPD2     C 8903   2.865   0.785  17.523 -0.4752  0.1617 -0.3029
  601MPD2    C1 8904   2.742   0.830  17.490 -0.3711  0.3504 -1.0183
  601MPD2    C2 8905   2.632   0.744  17.486 -0.2754 -0.4341  0.0386
  601MPD2    C3 8906   2.648   0.621  17.544  0.5366  0.3761 -0.8032
  601MPD2    C4 8907   2.770   0.567  17.566 -0.4917 -0.6284 -0.2982
  601MPD2    C5 8908   2.882   0.646  17.553 -0.1376 -0.1363  0.5319
  601MPD2     H 8909   2.539   0.779  17.443  1.2215  0.9327 -2.0594
  601MPD2    H1 8910   2.779   0.469  17.612  0.6406 -0.1325  0.5364
  601MPD2    H2 8911   2.952   0.847  17.540  0.8007 -1.5084 -0.7830
  601MPD2    H3 8912   2.980   0.609  17.582 -0.1157  1.3857  2.3299
  601MPD2     N 8913   2.539   0.536  17.572 -0.3256 -0.5326 -0.0832
  601MPD2    H5 8914   2.546   0.436  17.584 -0.6836 -0.3905  1.3369
  601MPD2    N1 8915   2.719   0.968  17.451  0.9008  0.9345  0.0845
  601MPD2    H7 8916   2.636   0.994  17.399 -1.0375 -0.5811  2.3871
  602TMC3    C1 8917   2.762   1.195  17.415  0.5271  0.1906 -0.2421
  602TMC3    C2 8918   2.865   1.283  17.390  0.3628  0.4201  0.7019
  602TMC3    C3 8919   2.829   1.408  17.351 -0.2325  0.8580  0.0239
  602TMC3    C4 8920   2.630   1.223  17.387 -1.0193  0.2666  0.3993
  602TMC3    C5 8921   2.597   1.352  17.342  0.7520 -0.0131  0.7052
  602TMC3    C6 8922   2.699   1.452  17.331 -0.0998 -0.0424 -0.1127
  602TMC3     C 8923   2.802   1.070  17.478 -0.0642 -0.0121  0.3625
  602TMC3     O 8924   2.914   1.072  17.530  0.2801  0.3647 -0.1995
  602TMC3     H 8925   2.968   1.271  17.421  0.8443 -2.1978 -1.9944
  602TMC3    H1 8926   2.549   1.161  17.424 -0.7036  0.4083  1.3194
  602TMC3    H2 8927   2.682   1.546  17.280 -0.8168  0.2311  0.6332
  602TMC3    C7 8928   2.462   1.403  17.332  0.8465 -0.0753 -0.1205
  602TMC3    C8 8929   2.932   1.511  17.349 -0.6354 -0.1563 -0.1488
  602TMC3    O1 8930   2.378   1.317  17.306 -0.3079 -0.2553  0.2534
  602TMC3    O2 8931   3.046   1.486  17.309 -0.4829 -0.6183  0.2757
  603TMC3    C1 8932   1.589   2.425  10.781  0.3690  0.0485 -0.8364
  603TMC3    C2 8933   1.548   2.423  10.913 -0.4694 -0.2753  0.5166
  603TMC3    C3 8934   1.463   2.525  10.949  0.7624  0.3551 -0.4777
  603TMC3    C4 8935   1.544   2.516  10.693 -0.8537  0.5606  0.6806
  603TMC3    C5 8936   1.450   2.607  10.733 -0.4896  0.8590 -0.2364
  603TMC3    C6 8937   1.405   2.615  10.858 -0.1049 -0.1185 -0.6823
  603TMC3     C 8938   1.659   2.319  10.717 -0.4515  0.7114 -0.1632
  603TMC3     O 8939   1.724   2.339  10.611 -0.3200  0.4238 -0.2946
  603TMC3     H 8940   1.608   2.368  10.986 -0.4313  2.2142  2.3527
  603TMC3    H1 8941   1.582   2.524  10.591 -0.5807  2.7516  0.9331
  603TMC3    H2 8942   1.311   2.668  10.866  0.6751  0.9360  1.5901
  603TMC3    C7 8943   1.378   2.681  10.628 -0.1160 -0.1522  0.7037
  603TMC3    C8 8944   1.424   2.528  11.086  0.1674 -0.0258  0.4031
  603TMC3    O1 8945   1.338   2.794  10.666 -0.1865  0.1641  0.2555
  603TMC3    O2 8946   1.458   2.434  11.157  0.4274  0.3088 -0.0077
  604MPD2     C 8947   1.753   0.917  16.461 -0.0137 -0.6009  0.1433
  604MPD2    C1 8948   1.644   0.861  16.402  0.0292 -0.1733  0.5142
  604MPD2    C2 8949   1.654   0.812  16.273 -0.3898 -0.0550  0.4608
  604MPD2    C3 8950   1.772   0.790  16.214  0.4230  0.1600  0.1151
  604MPD2    C4 8951   1.887   0.836  16.279  0.0622  0.1258 -1.0928
  604MPD2    C5 8952   1.871   0.897  16.403  0.4107  0.2066  0.2962
  604MPD2     H 8953   1.569   0.774  16.218  0.7083  0.9626 -1.9182
  604MPD2    H1 8954   1.985   0.828  16.234  0.3917  1.9766 -0.6707
  604MPD2    H2 8955   1.751   0.959  16.561 -1.1242  1.1113 -0.5857
  604MPD2    H3 8956   1.960   0.941  16.447  0.3481 -0.0347  0.6616
  604MPD2     N 8957   1.782   0.745  16.083  0.0182 -0.2073  0.1635
  604MPD2    H5 8958   1.695   0.716  16.039 -1.4183  1.7094  1.7398
  604MPD2    N1 8959   1.529   0.892  16.475  0.0173 -0.0278  1.0285
  604MPD2    H7 8960   1.554   0.914  16.571 -0.2525  1.1172  0.8477
  605TMC3    C1 8961   1.301   0.890  16.527  0.1812  0.0957 -0.1210
  605TMC3    C2 8962   1.342   0.848  16.649  0.5356 -0.5493 -0.5506
  605TMC3    C3 8963   1.339   0.936  16.760 -0.4046 -0.1280 -0.2083
  605TMC3    C4 8964   1.233   1.012  16.521  0.0151  0.4572  0.0804
  605TMC3    C5 8965   1.221   1.089  16.629  0.0794  0.1122 -0.2353
  605TMC3    C6 8966   1.288   1.060  16.747  0.1246 -0.0077  0.5572
  605TMC3     C 8967   1.400   0.875  16.424 -0.1499  0.6300 -0.9947
  605TMC3     O 8968   1.353   0.853  16.312 -1.1917 -0.7995  0.3238
  605TMC3     H 8969   1.396   0.755  16.663  0.9081 -0.3047 -0.3390
  605TMC3    H1 8970   1.221   1.064  16.427 -2.7665 -2.8943 -1.3924
  605TMC3    H2 8971   1.260   1.120  16.833  0.8056  0.5029  0.4273
  605TMC3    C7 8972   1.152   1.215  16.597 -0.3768 -0.0823  0.3666
  605TMC3    C8 8973   1.472   0.941  16.815 -0.6210 -0.0986  0.6450
  605TMC3    O1 8974   1.052   1.190  16.529 -1.0465  0.1318 -0.1381
  605TMC3    O2 8975   1.563   0.887  16.755  0.1927  0.1365 -0.3193
  606TMC3    C1 8976   2.920   4.162  17.273  0.9621  0.7410  0.0750
  606TMC3    C2 8977   3.055   4.128  17.246  0.1245 -0.5487  0.3513
  606TMC3    C3 8978   3.089   3.990  17.240 -0.3281  0.4722 -0.2970
  606TMC3    C4 8979   2.823   4.075  17.278  0.1416 -0.7420 -0.1949
  606TMC3    C5 8980   2.859   3.943  17.285  0.1113 -0.0954  0.0799
  606TMC3    C6 8981   2.993   3.898  17.278 -0.4221  0.3880  0.2704
  606TMC3     C 8982   2.881   4.299  17.292 -0.4052 -0.0312  0.3938
  606TMC3     O 8983   2.766   4.324  17.260 -0.5623 -0.4094  0.1887
  606TMC3     H 8984   3.128   4.200  17.214  0.5024  0.4172  3.3900
  606TMC3    H1 8985   2.719   4.107  17.280 -0.1724 -1.7154 -0.7543
  606TMC3    H2 8986   3.009   3.795  17.249 -0.6355  0.4162  0.0537
  606TMC3    C7 8987   2.759   3.859  17.344  0.5335 -0.4212  0.9054
  606TMC3    C8 8988   3.225   3.957  17.233  0.0605 -0.2987  0.0825
  606TMC3    O1 8989   2.643   3.888  17.363  0.0145  0.1406  0.2177
  606TMC3    O2 8990   3.292   4.028  17.310  0.3508  0.2163 -0.0741
  607MPD2     C 8991   4.690   2.442  11.573 -0.6315 -0.0436  0.8362
  607MPD2    C1 8992   0.055   2.485  11.665 -0.9596  0.2167  0.2842
  607MPD2    C2 8993   0.048   2.422  11.786 -0.2403 -0.2558 -0.6187
  607MPD2    C3 8994   4.684   2.312  11.805  0.8465 -0.5499  0.1153
  607MPD2    C4 8995   4.614   2.259  11.697  0.6788 -0.4775  0.2143
  607MPD2    C5 8996   4.613   2.326  11.576  0.1765  0.7808 -0.0187
  607MPD2     H 8997   0.108   2.464  11.866 -0.8009 -3.7488  1.6527
  607MPD2    H1 8998   4.551   2.171  11.703 -0.6313  0.4435  0.0425
  607MPD2    H2 8999   4.679   2.497  11.480  0.0685 -1.0273  0.1763
  607MPD2    H3 9000   4.553   2.300  11.490 -0.8521 -0.9296  1.2267
  607MPD2     N 9001   4.680   2.255  11.934  0.3539 -0.5017 -0.4455
  607MPD2    H5 9002   0.008   2.305  12.007 -0.6527  1.0772 -0.8202
  607MPD2    N1 9003   0.128   2.604  11.662  0.5554  0.6252  0.2972
  607MPD2    H7 9004   0.186   2.634  11.740  2.2732 -1.9742  0.0106
  608TMC3    C1 9005   0.194   2.813  11.617  0.0161  0.7627 -0.2992
  608TMC3    C2 9006   0.164   2.850  11.747  0.6840 -0.3615  0.2129
  608TMC3    C3 9007   0.230   2.951  11.804 -0.0635  0.3961 -0.1502
  608TMC3    C4 9008   0.292   2.869  11.543 -0.2099 -0.3089  0.0102
  608TMC3    C5 9009   0.366   2.964  11.614  0.5841  0.0033  0.0325
  608TMC3    C6 9010   0.339   3.004  11.743  0.0375 -0.3788 -0.5062
  608TMC3     C 9011   0.134   2.692  11.563 -0.3184 -0.3569 -0.8392
  608TMC3     O 9012   0.113   2.674  11.446 -0.1505 -0.3175 -0.1805
  608TMC3     H 9013   0.073   2.813  11.794  0.5689 -0.8718 -0.4087
  608TMC3    H1 9014   0.319   2.830  11.446  0.2745 -1.4701  0.6081
  608TMC3    H2 9015   0.405   3.064  11.805 -0.1746 -0.5659 -0.1059
  608TMC3    C7 9016   0.490   3.009  11.553 -0.0824  0.5808 -0.1253
  608TMC3    C8 9017   0.222   2.954  11.945  0.7490  0.5088  0.1890
  608TMC3    O1 9018   0.549   2.929  11.476 -0.1436 -0.2898 -0.5336
  608TMC3    O2 9019   0.231   3.061  11.998  0.0843  0.0162 -0.5509
  609TMC3    C1 9020   3.851   1.283   8.789  0.0540 -0.2587 -0.8424
  609TMC3    C2 9021   3.802   1.203   8.689 -0.3825 -0.0944 -0.3236
  609TMC3    C3 9022   3.895   1.138   8.610 -0.0132 -0.6686 -0.5180
  609TMC3    C4 9023   3.980   1.287   8.815 -0.4911 -0.2790 -0.0806
  609TMC3    C5 9024   4.069   1.228   8.734  0.1708  0.0654 -0.0593
  609TMC3    C6 9025   4.026   1.159   8.628 -0.8470 -0.5385  0.4971
  609TMC3     C 9026   3.766   1.385   8.839  0.2814 -0.3324  0.9804
  609TMC3     O 9027   3.644   1.360   8.849  0.4711  0.2013 -0.2681
  609TMC3     H 9028   3.694   1.195   8.678 -0.5780 -0.0750  1.5815
  609TMC3    H1 9029   4.009   1.344   8.903 -2.2931  1.8456 -0.8520
  609TMC3    H2 9030   4.105   1.113   8.570  1.0162  1.3423  1.5011
  609TMC3    C7 9031   4.208   1.227   8.777  0.0681 -0.4670 -0.2713
  609TMC3    C8 9032   3.853   1.088   8.482  0.2411  0.2500  0.0335
  609TMC3    O1 9033   4.247   1.324   8.841 -0.0711 -0.0552  0.0927
  609TMC3    O2 9034   3.746   1.133   8.443  0.1164  0.7484  0.2537
  610TMC3    C1 9035   0.328   2.896  12.770  0.8816  0.4824 -0.0949
  610TMC3    C2 9036   0.363   2.942  12.650  0.1671 -0.0307  0.7460
  610TMC3    C3 9037   0.385   2.856  12.551 -0.5295 -0.0731  0.3722
  610TMC3    C4 9038   0.331   2.762  12.793  0.1972  0.6942  0.5016
  610TMC3    C5 9039   0.368   2.679  12.694 -0.6779  0.3850 -0.4823
  610TMC3    C6 9040   0.391   2.720  12.566 -0.3032 -0.2567 -0.3452
  610TMC3     C 9041   0.346   2.977  12.889 -0.0952 -0.4765  0.5809
  610TMC3     O 9042   0.361   2.922  12.998 -0.0159 -0.1606 -0.1437
  610TMC3     H 9043   0.373   3.049  12.640  1.9018 -0.2323  0.3059
  610TMC3    H1 9044   0.299   2.731  12.892 -0.8612 -1.2039 -0.4278
  610TMC3    H2 9045   0.438   2.657  12.492 -0.8929 -0.8832 -0.1880
  610TMC3    C7 9046   0.418   2.548  12.740  0.5431  0.5600 -0.0791
  610TMC3    C8 9047   0.445   2.919  12.437  0.9339  0.1381  0.5140
  610TMC3    O1 9048   0.426   2.520  12.860  0.3604  0.2896  0.2972
  610TMC3    O2 9049   0.484   3.032  12.444  0.2263 -0.1990  0.4863
  611MPD2     C 9050   0.239   2.520   9.710 -0.0650 -0.0080 -0.5365
  611MPD2    C1 9051   0.231   2.411   9.789 -0.4582 -0.7066  0.1163
  611MPD2    C2 9052   0.351   2.356   9.833  0.7771 -0.5091 -0.1573
  611MPD2    C3 9053   0.468   2.396   9.775 -0.2938  0.5210 -0.7457
  611MPD2    C4 9054   0.474   2.505   9.687 -0.2417 -0.3285 -0.0732
  611MPD2    C5 9055   0.360   2.574   9.660  0.3953 -0.4233 -0.2027
  611MPD2     H 9056   0.345   2.271   9.899  2.6551 -1.4576 -1.2049
  611MPD2    H1 9057   0.564   2.532   9.633 -0.5935 -0.3070 -0.6536
  611MPD2    H2 9058   0.150   2.581   9.696  0.2829  1.3148  3.0484
  611MPD2    H3 9059   0.357   2.661   9.595  0.7010  1.0623  1.7672
  611MPD2     N 9060   0.597   2.353   9.807  1.0704  0.3653  0.8846
  611MPD2    H5 9061   0.668   2.382   9.740  1.3662  0.9947  1.4664
  611MPD2    N1 9062   0.103   2.382   9.838 -1.0586 -0.3765  0.7032
  611MPD2    H7 9063   0.026   2.437   9.802 -1.1367  0.6752  2.5046
  612TMC3    C1 9064   0.765   2.228   9.910 -0.9644  0.0862  0.1387
  612TMC3    C2 9065   0.843   2.336   9.907 -0.3057 -0.3508  0.0274
  612TMC3    C3 9066   0.970   2.336   9.959  0.1847 -0.5491  0.3404
  612TMC3    C4 9067   0.815   2.104   9.950  0.1481  0.2440 -0.9531
  612TMC3    C5 9068   0.943   2.105   9.993  0.5368 -0.4791 -0.2857
  612TMC3    C6 9069   1.018   2.218  10.012  0.1702  0.0767  0.3127
  612TMC3     C 9070   0.625   2.249   9.893 -0.5653  0.5263  0.5203
  612TMC3     O 9071   0.547   2.175   9.954  0.1404  0.5615 -0.1126
  612TMC3     H 9072   0.807   2.436   9.884  0.3693  0.6283  3.2242
  612TMC3    H1 9073   0.752   2.016   9.944  2.3478 -1.4382  0.5858
  612TMC3    H2 9074   1.124   2.199  10.029  0.7861  2.9644 -0.2719
  612TMC3    C7 9075   0.985   1.989  10.066  0.4000 -0.5090  0.0617
  612TMC3    C8 9076   1.020   2.461  10.017 -0.2343 -0.1975 -0.2809
  612TMC3    O1 9077   1.068   2.009  10.153  0.2065  0.0470 -0.0307
  612TMC3    O2 9078   0.978   2.563   9.962 -0.0240 -0.1203  0.2157
  613MPD2     C 9079   3.825   4.512  16.887 -0.0096  0.2047  0.0186
  613MPD2    C1 9080   3.796   4.561  16.762  0.1597 -0.5901  0.0165
  613MPD2    C2 9081   3.689   4.517  16.696 -0.2569 -0.5950 -0.1534
  613MPD2    C3 9082   3.604   4.419  16.748 -0.0376 -0.6394  0.3029
  613MPD2    C4 9083   3.628   4.364  16.877  0.3150 -0.1896 -0.2090
  613MPD2    C5 9084   3.734   4.416  16.946 -0.4254  0.1506 -0.3277
  613MPD2     H 9085   3.679   4.549  16.593 -2.0471 -2.8048 -0.6719
  613MPD2    H1 9086   3.562   4.289  16.919 -1.0793  1.1658  0.0096
  613MPD2    H2 9087   3.912   4.557  16.933  1.2778 -1.4712 -0.7620
  613MPD2    H3 9088   3.763   4.377  17.043  0.6648  1.4889 -0.1080
  613MPD2     N 9089   3.509   4.352  16.669 -0.1861  0.2020 -0.7106
  613MPD2    H5 9090   3.471   4.273  16.721  0.2267 -0.2286 -1.0577
  613MPD2    N1 9091   3.892   4.641  16.700 -0.3754 -0.6890 -0.0724
  613MPD2    H7 9092   3.980   4.647  16.751 -0.7686  0.3777  0.4731
  614TMC3    C1 9093   3.998   0.003  16.502  0.8719 -0.3414  0.3179
  614TMC3    C2 9094   4.076   4.613  16.492  0.0022 -0.0384 -0.7050
  614TMC3    C3 9095   4.109   4.562  16.368 -0.2541 -0.3118 -0.9617
  614TMC3    C4 9096   3.989   0.090  16.395 -0.2807  0.4966  0.1283
  614TMC3    C5 9097   4.025   0.036  16.275 -0.2971  0.3165  0.4662
  614TMC3    C6 9098   4.081   4.637  16.257 -0.0125 -0.0031 -0.1486
  614TMC3     C 9099   3.878   4.708  16.580 -0.1275  0.1155 -0.1819
  614TMC3     O 9100   3.779   0.031  16.529 -0.0865 -0.3896 -0.1915
  614TMC3     H 9101   4.094   4.545  16.575  1.6232  1.8590  0.5071
  614TMC3    H1 9102   3.935   0.183  16.399  0.1838  0.6606  3.1789
  614TMC3    H2 9103   4.107   4.601  16.158  0.0268 -0.6536  0.0961
  614TMC3    C7 9104   4.024   0.133  16.166 -0.7586  0.1918  0.2025
  614TMC3    C8 9105   4.067   4.421  16.355 -0.3203 -0.0012  0.1908
  614TMC3    O1 9106   4.052   0.251  16.190 -0.4939  0.4499  0.4444
  614TMC3    O2 9107   3.999   4.382  16.446 -0.3197  0.8182 -0.1813
  615MPD2     C 9108   3.224   0.983  16.634 -0.5293 -0.5316  0.1237
  615MPD2    C1 9109   3.242   1.070  16.530  0.2290  0.0612 -0.2011
  615MPD2    C2 9110   3.236   1.026  16.399 -0.1673  0.1442  0.4403
  615MPD2    C3 9111   3.232   0.890  16.371  0.0944 -0.2521  0.4168
  615MPD2    C4 9112   3.233   0.808  16.476  0.0457  0.4412 -1.1123
  615MPD2    C5 9113   3.234   0.851  16.602 -0.4064  0.1765 -0.9265
  615MPD2     H 9114   3.244   1.101  16.320  2.5642  0.7676  1.3126
  615MPD2    H1 9115   3.223   0.701  16.469  0.2046  0.3227  0.5507
  615MPD2    H2 9116   3.232   1.010  16.739  2.2704 -1.9745  0.2750
  615MPD2    H3 9117   3.227   0.777  16.681 -0.4591  0.5931 -0.5408
  615MPD2     N 9118   3.211   0.832  16.242  0.5461 -0.0232 -0.8844
  615MPD2    H5 9119   3.184   0.734  16.241  1.3748 -0.2559 -0.3889
  615MPD2    N1 9120   3.239   1.210  16.553  0.2308 -0.6240  0.2169
  615MPD2    H7 9121   3.258   1.261  16.467 -1.8989 -0.7885 -0.3601
  616TMC3    C1 9122   3.172   1.417  16.647 -0.1401 -0.3136 -0.0558
  616TMC3    C2 9123   3.259   1.476  16.558 -0.0832 -0.1344 -0.2296
  616TMC3    C3 9124   3.221   1.602  16.513  0.9014 -0.2213 -0.7006
  616TMC3    C4 9125   3.049   1.468  16.681 -0.7109 -0.0259 -0.1121
  616TMC3    C5 9126   3.018   1.593  16.635  0.4985 -0.5888 -0.2578
  616TMC3    C6 9127   3.106   1.666  16.552 -0.2632 -0.2410  0.0844
  616TMC3     C 9128   3.179   1.271  16.663 -0.4389  0.2291  0.3145
  616TMC3     O 9129   3.156   1.230  16.774  0.4110  0.1204 -0.3272
  616TMC3     H 9130   3.343   1.415  16.527 -1.2798 -1.5381 -0.7187
  616TMC3    H1 9131   2.976   1.415  16.740  0.1443 -0.1279  0.8544
  616TMC3    H2 9132   3.103   1.773  16.534  0.0952 -0.3560 -0.6556
  616TMC3    C7 9133   2.883   1.646  16.667 -0.1222 -0.2025  0.4287
  616TMC3    C8 9134   3.292   1.659  16.399  0.9732  1.2344  0.4643
  616TMC3    O1 9135   2.825   1.599  16.758  0.0378 -0.2157  0.2121
  616TMC3    O2 9136   3.251   1.753  16.336 -0.2639  0.2206  0.1544
  617MPD2     C 9137   1.431   4.191  14.069  1.1165  0.2596 -0.5946
  617MPD2    C1 9138   1.455   4.091  14.159 -0.6084 -0.0928  0.4916
  617MPD2    C2 9139   1.345   4.019  14.204 -0.8137  0.5162  0.1731
  617MPD2    C3 9140   1.216   4.064  14.172 -0.5239 -0.2939 -0.1953
  617MPD2    C4 9141   1.196   4.178  14.104 -0.6800  0.3632 -0.1179
  617MPD2    C5 9142   1.302   4.236  14.044  0.2144 -0.1874  0.1184
  617MPD2     H 9143   1.348   3.922  14.253  2.8560  0.4799 -0.1177
  617MPD2    H1 9144   1.098   4.220  14.088 -0.3365  1.0763 -0.3266
  617MPD2    H2 9145   1.515   4.245  14.027  1.8878 -0.0086  0.6030
  617MPD2    H3 9146   1.287   4.329  13.990  1.7271 -0.6395 -1.0591
  617MPD2     N 9147   1.095   3.996  14.198 -0.7958  0.0025  0.4187
  617MPD2    H5 9148   1.014   4.025  14.144 -2.6261 -1.6307  2.2784
  617MPD2    N1 9149   1.590   4.066  14.194 -0.0300  0.4802 -0.2960
  617MPD2    H7 9150   1.663   4.095  14.130  2.0900 -2.0811  0.9497
  618TMC3    C1 9151   1.764   3.935  14.292 -0.7303 -0.5877  0.7531
  618TMC3    C2 9152   1.768   3.801  14.260 -0.2507 -0.4587  0.1628
  618TMC3    C3 9153   1.887   3.740  14.223  0.3341  0.1716  0.6375
  618TMC3    C4 9154   1.863   4.014  14.250  0.0016  0.6679 -0.3085
  618TMC3    C5 9155   1.983   3.955  14.217 -0.3357 -0.3500  0.6206
  618TMC3    C6 9156   1.994   3.820  14.205 -0.8957  0.7925  0.3699
  618TMC3     C 9157   1.626   3.993  14.308  0.2404  0.5192 -0.5540
  618TMC3     O 9158   1.553   3.933  14.386 -0.6402  0.0929  0.3324
  618TMC3     H 9159   1.676   3.744  14.272  0.2365 -1.5468 -1.3624
  618TMC3    H1 9160   1.864   4.120  14.268 -0.7573  0.7748 -0.8827
  618TMC3    H2 9161   2.089   3.775  14.180 -2.0798  0.2983 -3.1531
  618TMC3    C7 9162   2.064   4.019  14.119 -0.2778  0.5027  0.2602
  618TMC3    C8 9163   1.883   3.616  14.138 -0.3453 -0.5137  0.3494
  618TMC3    O1 9164   2.099   3.947  14.022 -0.4494  0.0496 -0.7735
  618TMC3    O2 9165   1.770   3.575  14.120  0.0284 -0.0452  0.1672
  619MPD2     C 9166   2.763   0.680  13.937 -0.0218  0.3686 -0.3791
  619MPD2    C1 9167   2.698   0.605  13.836 -0.1731 -0.1295 -0.3374
  619MPD2    C2 9168   2.558   0.611  13.847  0.3174  0.2148  0.8609
  619MPD2    C3 9169   2.486   0.681  13.942  0.4076  0.3545  0.2684
  619MPD2    C4 9170   2.556   0.747  14.044 -0.7217  0.5169 -0.1703
  619MPD2    C5 9171   2.697   0.742  14.040 -0.1753 -0.1896  0.5655
  619MPD2     H 9172   2.509   0.575  13.758  0.6291  0.6681  0.5061
  619MPD2    H1 9173   2.495   0.796  14.119 -0.5007  0.7762 -0.1602
  619MPD2    H2 9174   2.871   0.686  13.947 -0.0594 -0.6981  0.6005
  619MPD2    H3 9175   2.761   0.791  14.112 -0.1379  1.0112 -0.2860
  619MPD2     N 9176   2.344   0.692  13.941  0.3747  0.2386 -0.4871
  619MPD2    H5 9177   2.300   0.737  14.020  2.8750  1.7457  0.0390
  619MPD2    N1 9178   2.755   0.523  13.735 -0.5099 -0.4693 -0.5881
  619MPD2    H7 9179   2.695   0.468  13.673 -0.4204 -1.3846  0.1323
  620TMC3    C1 9180   2.903   0.470  13.569  0.5817 -0.6585 -0.6358
  620TMC3    C2 9181   2.814   0.390  13.513 -0.0621 -0.1322 -0.6103
  620TMC3    C3 9182   2.764   0.416  13.391  0.0862 -0.1673  0.3442
  620TMC3    C4 9183   2.965   0.571  13.502 -0.2624 -0.0333 -0.0582
  620TMC3    C5 9184   2.920   0.601  13.379  0.4812 -0.3146  0.6675
  620TMC3    C6 9185   2.816   0.527  13.329 -0.1587  0.7574  0.7216
  620TMC3     C 9186   2.886   0.512  13.711 -0.4695 -0.1725  0.0028
  620TMC3     O 9187   2.975   0.567  13.770 -0.1595 -0.5522  0.3666
  620TMC3     H 9188   2.755   0.323  13.575  0.8316 -0.7633 -0.4486
  620TMC3    H1 9189   3.034   0.635  13.557 -0.4021 -0.1170  0.2192
  620TMC3    H2 9190   2.772   0.556  13.234 -1.5666  2.2096  1.8093
  620TMC3    C7 9191   2.896   0.737  13.355  0.3019  0.3571  0.0723
  620TMC3    C8 9192   2.620   0.424  13.394  0.1492 -0.5213 -0.0702
  620TMC3    O1 9193   2.782   0.761  13.330 -0.1200  0.7454 -0.4289
  620TMC3    O2 9194   2.566   0.317  13.415 -0.4657 -0.2430 -0.8092
  621MPD2     C 9195   3.285   0.737   9.711  0.1154 -0.4089 -0.0101
  621MPD2    C1 9196   3.368   0.742   9.820  0.1212  0.7237  0.1471
  621MPD2    C2 9197   3.479   0.824   9.818  0.2467 -0.3788  0.5137
  621MPD2    C3 9198   3.520   0.888   9.704  0.1063  0.6609 -0.1669
  621MPD2    C4 9199   3.435   0.879   9.595  0.4546  0.1229 -0.0217
  621MPD2    C5 9200   3.320   0.801   9.594  0.1160 -0.0039  0.2446
  621MPD2     H 9201   3.531   0.851   9.909  1.7915 -1.1257 -0.1575
  621MPD2    H1 9202   3.461   0.936   9.506 -0.4395 -1.0119 -1.0096
  621MPD2    H2 9203   3.191   0.684   9.724  0.0184 -0.5086 -1.0903
  621MPD2    H3 9204   3.252   0.804   9.510 -0.4713  4.1267  0.8784
  621MPD2     N 9205   3.646   0.963   9.694  0.6637 -0.0576  0.5083
  621MPD2    H5 9206   3.710   0.960   9.773 -1.8017 -0.9831  2.4979
  621MPD2    N1 9207   3.336   0.672   9.941  0.4339  0.1318 -0.2345
  621MPD2    H7 9208   3.389   0.706  10.020 -3.2676  0.0854  2.2734
  622TMC3    C1 9209   3.264   0.507  10.086 -0.4144 -0.4683  0.1642
  622TMC3    C2 9210   3.238   0.591  10.192 -0.7438 -0.1908 -0.5712
  622TMC3    C3 9211   3.197   0.536  10.309  0.6493  0.4055 -0.7198
  622TMC3    C4 9212   3.223   0.379  10.091  0.2206 -0.4259  0.3400
  622TMC3    C5 9213   3.183   0.324  10.209  0.3158 -0.3210  0.9051
  622TMC3    C6 9214   3.162   0.404  10.315  0.1280  0.8569 -0.6559
  622TMC3     C 9215   3.261   0.559   9.950 -0.2601  0.2198 -0.0255
  622TMC3     O 9216   3.200   0.491   9.870 -0.5384 -0.3402  0.1539
  622TMC3     H 9217   3.255   0.697  10.174 -0.4419 -0.4203 -1.6363
  622TMC3    H1 9218   3.246   0.306  10.014 -0.2787 -1.9937  1.6955
  622TMC3    H2 9219   3.120   0.358  10.403 -2.2521 -2.5755 -3.6014
  622TMC3    C7 9220   3.110   0.199  10.208 -0.0435 -0.2646 -0.3127
  622TMC3    C8 9221   3.159   0.620  10.419  0.1943 -0.4559 -0.5708
  622TMC3    O1 9222   3.083   0.154  10.318 -0.1341  0.5273 -0.5954
  622TMC3    O2 9223   3.146   0.558  10.522  0.4365 -0.0097  0.7097
  623MPD2     C 9224   1.823   1.068  15.947 -0.1458 -0.1781 -0.3968
  623MPD2    C1 9225   1.755   1.118  16.061 -0.4764  0.6670  0.5136
  623MPD2    C2 9226   1.823   1.157  16.173  0.3512  0.5720  0.9034
  623MPD2    C3 9227   1.954   1.136  16.177  0.1803  0.9095  0.1812
  623MPD2    C4 9228   2.021   1.093  16.070  0.2104 -0.3470  0.0859
  623MPD2    C5 9229   1.957   1.050  15.957 -0.3793 -0.2429 -0.1132
  623MPD2     H 9230   1.778   1.201  16.261 -1.3924  0.6507 -0.0219
  623MPD2    H1 9231   2.128   1.078  16.059  0.1602 -0.1508 -0.6847
  623MPD2    H2 9232   1.780   1.054  15.849 -1.1560 -0.5530  0.1079
  623MPD2    H3 9233   2.019   1.011  15.877 -0.4913 -0.7820  0.0640
  623MPD2     N 9234   2.021   1.193  16.290  0.0268  0.2730 -0.3042
  623MPD2    H5 9235   1.961   1.229  16.364  0.0450 -2.1368  0.9040
  623MPD2    N1 9236   1.615   1.131  16.066 -0.5039 -0.4266 -0.1445
  623MPD2    H7 9237   1.581   1.179  16.149 -5.4303 -2.3919 -0.9702
  624TMC3    C1 9238   2.272   1.127  16.666 -0.0592 -0.9569 -0.2815
  624TMC3    C2 9239   2.172   1.166  16.744 -0.0881 -0.5979 -0.0079
  624TMC3    C3 9240   2.066   1.230  16.686  0.1725  0.4031  0.9698
  624TMC3    C4 9241   2.282   1.146  16.532  0.2530  0.0541 -1.3827
  624TMC3    C5 9242   2.174   1.207  16.474  0.2087 -0.5782  0.4145
  624TMC3    C6 9243   2.067   1.250  16.548  1.3718  0.3458  0.1000
  624TMC3     C 9244   2.385   1.058  16.733 -0.6223  0.5420  0.1679
  624TMC3     O 9245   2.375   1.005  16.846 -0.1186 -0.2308 -0.1225
  624TMC3     H 9246   2.177   1.141  16.850  0.0419 -0.5315  0.0010
  624TMC3    H1 9247   2.346   1.083  16.472  0.1680 -1.5822  0.2392
  624TMC3    H2 9248   1.982   1.299  16.503  1.6856 -1.3850 -2.4008
  624TMC3    C7 9249   2.153   1.178  16.331  0.1383 -0.0127 -0.5672
  624TMC3    C8 9250   1.928   1.201  16.726  0.6172  0.2293 -0.1939
  624TMC3    O1 9251   2.250   1.137  16.268  0.1584  0.0652 -0.2488
  624TMC3    O2 9252   1.828   1.211  16.654  0.3906  0.1558 -0.2862
  625MPD2     C 9253   2.197   1.768   0.331  0.3011 -0.4593  0.3048
  625MPD2    C1 9254   2.264   1.844   0.421  0.5905  0.2928  0.4891
  625MPD2    C2 9255   2.355   1.774   0.499  0.1452  0.1904 -0.4448
  625MPD2    C3 9256   2.376   1.638   0.493 -0.2288  0.5709  0.2347
  625MPD2    C4 9257   2.292   1.563   0.406 -0.2563  0.8184 -0.1555
  625MPD2    C5 9258   2.201   1.634   0.336  0.3845 -0.3941  0.8980
  625MPD2     H 9259   2.422   1.829   0.564  0.1028  2.0995 -2.0122
  625MPD2    H1 9260   2.295   1.455   0.407  0.0903  0.8275 -0.4679
  625MPD2    H2 9261   2.126   1.803   0.257  1.7636 -0.6348 -1.1988
  625MPD2    H3 9262   2.120   1.583   0.287 -0.1952  0.5316  0.8906
  625MPD2     N 9263   2.464   1.580   0.584 -0.2188  0.1071 -0.0996
  625MPD2    H5 9264   2.507   1.654   0.639  0.5787 -0.6249  0.2622
  625MPD2    N1 9265   2.253   1.984   0.435  0.2123  0.1196  0.0676
  625MPD2    H7 9266   2.323   2.037   0.485  1.3508 -3.1807  1.9726
  626TMC3    C1 9267   2.170   2.202   0.418  0.3995 -0.4603  0.8155
  626TMC3    C2 9268   2.096   2.288   0.354  0.0631  0.4875 -0.2124
  626TMC3    C3 9269   2.081   2.411   0.412  0.0081  0.3635  0.2248
  626TMC3    C4 9270   2.214   2.219   0.551  0.2420 -0.0149  0.5968
  626TMC3    C5 9271   2.182   2.334   0.610 -0.1119 -0.9653 -0.0278
  626TMC3    C6 9272   2.122   2.439   0.540 -0.4195 -0.2278 -0.5606
  626TMC3     C 9273   2.161   2.063   0.373  0.6331  0.6770  0.1964
  626TMC3     O 9274   2.077   2.034   0.284  0.1231 -0.2259 -0.4497
  626TMC3     H 9275   2.045   2.264   0.261  1.4556 -1.5392 -0.4408
  626TMC3    H1 9276   2.259   2.149   0.620  0.0350  1.0659  1.8191
  626TMC3    H2 9277   2.113   2.538   0.584 -2.6706 -0.8499  0.3676
  626TMC3    C7 9278   2.175   2.335   0.760  0.1650 -0.3025 -0.5929
  626TMC3    C8 9279   2.044   2.522   0.325 -0.0853  0.0071 -0.2945
  626TMC3    O1 9280   2.227   2.241   0.818 -0.1023 -0.2767 -0.0456
  626TMC3    O2 9281   2.059   2.495   0.204 -0.2261  0.5752  0.2673
  627MPD2     C 9282   1.231   2.848  14.016  0.0871 -0.2087  0.2204
  627MPD2    C1 9283   1.204   2.861  14.152 -0.5169 -0.2886  0.7442
  627MPD2    C2 9284   1.091   2.805  14.206 -0.7622 -0.5670  0.1956
  627MPD2    C3 9285   1.004   2.728  14.125  0.1885 -0.4039 -0.0406
  627MPD2    C4 9286   1.036   2.711  13.991  0.3671  0.0203 -0.2795
  627MPD2    C5 9287   1.149   2.770  13.937 -0.1084 -0.1537  0.2911
  627MPD2     H 9288   1.085   2.812  14.314  3.7615  2.8825  0.2200
  627MPD2    H1 9289   0.975   2.653  13.922  1.2322 -0.5162 -0.5884
  627MPD2    H2 9290   1.314   2.893  13.963 -0.1307 -0.5847 -0.4416
  627MPD2    H3 9291   1.173   2.751  13.833  1.3680  2.2613  0.1880
  627MPD2     N 9292   0.885   2.675  14.178  0.5486 -0.4086 -0.3187
  627MPD2    H5 9293   0.868   2.684  14.278 -1.2116 -0.0861 -0.6440
  627MPD2    N1 9294   1.304   2.919  14.238  0.0163  0.3649 -0.1455
  627MPD2    H7 9295   1.269   2.923  14.333 -0.3757  0.0330 -0.2736
  628TMC3    C1 9296   1.499   3.030  14.305 -0.4701  0.3169  0.9673
  628TMC3    C2 9297   1.625   2.980  14.323 -0.1670 -0.4395  0.4992
  628TMC3    C3 9298   1.673   2.971  14.448 -0.4891 -0.3761 -0.1596
  628TMC3    C4 9299   1.418   3.072  14.414 -0.2499 -1.0764 -0.8429
  628TMC3    C5 9300   1.477   3.079  14.537  0.6147 -0.8235  0.0934
  628TMC3    C6 9301   1.603   3.022  14.555 -0.2155 -0.1279  0.3539
  628TMC3     C 9302   1.426   2.971  14.196  0.3116 -0.0490  0.1585
  628TMC3     O 9303   1.487   2.955  14.091 -0.2638  0.2778 -0.0016
  628TMC3     H 9304   1.678   2.942  14.236 -1.0767  1.9218 -1.0985
  628TMC3    H1 9305   1.328   3.125  14.385  0.7989  1.9096  1.3845
  628TMC3    H2 9306   1.649   3.044  14.651 -1.4018 -0.0723  0.9110
  628TMC3    C7 9307   1.426   3.162  14.646 -0.1691 -1.1051 -0.4919
  628TMC3    C8 9308   1.815   2.924  14.465  0.6216 -0.4624  0.3109
  628TMC3    O1 9309   1.454   3.138  14.762 -0.2247  0.3083  0.1984
  628TMC3    O2 9310   1.881   2.916  14.364 -0.1922  0.1434  0.2133
  629MPD2     C 9311   3.647   1.562  16.030 -1.0532  0.4441  0.3294
  629MPD2    C1 9312   3.703   1.525  16.151  0.5034  0.4233  0.7071
  629MPD2    C2 9313   3.620   1.531  16.262 -0.3821 -0.3374  0.8430
  629MPD2    C3 9314   3.488   1.584  16.262  0.7349 -0.1443  1.1419
  629MPD2    C4 9315   3.447   1.635  16.141  0.0353 -0.4848 -0.2952
  629MPD2    C5 9316   3.516   1.606  16.023  0.4346 -0.9970  0.5716
  629MPD2     H 9317   3.653   1.495  16.359 -0.8157 -0.8659  0.8003
  629MPD2    H1 9318   3.345   1.671  16.133 -0.2407 -1.2799 -0.3410
  629MPD2    H2 9319   3.690   1.546  15.932 -0.3083  0.1328  0.7019
  629MPD2    H3 9320   3.469   1.643  15.933  2.5396 -2.1166 -0.9836
  629MPD2     N 9321   3.408   1.588  16.385  0.4849 -0.3870  0.7191
  629MPD2    H5 9322   3.445   1.547  16.471  0.0373 -0.3783  0.9165
  629MPD2    N1 9323   3.843   1.484  16.157 -0.5945  0.6458 -0.0910
  629MPD2    H7 9324   3.906   1.496  16.079 -0.0041  0.4111  0.3447
  630TMC3    C1 9325   4.043   1.401  16.264 -0.8130  0.2121  0.1542
  630TMC3    C2 9326   4.126   1.460  16.172 -0.3148  0.0939  0.4157
  630TMC3    C3 9327   4.257   1.419  16.153 -0.2176 -0.0962  0.0430
  630TMC3    C4 9328   4.098   1.313  16.351  0.5409  0.1037  0.4053
  630TMC3    C5 9329   4.233   1.295  16.346 -0.1808 -0.7594  0.2761
  630TMC3    C6 9330   4.317   1.332  16.243  0.9684  0.3210  0.1172
  630TMC3     C 9331   3.905   1.438  16.272 -1.1528 -0.2212 -0.3081
  630TMC3     O 9332   3.848   1.395  16.367 -0.9052 -0.3865  0.1938
  630TMC3     H 9333   4.076   1.526  16.102  0.7700 -1.0168 -1.4134
  630TMC3    H1 9334   4.048   1.295  16.446 -1.3412 -0.8761 -0.7624
  630TMC3    H2 9335   4.422   1.304  16.235  1.2212  1.2859 -0.0012
  630TMC3    C7 9336   4.296   1.291  16.471  0.0541 -0.2724 -0.5727
  630TMC3    C8 9337   4.351   1.514  16.108  0.3736  0.3986  0.1967
  630TMC3    O1 9338   4.253   1.224  16.564 -0.1470 -0.5907 -0.5566
  630TMC3    O2 9339   4.453   1.524  16.175  0.0150  0.0406  1.0112
  631MPD2     C 9340   2.389   0.992  15.781  0.3556 -0.3013 -0.7631
  631MPD2    C1 9341   2.477   1.019  15.680  0.4432 -0.2526 -0.4874
  631MPD2    C2 9342   2.610   0.979  15.693 -0.2670 -0.0892 -0.1445
  631MPD2    C3 9343   2.653   0.905  15.802  0.0551 -0.6767 -0.1992
  631MPD2    C4 9344   2.557   0.880  15.894  0.9194  0.0018  0.1743
  631MPD2    C5 9345   2.430   0.923  15.885 -0.3735 -0.5610  0.3668
  631MPD2     H 9346   2.677   1.004  15.611  0.7942  1.3279  1.1433
  631MPD2    H1 9347   2.572   0.818  15.982 -1.8086  0.9460  1.3387
  631MPD2    H2 9348   2.287   1.026  15.776  0.2864 -0.2029  1.0899
  631MPD2    H3 9349   2.357   0.878  15.952 -0.5212 -0.3132  0.3714
  631MPD2     N 9350   2.783   0.849  15.802 -0.2147 -0.6476  0.0552
  631MPD2    H5 9351   2.841   0.861  15.720  1.3374 -0.2700  1.2090
  631MPD2    N1 9352   2.417   1.096  15.576 -0.9172  0.1599  0.0511
  631MPD2    H7 9353   2.326   1.130  15.605 -1.2522 -0.1448 -0.6290
  632TMC3    C1 9354   2.403   1.247  15.393  0.0657 -0.3916  0.4963
  632TMC3    C2 9355   2.295   1.305  15.453 -0.1484  0.3985 -0.0851
  632TMC3    C3 9356   2.214   1.384  15.382  0.1249 -0.2474 -0.2559
  632TMC3    C4 9357   2.435   1.268  15.263 -0.0822 -0.2856 -0.6099
  632TMC3    C5 9358   2.353   1.357  15.195 -0.1372  0.3165 -1.0823
  632TMC3    C6 9359   2.243   1.419  15.256 -0.8700 -0.1374  0.1710
  632TMC3     C 9360   2.482   1.151  15.468  0.5439  0.2069 -0.1081
  632TMC3     O 9361   2.587   1.112  15.420 -0.4221 -0.0070 -0.6112
  632TMC3     H 9362   2.275   1.287  15.558 -2.5410 -1.2163 -0.8274
  632TMC3    H1 9363   2.502   1.194  15.221  1.4249  2.0466 -2.2949
  632TMC3    H2 9364   2.181   1.488  15.198 -0.5678 -0.1604 -0.1814
  632TMC3    C7 9365   2.394   1.401  15.054 -0.3857  0.6413 -0.0045
  632TMC3    C8 9366   2.101   1.455  15.445  0.9704  0.7782  0.2241
  632TMC3    O1 9367   2.316   1.471  14.995  0.0320 -0.7394 -0.0058
  632TMC3    O2 9368   2.056   1.558  15.395 -0.1547 -0.1808  0.4622
  633MPD2     C 9369   1.868   3.999  17.375  0.6304  0.1783  0.1838
  633MPD2    C1 9370   1.950   3.963  17.269  0.8801 -0.5032  0.9451
  633MPD2    C2 9371   1.987   3.827  17.263 -0.5911 -0.5465 -0.3599
  633MPD2    C3 9372   1.963   3.739  17.370  0.2961  0.4970  0.2457
  633MPD2    C4 9373   1.895   3.791  17.477 -0.1765 -0.4367  0.2059
  633MPD2    C5 9374   1.840   3.911  17.477 -0.6932  0.0367 -0.2234
  633MPD2     H 9375   2.031   3.792  17.171  1.6002 -0.1889  0.5399
  633MPD2    H1 9376   1.873   3.722  17.559 -2.0806  0.2340  0.2566
  633MPD2    H2 9377   1.831   4.101  17.385  0.8522  0.0784  2.0531
  633MPD2    H3 9378   1.771   3.938  17.556 -1.0194 -0.0354 -0.4827
  633MPD2     N 9379   2.005   3.607  17.380  0.0741  0.5700  0.3493
  633MPD2    H5 9380   1.966   3.560  17.461  1.4879  3.2765  2.5954
  633MPD2    N1 9381   1.983   4.047  17.162  0.1067 -0.2354 -0.1581
  633MPD2    H7 9382   2.007   4.001  17.074 -0.1984  0.9195 -0.8469
  634TMC3    C1 9383   2.027   4.227  17.031  0.3076  0.5048 -0.1760
  634TMC3    C2 9384   2.125   4.153  16.966  0.4619  0.5047  0.1522
  634TMC3    C3 9385   2.183   4.210  16.855 -0.5699  0.4676  0.6747
  634TMC3    C4 9386   2.001   4.352  16.992  0.0921  0.4223 -0.4981
  634TMC3    C5 9387   2.070   4.407  16.884  0.1011  0.2810  0.4036
  634TMC3    C6 9388   2.153   4.331  16.804 -0.2744  0.4419  0.0970
  634TMC3     C 9389   1.965   4.181  17.151  0.2681 -0.3631  0.7622
  634TMC3     O 9390   1.915   4.265  17.225  0.1809 -0.2330 -0.5254
  634TMC3     H 9391   2.165   4.061  17.008 -0.7450 -0.6748 -1.2960
  634TMC3    H1 9392   1.930   4.410  17.051  1.3581  0.9340  0.5346
  634TMC3    H2 9393   2.213   4.388  16.735 -0.8820  2.0055  0.8738
  634TMC3    C7 9394   2.006   4.520  16.813 -0.6223  0.6310 -0.0154
  634TMC3    C8 9395   2.266   4.131  16.769 -0.0639 -0.6595  0.2084
  634TMC3    O1 9396   2.043   4.546  16.700  0.2198  0.8064  0.0240
  634TMC3    O2 9397   2.274   4.015  16.811  0.0573 -0.7640  0.0850
  635TMC3    C1 9398   2.045   4.198  17.574 -0.4712  0.3447  0.0805
  635TMC3    C2 9399   2.122   4.086  17.582  0.8294  0.2742 -0.6496
  635TMC3    C3 9400   2.096   4.005  17.681  0.0339 -0.1648  0.4214
  635TMC3    C4 9401   1.944   4.224  17.663 -0.0395 -0.2790  0.5657
  635TMC3    C5 9402   1.919   4.137   0.079  0.4632 -0.3819 -0.5675
  635TMC3    C6 9403   2.002   4.021   0.087 -0.1036  0.4722  0.7227
  635TMC3     C 9404   2.118   4.318  17.536 -0.8887  0.1538  0.3648
  635TMC3     O 9405   2.053   4.416  17.563 -0.3238 -0.1781 -0.5394
  635TMC3     H 9406   2.191   4.064  17.501  1.2199  0.6601 -0.4254
  635TMC3    H1 9407   1.877   4.308  17.647 -0.8460 -0.4180  3.1524
  635TMC3    H2 9408   2.006   3.961   0.177 -1.7474 -0.3205  0.2648
  635TMC3    C7 9409   1.922   4.210   0.202  0.1852 -0.1445  0.1029
  635TMC3    C8 9410   2.165   3.874  17.678 -0.4445 -0.4736  0.1849
  635TMC3    O1 9411   1.892   4.149   0.305  0.5461 -0.0291  0.2210
  635TMC3    O2 9412   2.268   3.867  17.613 -0.1869  0.3303  0.4015
  636MPD2     C 9413   3.270   4.579  15.729 -0.1418  0.1710 -0.1193
  636MPD2    C1 9414   3.253   4.639  15.857  0.2989  0.2303  0.4560
  636MPD2    C2 9415   3.267   4.565  15.975 -0.5040 -0.4256 -0.0872
  636MPD2    C3 9416   3.314   4.436  15.969  0.3763 -0.0115 -0.9205
  636MPD2    C4 9417   3.335   4.379  15.845  0.4010 -0.3345 -0.2316
  636MPD2    C5 9418   3.314   4.451  15.730 -1.1091  0.3103 -0.0715
  636MPD2     H 9419   3.275   4.625  16.065 -2.8800 -2.1513  1.2712
  636MPD2    H1 9420   3.356   4.273  15.836  1.7509 -0.1466  0.8426
  636MPD2    H2 9421   3.247   4.626  15.635 -1.5527 -3.6209 -1.6507
  636MPD2    H3 9422   3.327   4.404  15.633  0.1579 -0.5495  0.5108
  636MPD2     N 9423   3.340   4.369  16.092  0.3048  0.2911  0.0526
  636MPD2    H5 9424   3.347   4.433  16.171  0.4249  0.4574 -0.0937
  636MPD2    N1 9425   3.213   0.049  15.871  0.3506 -0.5924 -0.3103
  636MPD2    H7 9426   3.195   0.079  15.967  2.5039 -0.0004 -0.0811
  637TMC3    C1 9427   3.420   4.211  16.245  0.8551  0.6496 -0.6935
  637TMC3    C2 9428   3.386   4.291  16.349 -0.1882 -0.4138 -0.2340
  637TMC3    C3 9429   3.425   4.256  16.470 -0.4402  0.1954  1.1064
  637TMC3    C4 9430   3.486   4.090  16.263  0.5102 -0.0162  0.7792
  637TMC3    C5 9431   3.532   4.058  16.389 -0.1545 -0.0387 -0.0548
  637TMC3    C6 9432   3.495   4.141  16.500 -0.0691  0.6654  0.2638
  637TMC3     C 9433   3.377   4.239  16.111  0.6530 -0.4077  0.0436
  637TMC3     O 9434   3.383   4.146  16.029 -0.7275  0.4294  0.0937
  637TMC3     H 9435   3.326   4.380  16.334 -2.4941 -1.5935  1.9794
  637TMC3    H1 9436   3.506   4.027  16.177 -0.8165  0.2794  0.2664
  637TMC3    H2 9437   3.534   4.119  16.598  0.2439  1.8349  0.3975
  637TMC3    C7 9438   3.675   4.062  16.387  0.5194  0.3113 -0.6692
  637TMC3    C8 9439   3.486   4.366  16.533  0.1297 -0.6409  0.1096
  637TMC3    O1 9440   3.718   4.134  16.479  0.0829  0.1225 -0.0395
  637TMC3    O2 9441   3.509   4.458  16.454 -0.3367 -0.2278 -0.1669
  638MPD2     C 9442   3.374   3.514  14.905 -0.6081  0.3476 -0.1492
  638MPD2    C1 9443   3.339   3.410  14.833 -0.1817 -0.1805 -0.2766
  638MPD2    C2 9444   3.265   3.309  14.897  0.5349  0.1246  0.6527
  638MPD2    C3 9445   3.226   3.316  15.029  0.5114 -0.1654 -0.1031
  638MPD2    C4 9446   3.260   3.426  15.106 -0.1713 -0.1414  0.1804
  638MPD2    C5 9447   3.325   3.531  15.033 -0.1294 -0.7422  0.4003
  638MPD2     H 9448   3.247   3.218  14.841 -0.6771  0.6546  0.1719
  638MPD2    H1 9449   3.237   3.447  15.210  0.4881  0.3295  0.2332
  638MPD2    H2 9450   3.433   3.592  14.857 -0.1669 -1.2916 -2.2256
  638MPD2    H3 9451   3.324   3.629  15.080  0.7845  0.4869 -2.1530
  638MPD2     N 9452   3.171   3.203  15.088 -0.9550 -0.2130 -0.1557
  638MPD2    H5 9453   3.167   3.128  15.020 -0.4412 -0.9828  0.6593
  638MPD2    N1 9454   3.406   3.386  14.711  0.0993 -0.2090  0.3555
  638MPD2    H7 9455   3.483   3.447  14.687 -0.4821  1.5617  2.9872
  639TMC3    C1 9456   3.126   3.043  15.259 -0.0753  0.0021  0.3408
  639TMC3    C2 9457   3.018   2.991  15.201 -0.2297 -0.4559  0.5967
  639TMC3    C3 9458   2.965   2.874  15.247  0.0027  0.8137 -0.0158
  639TMC3    C4 9459   3.201   2.983  15.358 -0.2270 -0.2907 -0.2028
  639TMC3    C5 9460   3.144   2.858  15.395 -0.5377 -0.4670  0.3732
  639TMC3    C6 9461   3.030   2.804  15.343  0.4615  0.2669 -0.3862
  639TMC3     C 9462   3.157   3.177  15.223 -0.0471 -0.1629  0.2850
  639TMC3     O 9463   3.202   3.248  15.314 -0.1420  0.3043 -0.6874
  639TMC3     H 9464   2.975   3.040  15.115  1.7244 -1.5726 -1.0091
  639TMC3    H1 9465   3.276   3.035  15.415  1.5563 -2.2229 -0.7632
  639TMC3    H2 9466   3.000   2.709  15.387  0.3095  0.2588 -0.5071
  639TMC3    C7 9467   3.248   2.758  15.405 -1.0253  0.2125 -0.9828
  639TMC3    C8 9468   2.920   2.797  15.134  0.0373 -0.5275  0.2317
  639TMC3    O1 9469   3.211   2.651  15.451 -0.0992 -1.0293 -0.1707
  639TMC3    O2 9470   2.965   2.831  15.021  0.4024  0.4469 -0.2924
  640MPD2     C 9471   3.746   1.979   9.947 -0.5644  0.2048 -0.7178
  640MPD2    C1 9472   3.759   2.087   9.858  0.4259  0.0209 -0.3177
  640MPD2    C2 9473   3.692   2.205   9.882 -0.2462  0.2507  0.4331
  640MPD2    C3 9474   3.595   2.219   9.988 -0.0448  0.4392 -0.2867
  640MPD2    C4 9475   3.590   2.110  10.074  0.0142  0.5478 -0.3710
  640MPD2    C5 9476   3.661   1.993  10.056 -0.7873 -0.6547 -0.1473
  640MPD2     H 9477   3.703   2.279   9.803  2.1370 -1.9776 -1.3229
  640MPD2    H1 9478   3.532   2.113  10.166 -0.7327 -2.3914 -0.7450
  640MPD2    H2 9479   3.804   1.888   9.934 -1.0768 -0.0369 -1.2731
  640MPD2    H3 9480   3.641   1.908  10.121 -1.5648  0.5679  1.2377
  640MPD2     N 9481   3.521   2.330  10.019  0.4101 -1.1300 -0.5688
  640MPD2    H5 9482   3.464   2.321  10.102  0.4352  0.6878 -0.3445
  640MPD2    N1 9483   3.844   2.062   9.745 -0.2720 -0.4206  0.3540
  640MPD2    H7 9484   3.886   1.970   9.743  0.3429 -0.0921 -1.4760
  641TMC3    C1 9485   3.928   2.090   9.526 -0.0305 -0.3435  0.1238
  641TMC3    C2 9486   4.018   1.995   9.550 -0.0737  0.1904 -0.6566
  641TMC3    C3 9487   4.075   1.937   9.439  0.6384  0.4070  0.4479
  641TMC3    C4 9488   3.890   2.128   9.397  0.2768  0.0621 -0.1689
  641TMC3    C5 9489   3.947   2.066   9.295 -0.2170  0.4110 -0.5959
  641TMC3    C6 9490   4.044   1.968   9.311  0.0283  0.7708 -0.5048
  641TMC3     C 9491   3.863   2.146   9.635 -0.4519 -0.4235 -0.2577
  641TMC3     O 9492   3.800   2.248   9.612 -0.0062 -0.2024 -0.0285
  641TMC3     H 9493   4.047   1.980   9.653 -2.0828 -0.3381 -0.1681
  641TMC3    H1 9494   3.822   2.212   9.383  0.4513  0.2331  0.0297
  641TMC3    H2 9495   4.086   1.918   9.225  0.6896 -1.2785  0.9987
  641TMC3    C7 9496   3.943   2.133   9.166 -0.3373  0.1775 -0.4501
  641TMC3    C8 9497   4.173   1.831   9.447  0.7576 -0.0124  0.2086
  641TMC3    O1 9498   4.028   2.115   9.080  0.1997  0.4894 -0.3447
  641TMC3    O2 9499   4.215   1.790   9.341 -0.5278  0.5493  0.0653
  642TMC3    C1 9500   4.556   3.599  12.014 -0.2984 -0.4624 -0.0621
  642TMC3    C2 9501   4.671   3.613  12.084  0.1510 -0.7373  1.0575
  642TMC3    C3 9502   0.025   3.503  12.109 -0.2517 -0.4498 -0.6782
  642TMC3    C4 9503   4.514   3.475  11.975 -0.4466  0.4768 -0.2561
  642TMC3    C5 9504   4.594   3.370  12.004  0.1099  0.4928  0.1143
  642TMC3    C6 9505   4.714   3.384  12.061 -0.2603  0.6188 -0.2459
  642TMC3     C 9506   4.464   3.705  12.020  0.1095  0.6473 -0.0479
  642TMC3     O 9507   4.371   3.697  11.943 -0.6440 -0.2157 -0.0274
  642TMC3     H 9508   4.712   3.710  12.111  0.7426 -0.0218 -2.4476
  642TMC3    H1 9509   4.420   3.463  11.922 -0.1981 -0.3042 -0.5188
  642TMC3    H2 9510   0.045   3.291  12.076 -1.5835 -0.2179 -0.7264
  642TMC3    C7 9511   4.563   3.243  11.949 -0.1791  0.5550  0.1799
  642TMC3    C8 9512   0.164   3.527  12.121  0.2097 -0.4264 -0.1119
  642TMC3    O1 9513   4.510   3.240  11.838  0.0985 -0.1831  0.0590
  642TMC3    O2 9514   0.232   3.449  12.055 -0.4693 -0.1930 -0.0572
  643TMC3    C1 9515   4.024   2.396   0.113 -0.3598  0.5040 -0.2989
  643TMC3    C2 9516   3.943   2.491   0.042 -0.3475  0.2906 -0.5434
  643TMC3    C3 9517   3.856   2.439  17.638 -0.1975 -0.5052 -0.1434
  643TMC3    C4 9518   4.048   2.265   0.065  0.4754  0.6104  0.7328
  643TMC3    C5 9519   3.974   2.231  17.643 -0.0680  0.0277  0.3853
  643TMC3    C6 9520   3.864   2.304  17.600  0.2487 -0.1228  0.2840
  643TMC3     C 9521   4.115   2.453   0.214 -0.2517  0.3948 -0.8200
  643TMC3     O 9522   4.107   2.574   0.240  0.0074  0.4309  0.1076
  643TMC3     H 9523   3.934   2.593   0.077 -3.2186  0.4117 -1.6883
  643TMC3    H1 9524   4.133   2.205   0.094 -0.4249  0.1756  2.5074
  643TMC3    H2 9525   3.807   2.275  17.512 -0.7483  0.4089  0.7496
  643TMC3    C7 9526   3.971   2.085  17.622 -1.1317 -0.1163  0.3826
  643TMC3    C8 9527   3.813   2.536  17.542 -0.2377  0.5407 -0.5315
  643TMC3    O1 9528   3.983   2.026   0.039  0.1378 -0.3286  0.0523
  643TMC3    O2 9529   3.710   2.518  17.479 -0.0741 -0.2490  0.3000
  644MPD2     C 9530   3.556   2.580   9.184 -0.5920  0.2403  0.1617
  644MPD2    C1 9531   3.676   2.654   9.176 -0.5911 -0.6573  0.1092
  644MPD2    C2 9532   3.660   2.792   9.160 -0.2652  0.3191  0.4071
  644MPD2    C3 9533   3.535   2.846   9.153 -0.9236  0.3216  0.2979
  644MPD2    C4 9534   3.421   2.776   9.153 -0.3628 -0.6949  0.0335
  644MPD2    C5 9535   3.432   2.641   9.164 -0.2749  0.1900  0.1003
  644MPD2     H 9536   3.745   2.858   9.172 -0.4643  0.8073 -0.9321
  644MPD2    H1 9537   3.326   2.828   9.159  1.0027  1.7685  0.0865
  644MPD2    H2 9538   3.560   2.475   9.210 -1.4346  0.3271  0.6604
  644MPD2    H3 9539   3.339   2.585   9.165  0.3554 -0.8035  1.8647
  644MPD2     N 9540   3.518   2.985   9.148 -0.4065 -0.0443  0.3955
  644MPD2    H5 9541   3.426   3.028   9.142  0.1325  0.8832 -1.1529
  644MPD2    N1 9542   3.797   2.590   9.215  0.0071 -0.2978  0.0084
  644MPD2    H7 9543   3.796   2.500   9.262  0.8975 -0.0625  0.4784
  645TMC3    C1 9544   3.556   3.217   9.152 -0.0154 -0.2757  0.0314
  645TMC3    C2 9545   3.647   3.321   9.129 -0.4895 -0.5701  0.0961
  645TMC3    C3 9546   3.613   3.443   9.177  1.2509 -0.6394  0.3748
  645TMC3    C4 9547   3.444   3.236   9.231  0.3359  0.3169 -0.2090
  645TMC3    C5 9548   3.423   3.362   9.285  0.1901 -0.0063  0.0327
  645TMC3    C6 9549   3.502   3.469   9.251 -0.5175 -0.1667  0.5298
  645TMC3     C 9550   3.613   3.080   9.138 -0.9160 -0.6691 -0.1646
  645TMC3     O 9551   3.730   3.068   9.109 -0.5187 -0.4274 -0.1126
  645TMC3     H 9552   3.725   3.310   9.053  1.3206 -0.2146  1.8971
  645TMC3    H1 9553   3.411   3.150   9.289 -2.9214 -0.1637 -2.8210
  645TMC3    H2 9554   3.490   3.570   9.287  3.4610  0.3449  0.3959
  645TMC3    C7 9555   3.313   3.387   9.376 -0.6582 -0.6076  0.5653
  645TMC3    C8 9556   3.711   3.545   9.164  0.0590  0.2320  0.1878
  645TMC3    O1 9557   3.323   3.486   9.453 -0.0896 -0.2293  0.2058
  645TMC3    O2 9558   3.818   3.504   9.130 -0.0435 -0.1178 -0.0552
  646MPD2     C 9559   3.454   1.955  14.425  0.8198 -0.2785  0.0594
  646MPD2    C1 9560   3.384   1.990  14.536 -0.4932  0.2407  0.2887
  646MPD2    C2 9561   3.269   2.068  14.523 -0.7225 -0.1599  0.0328
  646MPD2    C3 9562   3.215   2.108  14.402 -0.0037  0.2503 -0.0140
  646MPD2    C4 9563   3.286   2.068  14.285 -0.4892  0.7723  0.5295
  646MPD2    C5 9564   3.404   1.995  14.302 -0.6807 -0.3669  0.0085
  646MPD2     H 9565   3.214   2.102  14.610 -3.2452 -1.7783 -0.9409
  646MPD2    H1 9566   3.247   2.091  14.187  0.3268  0.2697  0.0883
  646MPD2    H2 9567   3.536   1.884  14.432  0.5215 -0.5175  1.1453
  646MPD2    H3 9568   3.436   1.945  14.211 -0.8130 -1.1068  0.3697
  646MPD2     N 9569   3.103   2.185  14.406  0.3451 -0.1865 -0.5958
  646MPD2    H5 9570   3.064   2.202  14.498 -0.5823 -1.0311 -0.8355
  646MPD2    N1 9571   3.442   1.958  14.664 -0.1429 -0.1345  0.9832
  646MPD2    H7 9572   3.531   1.910  14.668 -0.6057 -1.3484 -2.7342
  647TMC3    C1 9573   3.457   1.918  14.892  0.5446 -0.1624  0.0392
  647TMC3    C2 9574   3.390   1.836  14.973 -0.6620 -0.2627  0.7529
  647TMC3    C3 9575   3.459   1.771  15.074  0.4674 -0.3790 -0.2568
  647TMC3    C4 9576   3.593   1.919  14.890  0.2548  0.1636 -0.4799
  647TMC3    C5 9577   3.671   1.844  14.980 -0.3407 -1.1939 -0.2155
  647TMC3    C6 9578   3.600   1.782  15.078  0.4228  0.5459  0.5547
  647TMC3     C 9579   3.379   1.962  14.780 -0.5111 -0.3543 -0.4467
  647TMC3     O 9580   3.260   1.988  14.802 -0.3143 -0.0680 -0.2696
  647TMC3     H 9581   3.282   1.827  14.972 -0.8396  2.1077 -0.1224
  647TMC3    H1 9582   3.649   1.966  14.810  0.6653  1.0827  0.3487
  647TMC3    H2 9583   3.658   1.718  15.144  0.8645 -0.8007 -1.1195
  647TMC3    C7 9584   3.811   1.814  14.965  0.4891 -0.2005  0.3845
  647TMC3    C8 9585   3.415   1.644  15.127 -0.1264 -0.3763  0.5762
  647TMC3    O1 9586   3.866   1.772  15.067 -0.1456  0.6055  0.0860
  647TMC3    O2 9587   3.478   1.607  15.227 -0.3964 -0.1567 -0.0822
  648TMC3    C1 9588   2.674   4.262  16.321  0.0573 -0.0970  0.1446
  648TMC3    C2 9589   2.751   4.169  16.265  0.2944 -0.6496  0.5003
  648TMC3    C3 9590   2.739   4.153  16.128 -0.9093 -0.6812  0.4996
  648TMC3    C4 9591   2.573   4.333  16.252  0.4412  0.7685 -0.5409
  648TMC3    C5 9592   2.558   4.304  16.117  0.5088  0.4429 -0.6356
  648TMC3    C6 9593   2.646   4.221  16.054  0.2516 -0.1414 -0.0682
  648TMC3     C 9594   2.665   4.272  16.464  0.7101  0.0613 -0.2667
  648TMC3     O 9595   2.635   4.386  16.500  0.2227 -0.0357  0.0474
  648TMC3     H 9596   2.833   4.124  16.320 -0.4621 -0.9375  1.3839
  648TMC3    H1 9597   2.502   4.396  16.304 -1.2912 -2.1120  0.5754
  648TMC3    H2 9598   2.639   4.191  15.950  1.9051  0.1886 -0.2786
  648TMC3    C7 9599   2.457   4.374  16.031 -0.3493  0.1688  0.6517
  648TMC3    C8 9600   2.753   4.016  16.085  0.5354  0.1641 -0.7343
  648TMC3    O1 9601   2.427   4.321  15.926 -0.2533 -0.4098 -0.1591
  648TMC3    O2 9602   2.652   3.969  16.034 -0.4102  0.2644 -0.1345
  649TMC3    C1 9603   1.458   1.216  13.294 -0.1078  0.1501 -0.3616
  649TMC3    C2 9604   1.488   1.320  13.374  0.0495  0.4919  0.6093
  649TMC3    C3 9605   1.579   1.301  13.470 -0.0037 -0.7889  0.7298
  649TMC3    C4 9606   1.514   1.089  13.314 -0.2106  0.5999 -0.0246
  649TMC3    C5 9607   1.606   1.073  13.412 -0.2395  0.5395 -0.0894
  649TMC3    C6 9608   1.642   1.182  13.489  0.0729 -0.2408 -1.2160
  649TMC3     C 9609   1.384   1.253  13.167  0.5099 -0.4413 -0.3510
  649TMC3     O 9610   1.353   1.367  13.138 -0.2767 -0.2947 -0.3905
  649TMC3     H 9611   1.460   1.421  13.345 -1.6748  0.0046  0.5592
  649TMC3    H1 9612   1.493   1.009  13.244 -0.0541  1.3104 -0.8889
  649TMC3    H2 9613   1.718   1.168  13.565 -2.0951  1.5344  1.2735
  649TMC3    C7 9614   1.618   0.942  13.479 -0.0446 -0.1999  0.1229
  649TMC3    C8 9615   1.616   1.418  13.547  0.1965 -0.7791  0.1840
  649TMC3    O1 9616   1.696   0.946  13.572  0.1689  0.6289  0.6209
  649TMC3    O2 9617   1.545   1.512  13.520 -0.6093  0.0838  0.0497
  650TMC3    C1 9618   4.298   2.772  12.789  0.1162  0.2201  0.8560
  650TMC3    C2 9619   4.250   2.894  12.814 -0.4433 -0.0360  0.5833
  650TMC3    C3 9620   4.200   2.963  12.707  0.5042  0.0654 -0.3609
  650TMC3    C4 9621   4.308   2.717  12.663 -0.3619 -0.3242  0.5158
  650TMC3    C5 9622   4.262   2.791  12.559  0.7947 -0.4194 -0.1874
  650TMC3    C6 9623   4.208   2.913  12.578  0.3606 -0.3984 -0.0406
  650TMC3     C 9624   4.372   2.712  12.900  0.3981  0.0019  0.5282
  650TMC3     O 9625   4.396   2.781  12.999  0.2588  0.3507  0.2329
  650TMC3     H 9626   4.233   2.937  12.912  0.6602  2.7857 -0.4783
  650TMC3    H1 9627   4.350   2.622  12.633 -0.7338  0.3404 -2.0807
  650TMC3    H2 9628   4.159   2.967  12.498 -1.9798  1.0484  2.3871
  650TMC3    C7 9629   4.261   2.720  12.436  0.2930 -0.0015 -0.0072
  650TMC3    C8 9630   4.165   3.101  12.723 -0.0374  0.3030  0.2658
  650TMC3    O1 9631   4.329   2.622  12.405  0.0228  0.1472 -0.1672
  650TMC3    O2 9632   4.205   3.149  12.832 -0.5930  0.3561 -0.4560
  651MPD2     C 9633   2.948   4.283  10.484 -0.8778 -0.4328 -0.7561
  651MPD2    C1 9634   2.955   4.421  10.514  0.8523  0.3534 -0.1314
  651MPD2    C2 9635   3.073   4.486  10.476 -0.4913  0.6830  0.8130
  651MPD2    C3 9636   3.178   4.423  10.422  0.1961  0.6993  0.2936
  651MPD2    C4 9637   3.176   4.288  10.400  0.6170  0.4025 -0.3338
  651MPD2    C5 9638   3.060   4.220  10.424  0.2721 -0.5693  0.3473
  651MPD2     H 9639   3.072   4.592  10.498 -0.5548  0.0693  3.6984
  651MPD2    H1 9640   3.266   4.244  10.359  0.2608 -0.6236 -0.0125
  651MPD2    H2 9641   2.871   4.221  10.529  0.5406 -1.5752  0.1023
  651MPD2    H3 9642   3.056   4.112  10.413 -0.3589 -0.5116  0.0194
  651MPD2     N 9643   3.288   4.509  10.391  0.4794 -0.0583  0.1942
  651MPD2    H5 9644   3.260   4.605  10.405  0.6456 -0.0399  0.3895
  651MPD2    N1 9645   2.855   4.492  10.579  0.0820  0.2370  0.3720
  651MPD2    H7 9646   2.857   4.593  10.587  0.3659  0.0306  2.7373
  652TMC3    C1 9647   3.717   4.650  10.379  0.7680 -0.4002  0.0426
  652TMC3    C2 9648   3.635   4.548  10.354  0.5700  0.0821 -0.3118
  652TMC3    C3 9649   3.501   4.585  10.340 -0.0322  0.1709 -0.6430
  652TMC3    C4 9650   3.672   0.053  10.402  1.0177  0.8563 -0.1620
  652TMC3    C5 9651   3.534   0.083  10.398 -0.2833  0.4639 -0.3470
  652TMC3    C6 9652   3.450   4.707  10.358 -0.0043 -0.3167  0.4466
  652TMC3     C 9653   3.857   4.631  10.402  0.0377  0.2300 -0.3423
  652TMC3     O 9654   3.905   4.529  10.458  0.3645  0.3481  0.0143
  652TMC3     H 9655   3.673   4.454  10.316  0.0992 -0.2848  0.1212
  652TMC3    H1 9656   3.742   0.130  10.431  1.2716  0.3546  0.5418
  652TMC3    H2 9657   3.348   0.018  10.341 -0.2832 -0.9252  0.8823
  652TMC3    C7 9658   3.483   0.210  10.430  0.3015 -0.1396 -0.4048
  652TMC3    C8 9659   3.414   4.477  10.354 -0.6427  0.0876 -0.6264
  652TMC3    O1 9660   3.361   0.221  10.454  0.3840 -0.2330 -0.5730
  652TMC3    O2 9661   3.466   4.365  10.361 -0.5918  0.1928  0.5678
  653MPD2     C 9662   1.590   4.268   0.117 -0.3289 -0.5446  0.0399
  653MPD2    C1 9663   1.559   4.345   0.008 -0.0928 -0.2040  0.2872
  653MPD2    C2 9664   1.511   4.271  17.587  0.2415  0.2877  0.0781
  653MPD2    C3 9665   1.495   4.132  17.590  0.0395  0.3195  0.9258
  653MPD2    C4 9666   1.534   4.060   0.012 -0.0006 -0.4450  0.3253
  653MPD2    C5 9667   1.577   4.132   0.115  1.0090  0.1433 -0.3237
  653MPD2     H 9668   1.477   4.327  17.501 -0.1009 -0.6094 -0.3585
  653MPD2    H1 9669   1.530   3.952   0.012 -0.8434 -0.4139  0.6454
  653MPD2    H2 9670   1.626   4.318   0.205 -0.9644 -2.7100  1.5399
  653MPD2    H3 9671   1.611   4.082   0.205 -3.0253 -0.5385  0.8032
  653MPD2     N 9672   1.427   4.080  17.479 -0.5148 -0.0379  0.3516
  653MPD2    H5 9673   1.402   4.143  17.403 -0.1466 -1.0860 -0.6363
  653MPD2    N1 9674   1.569   4.486   0.006  0.3697 -0.0707  0.0609
  653MPD2    H7 9675   1.548   4.533  17.610 -1.3521  1.8224  1.5086
  654TMC3    C1 9676   1.340   3.939  17.327 -0.6153 -0.7720 -0.1970
  654TMC3    C2 9677   1.290   4.049  17.269 -0.4029 -0.3490 -0.2157
  654TMC3    C3 9678   1.271   4.037  17.131  1.0234  0.1157 -0.1706
  654TMC3    C4 9679   1.384   3.826  17.254  0.1309  0.3861 -0.1733
  654TMC3    C5 9680   1.370   3.829  17.120  0.6322 -0.3560 -0.5407
  654TMC3    C6 9681   1.306   3.930  17.049 -0.8881 -0.5909  0.3770
  654TMC3     C 9682   1.398   3.948  17.458  0.7347 -0.6121 -0.9200
  654TMC3     O 9683   1.359   3.864  17.540 -0.5177  0.0752 -0.1118
  654TMC3     H 9684   1.246   4.134  17.320 -0.7193 -1.1303  0.8015
  654TMC3    H1 9685   1.439   3.754  17.314 -1.7699 -0.5676  0.4240
  654TMC3    H2 9686   1.294   3.927  16.942 -1.7550  2.5691  0.4081
  654TMC3    C7 9687   1.468   3.758  17.040  0.3241 -0.5152 -0.1758
  654TMC3    C8 9688   1.205   4.149  17.069  0.0911  0.1631  0.4839
  654TMC3    O1 9689   1.486   3.794  16.926 -0.1612 -0.2029 -0.4111
  654TMC3    O2 9690   1.130   4.215  17.137  0.7049 -0.6432  0.4341
  655MPD2     C 9691   3.072   4.207  15.890 -0.7685 -0.1256 -0.4348
  655MPD2    C1 9692   2.958   4.265  15.828 -0.0123 -0.8386 -0.3819
  655MPD2    C2 9693   2.921   4.218  15.704  0.3350  0.3705 -0.8904
  655MPD2    C3 9694   3.002   4.130  15.632 -0.5791 -0.4101  0.1773
  655MPD2    C4 9695   3.112   4.069  15.696  0.8296 -0.6439  0.0456
  655MPD2    C5 9696   3.148   4.112  15.822  0.0824 -0.3881  0.0626
  655MPD2     H 9697   2.835   4.259  15.654  0.6100  1.7705 -0.2190
  655MPD2    H1 9698   3.163   3.991  15.641 -0.2359 -1.0807 -0.3351
  655MPD2    H2 9699   3.101   4.223  15.993  0.3464 -1.0273 -0.6017
  655MPD2    H3 9700   3.226   4.060  15.877  1.1124 -0.3739 -1.3740
  655MPD2     N 9701   2.973   4.078  15.499 -0.0584  0.6291 -0.2271
  655MPD2    H5 9702   3.034   4.008  15.459  1.8683  0.5695  2.8528
  655MPD2    N1 9703   2.876   4.370  15.877  0.0513 -0.8453 -0.6838
  655MPD2    H7 9704   2.804   4.402  15.814 -2.5117 -2.1927  1.5411
  656TMC3    C1 9705   2.836   4.565  16.013  0.2418  0.7054  0.1144
  656TMC3    C2 9706   2.803   4.612  16.137  0.3289  0.4313  0.2860
  656TMC3    C3 9707   2.738   0.007  16.143 -0.4961  0.3615  0.2995
  656TMC3    C4 9708   2.799   4.635  15.905 -0.8849 -0.6452  0.2409
  656TMC3    C5 9709   2.726   0.029  15.922 -0.4253 -0.4605  0.7453
  656TMC3    C6 9710   2.684   0.073  16.041  0.4496  0.0386  0.0727
  656TMC3     C 9711   2.899   4.434  16.000  0.1821  0.3312 -0.1696
  656TMC3     O 9712   2.970   4.398  16.096 -0.1659  0.1460 -0.2345
  656TMC3     H 9713   2.849   4.570  16.226 -0.3154  1.1041  0.9373
  656TMC3    H1 9714   2.805   4.595  15.804  2.1519 -2.1779  1.0408
  656TMC3    H2 9715   2.626   0.164  16.052  2.1754  1.4307 -2.1717
  656TMC3    C7 9716   2.666   0.082  15.804  0.5198 -0.5219  0.1337
  656TMC3    C8 9717   2.649   0.003  16.259  0.4328  0.5276  0.3137
  656TMC3    O1 9718   2.731   0.061  15.701 -0.9810 -0.0131  0.5217
  656TMC3    O2 9719   2.623   4.608  16.291  0.0265  0.0327  0.3447
  657TMC3    C1 9720   2.012   3.698  15.209  0.6974  0.9402  0.0271
  657TMC3    C2 9721   2.063   3.684  15.340 -0.0262  0.5008  0.4520
  657TMC3    C3 9722   1.998   3.768  15.424 -1.1850  0.4451  0.0212
  657TMC3    C4 9723   1.895   3.761  15.177 -0.4199 -0.0144  0.4167
  657TMC3    C5 9724   1.843   3.844  15.269 -0.4093  0.5465  0.3422
  657TMC3    C6 9725   1.886   3.840  15.398  0.3334  0.0758 -0.3649
  657TMC3     C 9726   2.058   3.605  15.110  0.0589 -0.3776 -0.1328
  657TMC3     O 9727   1.975   3.550  15.038  0.0477  0.3049  0.2482
  657TMC3     H 9728   2.145   3.618  15.367 -1.4391 -1.0577  0.8784
  657TMC3    H1 9729   1.850   3.758  15.079  1.6022  3.6127 -0.5978
  657TMC3    H2 9730   1.847   3.921  15.459  1.6039  0.7047 -0.3807
  657TMC3    C7 9731   1.711   3.894  15.238 -0.2982  0.5021  0.4593
  657TMC3    C8 9732   2.061   3.810  15.548 -0.3842 -0.7407 -0.0987
  657TMC3    O1 9733   1.628   3.879  15.329  0.2887  0.1790 -0.0978
  657TMC3    O2 9734   2.019   3.910  15.603  1.0038  0.2106 -0.5543
  658MPD2     C 9735   3.419   4.152  15.076  0.1905 -0.5986  0.2350
  658MPD2    C1 9736   3.304   4.114  15.006 -0.0082 -0.0312  1.2780
  658MPD2    C2 9737   3.288   4.155  14.880  1.1648  0.1548 -0.4805
  658MPD2    C3 9738   3.389   4.207  14.809  0.5011  0.1018 -0.2087
  658MPD2    C4 9739   3.504   4.240  14.870 -0.4489 -0.2497 -0.0868
  658MPD2    C5 9740   3.516   4.217  15.001 -0.1956 -0.2319  0.5560
  658MPD2     H 9741   3.189   4.146  14.836  0.6252  1.6683  0.4438
  658MPD2    H1 9742   3.592   4.282  14.822 -1.0314 -0.1597 -1.0708
  658MPD2    H2 9743   3.443   4.131  15.179  1.0579 -1.5743 -0.1556
  658MPD2    H3 9744   3.604   4.257  15.049 -0.7529  0.7207  0.7789
  658MPD2     N 9745   3.358   4.249  14.682  0.2568  0.1274 -0.3810
  658MPD2    H5 9746   3.263   4.221  14.660 -0.6656  1.8704  1.3285
  658MPD2    N1 9747   3.197   4.049  15.080 -0.6153  0.3429 -0.2857
  658MPD2    H7 9748   3.217   4.025  15.177  1.3493  1.7308 -0.3372
  659TMC3    C1 9749   2.966   3.974  15.104  0.1039 -0.7482  0.1843
  659TMC3    C2 9750   2.976   3.997  15.239 -0.1548  0.4185  0.5699
  659TMC3    C3 9751   2.866   4.059  15.296  0.2690 -0.3307 -0.8357
  659TMC3    C4 9752   2.850   4.000  15.034 -0.1465  0.0716  0.0832
  659TMC3    C5 9753   2.749   4.058  15.101 -0.1992  0.1550  0.3917
  659TMC3    C6 9754   2.751   4.090  15.231 -0.0374  0.1932 -1.0112
  659TMC3     C 9755   3.090   3.986  15.025 -0.0669  0.1463  0.4223
  659TMC3     O 9756   3.071   3.961  14.909  0.6275 -0.5806  0.0646
  659TMC3     H 9757   3.064   3.972  15.298 -0.9247 -1.1130  1.0845
  659TMC3    H1 9758   2.851   4.004  14.926  1.2825 -0.5100  0.0694
  659TMC3    H2 9759   2.668   4.152  15.263 -0.8717 -1.2339 -0.3622
  659TMC3    C7 9760   2.613   4.055  15.038  0.0664  0.0785  1.0299
  659TMC3    C8 9761   2.861   4.108  15.431  0.2476  0.1146  0.0366
  659TMC3    O1 9762   2.532   4.126  15.092  0.1616 -0.4334 -0.4652
  659TMC3    O2 9763   2.774   4.185  15.462  0.0647  0.2386  0.3531
  660MPD2     C 9764   1.046   3.830  12.679  0.7804 -0.6711 -0.3046
  660MPD2    C1 9765   0.929   3.894  12.693  0.7691  0.2177  0.1683
  660MPD2    C2 9766   0.851   3.871  12.798  0.0280  0.1338 -0.3474
  660MPD2    C3 9767   0.884   3.779  12.893 -0.3508 -0.2283 -0.2960
  660MPD2    C4 9768   1.013   3.731  12.888 -1.0726 -0.8769 -0.2274
  660MPD2    C5 9769   1.094   3.749  12.776  0.7175 -0.0711 -0.2491
  660MPD2     H 9770   0.754   3.921  12.797 -0.4177 -0.6889  0.9857
  660MPD2    H1 9771   1.060   3.673  12.967 -2.6290 -1.1915  0.4823
  660MPD2    H2 9772   1.099   3.842  12.585  0.3336  2.3976 -0.1947
  660MPD2    H3 9773   1.197   3.717  12.765  0.5521 -0.5243 -0.4606
  660MPD2     N 9774   0.801   3.749  13.008 -0.0042 -0.0095  0.1245
  660MPD2    H5 9775   0.837   3.680  13.073 -1.8500 -1.1585 -0.0967
  660MPD2    N1 9776   0.902   3.986  12.588 -0.3099 -0.1276  0.4505
  660MPD2    H7 9777   0.978   4.009  12.525 -2.0447 -0.5789 -1.8057
  661TMC3    C1 9778   0.750   4.092  12.443 -0.9983 -1.0099  0.0191
  661TMC3    C2 9779   0.843   4.086  12.344 -0.3220 -0.2846 -0.0790
  661TMC3    C3 9780   0.804   4.106  12.216  0.7559 -0.6582 -0.3962
  661TMC3    C4 9781   0.621   4.094  12.403 -0.3904  0.6099  0.0844
  661TMC3    C5 9782   0.586   4.092  12.271 -0.8580  0.1372 -0.4923
  661TMC3    C6 9783   0.673   4.097  12.172 -0.5115 -0.1676 -0.4925
  661TMC3     C 9784   0.784   4.051  12.574 -0.2837 -0.3558 -0.2315
  661TMC3     O 9785   0.694   4.069  12.652  0.2132  0.0495 -0.2042
  661TMC3     H 9786   0.942   4.123  12.368  0.2902 -1.3284 -1.0095
  661TMC3    H1 9787   0.547   4.125  12.476 -0.1761  0.2896  0.4404
  661TMC3    H2 9788   0.650   4.092  12.066 -1.1344 -0.7604 -0.3319
  661TMC3    C7 9789   0.453   4.074  12.231 -0.5015  0.3315 -0.0369
  661TMC3    C8 9790   0.903   4.083  12.110 -0.7566 -0.4327  0.4605
  661TMC3    O1 9791   0.363   4.128  12.295 -0.2894 -0.3758 -0.5922
  661TMC3    O2 9792   1.012   4.037  12.153  0.0501  0.1778  0.2974
  662MPD2     C 9793   1.730   2.786  17.548 -0.1005 -0.1701 -0.4428
  662MPD2    C1 9794   1.664   2.816  17.426  0.4747 -0.2298 -0.2057
  662MPD2    C2 9795   1.551   2.903  17.436  0.0547 -0.0150  0.0313
  662MPD2    C3 9796   1.502   2.941  17.567 -0.1300 -0.5922  0.3209
  662MPD2    C4 9797   1.567   2.897  17.680 -0.4645 -0.4400 -0.1021
  662MPD2    C5 9798   1.685   2.828  17.670  0.3985  0.3801 -0.3459
  662MPD2     H 9799   1.501   2.921  17.342  1.8263  1.2563 -0.6681
  662MPD2    H1 9800   1.531   2.912   0.089  1.2436  1.5429  0.2266
  662MPD2    H2 9801   1.819   2.723  17.545  0.1326  0.0397  2.0261
  662MPD2    H3 9802   1.725   2.792   0.072  1.4802  1.0689 -0.5480
  662MPD2     N 9803   1.384   3.006  17.571  0.3462  0.0415 -0.0670
  662MPD2    H5 9804   1.369   3.041  17.665 -1.9115 -1.9042  0.3046
  662MPD2    N1 9805   1.701   2.765  17.299  0.4029 -0.3329  0.3151
  662MPD2    H7 9806   1.631   2.783  17.228  0.6928  1.3932  0.4690
  663TMC3    C1 9807   1.755   2.609  17.145  0.0679  0.0673  0.3851
  663TMC3    C2 9808   1.631   2.647  17.103 -0.6216 -1.1064  0.3365
  663TMC3    C3 9809   1.547   2.553  17.048 -0.1993 -1.0850  0.1289
  663TMC3    C4 9810   1.788   2.477  17.155  0.8803 -0.2466 -0.4081
  663TMC3    C5 9811   1.692   2.385  17.120  0.4379  0.3534  0.5158
  663TMC3    C6 9812   1.562   2.422  17.085  0.0466 -0.2699  0.1430
  663TMC3     C 9813   1.794   2.678  17.270 -0.4913  0.0527 -0.1344
  663TMC3     O 9814   1.889   2.628  17.334  0.1175  0.1250  0.1106
  663TMC3     H 9815   1.611   2.745  17.061 -0.5000 -1.2096  0.0392
  663TMC3    H1 9816   1.892   2.449  17.170  0.6462 -0.1267  1.4494
  663TMC3    H2 9817   1.503   2.347  17.034 -1.2506  0.7756  0.0715
  663TMC3    C7 9818   1.720   2.249  17.160 -0.8869  0.4013 -0.5792
  663TMC3    C8 9819   1.417   2.596  17.073  0.7396  0.0485 -0.1221
  663TMC3    O1 9820   1.839   2.225  17.178  0.7167  0.9137  0.0550
  663TMC3    O2 9821   1.375   2.690  17.004 -0.1570  0.1297  0.2969
  664MPD2     C 9822   4.346   0.902  17.605 -0.7318 -0.5000  0.2985
  664MPD2    C1 9823   4.366   1.036  17.630 -0.4263  0.1005  0.5152
  664MPD2    C2 9824   4.396   1.074   0.070 -0.1108  0.7660  0.2753
  664MPD2    C3 9825   4.399   0.985   0.172  0.0346 -0.3893 -0.5909
  664MPD2    C4 9826   4.376   0.852   0.141  0.4043  0.4807 -0.0653
  664MPD2    C5 9827   4.341   0.813   0.013  0.7975 -0.5602  0.5061
  664MPD2     H 9828   4.430   1.177   0.076  0.8558  0.4336  0.4418
  664MPD2    H1 9829   4.383   0.777   0.219  2.8124 -1.7214 -2.3942
  664MPD2    H2 9830   4.337   0.869  17.502  1.6623 -1.9889  0.5621
  664MPD2    H3 9831   4.342   0.707  17.681  0.7561 -0.1496 -1.3329
  664MPD2     N 9832   4.433   1.034   0.298  0.1245 -0.4902  0.1628
  664MPD2    H5 9833   4.449   1.134   0.296  0.0973 -0.5195 -1.7045
  664MPD2    N1 9834   4.373   1.141  17.530  0.2070 -0.2670 -0.0096
  664MPD2    H7 9835   4.411   1.229  17.563 -0.2959  0.2129 -0.7231
  665TMC3    C1 9836   4.491   1.045   0.515 -0.3090  0.3849  0.6969
  665TMC3    C2 9837   4.584   0.990   0.599 -0.3153 -0.1809 -0.2172
  665TMC3    C3 9838   4.642   1.075   0.689  0.2200  0.0048 -0.1557
  665TMC3    C4 9839   4.459   1.179   0.516 -0.0279 -0.4797  0.2704
  665TMC3    C5 9840   4.525   1.258   0.604  0.4231  1.0471 -0.3437
  665TMC3    C6 9841   4.622   1.211   0.686 -0.5812  0.1150  0.3619
  665TMC3     C 9842   4.430   0.960   0.412  0.9321 -0.2660  0.0083
  665TMC3     O 9843   4.424   0.841   0.427 -0.3008  0.0578 -0.4331
  665TMC3     H 9844   4.608   0.885   0.585  0.9953  0.4248 -2.4227
  665TMC3    H1 9845   4.382   1.218   0.451  0.2607 -0.0131  0.2138
  665TMC3    H2 9846   4.659   1.269   0.769  0.4318 -0.4012  0.2681
  665TMC3    C7 9847   4.472   1.397   0.614  0.4214  0.4911 -0.4782
  665TMC3    C8 9848   4.682   1.021   0.822  0.1295 -0.3858  0.2529
  665TMC3    O1 9849   4.360   1.421   0.564 -0.0418  0.0875  0.2763
  665TMC3    O2 9850   4.716   1.107   0.900  0.0282 -0.1228  0.0081
  666TMC3    C1 9851   3.798   1.123   9.633  0.0522 -0.0878  0.1623
  666TMC3    C2 9852   3.884   1.078   9.726 -0.3752  0.1983 -0.1495
  666TMC3    C3 9853   3.983   1.162   9.775 -0.5672  0.8245  0.0145
  666TMC3    C4 9854   3.801   1.252   9.592  0.2080 -0.8032  0.8646
  666TMC3    C5 9855   3.890   1.338   9.655  0.5095  0.2262  0.6554
  666TMC3    C6 9856   3.985   1.294   9.739  0.4144  0.2109 -0.0661
  666TMC3     C 9857   3.686   1.046   9.585  0.7904  0.4411  0.2003
  666TMC3     O 9858   3.626   1.082   9.488 -0.6088  0.2940 -0.6018
  666TMC3     H 9859   3.885   0.978   9.769  1.6222  0.0883 -0.4380
  666TMC3    H1 9860   3.728   1.283   9.518  2.0810  1.8792  0.1403
  666TMC3    H2 9861   4.039   1.358   9.808 -0.2775  2.0659 -1.2609
  666TMC3    C7 9862   3.879   1.477   9.623 -0.0942  0.5593 -0.0803
  666TMC3    C8 9863   4.066   1.107   9.882 -0.1529  0.1093  0.0859
  666TMC3    O1 9864   3.976   1.541   9.588  0.1343 -0.5149 -0.4458
  666TMC3    O2 9865   4.013   1.021   9.952  0.2951  0.4655 -0.3472
  667MPD2     C 9866   0.240   1.289  14.835 -0.2951  0.1967 -0.3762
  667MPD2    C1 9867   0.178   1.414  14.842  1.0434  0.0466 -0.5332
  667MPD2    C2 9868   0.042   1.420  14.824 -0.2072 -0.2420  0.3262
  667MPD2    C3 9869   4.692   1.301  14.805  0.3857 -0.0618 -0.3092
  667MPD2    C4 9870   0.027   1.180  14.806  0.3837 -0.3106  0.6598
  667MPD2    C5 9871   0.162   1.177  14.825 -0.3473  0.7676 -0.0173
  667MPD2     H 9872   4.710   1.512  14.841 -0.8946 -0.1924 -2.1673
  667MPD2    H1 9873   4.688   1.092  14.795  1.5033 -0.7969 -1.8318
  667MPD2    H2 9874   0.348   1.285  14.844 -0.2988  0.4935 -0.1927
  667MPD2    H3 9875   0.211   1.080  14.826  0.1170  1.0072  0.9547
  667MPD2     N 9876   4.551   1.293  14.788 -0.3876  0.1893 -0.2334
  667MPD2    H5 9877   4.510   1.202  14.809  0.6360 -0.6215 -1.7769
  667MPD2    N1 9878   0.269   1.517  14.871 -0.2361  0.2101  0.4046
  667MPD2    H7 9879   0.366   1.487  14.871 -0.2856  0.0738 -1.0210
  668TMC3    C1 9880   0.372   1.719  14.931 -0.7527 -0.1369 -0.3997
  668TMC3    C2 9881   0.418   1.832  14.877  0.3672  0.6704 -0.6296
  668TMC3    C3 9882   0.495   1.911  14.955  0.7062  0.9124  0.0429
  668TMC3    C4 9883   0.401   1.678  15.054  0.5811 -0.0970  0.7024
  668TMC3    C5 9884   0.471   1.762  15.131  0.1472 -0.4477  0.3967
  668TMC3    C6 9885   0.520   1.882  15.088 -0.0282 -0.3615  0.0531
  668TMC3     C 9886   0.256   1.653  14.871  0.2615 -0.4024  0.4639
  668TMC3     O 9887   0.155   1.718  14.858  0.3215 -0.2852  0.6122
  668TMC3     H 9888   0.389   1.877  14.783  1.2611  2.0996 -0.2145
  668TMC3    H1 9889   0.348   1.591  15.092  2.2981 -0.9744  1.0867
  668TMC3    H2 9890   0.569   1.954  15.152  0.1384 -2.4020  2.2237
  668TMC3    C7 9891   0.499   1.730  15.263  0.3477  0.1289  0.5151
  668TMC3    C8 9892   0.539   2.044  14.916  0.9759  0.0366 -0.2039
  668TMC3    O1 9893   0.596   1.786  15.313 -0.2283 -0.2371 -0.1496
  668TMC3    O2 9894   0.532   2.129  15.000  0.0803  0.3432  0.0624
  669TMC3    C1 9895   3.155   1.359  14.434  0.2732 -0.2034  0.1813
  669TMC3    C2 9896   3.037   1.400  14.374  0.0413 -0.5136  0.1936
  669TMC3    C3 9897   3.041   1.483  14.266  0.1857  0.3976 -0.2877
  669TMC3    C4 9898   3.277   1.383  14.371  0.4517 -0.2351  0.8208
  669TMC3    C5 9899   3.273   1.471  14.267  0.3310  0.8762  0.2969
  669TMC3    C6 9900   3.155   1.525  14.214 -0.4721 -0.1762 -0.0270
  669TMC3     C 9901   3.144   1.258  14.543 -0.3115  0.0141  1.1205
  669TMC3     O 9902   3.033   1.225  14.575  0.9692 -0.7605 -0.2429
  669TMC3     H 9903   2.942   1.380  14.423  0.4684  3.7369  2.7463
  669TMC3    H1 9904   3.368   1.348  14.419 -0.1127 -2.1203  0.5000
  669TMC3    H2 9905   3.151   1.601  14.137 -0.6322  0.1825  0.3315
  669TMC3    C7 9906   3.402   1.514  14.218  0.9422  0.2715 -0.5021
  669TMC3    C8 9907   2.923   1.482  14.182 -0.6510  0.4700  0.1127
  669TMC3    O1 9908   3.498   1.515  14.297 -0.0131 -0.9208 -0.3790
  669TMC3    O2 9909   2.847   1.385  14.192 -0.0211 -0.7987  0.1126
  670MPD2     C 9910   1.386   4.135  13.609 -0.2502  0.8605  0.4133
  670MPD2    C1 9911   1.502   4.077  13.647 -0.2191  0.6431  0.0021
  670MPD2    C2 9912   1.504   3.989  13.757  0.4753 -0.1286 -0.3353
  670MPD2    C3 9913   1.387   3.949  13.824  0.0019 -0.0359 -0.0640
  670MPD2    C4 9914   1.273   4.007  13.777  0.4028 -0.2646 -0.3846
  670MPD2    C5 9915   1.271   4.094  13.673 -0.3360 -0.2085 -0.1821
  670MPD2     H 9916   1.598   3.948  13.791  0.6443  1.8518  1.5871
  670MPD2    H1 9917   1.171   3.993  13.813  0.5490  1.1796  0.5811
  670MPD2    H2 9918   1.369   4.210  13.533 -1.4412  0.6901  0.5200
  670MPD2    H3 9919   1.179   4.146  13.649 -0.8980 -1.8976 -1.6842
  670MPD2     N 9920   1.380   3.835  13.917  0.3689 -0.6592 -0.0030
  670MPD2    H5 9921   1.463   3.783  13.943  2.0883  2.3246  0.3760
  670MPD2    N1 9922   1.622   4.101  13.586 -0.5352  0.0755  0.4893
  670MPD2    H7 9923   1.707   4.068  13.630  0.6471  0.7160 -1.2802
  671TMC3    C1 9924   1.287   3.640  14.009  0.4303 -0.0579  0.2785
  671TMC3    C2 9925   1.345   3.634  14.132 -0.4806  1.1340 -0.0811
  671TMC3    C3 9926   1.299   3.537  14.214  0.7937  0.6214 -0.5307
  671TMC3    C4 9927   1.208   3.551  13.959  0.6364 -0.0283  0.8135
  671TMC3    C5 9928   1.171   3.441  14.039  0.0901  0.0990 -0.5570
  671TMC3    C6 9929   1.208   3.449  14.168  0.4733  0.1539 -0.0753
  671TMC3     C 9930   1.262   3.771  13.951 -0.3789  0.5627 -0.2308
  671TMC3     O 9931   1.148   3.802  13.918  0.4152  0.0982 -0.0717
  671TMC3     H 9932   1.402   3.718  14.169 -1.2991  2.9455 -2.9003
  671TMC3    H1 9933   1.174   3.575  13.859 -1.9855 -0.4523  1.6035
  671TMC3    H2 9934   1.178   3.365  14.229  1.1960  0.0716  0.1727
  671TMC3    C7 9935   1.121   3.326  13.969  0.1360  0.1445  0.5096
  671TMC3    C8 9936   1.401   3.469  14.299  0.4106  0.0562  1.2605
  671TMC3    O1 9937   1.163   3.302  13.858  1.0851  0.2950  0.1006
  671TMC3    O2 9938   1.386   3.350  14.315 -0.6879 -0.0487 -0.3439
  672MPD2     C 9939   1.770   4.245   1.596 -0.1677 -0.2239 -0.4835
  672MPD2    C1 9940   1.753   4.256   1.460  0.0657  0.3219  0.4601
  672MPD2    C2 9941   1.770   4.382   1.400 -0.6679  0.0520  0.5428
  672MPD2    C3 9942   1.814   4.488   1.477  0.2272  0.7279  0.4750
  672MPD2    C4 9943   1.829   4.481   1.614 -0.3302 -0.0905 -0.2402
  672MPD2    C5 9944   1.804   4.357   1.669  0.2435 -1.0712  0.3012
  672MPD2     H 9945   1.750   4.383   1.293 -2.2276 -1.3841  0.8055
  672MPD2    H1 9946   1.874   4.558   1.675  0.4078 -2.3431  2.0859
  672MPD2    H2 9947   1.753   4.154   1.654  0.4784  1.3057  2.0979
  672MPD2    H3 9948   1.813   4.354   1.777  0.1329 -0.2765  0.3374
  672MPD2     N 9949   1.844   4.613   1.417  0.3186  0.5300 -0.5716
  672MPD2    H5 9950   1.867   4.695   1.473  2.8650 -0.9334  0.5287
  672MPD2    N1 9951   1.699   4.144   1.388  0.0934  0.1847 -0.1451
  672MPD2    H7 9952   1.690   4.056   1.438 -1.0462  0.4974  0.2051
  673TMC3    C1 9953   1.585   4.029   1.234  0.4593  0.0558 -0.1735
  673TMC3    C2 9954   1.678   3.930   1.223 -0.3437 -0.0710 -0.0104
  673TMC3    C3 9955   1.638   3.818   1.156 -0.5448 -0.1724  0.3595
  673TMC3    C4 9956   1.464   4.023   1.168  0.6864 -0.2064  0.4657
  673TMC3    C5 9957   1.437   3.909   1.095 -0.0775  0.4558 -0.0624
  673TMC3    C6 9958   1.513   3.798   1.107 -0.2148 -0.0970  0.8519
  673TMC3     C 9959   1.616   4.162   1.279 -0.2571 -0.0422  0.0666
  673TMC3     O 9960   1.534   4.252   1.267 -0.1345 -0.0092 -0.2981
  673TMC3     H 9961   1.778   3.947   1.261 -0.4918 -2.5678  1.5132
  673TMC3    H1 9962   1.392   4.104   1.173  2.8030  1.5495  2.9509
  673TMC3    H2 9963   1.499   3.711   1.043 -2.7075  0.1377  1.1009
  673TMC3    C7 9964   1.310   3.901   1.026 -0.4665 -0.0215 -0.1589
  673TMC3    C8 9965   1.741   3.739   1.095 -0.3093 -0.0927  0.6293
  673TMC3    O1 9966   1.256   3.790   1.025 -0.4273 -0.5208 -0.2019
  673TMC3    O2 9967   1.715   3.624   1.061 -0.1259  0.3721  0.2545
  674MPD2     C 9968   1.676   4.212   0.536  0.5679  0.1913  0.1372
  674MPD2    C1 9969   1.663   4.079   0.521 -0.0451 -0.3145  0.4136
  674MPD2    C2 9970   1.533   4.026   0.516 -1.0802  0.3907 -0.5342
  674MPD2    C3 9971   1.424   4.097   0.527 -0.0205  0.0228 -0.5128
  674MPD2    C4 9972   1.434   4.234   0.532  0.3870 -0.7526  0.2735
  674MPD2    C5 9973   1.562   4.291   0.543 -1.0084  0.2579 -0.4567
  674MPD2     H 9974   1.520   3.928   0.472  2.4111 -0.9648  1.4749
  674MPD2    H1 9975   1.346   4.298   0.522 -0.4712 -1.7887  1.2596
  674MPD2    H2 9976   1.767   4.271   0.536  1.8981 -1.8601 -0.0236
  674MPD2    H3 9977   1.583   4.397   0.554 -0.1898  0.5694 -4.9027
  674MPD2     N 9978   1.299   4.028   0.512  0.0232 -0.0570 -0.0154
  674MPD2    H5 9979   1.315   3.928   0.509 -0.7743 -0.2012  0.5819
  674MPD2    N1 9980   1.784   4.003   0.529 -0.5749 -0.4196 -0.1848
  674MPD2    H7 9981   1.872   4.052   0.537 -0.8194 -0.0720  0.3857
  675TMC3    C1 9982   1.934   3.831   0.537 -0.5352 -0.0035  0.1508
  675TMC3    C2 9983   1.951   3.700   0.562  0.4932  0.0378  0.7080
  675TMC3    C3 9984   2.077   3.656   0.535 -0.1340  0.1889  0.7850
  675TMC3    C4 9985   2.034   3.923   0.500  0.1060 -0.4645 -0.7142
  675TMC3    C5 9986   2.157   3.863   0.483 -0.5693  0.6208  0.4467
  675TMC3    C6 9987   2.180   3.732   0.499 -0.6554  0.1530 -0.5259
  675TMC3     C 9988   1.796   3.869   0.515  0.0755  0.2745  0.5801
  675TMC3     O 9989   1.710   3.790   0.495 -0.0557  0.2787 -0.3050
  675TMC3     H 9990   1.868   3.630   0.568 -0.7847  1.5708  1.0532
  675TMC3    H1 9991   2.009   4.025   0.472 -0.9866 -0.4695  0.2767
  675TMC3    H2 9992   2.278   3.692   0.519 -0.1371  0.2075 -2.9335
  675TMC3    C7 9993   2.242   3.934   0.388 -0.0327  0.3340  0.4679
  675TMC3    C8 9994   2.107   3.517   0.559 -0.1931  0.1481  0.0321
  675TMC3    O1 9995   2.211   4.044   0.358  0.3767  0.3906  0.2277
  675TMC3    O2 9996   2.218   3.475   0.523  0.1247  0.1534 -0.1880
  676MPD2     C 9997   4.104   2.480  10.705 -0.0115  0.3967 -0.3080
  676MPD2    C1 9998   4.042   2.421  10.813 -0.5291 -0.4513  0.3534
  676MPD2    C2 9999   4.022   2.284  10.807  0.1459 -0.4409  0.2731
  676MPD2    C310000   4.054   2.208  10.694 -0.3237 -0.4821 -0.2088
  676MPD2    C410001   4.121   2.272  10.587 -0.7878 -0.3152  0.1858
  676MPD2    C510002   4.138   2.406  10.593 -0.4850 -0.3731  0.3442
  676MPD2     H10003   3.971   2.236  10.889 -1.7956  1.6060  0.2591
  676MPD2    H110004   4.147   2.217  10.497 -0.8088  0.4620 -0.2907
  676MPD2    H210005   4.107   2.588  10.697 -0.3246  0.3991 -0.4025
  676MPD2    H310006   4.188   2.455  10.510 -0.3222  0.8292  1.1602
  676MPD2     N10007   4.032   2.072  10.683  0.2602 -0.4539  0.3590
  676MPD2    H510008   4.068   2.026  10.600 -2.2721 -0.8612 -0.5185
  676MPD2    N110009   3.978   2.492  10.921 -0.1655 -0.5787 -0.3523
  676MPD2    H710010   3.929   2.437  10.991 -2.3300 -0.1975 -1.5695
  677TMC3    C110011   3.903   2.666  11.061  0.5635  0.4558  0.1923
  677TMC3    C210012   3.783   2.601  11.059  0.1002  0.0661 -0.1938
  677TMC3    C310013   3.704   2.624  11.170 -0.0405 -0.5066  0.2208
  677TMC3    C410014   3.946   2.754  11.159  0.2443 -0.2203  0.4773
  677TMC3    C510015   3.871   2.760  11.275 -0.0613 -0.7976  0.5623
  677TMC3    C610016   3.745   2.699  11.276 -0.5807  0.3570  0.0170
  677TMC3     C10017   3.992   2.625  10.957 -0.7998 -0.3134 -1.0936
  677TMC3     O10018   4.089   2.701  10.939 -0.1819 -0.4254  0.0970
  677TMC3     H10019   3.745   2.552  10.970 -1.1710  2.5676 -1.0359
  677TMC3    H110020   4.045   2.798  11.160 -0.1831  0.7501 -1.0439
  677TMC3    H210021   3.681   2.708  11.363  1.1254 -2.1948  1.5078
  677TMC3    C710022   3.925   2.807  11.400 -0.0417  0.4894 -0.5086
  677TMC3    C810023   3.590   2.542  11.196  0.7756 -0.9285  0.3787
  677TMC3    O110024   3.856   2.779  11.496 -0.0118 -0.5777 -0.4522
  677TMC3    O210025   3.498   2.559  11.115 -0.3383 -0.5478 -0.1943
  678MPD2     C10026   1.214   2.527   1.061 -0.4747  0.8243  1.0650
  678MPD2    C110027   1.265   2.485   1.178  0.8965 -0.2266  0.0103
  678MPD2    C210028   1.175   2.462   1.283  0.5479 -0.1005 -0.4505
  678MPD2    C310029   1.041   2.474   1.266 -0.0059  0.3960 -0.5523
  678MPD2    C410030   0.987   2.518   1.144  0.1657 -0.0805 -0.0182
  678MPD2    C510031   1.073   2.540   1.042 -0.5770  0.4392 -0.6214
  678MPD2     H10032   1.217   2.433   1.378 -0.2812  3.4180  0.9981
  678MPD2    H110033   0.881   2.529   1.123 -0.4923 -1.4028  2.6262
  678MPD2    H210034   1.275   2.552   0.975 -0.4163  0.2735  0.9466
  678MPD2    H310035   1.049   2.566   0.940 -3.3929  0.5346  0.0784
  678MPD2     N10036   0.966   2.423   1.377 -0.1073 -0.0822  0.6819
  678MPD2    H510037   1.018   2.383   1.454 -0.6419 -2.5156 -0.1995
  678MPD2    N110038   1.408   2.461   1.186  0.0465 -0.3483  0.0357
  678MPD2    H710039   1.465   2.464   1.103 -0.9409  0.7306 -0.6002
  679TMC3    C110040   1.666   2.184   1.256  0.5309  0.3917  0.5647
  679TMC3    C210041   1.631   2.288   1.340 -0.4908 -0.4480  0.2121
  679TMC3    C310042   1.611   2.411   1.275  0.3559  0.2890 -0.1267
  679TMC3    C410043   1.698   2.187   1.123 -0.2823 -0.2001  0.7171
  679TMC3    C510044   1.692   2.313   1.074 -0.4910  0.1990 -0.2089
  679TMC3    C610045   1.644   2.422   1.141  0.3597  0.2383  0.7335
  679TMC3     C10046   1.650   2.052   1.304  0.1568 -0.9171 -0.3200
  679TMC3     O10047   1.584   1.979   1.234  0.2059 -0.1065  0.1279
  679TMC3     H10048   1.607   2.276   1.445  0.9650 -1.6802  0.3922
  679TMC3    H110049   1.723   2.101   1.062 -1.8962 -1.8044  2.2850
  679TMC3    H210050   1.638   2.517   1.089 -1.0655  0.6661  1.7030
  679TMC3    C710051   1.644   2.316   0.940 -0.3289  0.0265 -0.5638
  679TMC3    C810052   1.473   2.450   1.299 -0.1758  0.2374 -1.0252
  679TMC3    O110053   1.545   2.385   0.913  0.5831 -0.0229  0.2885
  679TMC3    O210054   1.440   2.466   1.415  0.7253  0.4048 -0.6204
  680MPD2     C10055   0.638   0.933  13.401 -0.4648 -1.4483 -0.4800
  680MPD2    C110056   0.729   0.881  13.491 -0.3980  0.5073  0.3691
  680MPD2    C210057   0.770   0.946  13.608 -0.8316  0.3179  0.5197
  680MPD2    C310058   0.719   1.076  13.625 -0.2553  0.0200 -0.5326
  680MPD2    C410059   0.616   1.112  13.541 -0.0190 -0.4534 -0.2715
  680MPD2    C510060   0.588   1.056  13.425 -0.4022 -0.4587 -0.0014
  680MPD2     H10061   0.844   0.906  13.677  1.3265  2.8293 -0.3652
  680MPD2    H110062   0.577   1.213  13.553 -0.3963 -0.7356  0.9389
  680MPD2    H210063   0.617   0.888  13.305 -0.9737 -1.8111 -0.2017
  680MPD2    H310064   0.514   1.101  13.359 -1.7338 -0.9173  1.1883
  680MPD2     N10065   0.745   1.160  13.735 -0.6433  0.1247 -0.2753
  680MPD2    H510066   0.684   1.240  13.742 -0.0260  0.5185  0.6066
  680MPD2    N110067   0.793   0.756  13.460 -0.8700 -0.2949  0.4765
  680MPD2    H710068   0.869   0.715  13.513 -1.4255 -1.6774  0.2088
  681TMC3    C110069   0.794   0.535  13.406  0.5319 -0.5907 -0.1557
  681TMC3    C210070   0.702   0.470  13.477 -0.4484 -0.6681 -0.4279
  681TMC3    C310071   0.750   0.394  13.583  0.6481 -0.1303  0.0383
  681TMC3    C410072   0.930   0.521  13.428  0.4732 -0.3047 -0.4613
  681TMC3    C510073   0.977   0.427  13.521 -0.1034  0.3937  0.6465
  681TMC3    C610074   0.884   0.363  13.598 -0.1940 -0.1975 -1.5379
  681TMC3     C10075   0.746   0.663  13.370 -0.2471  0.1915  0.0137
  681TMC3     O10076   0.653   0.661  13.291  0.1106 -0.0920  0.2302
  681TMC3     H10077   0.600   0.505  13.481 -0.8403 -1.7200 -0.9185
  681TMC3    H110078   1.004   0.576  13.371  2.0761 -1.5828  0.3764
  681TMC3    H210079   0.912   0.297  13.680 -0.4934  0.6554 -0.7422
  681TMC3    C710080   1.121   0.397  13.552  0.2313 -0.0309  0.2100
  681TMC3    C810081   0.663   0.393  13.699  0.3681  0.2677  0.1523
  681TMC3    O110082   1.154   0.316  13.637  0.2103 -0.6427 -0.4735
  681TMC3    O210083   0.544   0.385  13.672  0.2305  0.5693  0.0589
  682MPD2     C10084   3.206   2.307  10.491  0.1150 -0.1970 -0.1154
  682MPD2    C110085   3.170   2.173  10.485  0.8587  0.3729 -1.3211
  682MPD2    C210086   3.131   2.111  10.602 -0.1471  0.0555  0.2424
  682MPD2    C310087   3.127   2.172  10.720 -0.5685  0.2314  0.0011
  682MPD2    C410088   3.171   2.301  10.729 -0.4127 -0.3510  1.0163
  682MPD2    C510089   3.202   2.372  10.614  0.3152 -0.7291 -0.3136
  682MPD2     H10090   3.120   2.003  10.598 -1.4243  0.2374 -1.0163
  682MPD2    H110091   3.196   2.348  10.824 -1.7990  1.3147  0.5573
  682MPD2    H210092   3.245   2.361  10.405  1.6946 -1.3686 -0.1346
  682MPD2    H310093   3.220   2.479  10.610  0.2990 -0.6773  0.8443
  682MPD2     N10094   3.091   2.099  10.839  0.0058 -0.2757  0.4831
  682MPD2    H510095   3.111   2.148  10.925  1.9821 -0.8327  0.3357
  682MPD2    N110096   3.175   2.093  10.370  0.1722 -0.3057  0.2308
  682MPD2    H710097   3.131   2.002  10.372 -0.7191  0.0605 -2.6978
  683TMC3    C110098   3.004   1.923  11.210  0.7265 -0.2355 -0.6526
  683TMC3    C210099   2.990   1.786  11.216  0.0959 -0.3082 -0.5622
  683TMC3    C310100   2.983   1.719  11.100  0.1385 -0.0381  0.4004
  683TMC3    C410101   3.024   1.998  11.091  0.2325  0.6166 -0.0147
  683TMC3    C510102   3.030   1.920  10.978  0.1707  0.0827 -0.4609
  683TMC3    C610103   3.009   1.785  10.982 -0.0369 -0.4474 -0.1253
  683TMC3     C10104   3.025   2.001  11.331  0.0218  0.3846 -0.4648
  683TMC3     O10105   3.050   2.123  11.326 -0.1838  0.2135 -0.1785
  683TMC3     H10106   2.973   1.737  11.311 -0.4402  0.5774 -0.2015
  683TMC3    H110107   3.037   2.106  11.092  1.7811  0.4189  0.2122
  683TMC3    H210108   3.006   1.730  10.889 -1.2441  0.2886 -0.5228
  683TMC3    C710109   3.047   1.968  10.843 -0.2944 -0.5437  0.0931
  683TMC3    C810110   2.937   1.577  11.096  0.9978 -0.0600 -0.9087
  683TMC3    O110111   3.011   1.901  10.750 -0.5542  0.4448  0.1166
  683TMC3    O210112   2.890   1.540  10.988 -0.3449 -0.1835  0.1680
  684MPD2     C10113   1.643   1.481  16.472  0.2227 -0.1380  0.2845
  684MPD2    C110114   1.546   1.554  16.414 -0.1486 -0.2192 -0.8244
  684MPD2    C210115   1.526   1.683  16.446  0.5479  0.5714 -0.3443
  684MPD2    C310116   1.614   1.750  16.529  0.0997 -0.3160  0.3886
  684MPD2    C410117   1.703   1.677  16.604 -0.2456  0.2775  0.7912
  684MPD2    C510118   1.714   1.541  16.578  0.4897  1.1028  0.2183
  684MPD2     H10119   1.444   1.734  16.396  0.9534  0.5652 -1.0149
  684MPD2    H110120   1.771   1.728  16.671  0.7616  2.3284 -1.8141
  684MPD2    H210121   1.659   1.375  16.458  1.8886  0.0157  1.0561
  684MPD2    H310122   1.785   1.474  16.625  0.3724  2.6530  2.6262
  684MPD2     N10123   1.619   1.888  16.546 -1.1043 -0.5578 -0.1106
  684MPD2    H510124   1.698   1.920  16.600 -0.6790 -0.7954 -0.5899
  684MPD2    N110125   1.460   1.500  16.317 -0.1728  0.0649 -1.0183
  684MPD2    H710126   1.392   1.562  16.276  1.8595  1.2153 -2.6395
  685TMC3    C110127   1.381   1.346  16.148  0.0054 -0.3884  0.8400
  685TMC3    C210128   1.387   1.442  16.048  1.0800  0.0804 -0.0036
  685TMC3    C310129   1.377   1.408  15.916  0.0119 -0.7039 -0.1604
  685TMC3    C410130   1.390   1.213  16.118 -0.4406 -0.7356  0.1654
  685TMC3    C510131   1.415   1.187  15.988  0.2052  0.0184  0.2326
  685TMC3    C610132   1.382   1.275  15.883 -0.3575  0.4857  0.1194
  685TMC3     C10133   1.463   1.368  16.270  1.3546 -0.1355  0.2728
  685TMC3     O10134   1.538   1.278  16.292 -0.2184 -0.2979  0.0741
  685TMC3     H10135   1.385   1.547  16.074  1.9787 -0.5132  2.5075
  685TMC3    H110136   1.397   1.139  16.197 -0.9421 -0.3258  0.5939
  685TMC3    H210137   1.408   1.239  15.785 -0.1345 -0.5503  0.5592
  685TMC3    C710138   1.530   1.110  15.968 -0.0057  0.0795 -0.3869
  685TMC3    C810139   1.326   1.502  15.814  0.1716  0.7066 -0.6577
  685TMC3    O110140   1.555   1.065  15.858 -0.0715  0.1688 -0.6628
  685TMC3    O210141   1.347   1.459  15.700  0.0582 -0.4625 -0.2225
  686MPD2     C10142   2.926   1.288  15.522 -0.4253  0.2447 -0.3168
  686MPD2    C110143   2.956   1.230  15.646  0.0129  0.7452 -0.2870
  686MPD2    C210144   3.042   1.120  15.652 -0.6937  0.6384  0.5334
  686MPD2    C310145   3.091   1.060  15.539 -0.0961 -0.3176 -0.2391
  686MPD2    C410146   3.052   1.119  15.416 -0.0249 -0.0679 -0.6670
  686MPD2    C510147   2.975   1.232  15.410 -0.3166 -0.1134 -0.3052
  686MPD2     H10148   3.064   1.083  15.752 -0.7980 -1.6223 -0.2981
  686MPD2    H110149   3.086   1.074  15.323  1.9109 -0.2943  0.1355
  686MPD2    H210150   2.858   1.372  15.514  0.8294  1.2484 -0.5153
  686MPD2    H310151   2.943   1.278  15.317  0.9785  1.7009  0.1518
  686MPD2     N10152   3.175   0.955  15.534 -0.0966  0.1334  0.2054
  686MPD2    H510153   3.213   0.937  15.442 -3.5555 -0.4569 -1.1051
  686MPD2    N110154   2.867   1.267  15.754  0.1760  0.6571  0.0482
  686MPD2    H710155   2.801   1.338  15.723  0.0282 -0.2570 -1.7698
  687TMC3    C110156   3.162   0.858  15.772  0.2571  0.8369  0.6295
  687TMC3    C210157   3.032   0.813  15.778 -0.4667 -0.1591 -0.2399
  687TMC3    C310158   2.983   0.788  15.903  0.1035  0.3841  0.2532
  687TMC3    C410159   3.235   0.870  15.887  0.8360 -0.1911  0.2482
  687TMC3    C510160   3.187   0.835  16.013 -0.5436 -0.0059 -0.3796
  687TMC3    C610161   3.057   0.793  16.021 -0.0134  0.0009  0.4029
  687TMC3     C10162   3.228   0.876  15.639  0.2779 -0.8202  0.7179
  687TMC3     O10163   3.313   0.791  15.617 -0.1913 -0.1738 -0.0526
  687TMC3     H10164   2.983   0.791  15.684  2.0009 -1.3096 -1.2812
  687TMC3    H110165   3.339   0.899  15.873 -0.9425  4.8442 -2.4511
  687TMC3    H210166   3.016   0.759  16.116  1.0602 -1.6936  0.2629
  687TMC3    C710167   3.238   0.903  16.128 -0.0296 -0.0982  0.1605
  687TMC3    C810168   2.838   0.796  15.921  0.5346 -0.1830 -0.0568
  687TMC3    O110169   3.302   1.006  16.113 -0.4501 -0.0204 -0.4245
  687TMC3    O210170   2.797   0.777  16.036  0.4939  0.0359 -0.7702
  688MPD2     C10171   1.756   0.314  17.233 -0.0053  0.7434 -0.0822
  688MPD2    C110172   1.792   0.202  17.309 -0.9746 -0.5073 -0.1933
  688MPD2    C210173   1.899   0.126  17.272 -0.2347  0.8056 -0.5236
  688MPD2    C310174   1.967   0.153  17.156  0.8744 -0.1436  0.6575
  688MPD2    C410175   1.939   0.272  17.084 -0.2534 -0.3275 -0.6383
  688MPD2    C510176   1.831   0.346  17.120  0.3470 -0.4780 -0.3502
  688MPD2     H10177   1.929   0.045  17.337  0.1518  1.7370  0.4701
  688MPD2    H110178   2.001   0.305  17.001 -2.2482  1.8790 -1.2448
  688MPD2    H210179   1.675   0.383  17.253 -1.4378 -0.8910 -0.2684
  688MPD2    H310180   1.809   0.431  17.057 -1.3389 -0.2719  0.5230
  688MPD2     N10181   2.092   0.089  17.126  0.8362  0.6204  0.2066
  688MPD2    H510182   2.148   0.120  17.047 -0.2650  1.6552 -0.1660
  688MPD2    N110183   1.732   0.161  17.429  0.3953 -0.2794 -0.1139
  688MPD2    H710184   1.775   0.090  17.486  1.1986  0.4033  0.1215
  689TMC3    C110185   1.577   0.161  17.616  1.2222 -0.6372 -1.1605
  689TMC3    C210186   1.540   0.249   0.028 -0.2466  0.3961  0.6736
  689TMC3    C310187   1.534   0.205   0.157  0.7351  0.0252  0.3557
  689TMC3    C410188   1.614   0.028  17.643 -0.0428 -1.0298  0.0223
  689TMC3    C510189   1.596   4.710   0.078  0.0194 -0.3115 -0.0721
  689TMC3    C610190   1.558   0.070   0.178  0.2553  0.6378 -0.5152
  689TMC3     C10191   1.617   0.211  17.484 -0.1524 -0.1563  0.0400
  689TMC3     O10192   1.545   0.306  17.445  0.0068 -0.1504  0.4385
  689TMC3     H10193   1.520   0.351  17.688 -1.4719 -0.0299  0.0481
  689TMC3    H110194   1.636   4.683  17.560  3.2192 -3.1390  2.6024
  689TMC3    H210195   1.522   0.024   0.270  1.4884  2.3739  0.8345
  689TMC3    C710196   1.582   4.569   0.117  0.0222  0.1410 -0.4672
  689TMC3    C810197   1.461   0.274   0.256 -0.1504 -0.2846  0.5120
  689TMC3    O110198   1.602   4.537   0.232  0.7531  0.3995 -0.5488
  689TMC3    O210199   1.436   0.211   0.359  0.5522  0.3129 -0.2800
  690MPD2     C10200   4.394   2.246  15.648 -0.0884  0.0035  0.2024
  690MPD2    C110201   4.329   2.236  15.529  0.1423  0.7004 -0.2606
  690MPD2    C210202   4.390   2.271  15.412  0.2971 -0.2135  0.2359
  690MPD2    C310203   4.521   2.314  15.410 -0.0056 -1.0830  0.2340
  690MPD2    C410204   4.595   2.318  15.529  0.3652 -0.2535  0.0174
  690MPD2    C510205   4.522   2.284  15.640 -0.4010  0.3751 -0.7281
  690MPD2     H10206   4.329   2.267  15.322  1.1048  1.0328 -0.3676
  690MPD2    H110207   4.700   2.347  15.522  0.3627 -0.6716 -1.5845
  690MPD2    H210208   4.344   2.216  15.740 -1.5048 -1.6948 -1.1332
  690MPD2    H310209   4.581   2.289  15.732 -1.7690 -3.4228  0.3291
  690MPD2     N10210   4.572   2.352  15.290 -0.0769  0.2011 -0.4973
  690MPD2    H510211   4.509   2.352  15.211  0.1796  0.4093 -0.6995
  690MPD2    N110212   4.213   2.160  15.524 -0.1512 -0.1102 -0.4966
  690MPD2    H710213   4.183   2.128  15.432  0.5887 -0.3532 -0.6560
  691TMC3    C110214   4.022   2.042  15.579 -0.2438 -0.0229  0.0211
  691TMC3    C210215   3.908   2.042  15.652  0.2823 -0.1879  0.1141
  691TMC3    C310216   3.838   1.924  15.653  0.0475 -0.0495  0.4655
  691TMC3    C410217   4.061   1.931  15.505 -0.3576 -0.2874  0.5603
  691TMC3    C510218   3.989   1.815  15.506 -0.0726  0.2778 -0.1729
  691TMC3    C610219   3.878   1.812  15.587 -0.3242 -0.3455  0.5413
  691TMC3     C10220   4.126   2.134  15.627 -0.3728  0.1455 -0.1292
  691TMC3     O10221   4.117   2.198  15.731  0.3317  0.1093 -0.3791
  691TMC3     H10222   3.887   2.124  15.720 -1.4896  0.0290 -0.6854
  691TMC3    H110223   4.155   1.916  15.454  0.7169  1.2996  2.1029
  691TMC3    H210224   3.823   1.719  15.595  2.5606 -2.1724 -1.2732
  691TMC3    C710225   4.064   1.692  15.475 -0.9902 -0.5774  0.1071
  691TMC3    C810226   3.735   1.904  15.751 -0.4047  0.5796 -0.5266
  691TMC3    O110227   4.181   1.692  15.499  0.1580 -0.0205  0.5336
  691TMC3    O210228   3.700   1.787  15.776  0.5041 -0.2999  0.7236
  692TMC3    C110229   1.324   3.285  16.073  0.8010 -0.4219  1.2220
  692TMC3    C210230   1.453   3.304  16.112 -0.3395 -0.1263  0.2634
  692TMC3    C310231   1.548   3.201  16.107  0.1580  0.0630 -0.6212
  692TMC3    C410232   1.287   3.168  16.021  0.2551 -0.1806  0.6313
  692TMC3    C510233   1.380   3.071  16.013 -0.2312  0.4404  0.0372
  692TMC3    C610234   1.505   3.080  16.061 -0.0323  0.0659  0.4906
  692TMC3     C10235   1.216   3.371  16.123 -0.0944  0.0293 -0.2918
  692TMC3     O10236   1.113   3.319  16.158  0.2744  0.0670 -0.1363
  692TMC3     H10237   1.478   3.405  16.139  0.0365  0.0476 -0.7494
  692TMC3    H110238   1.185   3.149  15.989  0.9625  1.5246 -2.5297
  692TMC3    H210239   1.585   3.014  16.030  0.9958  2.4252 -1.9312
  692TMC3    C710240   1.342   2.935  15.969 -0.2770  0.5864 -0.6980
  692TMC3    C810241   1.624   3.175  16.226  0.6226  0.0765 -0.0199
  692TMC3    O110242   1.239   2.916  15.907 -0.2185  1.2147  0.0911
  692TMC3    O210243   1.638   3.056  16.255 -0.0119  0.0167 -0.6259
  693MPD2     C10244   0.796   1.933  10.520  0.3214 -0.6920  0.1507
  693MPD2    C110245   0.776   1.801  10.549 -0.2008 -0.3221 -0.2537
  693MPD2    C210246   0.888   1.718  10.563 -0.4016  0.6128  0.3601
  693MPD2    C310247   1.011   1.773  10.590 -1.0869 -0.2984 -0.0096
  693MPD2    C410248   1.024   1.907  10.601  0.5118 -0.1922 -0.9592
  693MPD2    C510249   0.918   1.983  10.550 -0.1741 -0.4830  0.1345
  693MPD2     H10250   0.871   1.611  10.564  1.5971  0.2990  0.5489
  693MPD2    H110251   1.120   1.953  10.621 -0.0198  1.6285 -2.6605
  693MPD2    H210252   0.710   1.997  10.509  1.0310  0.4337  1.1933
  693MPD2    H310253   0.919   2.091  10.559 -0.3753 -0.3916 -0.8928
  693MPD2     N10254   1.119   1.691  10.625  0.1175  0.1834 -0.3963
  693MPD2    H510255   1.201   1.743  10.655  0.1969  0.9745 -1.9744
  693MPD2    N110256   0.644   1.753  10.538 -0.2027  1.0494  0.6194
  693MPD2    H710257   0.564   1.814  10.547 -1.9004 -1.1643  0.6050
  694TMC3    C110258   0.463   1.612  10.515  0.0292 -0.0638  0.2614
  694TMC3    C210259   0.431   1.511  10.437  0.2618 -0.3936  0.0209
  694TMC3    C310260   0.325   1.430  10.471  0.5335 -0.9780 -0.5075
  694TMC3    C410261   0.403   1.627  10.634 -0.7469  0.1707  0.2437
  694TMC3    C510262   0.308   1.546  10.675 -0.1497  0.6372  1.0079
  694TMC3    C610263   0.260   1.449  10.588 -0.3991 -0.0268 -0.3457
  694TMC3     C10264   0.611   1.620  10.519 -0.1548 -0.0432  0.0349
  694TMC3     O10265   0.677   1.515  10.511  0.5593  0.2443  0.3516
  694TMC3     H10266   0.487   1.487  10.348  2.1401  0.1909  1.0382
  694TMC3    H110267   0.441   1.701  10.704 -1.0034 -0.2567  0.8279
  694TMC3    H210268   0.173   1.385  10.603 -1.1723  1.1318  0.1494
  694TMC3    C710269   0.244   1.572  10.805 -0.1353 -0.0969 -0.4313
  694TMC3    C810270   0.263   1.340  10.373  0.3565 -0.7399 -0.1555
  694TMC3    O110271   0.259   1.686  10.847  0.3437  0.5416  0.0029
  694TMC3    O210272   0.208   1.240  10.418 -0.0819  0.5048  0.3080
  695MPD2     C10273   1.878   2.996  13.530 -0.3728  0.3184 -0.1341
  695MPD2    C110274   1.802   3.000  13.643 -0.4674 -0.6197  0.4620
  695MPD2    C210275   1.667   3.010  13.633 -0.1423  0.2617  0.1333
  695MPD2    C310276   1.597   3.011  13.513  0.4043 -0.3022 -0.1448
  695MPD2    C410277   1.670   2.999  13.397 -0.0991 -0.5147 -0.5297
  695MPD2    C510278   1.808   2.988  13.408  0.5122 -0.2274 -0.1446
  695MPD2     H10279   1.613   3.004  13.727 -1.5249  1.1469 -0.6083
  695MPD2    H110280   1.629   2.984  13.298  2.7550 -3.3302 -1.2612
  695MPD2    H210281   1.986   2.986  13.520 -1.0211 -5.0719 -1.7305
  695MPD2    H310282   1.859   2.975  13.313  0.4309 -1.3968 -0.0273
  695MPD2     N10283   1.457   3.005  13.525  0.3707 -0.1121  0.1432
  695MPD2    H510284   1.415   3.007  13.618 -0.7385  1.0955 -0.3957
  695MPD2    N110285   1.849   2.995  13.772 -0.2556  0.4670 -0.3524
  695MPD2    H710286   1.777   2.990  13.843  0.8507 -1.4317  0.6211
  696TMC3    C110287   1.237   3.031  13.461 -0.3737 -0.6990  0.1095
  696TMC3    C210288   1.189   2.974  13.573  0.3642  0.3048 -0.0649
  696TMC3    C310289   1.065   2.999  13.621  0.0986 -0.3630  0.2999
  696TMC3    C410290   1.173   3.138  13.412  0.4274 -0.4848 -0.7948
  696TMC3    C510291   1.048   3.177  13.466 -0.2963  0.6557  0.0677
  696TMC3    C610292   0.995   3.112  13.579 -0.1091 -0.1377 -0.1443
  696TMC3     C10293   1.375   3.014  13.418 -1.0355 -0.6800  0.8393
  696TMC3     O10294   1.401   3.057  13.302  0.7208 -1.1871  0.1061
  696TMC3     H10295   1.244   2.890  13.614  0.0257 -0.1768 -0.6098
  696TMC3    H110296   1.226   3.200  13.341  0.5107 -0.4437 -0.6966
  696TMC3    H210297   0.893   3.123  13.613 -0.7797 -2.2996 -1.5029
  696TMC3    C710298   1.001   3.309  13.435 -0.0012  0.2616 -0.7670
  696TMC3    C810299   0.989   2.883  13.642 -0.3932  0.4385 -0.1893
  696TMC3    O110300   1.032   3.362  13.330  0.0860  0.0092 -0.0382
  696TMC3    O210301   1.011   2.799  13.560  0.4900 -0.4373  0.2426
  697MPD2     C10302   0.939   0.380  15.863  0.2302  0.1754  0.1002
  697MPD2    C110303   0.965   0.323  15.737 -0.2766  0.0015 -0.1016
  697MPD2    C210304   1.004   0.406  15.631  0.3159 -0.3726  0.5103
  697MPD2    C310305   1.026   0.543  15.658 -0.1946 -0.6340  0.2837
  697MPD2    C410306   1.008   0.591  15.785 -0.1169 -0.2193 -0.0242
  697MPD2    C510307   0.962   0.509  15.882 -0.8856  0.2865 -0.6237
  697MPD2     H10308   1.014   0.357  15.536 -0.7204 -1.1093  0.7851
  697MPD2    H110309   1.012   0.697  15.809 -2.5769  0.3104 -1.9232
  697MPD2    H210310   0.897   0.326  15.948 -1.2174  0.8886 -0.1538
  697MPD2    H310311   0.954   0.556  15.980 -1.7827  2.4120 -1.7063
  697MPD2     N10312   1.071   0.621  15.549 -0.8247  0.5173  0.2722
  697MPD2    H510313   1.093   0.575  15.461 -4.1434 -0.2203 -0.1581
  697MPD2    N110314   0.956   0.186  15.704  0.2845 -0.0752  0.0526
  697MPD2    H710315   0.974   0.160  15.608  1.9733 -1.1182  0.6712
  698TMC3    C110316   1.164   0.789  15.425  0.2857 -0.1578 -0.0965
  698TMC3    C210317   1.269   0.880  15.435  0.5034  0.4087 -0.0977
  698TMC3    C310318   1.321   0.922  15.313  0.2683 -0.0712 -0.0847
  698TMC3    C410319   1.117   0.734  15.306 -0.0283 -0.5232 -0.5466
  698TMC3    C510320   1.175   0.776  15.190  0.0970 -0.0650  0.4629
  698TMC3    C610321   1.275   0.874  15.192 -0.1800 -0.4518 -0.2305
  698TMC3     C10322   1.111   0.747  15.556 -0.1801  0.1389 -0.2881
  698TMC3     O10323   1.144   0.815  15.654 -0.3156  0.0989 -0.3367
  698TMC3     H10324   1.312   0.895  15.534  0.6966  1.6239 -0.3681
  698TMC3    H110325   1.025   0.677  15.300  0.4380 -1.3926  0.5350
  698TMC3    H210326   1.310   0.918  15.100  1.6238  0.0506  0.6851
  698TMC3    C710327   1.115   0.736  15.064  0.0165 -0.7491 -0.3471
  698TMC3    C810328   1.449   0.987  15.322 -0.3694  0.0561 -1.2572
  698TMC3    O110329   1.005   0.676  15.060  0.2478 -0.0085  0.3363
  698TMC3    O210330   1.478   1.013  15.437 -0.2241  0.0869  0.2649
  699TMC3    C110331   0.634   3.773  13.177 -1.0319  0.1830 -0.9607
  699TMC3    C210332   0.649   3.642  13.215 -0.5932  0.5919 -0.9214
  699TMC3    C310333   0.612   3.603  13.341 -0.1011  0.8361  0.0809
  699TMC3    C410334   0.577   3.870  13.251  0.3882  0.3108  0.2042
  699TMC3    C510335   0.546   3.834  13.377 -0.4710 -0.3334 -0.2017
  699TMC3    C610336   0.554   3.703  13.420  0.0286  0.4102  0.0341
  699TMC3     C10337   0.687   3.812  13.044 -0.1527  0.9997 -0.2486
  699TMC3     O10338   0.636   3.910  12.992  0.0683 -0.2391 -0.4327
  699TMC3     H10339   0.679   3.574  13.136  2.9255  0.9876  0.0625
  699TMC3    H110340   0.579   3.970  13.211 -0.2246  0.1366 -0.2649
  699TMC3    H210341   0.520   3.690  13.522  0.3559  0.0136  0.0905
  699TMC3    C710342   0.459   3.928  13.447 -0.3779 -0.6121  0.2628
  699TMC3    C810343   0.598   3.463  13.380  0.4207 -0.9952 -0.3928
  699TMC3    O110344   0.476   3.919  13.567  0.4087  0.4586  0.6573
  699TMC3    O210345   0.527   3.440  13.478  1.0880 -0.4182 -0.1381
  700TMC3    C110346   4.564   0.652  17.438  0.7308 -0.0959 -0.0546
  700TMC3    C210347   4.602   0.517  17.447 -0.3364 -0.7249 -0.2371
  700TMC3    C310348   4.683   0.481  17.554  0.4623  0.2182 -0.0433
  700TMC3    C410349   4.625   0.754  17.512 -0.7317  0.3116  0.0595
  700TMC3    C510350   4.698   0.704  17.617 -0.1588 -0.5305  0.1664
  700TMC3    C610351   0.010   0.575  17.636  0.2679 -0.0849 -0.0030
  700TMC3     C10352   4.494   0.694  17.318 -0.2166 -0.1204  0.6458
  700TMC3     O10353   4.391   0.637  17.292  0.2457  0.2842 -0.1388
  700TMC3     H10354   4.551   0.450  17.379 -2.0875  1.4511 -1.0451
  700TMC3    H110355   4.588   0.854  17.494 -0.6480  0.2803 -0.2934
  700TMC3    H210356   0.080   0.546   0.022 -0.7270  1.9409  1.6352
  700TMC3    C710357   0.021   0.801   0.024 -1.3371 -0.4927  0.7618
  700TMC3    C810358   0.048   0.365  17.522 -1.5279  0.2684  0.4270
  700TMC3    O110359   0.049   0.756   0.137 -0.6324  0.0992  0.0009
  700TMC3    O210360   0.163   0.361  17.567  0.0474 -0.0107  0.0364
  701TMC3    C110361   0.163   4.229  15.761  0.3134 -0.1564 -0.2093
  701TMC3    C210362   0.181   4.170  15.640  0.9084  1.7870 -0.6882
  701TMC3    C310363   0.292   4.221  15.563 -0.4032  0.0092  0.1890
  701TMC3    C410364   0.250   4.322  15.813  0.0142  0.0767 -0.9391
  701TMC3    C510365   0.367   4.337  15.743 -1.4544 -0.0288  0.2710
  701TMC3    C610366   0.391   4.289  15.621 -0.5392  0.1374  0.7087
  701TMC3     C10367   0.052   4.189  15.850  0.1696  0.3641 -0.6412
  701TMC3     O10368   0.013   4.276  15.928 -0.2073 -0.8307  0.4111
  701TMC3     H10369   0.110   4.101  15.596  2.8838  0.1454 -1.3270
  701TMC3    H110370   0.230   4.374  15.906  1.6956 -1.1128  0.0804
  701TMC3    H210371   0.481   4.320  15.567 -0.3140 -1.7131  0.0337
  701TMC3    C710372   0.428   4.465  15.770  0.4676 -0.5847  0.1785
  701TMC3    C810373   0.301   4.188  15.423 -0.1740  0.3568 -0.7419
  701TMC3    O110374   0.481   4.528  15.681 -0.5961 -0.2899 -0.9985
  701TMC3    O210375   0.407   4.199  15.363 -0.0446  0.7051  0.6407
  702MPD2     C10376   4.338   1.585  10.303  0.7608  0.2331  0.1389
  702MPD2    C110377   4.296   1.710  10.346 -0.2401  0.3449 -0.4523
  702MPD2    C210378   4.348   1.830  10.286 -0.1992 -0.0730 -0.6395
  702MPD2    C310379   4.433   1.825  10.184 -1.3299 -0.0296  0.0786
  702MPD2    C410380   4.478   1.703  10.140 -0.0424 -0.3308 -0.0650
  702MPD2    C510381   4.427   1.586  10.198  0.0239 -0.1136  0.5546
  702MPD2     H10382   4.296   1.920  10.318  1.1672 -0.0204  1.3972
  702MPD2    H110383   4.557   1.701  10.066 -0.8018 -0.1273 -0.8795
  702MPD2    H210384   4.301   1.491  10.342 -1.5917  0.9280 -0.4302
  702MPD2    H310385   4.454   1.486  10.163  0.7319 -0.0376  0.8853
  702MPD2     N10386   4.479   1.936  10.115  0.0299  0.5589  0.0171
  702MPD2    H510387   4.543   1.916  10.039 -0.0084 -0.8578  0.3519
  702MPD2    N110388   4.207   1.729  10.458 -0.0687  0.3941  0.4280
  702MPD2    H710389   4.161   1.818  10.473 -0.3204  0.5665 -1.3627
  703TMC3    C110390   4.479   2.164  10.044  0.5248  0.1635 -0.2348
  703TMC3    C210391   4.389   2.264  10.020 -0.2195 -0.2965  0.4520
  703TMC3    C310392   4.442   2.382   9.985 -0.4930  0.1847  1.2015
  703TMC3    C410393   4.613   2.172  10.021 -0.3242  0.5999  0.1518
  703TMC3    C510394   4.658   2.281   9.962  0.2390  0.4982  0.4906
  703TMC3    C610395   4.570   2.386   9.937  0.7633 -0.3532 -0.5811
  703TMC3     C10396   4.438   2.063  10.139  0.0878 -0.1299 -0.0170
  703TMC3     O10397   4.363   2.103  10.225 -0.4533 -0.2794  0.8078
  703TMC3     H10398   4.287   2.250  10.053 -0.2387  1.9490  1.3551
  703TMC3    H110399   4.675   2.087  10.048 -1.3838  0.7376  3.0303
  703TMC3    H210400   4.612   2.485   9.924  0.3963 -0.1547 -0.2880
  703TMC3    C710401   0.073   2.276   9.921  0.0233 -0.7473  0.3483
  703TMC3    C810402   4.397   2.502  10.064 -0.2488  0.5044 -0.1587
  703TMC3    O110403   0.142   2.184   9.966  0.4287  0.0250 -0.4459
  703TMC3    O210404   4.477   2.595  10.081 -0.2225 -0.3413 -0.5061
  704TMC3    C110405   1.825   4.439  11.748 -0.1927 -0.1527 -0.0678
  704TMC3    C210406   1.913   4.361  11.674  0.7540  0.1974 -0.0419
  704TMC3    C310407   1.940   4.231  11.709 -0.1738 -0.3140 -1.4135
  704TMC3    C410408   1.770   4.377  11.860  0.3786 -0.0986  0.6705
  704TMC3    C510409   1.799   4.243  11.890 -0.0111 -0.0343  0.3017
  704TMC3    C610410   1.890   4.171  11.819  0.1357  0.2691 -0.1172
  704TMC3     C10411   1.777   4.573  11.712 -0.1195 -0.9004 -0.1717
  704TMC3     O10412   1.709   4.634  11.790 -0.0376 -0.1331 -0.3727
  704TMC3     H10413   1.945   4.392  11.575  2.9024 -0.1980  0.5381
  704TMC3    H110414   1.702   4.436  11.921 -0.2164 -1.9288  1.7717
  704TMC3    H210415   1.923   4.071  11.846 -0.8587 -0.1994 -0.6554
  704TMC3    C710416   1.784   4.191  12.022 -0.0446 -0.0678  0.1136
  704TMC3    C810417   2.051   4.155  11.644 -0.2284  0.2890  0.2543
  704TMC3    O110418   1.855   4.094  12.053 -0.9422  0.8956  1.2897
  704TMC3    O210419   2.057   4.037  11.678 -0.3086  0.1550  0.0469
  705MPD2     C10420   1.887   2.835  16.668  0.4737 -0.5793  0.0622
  705MPD2    C110421   1.782   2.784  16.591 -0.5340  0.1616 -0.7455
  705MPD2    C210422   1.654   2.811  16.632  0.5645  0.1429 -0.2258
  705MPD2    C310423   1.626   2.880  16.743 -0.0621  0.6257 -0.7546
  705MPD2    C410424   1.731   2.922  16.830 -0.0565  0.2284  0.5709
  705MPD2    C510425   1.859   2.898  16.788  0.3645  0.0905  0.3439
  705MPD2     H10426   1.575   2.786  16.562 -0.4498  0.2592  0.8800
  705MPD2    H110427   1.715   2.978  16.922  1.0885 -1.2569  1.6698
  705MPD2    H210428   1.990   2.822  16.635 -0.0130 -1.5099 -1.0562
  705MPD2    H310429   1.940   2.944  16.844  0.6345 -1.4842  1.2486
  705MPD2     N10430   1.497   2.925  16.773  0.0659  0.2543  0.1465
  705MPD2    H510431   1.493   2.994  16.847  2.5447 -1.1482  1.6095
  705MPD2    N110432   1.810   2.731  16.463 -0.2444 -0.5962 -0.0316
  705MPD2    H710433   1.727   2.710  16.408  1.3977 -1.4473 -2.1856
  706TMC3    C110434   2.069   2.664  16.090 -0.9855  0.0570 -0.0953
  706TMC3    C210435   2.013   2.767  16.023 -0.2818 -0.0600  0.6206
  706TMC3    C310436   1.917   2.840  16.094  0.1536 -0.4255  0.5408
  706TMC3    C410437   2.037   2.625  16.216  0.7437  0.1340  0.0903
  706TMC3    C510438   1.928   2.688  16.261 -0.5349  0.5142  0.4037
  706TMC3    C610439   1.876   2.806  16.215 -0.7767  0.0796 -0.2482
  706TMC3     C10440   2.178   2.598  16.029  0.0267  0.4075  0.3287
  706TMC3     O10441   2.233   2.505  16.090  1.0152 -0.7398 -0.4338
  706TMC3     H10442   2.031   2.792  15.919 -1.3843 -1.4188  0.1037
  706TMC3    H110443   2.077   2.542  16.273 -1.5782 -1.8353 -1.1490
  706TMC3    H210444   1.801   2.869  16.261 -1.4020 -0.0967 -1.0366
  706TMC3    C710445   1.933   2.694  16.413  0.3464 -0.2456  0.2891
  706TMC3    C810446   1.915   2.984  16.059 -0.5304 -0.3384 -0.1472
  706TMC3    O110447   2.042   2.679  16.465  0.6723 -0.9132 -0.1427
  706TMC3    O210448   1.915   3.020  15.941 -0.3453 -0.9111  0.1490
  707TMC3    C110449   4.128   1.954   1.665  0.2289 -0.3409  0.6155
  707TMC3    C210450   4.233   1.896   1.723  0.5485 -0.6752 -0.0093
  707TMC3    C310451   4.310   1.956   1.814  0.4830  0.3167  0.2495
  707TMC3    C410452   4.084   2.077   1.702 -0.3361 -0.7052 -0.1642
  707TMC3    C510453   4.162   2.136   1.795  0.0339 -0.6142 -0.4034
  707TMC3    C610454   4.273   2.083   1.856  0.0209  0.4712 -0.2215
  707TMC3     C10455   4.058   1.880   1.566  0.5361  0.4957  0.2754
  707TMC3     O10456   4.135   1.808   1.505 -0.0641 -0.9364  0.5097
  707TMC3     H10457   4.263   1.797   1.689 -2.5653 -1.9523  0.9212
  707TMC3    H110458   4.006   2.125   1.645 -0.0309  1.1759  0.9805
  707TMC3    H210459   4.329   2.137   1.932 -0.0296 -0.7906  0.7131
  707TMC3    C710460   4.122   2.273   1.839  0.2042  0.1188  0.7244
  707TMC3    C810461   4.432   1.898   1.880 -0.2286  0.1010 -0.0593
  707TMC3    O110462   4.200   2.339   1.910  0.3808  0.0216 -0.2453
  707TMC3    O210463   4.485   1.963   1.971 -0.2014 -0.4423 -0.2777
  708MPD2     C10464   0.363   1.164  13.964  0.0525 -0.3259  0.5248
  708MPD2    C110465   0.282   1.270  13.935  0.5922  0.0807  0.1126
  708MPD2    C210466   0.157   1.278  13.995 -0.4121 -0.5255  0.1357
  708MPD2    C310467   0.124   1.186  14.094  0.3077 -0.3408 -0.2804
  708MPD2    C410468   0.213   1.082  14.122  0.4219  0.0575 -0.7747
  708MPD2    C510469   0.334   1.071  14.060 -0.2533 -0.1515 -0.3148
  708MPD2     H10470   0.112   1.376  13.977  0.6966 -0.4466 -2.2381
  708MPD2    H110471   0.185   1.012  14.200  1.1628 -0.8593 -1.3198
  708MPD2    H210472   0.449   1.151  13.899  0.3987  2.6526  0.3634
  708MPD2    H310473   0.398   0.984  14.077 -0.1025  0.1804  0.8380
  708MPD2     N10474   0.009   1.196  14.179  0.3812  0.0613  0.4793
  708MPD2    H510475   4.719   1.139  14.262  1.5965  0.0176  0.6297
  708MPD2    N110476   0.307   1.377  13.848 -0.5746 -0.1673  0.5063
  708MPD2    H710477   0.226   1.433  13.826  0.2276  0.2948 -1.2964
  709TMC3    C110478   0.406   1.514  13.690  0.1278  0.9627  0.1259
  709TMC3    C210479   0.438   1.490  13.558  0.2325  0.2898  0.1389
  709TMC3    C310480   0.364   1.547  13.465 -0.7685  0.0490  0.4128
  709TMC3    C410481   0.324   1.614  13.729 -0.2403  0.1990 -0.9010
  709TMC3    C510482   0.256   1.681  13.628 -0.2829 -0.3358  0.1238
  709TMC3    C610483   0.267   1.639  13.499 -0.5451 -1.0165 -0.1490
  709TMC3     C10484   0.423   1.405  13.778  0.7800 -0.7629 -0.2883
  709TMC3     O10485   0.522   1.330  13.767 -0.4758  0.2205 -0.0537
  709TMC3     H10486   0.518   1.421  13.534 -0.6983 -0.0163 -2.0525
  709TMC3    H110487   0.314   1.637  13.834  2.5442 -0.4111 -0.4961
  709TMC3    H210488   0.208   1.685  13.420 -0.6569  1.5879  1.4366
  709TMC3    C710489   0.136   1.751  13.657  0.4288  0.7586 -0.6203
  709TMC3    C810490   0.352   1.469  13.342  0.0396  0.6125 -0.1559
  709TMC3    O110491   0.107   1.840  13.581 -0.1412 -0.5061 -0.5799
  709TMC3    O210492   0.417   1.367  13.332  0.3009  0.0414  0.2795
  710TMC3    C110493   1.208   2.732   0.345 -0.0526 -0.1521 -0.3237
  710TMC3    C210494   1.221   2.732   0.211  0.0724 -0.7882  0.0189
  710TMC3    C310495   1.308   2.639   0.164 -0.0782  0.5201 -0.3470
  710TMC3    C410496   1.282   2.663   0.437  0.5156 -0.2841  0.7423
  710TMC3    C510497   1.361   2.565   0.387  0.2212  0.9026  0.3535
  710TMC3    C610498   1.372   2.546   0.248 -0.1643  0.6067 -0.4889
  710TMC3     C10499   1.093   2.811   0.400 -0.1028 -0.0607  0.2033
  710TMC3     O10500   1.014   2.848   0.316 -0.1996  0.1974  0.4263
  710TMC3     H10501   1.164   2.800   0.149  0.7608  0.4850  0.8039
  710TMC3    H110502   1.265   2.675   0.543  0.6968  4.1493  0.2578
  710TMC3    H210503   1.441   2.475   0.203  0.5644 -0.2186  1.9181
  710TMC3    C710504   1.443   2.496   0.482 -0.3651  0.0940 -0.0250
  710TMC3    C810505   1.328   2.621   0.022  0.6883  0.2030  0.1477
  710TMC3    O110506   1.429   2.526   0.596 -0.2316  0.1130  0.2338
  710TMC3    O210507   1.436   2.572  17.683 -0.0487  0.1799  0.5367
  711TMC3    C110508   0.560   3.566  15.204 -0.1981  0.1880 -0.3822
  711TMC3    C210509   0.589   3.634  15.320  0.9228 -0.8073 -0.2999
  711TMC3    C310510   0.721   3.664  15.338 -0.2561 -0.3355 -0.0116
  711TMC3    C410511   0.655   3.542  15.104 -0.3482  0.1292  0.4708
  711TMC3    C510512   0.786   3.567  15.136  0.2267  0.3978  0.3060
  711TMC3    C610513   0.821   3.631  15.248  0.8529  0.7947 -0.2345
  711TMC3     C10514   0.426   3.561  15.149 -1.1419  0.1094 -1.1629
  711TMC3     O10515   0.405   3.483  15.056 -0.9464  0.1092 -0.2228
  711TMC3     H10516   0.521   3.642  15.404  0.4769  0.2745 -0.7710
  711TMC3    H110517   0.623   3.498  15.010 -0.3856 -0.3781  0.7255
  711TMC3    H210518   0.920   3.673  15.256  0.9276  0.9463 -2.1290
  711TMC3    C710519   0.872   3.454  15.113 -0.1010  0.0972 -0.0682
  711TMC3    C810520   0.759   3.667  15.472  0.2002  0.1632 -0.5188
  711TMC3    O110521   0.975   3.461  15.179  0.1573 -0.4210 -0.2971
  711TMC3    O210522   0.681   3.622  15.553  0.0057  0.0689 -0.3295
  712MPD2     C10523   1.878   4.621  13.978  0.5432  0.0717 -0.1040
  712MPD2    C110524   1.832   4.691  13.870 -0.5963 -0.4591 -0.1107
  712MPD2    C210525   1.850   0.106  13.862 -0.4097 -0.0018  0.3163
  712MPD2    C310526   1.910   0.179  13.964 -0.3716  0.5141  0.0131
  712MPD2    C410527   1.956   0.105  14.076  0.3047  0.6842  0.4337
  712MPD2    C510528   1.932   4.693  14.080 -0.7922 -0.3752  0.2733
  712MPD2     H10529   1.834   0.161  13.769  0.1390 -0.6341 -0.1510
  712MPD2    H110530   2.007   0.154  14.158  1.8372 -0.2678  0.0728
  712MPD2    H210531   1.855   4.515  13.988  0.3287  0.1220 -0.0613
  712MPD2    H310532   1.961   4.637  14.168 -0.9077 -1.0446 -0.1157
  712MPD2     N10533   1.933   0.322  13.966  0.8272  0.2620  0.2804
  712MPD2    H510534   2.011   0.358  14.020  0.8076 -1.9432  1.7347
  712MPD2    N110535   1.760   4.633  13.768 -0.2911 -0.1989  0.5978
  712MPD2    H710536   1.719   4.697  13.701 -3.2294 -0.7223  1.8613
  713TMC3    C110537   1.922   0.543  13.879 -0.6984  0.2700  0.3221
  713TMC3    C210538   2.056   0.540  13.881 -0.0442  0.1759 -0.3046
  713TMC3    C310539   2.127   0.658  13.887 -0.8228  0.0849 -0.0599
  713TMC3    C410540   1.849   0.659  13.873  0.2249  0.4862  0.5194
  713TMC3    C510541   1.924   0.774  13.889 -0.1321  0.0465  0.6719
  713TMC3    C610542   2.062   0.775  13.896  0.5643  0.0717 -0.6259
  713TMC3     C10543   1.869   0.410  13.884 -0.3337 -0.6377 -0.3663
  713TMC3     O10544   1.759   0.393  13.835  0.4729  0.4061 -0.1755
  713TMC3     H10545   2.116   0.453  13.858 -1.0136 -0.4109 -0.6495
  713TMC3    H110546   1.741   0.645  13.868  0.0440  0.5990  3.7608
  713TMC3    H210547   2.115   0.867  13.876  0.8481  0.1323  0.3900
  713TMC3    C710548   1.856   0.901  13.907 -0.5615 -0.0398 -0.6248
  713TMC3    C810549   2.259   0.650  13.839 -0.0276  0.3560 -0.1242
  713TMC3    O110550   1.923   0.991  13.951 -0.5161  0.1355 -0.0401
  713TMC3    O210551   2.278   0.578  13.743  0.4946  0.3481 -0.0629
  714MPD2     C10552   4.198   2.968   1.467  0.1480  0.6489 -0.2574
  714MPD2    C110553   4.273   2.935   1.359  0.4947 -0.9832  0.7090
  714MPD2    C210554   4.226   2.974   1.231  0.2168 -0.1039  0.5832
  714MPD2    C310555   4.094   3.016   1.222  0.6035 -0.6628  0.1750
  714MPD2    C410556   4.011   3.022   1.334 -0.3872  0.1569 -0.9454
  714MPD2    C510557   4.065   3.008   1.455  0.6497 -0.7570  0.1045
  714MPD2     H10558   4.305   2.978   1.156  2.3129 -0.5126  2.7562
  714MPD2    H110559   3.908   3.056   1.337 -0.9095 -1.3835 -1.6432
  714MPD2    H210560   4.236   2.947   1.566  0.4218  1.0568 -0.2762
  714MPD2    H310561   4.000   3.004   1.541 -0.7927 -3.1847 -1.0874
  714MPD2     N10562   4.040   3.041   1.092  0.0207  0.1027  0.2111
  714MPD2    H510563   4.115   3.071   1.030 -0.2348 -0.4348 -0.3528
  714MPD2    N110564   4.391   2.863   1.389 -0.3257 -0.1858  0.0977
  714MPD2    H710565   4.415   2.847   1.486  1.0277  2.1511  0.1623
  715TMC3    C110566   4.556   2.699   1.353  0.0774 -0.9936 -0.1834
  715TMC3    C210567   4.617   2.632   1.256  0.0025 -0.0899 -0.3105
  715TMC3    C310568   0.010   2.564   1.296  0.2643  0.4999 -0.0748
  715TMC3    C410569   4.597   2.709   1.479  0.4093 -0.5437  1.1836
  715TMC3    C510570   4.717   2.648   1.515 -0.1816 -0.0905  0.2025
  715TMC3    C610571   0.063   2.579   1.423  0.2305 -0.4215 -0.1576
  715TMC3     C10572   4.452   2.778   1.299 -0.5131 -0.2010 -0.0575
  715TMC3     O10573   4.425   2.769   1.181 -0.2131  0.0050  0.4415
  715TMC3     H10574   4.578   2.624   1.156  0.0724  1.3321 -0.4442
  715TMC3    H110575   4.538   2.764   1.552  0.9052 -0.2868  1.3940
  715TMC3    H210576   0.161   2.535   1.439  1.2063  0.8894 -2.4733
  715TMC3    C710577   0.052   2.667   1.644 -0.0004  0.3775 -0.1263
  715TMC3    C810578   0.075   2.478   1.197 -0.5347  0.0794 -0.2414
  715TMC3    O110579   0.166   2.624   1.659 -0.1406  0.7024 -0.1268
  715TMC3    O210580   0.037   2.484   1.085 -0.5726 -0.3933 -0.8360
  716MPD2     C10581   4.323   1.701   9.763 -0.9007  0.2989 -0.4390
  716MPD2    C110582   4.308   1.720   9.625 -0.3315  0.0355 -0.5520
  716MPD2    C210583   4.398   1.669   9.533  0.9370  0.9960 -0.6709
  716MPD2    C310584   4.495   1.587   9.583 -0.2031 -0.4922  0.0771
  716MPD2    C410585   4.498   1.549   9.719  0.1918 -0.1871  0.1001
  716MPD2    C510586   4.419   1.614   9.805  0.2974  0.2089  0.6011
  716MPD2     H10587   4.392   1.678   9.425  0.9500 -1.2340 -0.8557
  716MPD2    H110588   4.578   1.485   9.753  1.8299  1.8148 -0.0016
  716MPD2    H210589   4.254   1.748   9.832 -0.0922 -1.0086  1.2646
  716MPD2    H310590   4.442   1.590   9.909 -2.3288 -1.3564  0.8106
  716MPD2     N10591   4.583   1.539   9.483 -0.4296 -0.0576 -0.8580
  716MPD2    H510592   4.565   1.558   9.385  0.0543  1.4797 -0.6549
  716MPD2    N110593   4.205   1.806   9.578 -0.4521 -0.1626 -0.0229
  716MPD2    H710594   4.153   1.843   9.657  0.1763  0.7938 -0.0572
  717TMC3    C110595   0.037   1.421   9.402 -0.7410 -0.6631 -0.2929
  717TMC3    C210596   4.676   1.378   9.300  0.5031 -0.6826  0.4661
  717TMC3    C310597   0.016   1.305   9.203  0.6926 -1.0832 -0.2056
  717TMC3    C410598   0.165   1.385   9.419 -1.3386  0.3088 -0.6580
  717TMC3    C510599   0.219   1.309   9.313 -0.1326 -0.3708  0.7555
  717TMC3    C610600   0.147   1.272   9.204 -0.2374  1.2501 -0.7755
  717TMC3     C10601   4.695   1.468   9.520  0.1040 -0.1135  0.1817
  717TMC3     O10602   0.029   1.455   9.629  0.7807  0.4657 -0.0843
  717TMC3     H10603   4.567   1.375   9.303  0.5159 -1.5989 -0.2405
  717TMC3    H110604   0.227   1.423   9.500  0.4665 -0.5639 -1.6099
  717TMC3    H210605   0.183   1.214   9.120  1.3035 -1.6407  1.9247
  717TMC3    C710606   0.364   1.316   9.275 -0.4605  0.6723 -0.3066
  717TMC3    C810607   4.668   1.282   9.077  0.4183 -0.4967 -0.7699
  717TMC3    O110608   0.413   1.225   9.205 -0.3050  0.4135  0.6809
  717TMC3    O210609   4.588   1.369   9.052 -0.1193  0.2506 -0.4286
  718MPD2     C10610   3.586   0.717  12.295 -0.0163  0.2933  0.2900
  718MPD2    C110611   3.596   0.586  12.272 -0.0534 -0.1751  0.6450
  718MPD2    C210612   3.542   0.504  12.368  0.3282 -0.5028  0.5180
  718MPD2    C310613   3.482   0.556  12.479 -0.8401 -0.5330  0.5525
  718MPD2    C410614   3.459   0.694  12.492 -0.6576  0.1133  0.6908
  718MPD2    C510615   3.516   0.778  12.400  0.4053 -0.8392 -0.0037
  718MPD2     H10616   3.540   0.397  12.352  0.9574 -0.5904  1.0375
  718MPD2    H110617   3.407   0.734  12.578 -2.9343 -1.3151 -0.0218
  718MPD2    H210618   3.636   0.782  12.224  1.0691 -0.5036  0.3335
  718MPD2    H310619   3.510   0.885  12.418  0.3912 -0.5004 -2.0498
  718MPD2     N10620   3.432   0.470  12.576  0.0479  0.3860  0.4616
  718MPD2    H510621   3.443   0.370  12.568 -0.2324  0.4805 -0.9682
  718MPD2    N110622   3.673   0.534  12.161  0.1117  0.0742  0.0199
  718MPD2    H710623   3.722   0.598  12.100  0.8906  0.6059  1.2107
  719TMC3    C110624   3.771   0.358  12.037  0.4479  0.0213 -0.1980
  719TMC3    C210625   3.800   0.225  12.067 -0.4973 -0.8527  0.2520
  719TMC3    C310626   3.919   0.190  12.132  0.1518 -0.8592  0.2283
  719TMC3    C410627   3.880   0.449  12.036 -0.0206 -0.3920 -0.2828
  719TMC3    C510628   3.994   0.407  12.100  0.1970 -0.4472 -0.8254
  719TMC3    C610629   4.024   0.275  12.143 -0.2340 -0.1375 -1.4124
  719TMC3     C10630   3.665   0.400  12.114 -0.1887 -1.1648  0.3805
  719TMC3     O10631   3.580   0.315  12.147  0.1696 -0.3057  0.2284
  719TMC3     H10632   3.714   0.159  12.059 -0.7811 -0.5527  0.8581
  719TMC3    H110633   3.865   0.552  12.006  1.8234  0.2139  0.8584
  719TMC3    H210634   4.114   0.264  12.202 -0.7412  3.3605  0.0153
  719TMC3    C710635   4.089   0.515  12.123 -0.3432  0.0531  0.3902
  719TMC3    C810636   3.878   0.115  12.257 -0.3711 -0.3814 -0.1217
  719TMC3    O110637   4.074   0.616  12.058  0.0914 -0.5775 -0.8627
  719TMC3    O210638   3.916   0.163  12.362 -0.1770  0.0032  0.3086
  720MPD2     C10639   1.949   2.096  13.992  0.7636  0.4457 -1.1948
  720MPD2    C110640   2.048   2.053  13.905 -0.2125 -0.2279 -0.7839
  720MPD2    C210641   2.141   1.965  13.958  0.9666  0.0585  0.2034
  720MPD2    C310642   2.131   1.913  14.085 -0.9172 -0.4979  0.3442
  720MPD2    C410643   2.022   1.951  14.171 -0.5713  0.0123  0.2784
  720MPD2    C510644   1.938   2.054  14.121  0.4881 -0.3659 -0.2052
  720MPD2     H10645   2.226   1.949  13.893 -0.5491 -1.7787 -1.2948
  720MPD2    H110646   2.009   1.916  14.273  1.5791  2.4479  1.3748
  720MPD2    H210647   1.868   2.163  13.964 -1.5535 -0.8689  2.4659
  720MPD2    H310648   1.860   2.089  14.187 -0.5222  2.2666 -2.7939
  720MPD2     N10649   2.242   1.836  14.120 -0.5727  0.1031 -0.3572
  720MPD2    H510650   2.326   1.842  14.065 -2.0633  1.9718 -2.4456
  720MPD2    N110651   2.069   2.110  13.775  0.2970  0.1318  0.4578
  720MPD2    H710652   2.150   2.074  13.725 -1.6893 -2.4124 -0.9485
  721TMC3    C110653   2.414   1.780  14.269  0.5886 -0.5020 -0.3607
  721TMC3    C210654   2.454   1.697  14.371 -0.1235 -0.5863 -0.1821
  721TMC3    C310655   2.588   1.702  14.403 -0.1228  0.0906  0.1427
  721TMC3    C410656   2.495   1.882  14.222 -0.0243 -0.7198 -0.8568
  721TMC3    C510657   2.628   1.884  14.251  0.4679  0.5550 -0.0509
  721TMC3    C610658   2.675   1.790  14.341  0.1897 -0.2697 -0.1727
  721TMC3     C10659   2.273   1.799  14.249 -0.1484  0.1800 -0.2323
  721TMC3     O10660   2.183   1.772  14.335  0.5657  0.3193 -0.1442
  721TMC3     H10661   2.396   1.631  14.434  0.3162  0.0351  0.8966
  721TMC3    H110662   2.463   1.957  14.151 -2.1891 -0.6562  0.1809
  721TMC3    H210663   2.776   1.791  14.382 -0.5324  0.7283  1.5806
  721TMC3    C710664   2.705   2.003  14.225  0.0673  0.2661  0.0843
  721TMC3    C810665   2.656   1.601  14.490 -0.0288  0.0920 -0.5986
  721TMC3    O110666   2.819   1.979  14.186  0.7095 -0.0680  0.2948
  721TMC3    O210667   2.768   1.563  14.460  0.7916  0.2232  0.3552
  722MPD2     C10668   0.993   0.829  13.099  0.3891 -0.7978 -0.6782
  722MPD2    C110669   0.938   0.956  13.123  0.4934 -0.1665 -0.5430
  722MPD2    C210670   0.871   1.018  13.018  0.1496  0.0642 -0.1531
  722MPD2    C310671   0.854   0.958  12.895  0.3556 -0.1461 -0.5167
  722MPD2    C410672   0.903   0.830  12.881  0.2142 -0.3428  0.0329
  722MPD2    C510673   0.970   0.768  12.983 -0.6243  0.0439 -0.8052
  722MPD2     H10674   0.828   1.116  13.032 -0.7239 -0.5763  1.5703
  722MPD2    H110675   0.905   0.772  12.790  0.8084  1.5667 -1.1705
  722MPD2    H210676   1.045   0.764  13.168  1.3831  0.6176 -0.0838
  722MPD2    H310677   1.023   0.676  12.962 -0.1160 -0.2179  1.6941
  722MPD2     N10678   0.780   1.019  12.789 -0.5741  0.1538 -0.1097
  722MPD2    H510679   0.747   1.113  12.808  1.1371  1.0523 -1.5595
  722MPD2    N110680   0.949   1.028  13.244 -0.2468  0.5261  0.1569
  722MPD2    H710681   0.913   1.122  13.229  0.9533  0.9272 -0.1639
  723TMC3    C110682   0.612   1.036  12.631 -0.1523  0.5433  0.4088
  723TMC3    C210683   0.485   0.979  12.634  0.3416 -0.2342  0.0717
  723TMC3    C310684   0.383   1.069  12.646  0.2659  0.7660 -0.0738
  723TMC3    C410685   0.633   1.170  12.625  0.1263 -0.2777 -0.1112
  723TMC3    C510686   0.526   1.252  12.632  0.4908  0.7640 -0.4138
  723TMC3    C610687   0.401   1.208  12.656  0.5703  0.0905 -0.1623
  723TMC3     C10688   0.721   0.954  12.686  1.3330  0.0234 -0.3021
  723TMC3     O10689   0.722   0.836  12.650 -0.0174  1.1235  0.0134
  723TMC3     H10690   0.475   0.871  12.628 -1.6334 -0.0445 -0.2332
  723TMC3    H110691   0.734   1.209  12.619  1.1845 -2.9318  0.4187
  723TMC3    H210692   0.312   1.269  12.668  0.0242 -0.9290  1.0118
  723TMC3    C710693   0.551   1.384  12.583  0.1099 -0.4876 -0.0844
  723TMC3    C810694   0.254   1.013  12.678 -0.5061  0.2062 -0.1216
  723TMC3    O110695   0.652   1.404  12.515  0.3102  0.1110  0.3945
  723TMC3    O210696   0.172   1.092  12.728 -0.2455 -0.1626 -0.1064
  724TMC3    C110697   1.202   3.485  10.112  0.5757  0.3181 -0.0285
  724TMC3    C210698   1.193   3.612  10.167  0.3310 -0.2541 -0.1831
  724TMC3    C310699   1.149   3.708  10.082  0.3430  0.1862  0.9027
  724TMC3    C410700   1.188   3.459   9.977  0.2954  0.3269  0.1326
  724TMC3    C510701   1.163   3.566   9.899  1.0461  0.0533 -0.5630
  724TMC3    C610702   1.134   3.691   9.948  0.4870 -1.0205  0.2785
  724TMC3     C10703   1.223   3.373  10.197  0.0441  0.7797 -0.1032
  724TMC3     O10704   1.187   3.263  10.158  0.2202  1.1245 -0.3129
  724TMC3     H10705   1.175   3.629  10.272  3.5606  1.3747  0.1142
  724TMC3    H110706   1.200   3.363   9.926 -0.5853 -0.3246  1.1539
  724TMC3    H210707   1.091   3.759   9.875  1.8526  0.5416  0.9568
  724TMC3    C710708   1.146   3.550   9.753  0.4538 -0.6418  0.6451
  724TMC3    C810709   1.106   3.837  10.138  0.3248 -0.2815  0.0220
  724TMC3    O110710   1.184   3.642   9.691 -0.2202 -0.2290 -0.1661
  724TMC3    O210711   1.068   3.841  10.258 -0.2328 -0.2883 -0.1117
  725TMC3    C110712   2.888   2.175  12.344  0.9398  0.2595  0.5503
  725TMC3    C210713   2.813   2.259  12.259 -0.1113 -0.7452  0.9538
  725TMC3    C310714   2.675   2.259  12.271 -0.1745  0.0742  0.4161
  725TMC3    C410715   2.821   2.077  12.412  0.2253 -0.1956  0.0221
  725TMC3    C510716   2.684   2.069  12.408 -0.6409 -0.1307 -0.0202
  725TMC3    C610717   2.610   2.167  12.344 -0.3650  0.2183  0.2966
  725TMC3     C10718   3.013   2.238  12.383  0.5437  0.3088  0.0431
  725TMC3     O10719   3.016   2.358  12.354 -0.0833  0.1569  0.1069
  725TMC3     H10720   2.865   2.334  12.201 -2.4381  0.4172  0.3729
  725TMC3    H110721   2.870   2.031  12.497  0.2133  2.2305  1.3495
  725TMC3    H210722   2.503   2.171  12.359 -0.5413 -1.2060 -0.5553
  725TMC3    C710723   2.628   1.949  12.466  0.1356  0.7925 -0.7519
  725TMC3    C810724   2.609   2.391  12.251  0.3467 -1.0154 -0.5669
  725TMC3    O110725   2.712   1.857  12.479  0.4699 -0.4957 -0.1087
  725TMC3    O210726   2.505   2.411  12.316  0.2558 -0.2132 -0.1544
  726MPD2     C10727   0.677   4.586  10.557 -0.2672 -0.0825 -0.4198
  726MPD2    C110728   0.738   4.544  10.682 -1.0671 -0.6379 -0.1207
  726MPD2    C210729   0.685   4.434  10.747  0.5439  0.1616  0.2689
  726MPD2    C310730   0.592   4.359  10.680 -0.2208 -0.9311 -0.3204
  726MPD2    C410731   0.537   4.395  10.563  0.2932  0.3725  0.3522
  726MPD2    C510732   0.572   4.507  10.504  0.3043  0.1209 -0.4997
  726MPD2     H10733   0.738   4.397  10.833 -1.0507  1.3430  1.7561
  726MPD2    H110734   0.462   4.331  10.517  1.0904  0.6331 -1.2946
  726MPD2    H210735   0.723   4.666  10.500  3.3795 -2.8459 -1.3261
  726MPD2    H310736   0.538   4.531  10.404 -1.3575  0.3735  0.1148
  726MPD2     N10737   0.548   4.236  10.734  0.1269  0.3035 -0.8308
  726MPD2    H510738   0.465   4.197  10.689 -0.3750 -1.4053  1.5353
  726MPD2    N110739   0.850   4.604  10.748 -0.1309  0.0604 -0.2747
  726MPD2    H710740   0.887   4.562  10.833 -0.3170  0.3546 -0.0451
  727TMC3    C110741   1.013   0.058  10.749 -0.2862 -0.7636 -0.1990
  727TMC3    C210742   1.109   4.686  10.780  0.4024  0.0284  0.3447
  727TMC3    C310743   1.243   4.715  10.753  0.6078 -0.3398 -0.3460
  727TMC3    C410744   1.049   0.181  10.692  0.4860 -0.3360 -0.4751
  727TMC3    C510745   1.181   0.199  10.661  0.2688 -0.3046  0.5618
  727TMC3    C610746   1.270   0.107  10.692  0.0895  0.2338  0.8585
  727TMC3     C10747   0.883   0.009  10.709 -0.4716  0.0972 -0.6142
  727TMC3     O10748   0.822   0.088  10.639  0.0777 -0.1524  0.1897
  727TMC3     H10749   1.080   4.586  10.810 -1.0978  0.5661  0.7391
  727TMC3    H110750   0.973   0.258  10.680  1.3916  0.8672  1.4264
  727TMC3    H210751   1.368   0.137  10.657 -1.5325  1.7500 -2.3385
  727TMC3    C710752   1.222   0.304  10.566 -0.0140  0.6226 -0.4818
  727TMC3    C810753   1.339   4.612  10.738  0.7143 -0.2022 -0.7224
  727TMC3    O110754   1.339   0.334  10.566 -0.7114 -0.4297  0.4901
  727TMC3    O210755   1.436   4.634  10.664 -0.3299 -0.0647 -0.2844
  728TMC3    C110756   0.012   2.424  15.125 -0.6116 -0.6118 -0.3418
  728TMC3    C210757   0.146   2.443  15.104 -0.0157 -0.0800 -0.0557
  728TMC3    C310758   0.182   2.515  14.983 -0.4582  0.0620  0.2072
  728TMC3    C410759   4.636   2.477  15.048  0.0812  0.1322 -0.4035
  728TMC3    C510760   4.679   2.546  14.934 -0.7471  0.2033  0.2135
  728TMC3    C610761   0.087   2.566  14.898 -0.3929 -0.0994  0.0048
  728TMC3     C10762   4.705   2.393  15.267  0.2630  0.7526 -1.1151
  728TMC3     O10763   0.078   2.385  15.342  0.5629  0.3657  0.0084
  728TMC3     H10764   0.223   2.407  15.171 -0.6110 -2.0361 -0.4176
  728TMC3    H110765   4.530   2.462  15.066 -0.0085  0.0865 -0.9582
  728TMC3    H210766   0.105   2.611  14.801 -1.6417 -0.2806 -0.3182
  728TMC3    C710767   4.576   2.585  14.842  0.0657 -0.3847 -0.8688
  728TMC3    C810768   0.322   2.547  14.972  0.3640 -1.1107 -0.5135
  728TMC3    O110769   4.474   2.521  14.831 -0.3741 -0.6357 -0.3943
  728TMC3    O210770   0.393   2.497  15.053  0.4491  0.3233 -0.0297
  729MPD2     C10771   2.245   3.177  16.589 -0.0295  0.1160 -0.2211
  729MPD2    C110772   2.340   3.230  16.671  0.4753  0.2557 -0.0277
  729MPD2    C210773   2.316   3.229  16.803  0.0551  0.3723 -0.2570
  729MPD2    C310774   2.198   3.189  16.861 -0.5005  0.1471  0.5014
  729MPD2    C410775   2.100   3.146  16.779 -0.0294 -0.7486  0.6922
  729MPD2    C510776   2.126   3.131  16.644 -0.0345  0.5068  0.0483
  729MPD2     H10777   2.391   3.272  16.869  1.2076  1.1161 -2.0392
  729MPD2    H110778   2.005   3.111  16.818  0.1436  0.5543  2.3130
  729MPD2    H210779   2.270   3.182  16.484  0.9765 -0.0118  0.0122
  729MPD2    H310780   2.041   3.094  16.587 -0.0704  0.5326  0.0847
  729MPD2     N10781   2.181   3.184  17.002  0.1436 -0.0103 -0.2279
  729MPD2    H510782   2.086   3.167  17.034 -0.0706  1.1053 -0.2644
  729MPD2    N110783   2.453   3.285  16.600 -0.3759 -0.5353 -0.5647
  729MPD2    H710784   2.440   3.294  16.500  2.6728 -0.4872 -0.9583
  730TMC3    C110785   2.218   3.230  17.222 -0.2621  0.0116 -0.0458
  730TMC3    C210786   2.298   3.223  17.333 -0.5715  0.6107 -0.4008
  730TMC3    C310787   2.293   3.309  17.445  0.6189  0.1567 -0.1791
  730TMC3    C410788   2.128   3.334  17.224  0.4024 -0.4770 -0.1571
  730TMC3    C510789   2.127   3.415  17.336  0.4519 -0.2372  0.5218
  730TMC3    C610790   2.203   3.410  17.447 -0.4700  0.1908  0.0001
  730TMC3     C10791   2.279   3.213  17.095  0.8366  0.6179  0.3975
  730TMC3     O10792   2.402   3.219  17.088 -0.2413  0.3694 -0.0146
  730TMC3     H10793   2.377   3.152  17.317  1.1574  2.2575  0.8457
  730TMC3    H110794   2.077   3.367  17.134  2.4537 -1.9551 -1.8712
  730TMC3    H210795   2.200   3.485  17.524 -1.1346  0.5419 -0.3630
  730TMC3    C710796   2.079   3.541  17.291 -0.1294  0.4365  0.3071
  730TMC3    C810797   2.420   3.322  17.502  0.3714 -0.3087 -0.3627
  730TMC3    O110798   2.112   3.568  17.182  0.0036  0.4579 -0.0278
  730TMC3    O210799   2.482   3.218  17.520  0.5854  0.3663 -0.2641
  731MPD2     C10800   1.383   1.231  12.330 -0.1284  0.3110  0.6559
  731MPD2    C110801   1.468   1.120  12.335  0.7401 -0.2806 -0.4964
  731MPD2    C210802   1.535   1.087  12.452  0.6489  0.1550 -0.1092
  731MPD2    C310803   1.529   1.175  12.558 -0.3639 -0.2232  0.8157
  731MPD2    C410804   1.455   1.288  12.550  0.4657 -0.2266 -0.2098
  731MPD2    C510805   1.381   1.309  12.441 -0.0296  0.3603  0.1136
  731MPD2     H10806   1.606   1.005  12.455  0.9194  0.3973  0.0769
  731MPD2    H110807   1.447   1.370  12.620 -2.0462 -1.5573  1.0674
  731MPD2    H210808   1.328   1.260  12.241  2.1514 -1.8381 -1.4293
  731MPD2    H310809   1.316   1.395  12.439  2.4883  2.2238 -0.8452
  731MPD2     N10810   1.610   1.152  12.677 -0.1117 -0.1582 -0.4302
  731MPD2    H510811   1.666   1.067  12.676 -2.3139 -1.6406  1.3676
  731MPD2    N110812   1.479   1.050  12.212  0.3391  0.2902  0.1429
  731MPD2    H710813   1.412   1.075  12.140  0.4991 -0.0470 -0.1225
  732TMC3    C110814   1.574   0.907  12.043 -0.6689  0.3247  0.3283
  732TMC3    C210815   1.476   0.947  11.952  0.4021 -0.5655  0.1525
  732TMC3    C310816   1.501   0.923  11.821  0.8618  0.2410  0.4692
  732TMC3    C410817   1.693   0.842  12.009 -0.1908  0.2301 -0.1339
  732TMC3    C510818   1.717   0.838  11.875 -0.3673 -0.4745 -0.2458
  732TMC3    C610819   1.619   0.869  11.781  0.2977  0.0303 -0.0329
  732TMC3     C10820   1.563   0.940  12.190 -0.2917  0.5063  0.4794
  732TMC3     O10821   1.648   0.889  12.261  0.4113 -0.4147  0.2215
  732TMC3     H10822   1.384   0.997  11.981  0.6672 -0.1590  0.2955
  732TMC3    H110823   1.768   0.809  12.079 -0.5889 -1.1126 -0.3355
  732TMC3    H210824   1.639   0.868  11.674  0.8766 -0.2165  0.0753
  732TMC3    C710825   1.857   0.823  11.828  0.5698  0.1029  0.0145
  732TMC3    C810826   1.434   1.011  11.723 -0.3368 -0.0423 -0.1440
  732TMC3    O110827   1.871   0.796  11.711  0.1480 -0.8457 -0.6003
  732TMC3    O210828   1.455   0.989  11.604  0.4123 -0.1933  0.6127
  733TMC3    C110829   3.141   0.230  12.801 -0.0132  0.4337 -0.1723
  733TMC3    C210830   3.187   0.357  12.775 -0.0781  0.0541 -0.3184
  733TMC3    C310831   3.318   0.374  12.755  0.2509  0.2974 -0.1137
  733TMC3    C410832   3.216   0.118  12.799  0.2776 -0.0362  0.3114
  733TMC3    C510833   3.352   0.140  12.766 -0.8154 -0.1060  0.0589
  733TMC3    C610834   3.402   0.267  12.747 -0.4783  0.1321 -0.6305
  733TMC3     C10835   2.996   0.214  12.813  0.1315 -0.3189 -0.5328
  733TMC3     O10836   2.935   0.318  12.832 -0.1360 -0.2919  0.8281
  733TMC3     H10837   3.116   0.439  12.769  0.2541  0.2670 -1.3866
  733TMC3    H110838   3.188   0.026  12.849  1.8286 -1.0051 -0.5877
  733TMC3    H210839   3.508   0.285  12.731 -0.3040 -1.0440 -0.7608
  733TMC3    C710840   3.425   0.031  12.709 -0.0726  0.9078  0.3766
  733TMC3    C810841   3.348   0.500  12.684  0.5173  0.0561  0.6216
  733TMC3    O110842   3.374   4.646  12.738 -0.0452 -0.5521  0.2029
  733TMC3    O210843   3.270   0.594  12.704  0.1564 -0.2112  0.4226
  734MPD2     C10844   0.066   2.690  12.363 -0.1739 -0.1493  1.2273
  734MPD2    C110845   0.102   2.601  12.264 -0.2679  0.0014 -1.0479
  734MPD2    C210846   0.152   2.651  12.142  0.2127  0.4720 -0.4270
  734MPD2    C310847   0.158   2.784  12.122 -1.4085 -0.1727 -0.1179
  734MPD2    C410848   0.132   2.871  12.224  0.0714  0.2376  0.0668
  734MPD2    C510849   0.081   2.822  12.339  0.0158 -0.0532 -0.2722
  734MPD2     H10850   0.170   2.583  12.060 -2.4604 -1.4054  0.5561
  734MPD2    H110851   0.144   2.976  12.198  0.7206 -0.1072 -1.0072
  734MPD2    H210852   0.036   2.664  12.464  0.5710 -1.1664  1.1837
  734MPD2    H310853   0.059   2.893  12.418 -0.2472  0.6424 -0.9786
  734MPD2     N10854   0.202   2.829  11.993 -0.3821  0.2016 -0.9275
  734MPD2    H510855   0.228   2.763  11.920  0.0069  1.7200 -2.1635
  734MPD2    N110856   0.083   2.463  12.279  0.1009 -0.7575 -0.0505
  734MPD2    H710857   0.031   2.431  12.359 -1.9294  1.8156 -0.3495
  735TMC3    C110858   0.104   2.234  12.249  0.4653 -0.2202 -0.1103
  735TMC3    C210859   4.706   2.227  12.185  0.8590  0.0317  0.4387
  735TMC3    C310860   4.681   2.113  12.107 -0.4600  0.7380 -0.4023
  735TMC3    C410861   0.206   2.129  12.225 -0.6762  0.1125 -0.5689
  735TMC3    C510862   0.161   2.019  12.158 -0.6813  0.3090 -0.4906
  735TMC3    C610863   0.037   1.998  12.110  0.1478 -0.1430 -0.0618
  735TMC3     C10864   0.164   2.366  12.228  0.0600 -0.0849  0.4659
  735TMC3     O10865   0.250   2.374  12.143 -0.2558 -0.6974 -0.6672
  735TMC3     H10866   4.638   2.312  12.184 -0.0673 -0.7129 -0.0908
  735TMC3    H110867   0.300   2.135  12.278 -1.7960  2.5651  1.1432
  735TMC3    H210868   0.014   1.906  12.056  0.9930 -0.8059  0.7022
  735TMC3    C710869   0.255   1.917  12.118 -1.6142  0.4854  0.0302
  735TMC3    C810870   4.634   2.135  11.972  0.7611  0.3120 -0.0756
  735TMC3    O110871   0.219   1.802  12.120  0.3061  0.2431 -0.1863
  735TMC3    O210872   4.613   2.038  11.907  0.2037  0.3981 -0.1691
  736MPD2     C10873   0.488   1.747  12.031  0.4662  1.0589  0.2557
  736MPD2    C110874   0.483   1.884  12.026 -0.0389 -0.1200 -0.5154
  736MPD2    C210875   0.597   1.940  11.974 -0.2541  0.4592 -0.0124
  736MPD2    C310876   0.698   1.869  11.920 -0.3033  0.4979  0.8594
  736MPD2    C410877   0.694   1.731  11.931 -1.0027 -0.1114 -0.2251
  736MPD2    C510878   0.591   1.670  11.982  0.0238  0.0672  0.1491
  736MPD2     H10879   0.600   2.048  11.980  0.8243  0.3933  0.5873
  736MPD2    H110880   0.774   1.674  11.883  0.6268  1.9047  0.0926
  736MPD2    H210881   0.408   1.688  12.074  2.4871  0.0253  2.6440
  736MPD2    H310882   0.583   1.562  11.978 -2.8348  0.2049  1.8664
  736MPD2     N10883   0.810   1.931  11.864 -0.7709 -0.2278  0.1250
  736MPD2    H510884   0.870   1.862  11.821 -0.6445  0.0211 -0.1036
  736MPD2    N110885   0.379   1.961  12.079  0.1018  0.5854 -0.4739
  736MPD2    H710886   0.384   2.062  12.069  0.6281  0.5003 -1.0860
  737TMC3    C110887   0.924   2.110  11.740  0.2069  0.1160  0.0428
  737TMC3    C210888   0.939   2.244  11.714  0.4801 -0.0323  0.2466
  737TMC3    C310889   1.024   2.284  11.619 -0.0822 -0.1589  0.4453
  737TMC3    C410890   1.000   2.015  11.683 -0.7935  0.1282 -0.2952
  737TMC3    C510891   1.081   2.048  11.582 -0.4779 -0.0855 -0.2918
  737TMC3    C610892   1.087   2.186  11.542 -0.1229 -0.9642  0.7288
  737TMC3     C10893   0.835   2.071  11.854  0.0570  0.1660  0.4998
  737TMC3     O10894   0.794   2.167  11.923 -0.2513  0.3156  0.1681
  737TMC3     H10895   0.888   2.315  11.779  0.0347 -0.1351  0.0128
  737TMC3    H110896   0.996   1.912  11.718 -0.2200  0.8295  1.8291
  737TMC3    H210897   1.141   2.212  11.452  1.9436 -1.6375  1.7797
  737TMC3    C710898   1.122   1.954  11.479  0.1920  0.0858  0.2840
  737TMC3    C810899   1.038   2.428  11.590  0.7690 -1.0936  0.7697
  737TMC3    O110900   1.059   1.852  11.456  0.1364  0.2828 -0.4679
  737TMC3    O210901   0.949   2.502  11.631 -0.5519 -0.5683 -0.5588
  738MPD2     C10902   1.732   1.126  15.299  0.5736  0.3442 -0.4345
  738MPD2    C110903   1.644   1.088  15.198  0.1891  0.0293 -0.2787
  738MPD2    C210904   1.690   1.113  15.069 -0.1938 -0.2531 -0.1384
  738MPD2    C310905   1.801   1.193  15.040  0.1701  0.6893 -0.0946
  738MPD2    C410906   1.875   1.244  15.147  0.2439  0.4727 -0.5511
  738MPD2    C510907   1.847   1.198  15.272  0.3784 -1.2632  0.0901
  738MPD2     H10908   1.629   1.071  14.990 -1.5529 -0.8828  1.2404
  738MPD2    H110909   1.955   1.313  15.123  0.9090  0.1396  0.6985
  738MPD2    H210910   1.717   1.106  15.404  1.4066 -2.5474 -0.8641
  738MPD2    H310911   1.905   1.232  15.357 -1.1862 -0.6950  0.9213
  738MPD2     N10912   1.836   1.234  14.909 -0.3791 -0.1287 -0.3266
  738MPD2    H510913   1.925   1.281  14.899  0.9853 -2.8973 -1.0504
  738MPD2    N110914   1.520   1.017  15.204  0.2448 -0.6987 -0.0185
  738MPD2    H710915   1.484   0.987  15.114  0.9246 -0.2013 -0.4541
  739TMC3    C110916   1.799   1.250  14.670 -0.1083 -0.5908 -0.0032
  739TMC3    C210917   1.707   1.290  14.580 -0.7107 -0.1348 -0.7544
  739TMC3    C310918   1.748   1.318  14.453  0.1872  0.9824  0.0059
  739TMC3    C410919   1.933   1.245  14.639 -0.5804 -0.1861  0.0830
  739TMC3    C510920   1.970   1.282  14.512  0.5554 -0.1665 -0.6129
  739TMC3    C610921   1.874   1.309  14.415  0.1028  0.1926  0.1799
  739TMC3     C10922   1.758   1.204  14.801  0.4402 -0.6004  0.5969
  739TMC3     O10923   1.646   1.163  14.803  0.7032  0.2047  0.6997
  739TMC3     H10924   1.604   1.293  14.615 -0.0492 -0.3680  1.2432
  739TMC3    H110925   2.003   1.209  14.713  0.5017  0.9806 -0.3862
  739TMC3    H210926   1.903   1.312  14.310 -1.9188  1.2136 -0.3337
  739TMC3    C710927   2.114   1.284  14.481 -0.4344  0.0018 -0.7198
  739TMC3    C810928   1.628   1.343  14.372 -0.2091 -0.1984 -0.0245
  739TMC3    O110929   2.187   1.214  14.551 -0.4284  0.1433 -0.2730
  739TMC3    O210930   1.520   1.308  14.418 -0.0155 -0.6204  0.3591
  740TMC3    C110931   1.980   2.440  14.439 -0.4463 -0.4065  0.4411
  740TMC3    C210932   2.036   2.420  14.560 -0.1563 -0.3770 -0.6449
  740TMC3    C310933   2.165   2.355  14.556  0.8014 -0.1579 -0.5411
  740TMC3    C410934   2.036   2.406  14.310 -0.7209 -0.7822  0.3862
  740TMC3    C510935   2.156   2.333  14.316  0.2093  0.1729  0.9467
  740TMC3    C610936   2.216   2.304  14.432  0.4245  0.0740 -0.7109
  740TMC3     C10937   1.852   2.518  14.442  0.5587  0.3275  0.1340
  740TMC3     O10938   1.823   2.578  14.339 -0.7031 -0.2739 -0.2481
  740TMC3     H10939   2.004   2.453  14.658  0.7986  0.9140 -0.7606
  740TMC3    H110940   1.984   2.426  14.217 -0.4124 -0.6956  0.2325
  740TMC3    H210941   2.313   2.255  14.433 -0.6167 -1.9113  0.1227
  740TMC3    C710942   2.220   2.265  14.205  0.1167  0.3667  0.5780
  740TMC3    C810943   2.235   2.320  14.678 -0.6030  1.1436  0.1001
  740TMC3    O110944   2.280   2.162  14.231  0.7030 -0.6638  0.1912
  740TMC3    O210945   2.349   2.280  14.663  0.2627 -0.1432 -0.6548
  741TMC3    C110946   1.503   1.888  14.304 -0.6034 -0.3960  0.0470
  741TMC3    C210947   1.376   1.841  14.332 -0.2883  0.5494 -0.1904
  741TMC3    C310948   1.367   1.727  14.401  0.2390 -0.2627 -0.3956
  741TMC3    C410949   1.618   1.833  14.358 -0.9713  0.2058  0.1729
  741TMC3    C510950   1.592   1.718  14.426  0.2599  0.8840 -0.4282
  741TMC3    C610951   1.469   1.664  14.459  0.2517  0.6987  0.1539
  741TMC3     C10952   1.520   1.991  14.204  0.1886  0.0271  0.0126
  741TMC3     O10953   1.628   2.050  14.212 -0.5180 -0.3195 -0.3523
  741TMC3     H10954   1.293   1.902  14.299 -1.1815 -0.5813 -0.0313
  741TMC3    H110955   1.719   1.854  14.324 -0.4206 -2.5432  0.1700
  741TMC3    H210956   1.462   1.569  14.511  1.5099  0.7512  0.4198
  741TMC3    C710957   1.707   1.681  14.507  0.2366  0.1059 -0.2293
  741TMC3    C810958   1.234   1.687  14.428  0.2387 -0.0650  0.0586
  741TMC3    O110959   1.818   1.711  14.463  0.7947 -0.0255 -0.2905
  741TMC3    O210960   1.154   1.735  14.353 -0.2138 -0.4219  0.3004
  742TMC3    C110961   1.360   0.157  15.289 -0.3437  0.0712  0.2613
  742TMC3    C210962   1.284   0.169  15.173  0.1773  0.3880 -0.0442
  742TMC3    C310963   1.353   0.127  15.064  0.1986 -0.6559 -0.5318
  742TMC3    C410964   1.491   0.119  15.303 -0.3667 -0.3710 -0.2114
  742TMC3    C510965   1.550   0.093  15.183 -0.3360  0.0083 -0.9231
  742TMC3    C610966   1.482   0.079  15.068  0.2182  0.7198 -0.3106
  742TMC3     C10967   1.305   0.200  15.417 -0.2317  0.7216 -0.1717
  742TMC3     O10968   1.243   0.306  15.412 -0.8237 -0.0536 -0.1616
  742TMC3     H10969   1.175   0.167  15.178  0.2607 -1.2002  0.9504
  742TMC3    H110970   1.544   0.135  15.396  1.5714 -1.1182 -1.1640
  742TMC3    H210971   1.540   0.060  14.978  1.1002  1.1946  0.1546
  742TMC3    C710972   1.668   0.006  15.192  0.5383 -0.3166 -0.5723
  742TMC3    C810973   1.275   0.088  14.946 -0.0611 -0.3957 -0.2064
  742TMC3    O110974   1.683   4.644  15.105 -0.6703 -0.3261 -0.0653
  742TMC3    O210975   1.335   0.016  14.869  0.3328 -0.6042  0.1273
  743MPD2     C10976   4.713   0.531   1.832 -0.1333 -0.1723  0.3464
  743MPD2    C110977   0.064   0.640   1.876 -0.8963  0.4521  0.0389
  743MPD2    C210978   0.154   0.621   1.978  0.1208 -0.3579  0.2553
  743MPD2    C310979   0.159   0.500   2.042 -0.1641 -0.5288 -0.1795
  743MPD2    C410980   0.073   0.397   2.010 -0.3224  0.1941  0.3811
  743MPD2    C510981   4.712   0.410   1.905 -0.2355  0.6864  0.0385
  743MPD2     H10982   0.229   0.696   2.001  2.5218 -2.5319 -0.4573
  743MPD2    H110983   0.073   0.303   2.063 -0.3341 -0.2541 -0.4159
  743MPD2    H210984   4.648   0.530   1.746  1.1761  0.6175 -0.6451
  743MPD2    H310985   4.640   0.332   1.880 -0.4519  0.4242  1.5047
  743MPD2     N10986   0.265   0.487   2.148 -0.1252  0.5579 -0.8015
  743MPD2    H510987   0.301   0.576   2.181 -1.4019  0.4776  0.8158
  743MPD2    N110988   0.050   0.755   1.797 -0.1258 -0.7045 -0.2755
  743MPD2    H710989   4.699   0.739   1.728 -1.6972  0.2047  1.1789
  744TMC3    C110990   0.084   0.971   1.721 -0.1245 -0.1329  0.1204
  744TMC3    C210991   0.059   1.105   1.757  0.3241 -0.0812  0.2788
  744TMC3    C310992   0.027   1.189   1.656  0.5363  0.2086 -0.3861
  744TMC3    C410993   0.064   0.921   1.589  0.4158  0.1183 -0.3506
  744TMC3    C510994   0.006   1.002   1.499  0.1174 -0.3279 -1.0619
  744TMC3    C610995   4.713   1.134   1.529 -0.2341  0.3694  0.4634
  744TMC3     C10996   0.104   0.878   1.828 -0.0772  0.2321  0.3261
  744TMC3     O10997   0.162   0.918   1.929 -0.0652  0.1635 -0.2143
  744TMC3     H10998   0.063   1.134   1.861 -1.4778  1.1742  0.0018
  744TMC3    H110999   0.108   0.826   1.560  0.2618 -0.3981  1.0696
  744TMC3    H211000   4.664   1.198   1.456 -1.2311 -0.8493  0.0785
  744TMC3    C711001   0.024   0.968   1.361  0.1912 -0.3388  0.2436
  744TMC3    C811002   4.683   1.318   1.688 -0.2743  0.1245  0.5248
  744TMC3    O111003   0.036   1.066   1.293 -0.2397 -0.2340  0.3541
  744TMC3    O211004   4.602   1.364   1.609 -0.3501 -0.1490 -0.3212
  745TMC3    C111005   1.629   4.486  13.651  0.4734 -0.2059  0.5320
  745TMC3    C211006   1.510   4.424  13.656  0.6548 -0.3790 -0.1943
  745TMC3    C311007   1.396   4.484  13.609  0.0609  0.6154  0.6707
  745TMC3    C411008   1.649   4.580  13.551 -0.3567  0.6011  0.5144
  745TMC3    C511009   1.535   4.607  13.478 -0.9048  0.2651  0.1278
  745TMC3    C611010   1.409   4.576  13.512 -0.0688 -0.2123 -0.2320
  745TMC3     C11011   1.696   4.508  13.772 -0.2439  0.2129  1.0035
  745TMC3     O11012   1.663   4.442  13.872  0.4773  0.5712 -0.0516
  745TMC3     H11013   1.498   4.341  13.725 -1.2952 -1.8672 -2.3032
  745TMC3    H111014   1.743   4.630  13.532  0.9012 -1.4122  1.4950
  745TMC3    H211015   1.329   4.615  13.450 -0.4399  1.0811  1.0628
  745TMC3    C711016   1.537   0.017  13.430  0.2505  0.5604  0.1964
  745TMC3    C811017   1.302   4.534  13.713 -0.2383 -0.8084 -0.4594
  745TMC3    O111018   1.442   0.086  13.465 -0.2045  0.1031  0.3887
  745TMC3    O211019   1.199   4.593  13.684 -0.4847  0.5657  0.3107
  746TMC3    C111020   3.964   1.854  10.741  0.0011  0.5668 -0.2452
  746TMC3    C211021   4.082   1.807  10.681 -1.0535  0.1779 -0.0633
  746TMC3    C311022   4.085   1.676  10.648 -0.2465  0.6872  0.1990
  746TMC3    C411023   3.866   1.775  10.792  0.3102 -0.5766 -0.2619
  746TMC3    C511024   3.889   1.641  10.771  1.0694  0.6886  0.2233
  746TMC3    C611025   3.986   1.587  10.692  0.9599 -0.8626  0.9215
  746TMC3     C11026   3.957   1.992  10.772 -0.1828  0.0180 -0.1962
  746TMC3     O11027   3.899   2.023  10.879 -0.1631  0.1341  0.2822
  746TMC3     H11028   4.157   1.879  10.651  0.4111 -0.7200  1.4532
  746TMC3    H111029   3.781   1.823  10.840 -1.7044 -3.2088 -1.1860
  746TMC3    H211030   4.002   1.481  10.671  3.4071  0.3537 -3.3858
  746TMC3    C711031   3.784   1.542  10.798  1.0773 -0.0854  0.2622
  746TMC3    C811032   4.165   1.624  10.540 -0.2010 -1.1555 -0.3629
  746TMC3    O111033   3.773   1.449  10.717  0.0008  0.4973 -0.0800
  746TMC3    O211034   4.183   1.502  10.536 -0.4340 -0.6622 -0.1003
  747TMC3    C111035   2.002   2.165  11.020  0.0171 -0.4673 -0.0600
  747TMC3    C211036   1.894   2.205  11.095  0.1603  0.2028 -0.5655
  747TMC3    C311037   1.850   2.117  11.195 -0.5436  0.3507  0.6532
  747TMC3    C411038   2.090   2.072  11.063 -0.3872 -1.3796  0.0692
  747TMC3    C511039   2.052   2.010  11.178 -0.5331  0.0839 -0.4755
  747TMC3    C611040   1.931   2.021  11.242  0.0972  1.1296  1.2448
  747TMC3     C11041   2.012   2.198  10.879 -0.5991 -0.4807  0.0516
  747TMC3     O11042   1.964   2.302  10.844  0.1551  0.3339  0.4139
  747TMC3     H11043   1.824   2.275  11.052  0.3139  0.8846  0.2882
  747TMC3    H111044   2.180   2.050  11.006  0.5350  1.5246  0.4007
  747TMC3    H211045   1.894   1.969  11.329 -4.8025  0.1190 -1.4714
  747TMC3    C711046   2.144   1.924  11.241 -0.1898 -1.2157 -0.0916
  747TMC3    C811047   1.708   2.099  11.215  0.3261  0.9542 -0.9563
  747TMC3    O111048   2.129   1.910  11.363 -0.1381 -0.3043  0.3027
  747TMC3    O211049   1.633   2.193  11.218 -0.1608  0.3045 -0.0723
  748MPD2     C11050   3.225   2.551   1.468 -0.0989  0.3900 -0.3294
  748MPD2    C111051   3.260   2.550   1.334  1.0557  0.2935  0.0696
  748MPD2    C211052   3.389   2.592   1.298  0.6841  0.1618 -0.9375
  748MPD2    C311053   3.477   2.630   1.391 -0.3710 -0.5117  0.9242
  748MPD2    C411054   3.442   2.637   1.527 -0.3670  0.4335 -0.3165
  748MPD2    C511055   3.317   2.600   1.565  0.1339  0.3103  0.3987
  748MPD2     H11056   3.426   2.588   1.196  2.7814 -0.9421 -0.1381
  748MPD2    H111057   3.512   2.650   1.609 -1.1468 -1.0031  0.5776
  748MPD2    H211058   3.123   2.538   1.502  0.3283  0.2008  0.8907
  748MPD2    H311059   3.280   2.602   1.667 -1.0213  0.2028 -0.0233
  748MPD2     N11060   3.615   2.650   1.350  0.0377 -0.7454  0.0601
  748MPD2    H511061   3.638   2.620   1.256 -1.7464  2.3627 -1.3993
  748MPD2    N111062   3.156   2.522   1.243  0.1086  0.2002  0.1849
  748MPD2    H711063   3.061   2.499   1.273 -0.3858  1.9046 -0.0405
  749TMC3    C111064   3.851   2.682   1.379  1.0988 -0.6866 -0.5487
  749TMC3    C211065   3.946   2.655   1.478  0.3119  0.5936 -0.5420
  749TMC3    C311066   4.074   2.627   1.437 -0.0609  0.3580 -0.2178
  749TMC3    C411067   3.877   2.674   1.245  0.3312  0.1766 -0.0070
  749TMC3    C511068   4.003   2.639   1.204  0.8056 -0.5669 -0.2518
  749TMC3    C611069   4.103   2.622   1.301 -0.1716  0.7780 -0.2287
  749TMC3     C11070   3.714   2.697   1.425 -0.2071 -0.0481 -0.5372
  749TMC3     O11071   3.697   2.736   1.542 -0.1610  0.1010  0.1970
  749TMC3     H11072   3.931   2.662   1.585 -0.4649  1.0389 -0.6842
  749TMC3    H111073   3.807   2.700   1.166  0.5456 -1.9138 -0.8722
  749TMC3    H211074   4.206   2.621   1.269 -0.1173 -2.9624  0.0066
  749TMC3    C711075   4.049   2.650   1.067  0.0225 -0.0699  0.2729
  749TMC3    C811076   4.168   2.573   1.534  0.3635 -0.3206 -0.4005
  749TMC3    O111077   4.159   2.605   1.046  0.0636 -0.4287  0.3577
  749TMC3    O211078   4.145   2.607   1.649  0.6282 -0.1648 -0.2616
  750MPD2     C11079   4.499   3.800  11.124  0.5514 -0.0871  0.1300
  750MPD2    C111080   4.375   3.744  11.141 -0.0306 -0.6271 -0.0303
  750MPD2    C211081   4.346   3.616  11.095 -0.3286  0.9097  0.2215
  750MPD2    C311082   4.434   3.548  11.010 -0.1887  0.0751  0.4495
  750MPD2    C411083   4.549   3.613  10.979 -0.0294  0.5074  0.3892
  750MPD2    C511084   4.581   3.735  11.036 -0.1048 -0.2055 -0.0902
  750MPD2     H11085   4.258   3.564  11.132 -0.0132  0.6411  0.5966
  750MPD2    H111086   4.620   3.563  10.915 -0.6806 -2.6681  2.1988
  750MPD2    H211087   4.537   3.892  11.168 -0.6429  0.7192 -0.5290
  750MPD2    H311088   4.671   3.787  11.005 -0.5627  0.9816  0.5728
  750MPD2     N11089   4.408   3.419  10.944 -0.5235  0.0062 -0.3186
  750MPD2    H511090   4.487   3.388  10.887 -1.1433 -0.1172 -1.1078
  750MPD2    N111091   4.288   3.824  11.219 -0.2546 -0.3171 -0.0215
  750MPD2    H711092   4.325   3.908  11.262  2.0264 -0.7932 -1.0673
  751TMC3    C111093   4.282   3.227  10.883  0.2014 -0.4828  0.1689
  751TMC3    C211094   4.160   3.172  10.874  0.4020  0.6794 -0.1894
  751TMC3    C311095   4.140   3.061  10.802  0.2384  0.0038 -0.5522
  751TMC3    C411096   4.392   3.172  10.832  0.2283  0.2796  0.7442
  751TMC3    C511097   4.369   3.058  10.757 -0.2233 -0.6434  0.7050
  751TMC3    C611098   4.245   3.002  10.735 -0.1004  0.4597  0.2689
  751TMC3     C11099   4.287   3.353  10.942  0.4886  0.0387 -0.4007
  751TMC3     O11100   4.181   3.406  10.974 -0.5783 -0.5992  0.6795
  751TMC3     H11101   4.070   3.224  10.904 -0.3738  0.1986 -1.6520
  751TMC3    H111102   4.491   3.198  10.866  0.5724  0.3223 -0.2937
  751TMC3    H211103   4.218   2.917  10.672 -2.6041 -0.3385  2.4295
  751TMC3    C711104   4.501   3.007  10.705 -0.5095  0.6036 -0.1352
  751TMC3    C811105   4.008   3.027  10.757  0.1091  0.1367 -1.0463
  751TMC3    O111106   4.591   3.089  10.684  0.4967 -0.7877  0.2339
  751TMC3    O211107   4.001   2.973  10.647 -0.1058 -0.6789  0.3998
  752TMC3    C111108   3.441   3.213  17.211  0.4522 -0.0516 -0.5062
  752TMC3    C211109   3.318   3.172  17.262  0.2221 -0.0568  0.5239
  752TMC3    C311110   3.318   3.147  17.396 -0.3165 -0.0424 -0.0881
  752TMC3    C411111   3.552   3.230  17.285 -0.0169  0.1235  0.8988
  752TMC3    C511112   3.545   3.187  17.417 -0.0718 -0.6801 -0.8625
  752TMC3    C611113   3.426   3.162  17.473 -0.6247  0.5091  0.3376
  752TMC3     C11114   3.460   3.247  17.072 -0.3599  0.7172  0.0015
  752TMC3     O11115   3.569   3.214  17.023 -0.3492 -0.1223  0.1239
  752TMC3     H11116   3.236   3.151  17.196  0.4224 -2.9711  1.1910
  752TMC3    H111117   3.648   3.257  17.241 -1.3683  1.2384 -1.3237
  752TMC3    H211118   3.422   3.170  17.581  2.7926  0.3239  0.4689
  752TMC3    C711119   3.664   3.180  17.494 -0.3022 -0.0229 -0.5399
  752TMC3    C811120   3.192   3.122  17.461 -0.6888 -0.3661 -0.1133
  752TMC3    O111121   3.759   3.248  17.458 -0.1915 -0.1717  0.1631
  752TMC3    O211122   3.097   3.166  17.402  0.6788  0.9947 -0.1895
  753TMC3    C111123   0.188   0.342  13.532 -0.2818 -0.1033 -0.1424
  753TMC3    C211124   0.255   0.268  13.621 -0.1608 -1.2149 -0.4962
  753TMC3    C311125   0.261   0.128  13.598 -0.2040  0.2225  0.0503
  753TMC3    C411126   0.119   0.298  13.429 -0.3585  0.1615 -0.8346
  753TMC3    C511127   0.119   0.158  13.412  0.5804 -0.6593  0.1925
  753TMC3    C611128   0.188   0.073  13.495  0.5655 -0.3422 -0.5041
  753TMC3     C11129   0.187   0.484  13.547 -0.0087 -0.2381 -0.3401
  753TMC3     O11130   0.089   0.546  13.500  0.6881  0.0783 -0.2651
  753TMC3     H11131   0.300   0.311  13.710 -1.0861 -1.2875  0.0148
  753TMC3    H111132   0.050   0.358  13.370  1.0459  0.4505 -2.1638
  753TMC3    H211133   0.207   4.694  13.463  1.6351 -0.5287  0.7554
  753TMC3    C711134   0.033   0.107  13.314  0.6032  0.5098 -0.1052
  753TMC3    C811135   0.369   0.046  13.650  0.7258 -0.3694  0.2990
  753TMC3    O111136   0.026   0.170  13.206 -0.6984  0.2700  0.2180
  753TMC3    O211137   0.428   4.695  13.572  0.0960 -0.3370  0.3307
  754MPD2     C11138   3.809   3.287  13.033 -0.1604 -0.1704 -0.5549
  754MPD2    C111139   3.813   3.147  13.031 -0.4531  0.6988 -0.6047
  754MPD2    C211140   3.703   3.074  13.006  0.7770 -0.1033 -0.1708
  754MPD2    C311141   3.585   3.133  12.970  0.0172  0.0318 -0.0667
  754MPD2    C411142   3.580   3.270  12.970  0.5963  0.4250 -0.2918
  754MPD2    C511143   3.692   3.349  12.997  0.7843 -0.5435 -0.2714
  754MPD2     H11144   3.702   2.966  13.019  3.2331 -0.3294 -1.9254
  754MPD2    H111145   3.485   3.316  12.943  0.3284  0.8677  1.3979
  754MPD2    H211146   3.895   3.350  13.053 -1.6059 -0.0858  5.2776
  754MPD2    H311147   3.688   3.458  13.001  0.3722 -0.5239 -1.0968
  754MPD2     N11148   3.467   3.060  12.949  0.6593 -0.1872 -0.0113
  754MPD2    H511149   3.383   3.116  12.939  0.2182 -0.9185 -0.4524
  754MPD2    N111150   3.928   3.084  13.077 -0.0746  0.3432  0.5304
  754MPD2    H711151   3.991   3.142  13.132  2.1568 -1.6807  0.1650
  755MPD2     C11152   2.485   3.027  13.102 -0.0490  0.0040 -0.2266
  755MPD2    C111153   2.597   3.079  13.166 -0.4369  0.0615  0.3370
  755MPD2    C211154   2.724   3.039  13.121  0.3005 -0.0905  0.1520
  755MPD2    C311155   2.737   2.958  13.008  0.4010  0.4785  1.0439
  755MPD2    C411156   2.622   2.918  12.937 -0.2303  0.4200  0.1566
  755MPD2    C511157   2.502   2.956  12.989  0.5658  0.7216 -0.2901
  755MPD2     H11158   2.809   3.079  13.174 -0.7561  0.5925  1.3414
  755MPD2    H111159   2.640   2.868  12.843 -1.2833  2.6641 -1.2377
  755MPD2    H211160   2.386   3.047  13.139  0.2455  1.2312 -0.0941
  755MPD2    H311161   2.412   2.927  12.935 -0.2117 -0.2293  1.4962
  755MPD2     N11162   2.866   2.930  12.950 -0.7209  0.0137 -0.5873
  755MPD2    H511163   2.860   2.887  12.859 -1.1599 -0.3300 -0.3949
  755MPD2    N111164   2.595   3.158  13.282 -0.3060  0.2549  0.1331
  755MPD2    H711165   2.678   3.185  13.335  1.1724 -2.4835 -0.7482
  756MPD2     C11166   4.105   4.699   9.600 -0.1382 -0.0247 -0.1481
  756MPD2    C111167   4.030   4.611   9.675  0.3557 -0.3712 -0.2086
  756MPD2    C211168   3.923   4.546   9.615  0.0965 -0.2096 -0.7476
  756MPD2    C311169   3.888   4.573   9.478 -0.2890 -0.1736 -0.1364
  756MPD2    C411170   3.974   4.656   9.410  0.0721 -0.4992  0.1459
  756MPD2    C511171   4.079   4.721   9.469  0.4110 -0.2443 -0.2582
  756MPD2     H11172   3.871   4.472   9.675 -0.5115 -0.6755 -1.8464
  756MPD2    H111173   3.967   4.681   9.304  1.0114  1.2913  0.5059
  756MPD2    H211174   4.181   0.039   9.645 -1.1141  2.3365 -1.8052
  756MPD2    H311175   4.130   0.076   9.413 -1.5327  0.0906 -1.6068
  756MPD2     N11176   3.767   4.521   9.417 -0.1328  0.2261  0.0828
  756MPD2    H511177   3.715   4.454   9.472  2.4718 -1.0379  1.0321
  756MPD2    N111178   4.056   4.589   9.810 -0.7418  0.0643  0.3721
  756MPD2    H711179   3.997   4.515   9.846 -1.9620  1.0307  0.3723
  757MPD2     C11180   3.424   3.761   9.555  0.3836  0.6853  0.5338
  757MPD2    C111181   3.551   3.808   9.528  0.2746  0.0893 -0.2803
  757MPD2    C211182   3.569   3.926   9.458 -0.5521 -0.1697  0.1424
  757MPD2    C311183   3.461   4.004   9.427  0.3730  0.1409 -0.6103
  757MPD2    C411184   3.339   3.959   9.464  0.3253 -0.2402 -0.3649
  757MPD2    C511185   3.319   3.836   9.529  0.0448 -0.1126  0.1109
  757MPD2     H11186   3.668   3.955   9.424 -0.0505  1.1016  2.6981
  757MPD2    H111187   3.250   4.020   9.452 -0.5684 -1.5536 -0.4310
  757MPD2    H211188   3.404   3.659   9.583 -0.1239  1.0007  1.3057
  757MPD2    H311189   3.221   3.798   9.555  0.7769 -1.5871  0.6923
  757MPD2     N11190   3.477   4.129   9.370 -0.2201 -0.0739  0.1871
  757MPD2    H511191   3.572   4.161   9.355 -0.2606  1.1172  2.4033
  757MPD2    N111192   3.650   3.719   9.538 -0.5099  0.4004  0.1532
  757MPD2    H711193   3.627   3.628   9.579 -0.7260  1.3397  2.1212
  758MPD2     C11194   3.883   3.088  15.932  0.5549  0.5590 -0.4816
  758MPD2    C111195   3.783   2.994  15.964  0.0607  0.1581  0.2341
  758MPD2    C211196   3.668   3.023  16.038 -0.4655 -0.1136  0.3117
  758MPD2    C311197   3.655   3.150  16.089 -1.0765 -0.0152 -0.2246
  758MPD2    C411198   3.756   3.240  16.069 -0.1496 -0.7032  0.3890
  758MPD2    C511199   3.869   3.214  15.990  0.1854  0.1359 -0.0406
  758MPD2     H11200   3.599   2.945  16.067 -0.2229 -0.5364 -0.2616
  758MPD2    H111201   3.745   3.340  16.110 -0.6614 -0.6713  0.1721
  758MPD2    H211202   3.958   3.060  15.859 -1.0401 -0.8472 -1.5892
  758MPD2    H311203   3.946   3.290  15.979  1.3444 -1.4852 -3.3188
  758MPD2     N11204   3.567   3.188  16.192 -0.2056  0.0894  0.4498
  758MPD2    H511205   3.602   3.255  16.260 -0.8162  1.7118 -0.8340
  758MPD2    N111206   3.811   2.870  15.916 -0.5018 -0.0034 -0.3429
  758MPD2    H711207   3.895   2.859  15.859 -0.8095 -2.2755 -0.3489
  759MPD2     C11208   2.761   1.796   9.959  0.5169 -0.3700 -1.0358
  759MPD2    C111209   2.789   1.668   9.927  0.4279  0.6145  0.0307
  759MPD2    C211210   2.876   1.641   9.818 -0.1242  0.0634  0.4784
  759MPD2    C311211   2.927   1.747   9.740 -0.1601 -0.1690 -0.0896
  759MPD2    C411212   2.895   1.878   9.775 -0.2374  0.4574  0.5101
  759MPD2    C511213   2.812   1.902   9.884 -0.6384  0.1508 -0.2011
  759MPD2     H11214   2.897   1.538   9.793 -0.4431  1.3464 -5.0756
  759MPD2    H111215   2.923   1.969   9.723 -0.7684 -0.6709 -1.7046
  759MPD2    H211216   2.702   1.827  10.044  1.1843  0.6152 -0.9316
  759MPD2    H311217   2.796   2.005   9.914  1.9722  0.8913 -1.3491
  759MPD2     N11218   3.019   1.713   9.638 -0.4006  0.0545  0.2277
  759MPD2    H511219   3.021   1.612   9.627  0.2706  0.3330 -2.1582
  759MPD2    N111220   2.739   1.561  10.005 -0.3800 -0.4878 -0.0361
  759MPD2    H711221   2.777   1.467   9.993  1.4444  0.3355 -0.7953
  760MPD2     C11222   2.589   3.633  11.131 -0.0805 -0.6044  0.5090
  760MPD2    C111223   2.700   3.631  11.206 -0.3587 -1.1414  0.5529
  760MPD2    C211224   2.719   3.515  11.281  0.3183  0.1511  0.0143
  760MPD2    C311225   2.643   3.404  11.257  0.0225 -0.7550  0.9854
  760MPD2    C411226   2.543   3.403  11.165 -0.6308 -0.0539  0.3485
  760MPD2    C511227   2.511   3.525  11.107  0.5719 -0.3458  0.1134
  760MPD2     H11228   2.810   3.512  11.339 -0.4153  0.4381  1.1879
  760MPD2    H111229   2.491   3.310  11.146  1.5111 -1.0025 -0.9177
  760MPD2    H211230   2.565   3.724  11.078  1.9434  0.0292  0.6611
  760MPD2    H311231   2.433   3.535  11.032 -1.0276 -0.2136  1.7785
  760MPD2     N11232   2.668   3.282  11.326 -0.4625  0.8291 -0.0264
  760MPD2    H511233   2.618   3.200  11.294 -0.1411  0.5472  0.2013
  760MPD2    N111234   2.789   3.739  11.232  0.1864  0.3615 -0.7102
  760MPD2    H711235   2.874   3.716  11.281 -1.3364 -0.8688  1.3746
  761MPD2     C11236   3.560   2.815  10.908 -0.9651 -0.3249  0.3728
  761MPD2    C111237   3.623   2.798  10.786 -0.8951  0.1687 -0.3201
  761MPD2    C211238   3.740   2.874  10.765 -0.1266 -0.0787  0.1243
  761MPD2    C311239   3.783   2.969  10.859  0.4330 -0.0106  0.5680
  761MPD2    C411240   3.710   2.993  10.971 -0.1202  0.2409 -0.9509
  761MPD2    C511241   3.600   2.919  10.991  0.3506 -0.2688 -0.8351
  761MPD2     H11242   3.807   2.862  10.680 -0.9929 -1.0957 -0.4115
  761MPD2    H111243   3.741   3.073  11.037 -2.1689 -0.0647  0.3831
  761MPD2    H211244   3.488   2.744  10.946  0.0186 -1.5446 -0.0410
  761MPD2    H311245   3.546   2.943  11.082  0.0030  3.0268 -1.9310
  761MPD2     N11246   3.910   3.038  10.855  0.2504 -0.3579 -0.0419
  761MPD2    H511247   3.935   3.083  10.943  0.6641  0.7833 -0.7500
  761MPD2    N111248   3.566   2.710  10.689  0.0600 -0.6591  0.4881
  761MPD2    H711249   3.493   2.651  10.728 -1.0694 -0.5249 -1.4566
  762MPD2     C11250   4.047   2.717  10.354  1.0000 -0.2085 -0.7790
  762MPD2    C111251   3.992   2.606  10.292 -0.1803  0.2637 -0.1901
  762MPD2    C211252   4.075   2.525  10.225  0.1717  0.1186 -0.4830
  762MPD2    C311253   4.205   2.563  10.196 -0.0385  0.3868 -1.2190
  762MPD2    C411254   4.266   2.673  10.264 -0.3694 -0.6171 -0.4006
  762MPD2    C511255   4.183   2.741  10.346  0.1694  0.1434 -0.0688
  762MPD2     H11256   4.037   2.445  10.163  1.0800  0.2087 -1.1665
  762MPD2    H111257   4.367   2.710  10.249 -0.7461  0.8324  0.7183
  762MPD2    H211258   3.988   2.782  10.418  0.6625  0.5015 -1.8007
  762MPD2    H311259   4.226   2.825  10.399 -1.1809  0.4451  0.5699
  762MPD2     N11260   4.273   2.482  10.111 -0.3696 -0.4318  0.8223
  762MPD2    H511261   4.222   2.404  10.071 -0.7905  0.5631 -0.5790
  762MPD2    N111262   3.854   2.576  10.316  0.8243 -0.6837 -0.0104
  762MPD2    H711263   3.800   2.643  10.370  0.1964 -1.0711 -0.1523
  763MPD2     C11264   1.287   2.909  16.329  0.4424  0.1307  1.0560
  763MPD2    C111265   1.155   2.947  16.311 -0.0526  0.5691 -0.4833
  763MPD2    C211266   1.107   3.065  16.365  0.0950  0.2012 -0.8460
  763MPD2    C311267   1.196   3.141  16.450  0.0308 -0.3838  1.2281
  763MPD2    C411268   1.329   3.104  16.470  0.3119  0.4415  0.2121
  763MPD2    C511269   1.364   2.992  16.401 -0.3150  0.0356 -0.0094
  763MPD2     H11270   1.002   3.084  16.346  0.5714  1.2632 -2.3786
  763MPD2    H111271   1.400   3.164  16.525 -0.0631  0.2011  0.9530
  763MPD2    H211272   1.330   2.812  16.307 -0.2702 -0.4049  1.9826
  763MPD2    H311273   1.465   2.958  16.423  0.3403  1.2562 -1.1209
  763MPD2     N11274   1.162   3.263  16.509 -0.5378 -0.5541 -0.0282
  763MPD2    H511275   1.239   3.325  16.530 -1.8523  0.9766  0.2441
  763MPD2    N111276   1.072   2.871  16.228 -0.2859 -0.3826 -0.2482
  763MPD2    H711277   1.001   2.927  16.183 -0.5828 -0.1163  0.5599
  764MPD2     C11278   4.027   4.502  17.455 -0.1898 -0.1038  0.0616
  764MPD2    C111279   3.896   4.458  17.470 -0.2730  0.8017 -0.2823
  764MPD2    C211280   3.873   4.339  17.540 -0.7788  0.5707  0.4433
  764MPD2    C311281   3.983   4.266  17.588 -0.4078 -0.1958 -0.4963
  764MPD2    C411282   4.117   4.322  17.584 -0.0096 -0.0980  0.3440
  764MPD2    C511283   4.135   4.440  17.520  0.1919  0.3065 -0.6145
  764MPD2     H11284   3.770   4.312  17.557 -0.5409 -1.5705 -1.5640
  764MPD2    H111285   4.205   4.269  17.619 -0.1389 -0.9751 -0.6405
  764MPD2    H211286   4.052   4.592  17.400 -0.0875  0.4112  0.9652
  764MPD2    H311287   4.237   4.476  17.518 -0.6271  2.7074  1.3418
  764MPD2     N11288   3.952   4.141  17.636 -0.0735  0.4692 -0.0424
  764MPD2    H511289   3.856   4.112  17.622  0.4900 -0.1366 -2.6526
  764MPD2    N111290   3.782   4.529  17.411 -0.2979 -0.7071  0.2081
  764MPD2    H711291   3.689   4.488  17.417  0.3626 -2.4451 -1.6727
  765MPD2     C11292   3.353   2.089  16.050 -0.2019 -0.1144 -0.2597
  765MPD2    C111293   3.400   2.190  15.964 -0.1926 -0.0969 -0.4838
  765MPD2    C211294   3.511   2.163  15.888 -0.1677  0.4138  0.6330
  765MPD2    C311295   3.572   2.042  15.883  0.1134  0.1637  0.0013
  765MPD2    C411296   3.529   1.950  15.970  0.2926  0.1068 -0.4657
  765MPD2    C511297   3.415   1.969  16.052 -0.7519 -0.6438  0.0088
  765MPD2     H11298   3.549   2.241  15.823  0.7007 -1.0890 -0.6586
  765MPD2    H111299   3.585   1.859  15.986 -0.2308  0.1320  1.4248
  765MPD2    H211300   3.268   2.098  16.116 -0.4957  1.0521 -0.7906
  765MPD2    H311301   3.401   1.896  16.131 -1.2924 -0.8441 -0.2783
  765MPD2     N11302   3.678   2.020  15.789  0.4050  0.7573  0.5372
  765MPD2    H511303   3.711   2.098  15.733  1.2444 -0.3387 -0.4940
  765MPD2    N111304   3.334   2.315  15.978  0.1218  0.3886  0.0683
  765MPD2    H711305   3.258   2.335  16.042  0.0963 -1.0202  0.4849
  766MPD2     C11306   2.818   2.364  15.536 -0.1113 -0.5495  0.4226
  766MPD2    C111307   2.943   2.426  15.526  0.5396 -0.0512  0.8943
  766MPD2    C211308   3.012   2.404  15.409  0.4731  0.5315  0.1045
  766MPD2    C311309   2.952   2.337  15.302  0.0009 -0.6969 -0.1488
  766MPD2    C411310   2.829   2.278  15.318 -0.4352  0.3001  0.0334
  766MPD2    C511311   2.762   2.293  15.436  0.0396  0.7685  0.5312
  766MPD2     H11312   3.112   2.445  15.406  1.1607 -1.3712 -2.2675
  766MPD2    H111313   2.780   2.224  15.238  0.1063 -0.1953  0.0386
  766MPD2    H211314   2.768   2.379  15.631  0.4662  1.5275  0.4111
  766MPD2    H311315   2.661   2.263  15.459 -0.3040  1.1103 -0.5391
  766MPD2     N11316   3.023   2.310  15.185 -0.4727 -0.1880 -0.6399
  766MPD2    H511317   2.961   2.284  15.109  0.8287  0.0456 -1.7766
  766MPD2    N111318   3.004   2.504  15.625 -0.0662  0.2607  0.3882
  766MPD2    H711319   3.087   2.559  15.604 -0.2776 -0.4374 -2.2435
  767MPD2     C11320   2.701   2.500  15.121  0.9504 -0.4526  0.3820
  767MPD2    C111321   2.785   2.595  15.065  0.2503 -0.2332 -0.3100
  767MPD2    C211322   2.801   2.599  14.928  0.7823 -0.0810 -0.3732
  767MPD2    C311323   2.737   2.506  14.847 -0.4981  0.0178  0.0245
  767MPD2    C411324   2.647   2.419  14.906 -0.5719 -0.2541  0.3017
  767MPD2    C511325   2.627   2.418  15.043  0.4324 -0.1025  0.1739
  767MPD2     H11326   2.871   2.671  14.887  0.5370  0.7383  0.6237
  767MPD2    H111327   2.580   2.351  14.855 -0.9744  0.0071  0.4851
  767MPD2    H211328   2.697   2.484  15.229  1.4194 -1.9701  0.1815
  767MPD2    H311329   2.562   2.344  15.087  0.2192  0.1563  0.2873
  767MPD2     N11330   2.780   2.493  14.713  0.3166 -0.1144 -0.3467
  767MPD2    H511331   2.844   2.563  14.675  1.4158 -1.1970 -0.5070
  767MPD2    N111332   2.839   2.695  15.161 -0.2978 -0.4117  0.8082
  767MPD2    H711333   2.824   2.689  15.261 -0.6571 -0.6265  0.7411
  768MPD2     C11334   3.813   1.105  10.359  0.1455 -0.2616  0.2093
  768MPD2    C111335   3.758   1.086  10.486  1.1070  0.4880 -0.0118
  768MPD2    C211336   3.840   1.124  10.592  0.1736  0.0724  0.3162
  768MPD2    C311337   3.970   1.173  10.579  0.7391 -1.1198  0.3871
  768MPD2    C411338   4.014   1.185  10.449  0.2454  0.3631 -0.6503
  768MPD2    C511339   3.937   1.144  10.341 -0.3535 -0.0585 -0.5332
  768MPD2     H11340   3.790   1.129  10.688 -0.0692  1.6575  0.1034
  768MPD2    H111341   4.114   1.222  10.431  0.6307 -0.0077  0.7550
  768MPD2    H211342   3.757   1.097  10.266  0.0559 -1.8282  0.3971
  768MPD2    H311343   3.980   1.145  10.242  1.6202  2.9977  0.3502
  768MPD2     N11344   4.058   1.210  10.680 -0.1645 -0.3961  0.0284
  768MPD2    H511345   4.146   1.241  10.639  0.2600 -0.6604  0.7318
  768MPD2    N111346   3.628   1.049  10.508  0.3566  0.2412 -0.6806
  768MPD2    H711347   3.591   1.054  10.602 -1.8340 -0.7546 -1.4897
  769MPD2     C11348   0.066   4.000  15.010 -1.0514 -0.7991 -0.0062
  769MPD2    C111349   4.690   4.040  15.096 -0.2565 -0.4902  0.2527
  769MPD2    C211350   0.005   4.107  15.210 -0.3326 -0.0374  0.4671
  769MPD2    C311351   0.141   4.128  15.244 -0.1532  0.2028  0.6432
  769MPD2    C411352   0.236   4.084  15.158 -0.1928 -0.0545 -0.7130
  769MPD2    C511353   0.198   4.023  15.042  0.6103  0.1049 -0.4052
  769MPD2     H11354   4.647   4.132  15.278 -1.5408 -1.9446 -0.2892
  769MPD2    H111355   0.342   4.095  15.176 -0.2669 -0.3793 -0.0945
  769MPD2    H211356   0.052   3.954  14.913  0.5051  0.0090 -0.6087
  769MPD2    H311357   0.281   3.987  14.984 -0.7249  1.7500 -3.3246
  769MPD2     N11358   0.174   4.167  15.379 -0.3457  0.1503 -0.4856
  769MPD2    H511359   0.097   4.190  15.440 -0.3577  1.6652 -1.0774
  769MPD2    N111360   4.554   4.009  15.066 -0.1039 -0.2531 -0.7766
  769MPD2    H711361   4.544   3.934  14.999 -2.2726  1.1468 -2.0477
  770MPD2     C11362   4.020   3.176  15.319  0.9229 -0.8270  0.5776
  770MPD2    C111363   4.065   3.175  15.188 -0.0743 -0.3455 -0.8381
  770MPD2    C211364   4.123   3.295  15.144 -0.0715 -0.1796 -0.1014
  770MPD2    C311365   4.140   3.407  15.225 -0.5145 -0.2778  0.0817
  770MPD2    C411366   4.093   3.400  15.357 -0.5864  0.7078  0.2808
  770MPD2    C511367   4.039   3.281  15.401  0.8533 -0.0231  0.8406
  770MPD2     H11368   4.166   3.297  15.045 -0.3725 -4.2287 -0.3191
  770MPD2    H111369   4.102   3.484  15.424  2.1934 -1.2925  2.4352
  770MPD2    H211370   3.968   3.090  15.358 -0.9598 -0.2820 -0.7448
  770MPD2    H311371   4.003   3.284  15.503 -1.2579  2.0888  0.0279
  770MPD2     N11372   4.183   3.521  15.155 -0.2017  0.5086  0.0435
  770MPD2    H511373   4.199   3.510  15.055  0.1345  0.2095  0.1290
  770MPD2    N111374   4.055   3.058  15.113  0.3535 -0.0941 -0.4684
  770MPD2    H711375   4.031   2.974  15.165 -0.0646  0.7353  0.6724
  771MPD2     C11376   0.147   2.235  13.592  0.6001  0.5645  0.5621
  771MPD2    C111377   0.208   2.340  13.530  0.2426 -0.0178  0.4603
  771MPD2    C211378   0.209   2.346  13.396 -0.9315  0.6183  0.2620
  771MPD2    C311379   0.147   2.251  13.325 -0.4917  0.3725  0.2464
  771MPD2    C411380   0.070   2.150  13.384  0.1509  0.1787  0.2487
  771MPD2    C511381   0.063   2.149  13.521  0.4694 -0.0126 -0.2141
  771MPD2     H11382   0.280   2.414  13.350 -1.8561  0.6805 -1.0426
  771MPD2    H111383   0.018   2.071  13.331 -0.7792  0.7684  0.2789
  771MPD2    H211384   0.162   2.223  13.698  0.6046 -0.7503  0.4133
  771MPD2    H311385   0.003   2.080  13.580  0.0428 -0.8349 -1.6164
  771MPD2     N11386   0.176   2.253  13.187  0.3493 -0.0532  0.9741
  771MPD2    H511387   0.219   2.338  13.150  0.3888 -0.6655 -0.3983
  771MPD2    N111388   0.280   2.449  13.598  0.3595 -0.4650  0.4552
  771MPD2    H711389   0.322   2.517  13.535  2.6056 -1.1769  1.1673
  772MPD2     C11390   0.041   3.064  14.010 -0.7369  0.2823 -0.2232
  772MPD2    C111391   0.032   2.937  13.962 -0.1801  0.3489  0.1591
  772MPD2    C211392   4.623   2.877  13.969  0.3490 -0.1881 -0.3356
  772MPD2    C311393   4.512   2.945  14.020 -0.2800 -0.0746 -0.1715
  772MPD2    C411394   4.529   3.069  14.062 -0.5322  0.8985 -0.4392
  772MPD2    C511395   4.654   3.132  14.055  0.3238 -0.0180  1.1266
  772MPD2     H11396   4.611   2.777  13.930 -0.1830 -1.3073  2.7162
  772MPD2    H111397   4.439   3.123  14.090 -0.7635  0.3936 -0.2140
  772MPD2    H211398   0.141   3.107  14.013 -0.3831 -0.4537 -1.4341
  772MPD2    H311399   4.650   3.231  14.097  0.4348  0.0278  1.0296
  772MPD2     N11400   4.380   2.895  14.038 -0.2802  0.3040 -0.0610
  772MPD2    H511401   4.309   2.962  14.066 -1.1530  0.4618 -2.5977
  772MPD2    N111402   0.139   2.866  13.912  0.4441  0.4170 -0.5056
  772MPD2    H711403   0.110   2.777  13.871  2.5895  0.0742 -1.2558
  773MPD2     C11404   4.628   3.236   0.157  0.3121  0.0194  0.2379
  773MPD2    C111405   4.536   3.160   0.082  0.3848 -0.0900 -0.4185
  773MPD2    C211406   4.540   3.026   0.110  0.1368 -0.8955  0.1203
  773MPD2    C311407   4.639   2.964   0.182  0.1104 -0.6268 -0.2675
  773MPD2    C411408   0.004   3.041   0.257  0.0764  0.3183 -0.1443
  773MPD2    C511409   4.720   3.177   0.245  0.5280  0.6986  0.5392
  773MPD2     H11410   4.465   2.963   0.064 -0.9598  0.4043  0.1231
  773MPD2    H111411   0.073   2.994   0.327 -0.0553  1.3352  0.6557
  773MPD2    H211412   4.637   3.344   0.154  1.0365 -0.0413  0.1775
  773MPD2    H311413   0.068   3.246   0.290  0.1169  1.3203  0.2307
  773MPD2     N11414   4.625   2.826   0.201 -0.4251  0.3045  0.1869
  773MPD2    H511415   4.546   2.782   0.156  1.9114 -1.5161 -2.1371
  773MPD2    N111416   4.447   3.213  17.683  0.6117  0.0810  0.5410
  773MPD2    H711417   4.391   3.142  17.637  2.5531 -0.4668 -0.9898
  774MPD2     C11418   3.302   2.289  13.174 -0.7861  0.2739 -0.1010
  774MPD2    C111419   3.262   2.391  13.253  0.3421 -0.6030  0.0438
  774MPD2    C211420   3.327   2.509  13.257  0.2052 -0.2524  0.2875
  774MPD2    C311421   3.435   2.522  13.167  0.9237 -0.3647 -0.2217
  774MPD2    C411422   3.478   2.413  13.090 -0.6930 -0.3994 -0.4050
  774MPD2    C511423   3.407   2.298  13.097 -0.2850 -0.6015  0.2293
  774MPD2     H11424   3.305   2.590  13.325 -0.5139 -0.2600  0.0662
  774MPD2    H111425   3.562   2.419  13.021  0.1692  1.1902  0.7753
  774MPD2    H211426   3.253   2.192  13.176 -1.1011  0.4418  0.4096
  774MPD2    H311427   3.432   2.211  13.037 -1.3001 -1.0030  0.3867
  774MPD2     N11428   3.515   2.632  13.187 -0.3218 -0.0168  0.2023
  774MPD2    H511429   3.476   2.707  13.244 -0.9076 -1.6271  1.9375
  774MPD2    N111430   3.168   2.363  13.352  0.4089 -0.4622  0.0361
  774MPD2    H711431   3.166   2.264  13.375  1.3975 -0.4377  0.2403
  775MPD2     C11432   0.458   3.928  15.787  0.4282 -0.6581 -0.1315
  775MPD2    C111433   0.471   4.023  15.891 -0.0319 -0.1150  0.2352
  775MPD2    C211434   0.571   4.120  15.880 -0.1716  0.0346 -0.3048
  775MPD2    C311435   0.645   4.131  15.759 -0.1846  0.4717  0.4041
  775MPD2    C411436   0.634   4.033  15.663  0.1319 -0.5176 -0.7624
  775MPD2    C511437   0.544   3.930  15.684  0.0909 -0.2161  0.5491
  775MPD2     H11438   0.585   4.186  15.966 -0.7446 -0.4530  0.1634
  775MPD2    H111439   0.699   4.038  15.577  0.9624  0.1586 -0.1121
  775MPD2    H211440   0.389   3.844  15.796  0.1416 -0.4642 -0.5297
  775MPD2    H311441   0.531   3.855  15.606  3.5955  2.4233 -2.6028
  775MPD2     N11442   0.734   4.241  15.732 -0.2321  0.4751  0.1377
  775MPD2    H511443   0.790   4.224  15.648  1.1084 -1.0814  1.3378
  775MPD2    N111444   0.385   4.018  15.999  0.5594 -0.5446  0.6454
  775MPD2    H711445   0.320   3.942  16.015  2.6124 -2.4440 -0.1347
  776MPD2     C11446   4.436   4.379  11.678  0.2508 -0.3464  0.4474
  776MPD2    C111447   4.395   4.367  11.551  0.2233 -0.5308 -0.3790
  776MPD2    C211448   4.405   4.466  11.462  0.4289 -0.2640 -0.1319
  776MPD2    C311449   4.454   4.588  11.499 -0.4791  0.2524  0.5392
  776MPD2    C411450   4.475   4.612  11.633 -0.2385 -0.3347  0.4692
  776MPD2    C511451   4.477   4.501  11.717 -0.1102 -0.6493  0.1440
  776MPD2     H11452   4.374   4.448  11.360  0.0630 -1.6416  0.2203
  776MPD2    H111453   4.499   4.708  11.678 -3.0195  0.1329  0.9720
  776MPD2    H211454   4.421   4.300  11.751 -0.7151 -1.4113 -0.9081
  776MPD2    H311455   4.493   4.503  11.824 -1.3490 -0.1745  0.3113
  776MPD2     N11456   4.452   4.701  11.410 -0.0954  0.0130  0.1188
  776MPD2    H511457   4.464   0.073  11.444  0.8777 -0.0206 -0.1433
  776MPD2    N111458   4.324   4.250  11.524 -0.0520 -0.5806 -0.6067
  776MPD2    H711459   4.331   4.170  11.586 -1.2663  1.1702  1.7971
  777MPD2     C11460   4.480   1.874   0.817  0.3016 -0.3411 -0.3765
  777MPD2    C111461   4.588   1.799   0.869 -0.4479 -0.3391  0.1165
  777MPD2    C211462   4.613   1.676   0.820 -0.0390 -0.0054  0.2373
  777MPD2    C311463   4.534   1.617   0.723  0.0202  0.4931 -0.5665
  777MPD2    C411464   4.431   1.691   0.668 -0.0844 -0.5077 -0.4720
  777MPD2    C511465   4.400   1.818   0.718  0.0197  0.0031  0.5499
  777MPD2     H11466   4.681   1.614   0.878 -0.1131  0.0014  0.3301
  777MPD2    H111467   4.364   1.667   0.586 -0.6081 -1.6564  0.2915
  777MPD2    H211468   4.451   1.971   0.857 -1.6453 -1.8626  1.8914
  777MPD2    H311469   4.318   1.869   0.669  1.4828  1.4820 -0.3610
  777MPD2     N11470   4.559   1.480   0.691  0.4087  0.2381 -0.1510
  777MPD2    H511471   4.648   1.446   0.724 -0.0505  0.8650  1.7120
  777MPD2    N111472   4.663   1.857   0.977  0.4560 -0.1227 -0.8129
  777MPD2    H711473   4.628   1.950   0.998 -0.8177 -0.9874  0.9283
  778MPD2     C11474   0.600   2.281  14.741 -0.4290 -0.3171  0.2945
  778MPD2    C111475   0.656   2.158  14.724  0.2640 -0.1445 -0.3206
  778MPD2    C211476   0.758   2.141  14.636  0.2009 -0.3480 -0.3642
  778MPD2    C311477   0.825   2.257  14.590  0.0418 -0.1350  1.0794
  778MPD2    C411478   0.772   2.383  14.615 -0.8455  0.6186  0.3958
  778MPD2    C511479   0.654   2.391  14.683 -0.6269  0.2694 -0.1603
  778MPD2     H11480   0.794   2.046  14.599 -2.4299 -1.2323 -0.6912
  778MPD2    H111481   0.799   2.471  14.559  1.2902 -1.4738 -1.9140
  778MPD2    H211482   0.517   2.291  14.810 -1.3326 -1.8253 -0.5736
  778MPD2    H311483   0.613   2.491  14.690  0.1219  0.5469  0.2434
  778MPD2     N11484   0.937   2.244  14.506 -0.3723  0.6763 -0.2171
  778MPD2    H511485   0.979   2.152  14.516 -0.4679  0.5568 -0.9064
  778MPD2    N111486   0.599   2.044  14.789 -0.1787 -0.0955 -0.6024
  778MPD2    H711487   0.647   1.956  14.768 -0.9316 -1.0249  1.6613
  779MPD2     C11488   0.276   0.774  14.578  0.5059  0.0395 -0.0729
  779MPD2    C111489   0.396   0.770  14.510 -0.0362 -0.4455  0.7897
  779MPD2    C211490   0.427   0.893  14.448  0.1479 -0.4910 -0.4634
  779MPD2    C311491   0.348   1.009  14.465  0.0135  0.4141  0.6222
  779MPD2    C411492   0.238   1.004  14.542  0.4459 -0.7911 -0.8763
  779MPD2    C511493   0.209   0.889  14.604 -0.2137  0.2475  0.4526
  779MPD2     H11494   0.525   0.894  14.401  0.3239  0.5556 -0.0669
  779MPD2    H111495   0.175   1.091  14.563  0.9385 -0.2440 -1.6714
  779MPD2    H211496   0.252   0.691  14.644 -1.6476  1.3509  0.8041
  779MPD2    H311497   0.114   0.887  14.657  0.1806  0.1003  1.1548
  779MPD2     N11498   0.401   1.130  14.409 -0.2587  0.1771 -0.1270
  779MPD2    H511499   0.486   1.126  14.353 -0.5422 -1.1918 -0.4358
  779MPD2    N111500   0.494   0.664  14.512  0.1146  0.6764  0.1699
  779MPD2    H711501   0.588   0.693  14.487  0.2483  0.2251  0.1510
  780MPD2     C11502   3.807   0.351   0.586 -0.0534 -0.4209 -0.3622
  780MPD2    C111503   3.877   0.252   0.513  0.3196  0.3792  0.7396
  780MPD2    C211504   4.011   0.263   0.488 -0.0450  0.6308 -0.0786
  780MPD2    C311505   4.078   0.372   0.543  0.5991 -0.0406 -0.0763
  780MPD2    C411506   4.014   0.458   0.627  0.3159  0.1528  0.9814
  780MPD2    C511507   3.877   0.451   0.647  0.1775 -0.0826  0.1757
  780MPD2     H11508   4.061   0.194   0.421 -3.4807 -1.9459  0.0430
  780MPD2    H111509   4.063   0.545   0.670  1.2132 -0.0302  0.3179
  780MPD2    H211510   3.700   0.348   0.598 -0.3367 -2.0850 -3.4985
  780MPD2    H311511   3.821   0.528   0.699  0.1895 -0.9026  1.3976
  780MPD2     N11512   4.213   0.391   0.506 -0.2131  0.3437  0.0410
  780MPD2    H511513   4.248   0.309   0.458  0.1122 -0.3393  1.4327
  780MPD2    N111514   3.799   0.147   0.453  0.4981 -0.3508 -0.3422
  780MPD2    H711515   3.700   0.154   0.475  0.6055  2.2119 -0.6165
  781MPD2     C11516   2.350   2.439  11.869  0.5552  0.6878 -0.0663
  781MPD2    C111517   2.337   2.348  11.976  0.4631 -0.2183 -0.7908
  781MPD2    C211518   2.411   2.230  11.974 -0.2421  0.0161 -0.1621
  781MPD2    C311519   2.495   2.196  11.869  0.2932  0.1507 -0.4704
  781MPD2    C411520   2.504   2.284  11.765 -0.3443 -0.6722 -0.0393
  781MPD2    C511521   2.437   2.407  11.769 -0.4654  0.3144  0.2897
  781MPD2     H11522   2.400   2.160  12.056 -1.1648 -0.0383 -0.3345
  781MPD2    H111523   2.549   2.271  11.667 -0.3376 -1.6971  0.0976
  781MPD2    H211524   2.304   2.537  11.874  0.9216  0.8449  0.2729
  781MPD2    H311525   2.446   2.465  11.678  0.9459  2.2396  1.6451
  781MPD2     N11526   2.570   2.074  11.856 -0.3983  0.2836  0.3357
  781MPD2    H511527   2.636   2.078  11.779  1.3291 -1.1627  1.7589
  781MPD2    N111528   2.255   2.379  12.089  0.1963 -0.6709  0.0591
  781MPD2    H711529   2.263   2.330  12.177 -4.4905  0.9170  1.3597
  782MPD2     C11530   0.397   3.455  10.193  0.6162 -0.2187  0.6326
  782MPD2    C111531   0.425   3.392  10.312 -0.5551  0.5017 -0.0778
  782MPD2    C211532   0.421   3.462  10.430 -0.0592  0.2110 -0.1268
  782MPD2    C311533   0.396   3.599  10.433 -0.1721 -0.7787  0.3150
  782MPD2    C411534   0.362   3.658  10.316 -0.0070 -0.7744  0.0726
  782MPD2    C511535   0.361   3.592  10.199 -0.8303  0.3858  0.7237
  782MPD2     H11536   0.447   3.423  10.527  0.2160 -0.9346 -0.6528
  782MPD2    H111537   0.331   3.762  10.316  1.3680 -0.3691  0.4630
  782MPD2    H211538   0.379   3.409  10.097 -2.0102 -0.4122  1.2203
  782MPD2    H311539   0.325   3.638  10.108 -3.3906 -1.0141  1.0157
  782MPD2     N11540   0.421   3.668  10.557  0.2955  0.4186  0.1084
  782MPD2    H511541   0.459   3.614  10.634  1.5935  2.2136  0.7335
  782MPD2    N111542   0.454   3.254  10.314  0.8480 -0.2882  0.4339
  782MPD2    H711543   0.482   3.212  10.403 -0.6904 -1.0231  0.5852
  783MPD2     C11544   4.561   2.666  10.580 -0.8486 -0.3708  0.3763
  783MPD2    C111545   4.592   2.795  10.615 -0.4349  0.0032 -0.2944
  783MPD2    C211546   4.715   2.847  10.586 -0.8323 -0.0643  0.5020
  783MPD2    C311547   0.090   2.772  10.520  0.5554 -0.4125 -0.0048
  783MPD2    C411548   0.059   2.636  10.505 -0.2074 -0.1077  0.2256
  783MPD2    C511549   4.659   2.586  10.531 -0.5644 -0.4616  0.6059
  783MPD2     H11550   0.016   2.952  10.601 -1.7027  0.2283 -0.2077
  783MPD2    H111551   0.122   2.576  10.440  1.7675  1.9005  0.2880
  783MPD2    H211552   4.465   2.624  10.609 -0.7218  0.4247  1.9734
  783MPD2    H311553   4.643   2.482  10.505  2.2366 -0.7809  0.1243
  783MPD2     N11554   0.209   2.835  10.476  0.0592  0.1976 -0.0654
  783MPD2    H511555   0.211   2.936  10.482 -1.3037  0.2553 -0.6234
  783MPD2    N111556   4.490   2.871  10.676  0.7068 -0.0290 -0.5475
  783MPD2    H711557   4.415   2.817  10.718 -0.4992  1.0520 -1.3066
  784MPD2     C11558   2.198   3.699   0.867 -0.4441 -0.7022  0.1650
  784MPD2    C111559   2.166   3.834   0.876 -0.0512 -0.6768 -0.3107
  784MPD2    C211560   2.056   3.863   0.941  0.1885  0.7068 -0.2510
  784MPD2    C311561   1.972   3.769   0.999  0.7076 -0.3387 -0.5362
  784MPD2    C411562   2.008   3.633   0.994 -0.2156  0.3690 -0.8140
  784MPD2    C511563   2.130   3.601   0.938 -0.2151 -0.7395 -0.2685
  784MPD2     H11564   2.036   3.969   0.944  1.3913  0.9294 -0.2759
  784MPD2    H111565   1.944   3.555   1.035  1.4802  0.1175  1.3340
  784MPD2    H211566   2.286   3.668   0.813  0.3791  1.6499  0.1688
  784MPD2    H311567   2.159   3.496   0.935 -0.7498 -0.8013 -2.8650
  784MPD2     N11568   1.854   3.811   1.064 -0.3175 -0.0085 -0.0481
  784MPD2    H511569   1.838   3.910   1.080 -2.5492 -0.7035  1.9335
  784MPD2    N111570   2.239   3.944   0.829 -0.2660  0.0153  0.2713
  784MPD2    H711571   2.210   4.039   0.851  0.4008 -0.2409  2.2939
  785MPD2     C11572   3.075   2.952  11.064  0.0206  0.2288  0.0675
  785MPD2    C111573   2.956   3.025  11.058 -0.5656  0.0208  0.0162
  785MPD2    C211574   2.833   2.955  11.062  0.0146  0.2287  0.2659
  785MPD2    C311575   2.835   2.818  11.049 -0.5858 -0.3011 -0.1889
  785MPD2    C411576   2.956   2.746  11.061 -0.0292 -0.0423  0.1771
  785MPD2    C511577   3.075   2.820  11.074  0.5352 -0.4718 -0.0227
  785MPD2     H11578   2.735   3.002  11.059  0.4604  1.1388  0.1064
  785MPD2    H111579   2.962   2.637  11.064  1.2269  0.1139  3.6502
  785MPD2    H211580   3.173   2.999  11.071 -0.0743  0.1860  1.7131
  785MPD2    H311581   3.168   2.769  11.095  1.6398  2.0210  1.0965
  785MPD2     N11582   2.712   2.754  11.022  0.2732  0.5092  0.6696
  785MPD2    H511583   2.639   2.821  11.000  1.7075  0.6810 -3.4604
  785MPD2    N111584   2.969   3.168  11.029  0.1202  0.0616  0.0477
  785MPD2    H711585   3.063   3.205  11.022  0.3371 -0.1774  1.5479
  786MPD2     C11586   0.897   0.107  14.607 -0.0065  0.1264 -0.0888
  786MPD2    C111587   1.001   0.023  14.607 -0.1606  0.3923 -0.0883
  786MPD2    C211588   1.084   0.030  14.719  0.1510 -0.9056  0.0149
  786MPD2    C311589   1.066   0.128  14.816 -0.3293  0.0291  0.3312
  786MPD2    C411590   0.964   0.215  14.811 -0.2542 -0.3899 -0.3978
  786MPD2    C511591   0.873   0.195  14.708 -0.4071  0.5609 -0.0467
  786MPD2     H11592   1.161   4.676  14.714  0.9006 -0.1421 -0.1268
  786MPD2    H111593   0.957   0.301  14.876  1.4681  0.6970 -1.6606
  786MPD2    H211594   0.822   0.100  14.529 -0.2134  0.7990  0.0422
  786MPD2    H311595   0.785   0.257  14.695 -3.0686 -3.1210  0.5042
  786MPD2     N11596   1.155   0.156  14.924  0.1879 -0.2048 -0.1575
  786MPD2    H511597   1.136   0.234  14.986  2.3824 -0.0093  0.2928
  786MPD2    N111598   1.021   4.642  14.507 -0.0484 -0.0187 -0.4262
  786MPD2    H711599   1.092   4.572  14.525  1.1450  1.0000 -1.1770
  787MPD2     C11600   0.857   4.006  14.774  0.2301  0.4212 -0.5265
  787MPD2    C111601   0.951   4.031  14.680  0.5823 -0.2504  0.8955
  787MPD2    C211602   1.082   3.982  14.700  0.2758 -0.7151  0.3113
  787MPD2    C311603   1.119   3.899  14.807  0.2056  0.1080 -0.6348
  787MPD2    C411604   1.019   3.870  14.896 -0.5435 -0.6510  0.8020
  787MPD2    C511605   0.890   3.917  14.875  0.0844  0.3089 -0.4371
  787MPD2     H11606   1.151   3.986  14.617 -0.0696  1.1149  0.1144
  787MPD2    H111607   1.025   3.805  14.983 -2.0168  0.9108  2.0742
  787MPD2    H211608   0.760   4.053  14.769  0.2399  0.3386 -1.6273
  787MPD2    H311609   0.815   3.902  14.952 -0.0108  2.1540 -0.1641
  787MPD2     N11610   1.248   3.849  14.820 -0.1078 -0.3007 -0.9320
  787MPD2    H511611   1.314   3.867  14.745 -0.2550 -0.9791 -1.2260
  787MPD2    N111612   0.915   4.113  14.571 -0.0175 -0.5744  0.7330
  787MPD2    H711613   0.821   4.150  14.583 -0.5875 -2.0745  0.8942
  788MPD2     C11614   2.956   1.903   0.979  0.1950  0.6998  0.1087
  788MPD2    C111615   2.908   1.867   0.859  0.7535 -0.0828  0.6757
  788MPD2    C211616   2.921   1.966   0.755  0.0902  0.3013 -0.5624
  788MPD2    C311617   2.986   2.084   0.767  0.1792 -0.1670 -0.8916
  788MPD2    C411618   3.051   2.112   0.882 -0.4072 -0.4378 -0.0823
  788MPD2    C511619   3.039   2.017   0.988  0.3505 -0.4321 -0.6695
  788MPD2     H11620   2.887   1.936   0.657 -1.0667 -2.3085  0.6324
  788MPD2    H111621   3.096   2.209   0.898  1.1776 -1.3573  1.2010
  788MPD2    H211622   2.959   1.844   1.069  0.5403  2.4996  1.2787
  788MPD2    H311623   3.088   2.030   1.084  0.3952  0.3133 -0.7888
  788MPD2     N11624   2.989   2.185   0.676 -0.3909  0.1871  0.2119
  788MPD2    H511625   3.055   2.261   0.689 -1.2918  0.9395  0.3883
  788MPD2    N111626   2.832   1.750   0.839 -0.4802 -0.0812 -0.0063
  788MPD2    H711627   2.781   1.730   0.753 -0.3408 -1.6303  0.2661
  789MPD2     C11628   3.458   2.584  16.265  0.8271  0.4471 -0.1914
  789MPD2    C111629   3.386   2.485  16.323  0.1696  0.2546  0.0816
  789MPD2    C211630   3.266   2.522  16.381  0.5973 -0.8981 -0.3551
  789MPD2    C311631   3.231   2.657  16.389  0.5749  0.1824 -0.2887
  789MPD2    C411632   3.301   2.745  16.317 -0.1629 -0.1857 -0.1409
  789MPD2    C511633   3.415   2.714  16.253  0.2497  0.2725  0.2327
  789MPD2     H11634   3.218   2.439  16.432  2.5592 -0.7012  1.7927
  789MPD2    H111635   3.277   2.851  16.315  1.1683  0.1422  0.8182
  789MPD2    H211636   3.547   2.555  16.211 -0.5774 -1.2244 -1.6089
  789MPD2    H311637   3.487   2.782  16.208 -3.3398  2.7585 -1.6698
  789MPD2     N11638   3.126   2.707  16.468  1.0441 -0.1254 -0.3654
  789MPD2    H511639   3.102   2.805  16.457 -1.7612 -0.4601  2.8650
  789MPD2    N111640   3.422   2.353  16.324 -0.2625 -0.0411  0.3370
  789MPD2    H711641   3.353   2.291  16.365 -0.3113 -0.7836 -0.8664
  790MPD2     C11642   4.443   0.310  13.726 -0.1679  0.0719 -0.4512
  790MPD2    C111643   4.365   0.198  13.762 -0.0958  0.4370 -0.0651
  790MPD2    C211644   4.319   0.104  13.668  0.0319  0.4423  0.4822
  790MPD2    C311645   4.343   0.128  13.534  0.1008  0.2245 -0.0736
  790MPD2    C411646   4.417   0.237  13.492 -0.2667  0.3131 -0.3215
  790MPD2    C511647   4.468   0.320  13.590  0.7832 -0.1692 -0.0303
  790MPD2     H11648   4.263   0.016  13.697  0.2603 -0.5968 -2.2889
  790MPD2    H111649   4.425   0.266  13.388  3.6274 -1.4501 -0.4959
  790MPD2    H211650   4.480   0.384  13.795  1.0571  0.4064 -1.4648
  790MPD2    H311651   4.528   0.403  13.553  1.0343 -0.5764 -0.5243
  790MPD2     N11652   4.279   0.032  13.441  0.3505  0.0376 -0.1751
  790MPD2    H511653   4.231   4.673  13.477 -1.6664  1.2667 -0.0744
  790MPD2    N111654   4.340   0.171  13.895  0.4175 -0.0458 -0.0780
  790MPD2    H711655   4.398   0.227  13.957 -1.9242  1.2496  0.9432
  791MPD2     C11656   3.629   4.592  13.516 -0.3385 -0.5393  1.0718
  791MPD2    C111657   3.694   4.518  13.424 -0.8752 -0.1277  0.3109
  791MPD2    C211658   3.618   4.418  13.369 -0.1090  0.8215 -0.0796
  791MPD2    C311659   3.481   4.405  13.404  0.0855 -0.2326 -0.1063
  791MPD2    C411660   3.424   4.477  13.501  0.0311  0.5468 -0.0023
  791MPD2    C511661   3.499   4.574  13.560 -0.3224  0.2849  0.0196
  791MPD2     H11662   3.662   4.347  13.300 -1.5587 -1.3509  1.2303
  791MPD2    H111663   3.327   4.443  13.536 -1.4015  2.7777 -1.8061
  791MPD2    H211664   3.685   4.666  13.572 -0.7763  0.4755  0.1718
  791MPD2    H311665   3.467   4.645  13.635  0.7916  1.0448 -0.2256
  791MPD2     N11666   3.421   4.295  13.336  0.2316 -0.0372 -0.6622
  791MPD2    H511667   3.477   4.236  13.275  2.9837  1.0358  0.8124
  791MPD2    N111668   3.828   4.538  13.387  0.0915  0.4543 -0.3631
  791MPD2    H711669   3.879   4.622  13.412  0.3242  0.9547 -2.5215
  792MPD2     C11670   0.115   4.175  10.943  0.2508 -0.0067 -0.6639
  792MPD2    C111671   4.722   4.199  10.869  0.1279 -0.4358 -0.0164
  792MPD2    C211672   4.656   4.099  10.798 -0.5543  0.1101 -0.6781
  792MPD2    C311673   4.717   3.974  10.792  0.1751  0.1087 -0.4453
  792MPD2    C411674   0.105   3.945  10.869  0.2574  0.0129 -0.0325
  792MPD2    C511675   0.162   4.046  10.945 -0.7047  0.3915 -0.1120
  792MPD2     H11676   4.562   4.122  10.749 -0.3011  1.0423 -0.7243
  792MPD2    H111677   0.155   3.848  10.874 -1.2121 -0.8286 -1.8247
  792MPD2    H211678   0.179   4.254  10.980 -0.9337  0.2388  0.8293
  792MPD2    H311679   0.254   4.027  10.998 -0.0916  0.2225 -1.2509
  792MPD2     N11680   4.654   3.871  10.711  0.4999 -0.0957 -0.2301
  792MPD2    H511681   4.568   3.902  10.666  0.0983 -0.2403  0.4394
  792MPD2    N111682   4.696   4.341  10.856 -0.3725 -0.3226 -0.0823
  792MPD2    H711683   0.047   4.407  10.881  0.4818 -1.0450 -0.7056
  793MPD2     C11684   3.993   3.973  10.211 -0.0440 -0.0054 -0.8482
  793MPD2    C111685   4.101   4.040  10.268 -0.2938 -0.3764 -0.8007
  793MPD2    C211686   4.187   3.973  10.352  0.8341  0.0367 -0.1475
  793MPD2    C311687   4.171   3.833  10.356  0.3669 -0.7845  0.1952
  793MPD2    C411688   4.054   3.774  10.310 -0.4579 -0.5592  0.3736
  793MPD2    C511689   3.965   3.841  10.229 -0.1065 -0.6332  0.0452
  793MPD2     H11690   4.278   4.020  10.389  1.1647 -1.5139  0.9815
  793MPD2    H111691   4.022   3.673  10.334  0.1644 -0.8415  0.0314
  793MPD2    H211692   3.936   4.016  10.129 -0.7498 -0.1302 -0.4152
  793MPD2    H311693   3.886   3.781  10.186 -1.3138 -0.1008  1.4951
  793MPD2     N11694   4.268   3.768  10.437 -0.3462 -0.4082 -0.5075
  793MPD2    H511695   4.350   3.825  10.452  0.7579 -1.2539 -3.3212
  793MPD2    N111696   4.132   4.178  10.241  0.1705 -0.0231 -0.2256
  793MPD2    H711697   4.225   4.204  10.271 -0.1340  1.7285 -0.7983
  794MPD2     C11698   4.087   3.924  17.292  0.9035 -0.4482  0.1493
  794MPD2    C111699   4.039   3.801  17.244 -0.7837  0.1199  0.8055
  794MPD2    C211700   3.930   3.813  17.160  1.2561 -0.2347 -0.0506
  794MPD2    C311701   3.857   3.932  17.130 -0.8965 -0.1638 -0.3365
  794MPD2    C411702   3.903   4.043  17.192 -0.0104  0.1401  0.2818
  794MPD2    C511703   4.017   4.039  17.275  0.3831 -1.0387  0.5854
  794MPD2     H11704   3.897   3.715  17.126 -0.0827 -0.4410  1.8542
  794MPD2    H111705   3.840   4.129  17.207 -0.4429 -0.1916  0.3717
  794MPD2    H211706   4.184   3.928  17.341  0.5872  0.7889  0.6919
  794MPD2    H311707   4.042   4.125  17.337  0.5589  0.2020 -1.2093
  794MPD2     N11708   3.742   3.931  17.054 -0.0141 -0.1896  0.2666
  794MPD2    H511709   3.678   4.008  17.065 -0.0958 -0.5411  2.3186
  794MPD2    N111710   4.104   3.675  17.283 -0.0494  0.2919 -0.2126
  794MPD2    H711711   4.059   3.592  17.245 -0.3404  0.3522 -0.0033
  795MPD2     C11712   1.494   1.239  13.860 -0.9409 -0.1026 -0.0464
  795MPD2    C111713   1.447   1.127  13.800  0.1125  0.4668  0.2590
  795MPD2    C211714   1.520   1.006  13.819  0.1338 -0.4598 -0.5051
  795MPD2    C311715   1.645   1.013  13.878  0.1226  0.9716 -0.0723
  795MPD2    C411716   1.688   1.133  13.942 -0.1263  0.8816 -0.3454
  795MPD2    C511717   1.613   1.243  13.933 -0.4282  0.1011  0.3119
  795MPD2     H11718   1.480   0.918  13.769 -0.3047  0.5164 -1.8948
  795MPD2    H111719   1.773   1.148  14.007  0.3899  0.8035 -1.0038
  795MPD2    H211720   1.448   1.337  13.860 -1.4723 -0.3562  0.8318
  795MPD2    H311721   1.642   1.339  13.972  1.6063  0.6749 -2.6106
  795MPD2     N11722   1.720   0.899  13.870  0.0482  0.6951 -0.4817
  795MPD2    H511723   1.688   0.811  13.831  0.1705  0.3206  0.2613
  795MPD2    N111724   1.320   1.127  13.733  0.3599 -0.3619  0.2122
  795MPD2    H711725   1.283   1.042  13.692 -2.3514 -0.5521  2.9594
  796MPD2     C11726   1.386   2.427  16.011  0.4391  0.4476 -0.0552
  796MPD2    C111727   1.458   2.482  16.114 -0.3767 -1.0231 -0.6562
  796MPD2    C211728   1.467   2.619  16.125 -0.2757  0.5560 -0.6157
  796MPD2    C311729   1.413   2.701  16.022 -0.1693  0.0502  0.0628
  796MPD2    C411730   1.340   2.638  15.927  0.3164 -0.1332  0.1836
  796MPD2    C511731   1.331   2.506  15.922 -0.1644  0.0775 -0.9380
  796MPD2     H11732   1.512   2.675  16.207 -0.0599  1.0256 -1.0500
  796MPD2    H111733   1.302   2.693  15.842  1.6821  0.0069 -0.3450
  796MPD2    H211734   1.364   2.321  16.011  2.2135  0.0843 -1.9554
  796MPD2    H311735   1.274   2.456  15.844 -2.1134  0.2300  0.3833
  796MPD2     N11736   1.420   2.840  16.035 -0.0352  0.6616 -1.1207
  796MPD2    H511737   1.470   2.892  16.107 -0.3781  0.5464 -0.7992
  796MPD2    N111738   1.513   2.394  16.213  0.0720 -0.3676  0.3060
  796MPD2    H711739   1.492   2.294  16.215  1.4061 -0.6426  0.7375
  797MPD2     C11740   2.223   1.573  17.290 -0.4913  0.3240  0.0245
  797MPD2    C111741   2.346   1.622  17.320  0.7497  0.4189 -0.1607
  797MPD2    C211742   2.369   1.757  17.330  0.2516  0.0786  0.8143
  797MPD2    C311743   2.269   1.853  17.323 -0.5836 -0.3079 -0.1374
  797MPD2    C411744   2.143   1.800  17.293 -0.1258  0.0694  0.4710
  797MPD2    C511745   2.125   1.663  17.282  0.8183 -0.4656  0.7939
  797MPD2     H11746   2.468   1.779  17.369  0.1697  2.4961 -0.3029
  797MPD2    H111747   2.055   1.859  17.272 -0.7490 -0.3388  1.9231
  797MPD2    H211748   2.203   1.467  17.287  1.4293 -0.0214 -0.4274
  797MPD2    H311749   2.028   1.627  17.251  1.5839 -0.9797 -1.0041
  797MPD2     N11750   2.291   1.991  17.342  0.1587 -0.0257  1.0931
  797MPD2    H511751   2.210   2.050  17.326 -0.1267 -1.0502 -1.2567
  797MPD2    N111752   2.459   1.539  17.346 -0.0712 -0.3699 -0.3617
  797MPD2    H711753   2.542   1.584  17.383  0.1280  0.2017 -1.5045
  798MPD2     C11754   2.991   2.018  17.297 -0.4745  0.6175 -0.3071
  798MPD2    C111755   2.865   1.991  17.336  0.5255 -0.9252 -0.7981
  798MPD2    C211756   2.840   1.860  17.373  0.0318  0.0965  0.6908
  798MPD2    C311757   2.929   1.758  17.356  0.3769 -0.9445  0.0821
  798MPD2    C411758   3.057   1.786  17.311  0.8616  0.2757 -0.3111
  798MPD2    C511759   3.082   1.918  17.281  0.5951  0.1421  0.0317
  798MPD2     H11760   2.739   1.843  17.406 -0.2453  2.0530  0.8910
  798MPD2    H111761   3.131   1.708  17.304 -0.0265 -0.5835 -0.1361
  798MPD2    H211762   3.024   2.117  17.271 -0.3056  0.1453 -1.9009
  798MPD2    H311763   3.181   1.950  17.250  0.1959 -0.2922 -1.6856
  798MPD2     N11764   2.876   1.630  17.378 -0.2459 -0.4730 -0.3836
  798MPD2    H511765   2.782   1.624  17.418  1.0212 -1.5718  2.4455
  798MPD2    N111766   2.757   2.080  17.327 -0.3957 -0.1396  1.0878
  798MPD2    H711767   2.664   2.048  17.350 -0.1524 -2.0210 -0.5858
  799MPD2     C11768   1.256   3.363  14.785 -0.1398 -0.3514  0.0513
  799MPD2    C111769   1.257   3.345  14.649  0.7506 -0.2156 -0.2611
  799MPD2    C211770   1.163   3.400  14.572 -0.4698  0.6746 -0.4682
  799MPD2    C311771   1.067   3.478  14.627  0.1860  0.1044  0.1560
  799MPD2    C411772   1.055   3.485  14.761 -0.0284  0.1239  0.1059
  799MPD2    C511773   1.143   3.428  14.845 -0.4314 -0.7279 -0.6292
  799MPD2     H11774   1.171   3.381  14.466  2.2996  2.4752 -0.5914
  799MPD2    H111775   0.970   3.530  14.812 -1.2925 -0.6260 -1.3503
  799MPD2    H211776   1.329   3.315  14.849  0.3507  2.2479  1.4240
  799MPD2    H311777   1.129   3.436  14.952  0.7722 -3.9328 -0.2119
  799MPD2     N11778   0.971   3.543  14.545  0.0350  0.5821 -0.7558
  799MPD2    H511779   0.940   3.632  14.582  1.8727  1.4521 -1.2962
  799MPD2    N111780   1.337   3.247  14.585 -0.3238 -0.3791 -0.4950
  799MPD2    H711781   1.335   3.253  14.483  1.8184  0.5166 -0.4639
  800MPD2     C11782   1.226   4.707  14.190 -0.5716  0.0547  0.2085
  800MPD2    C111783   1.364   4.675  14.181 -0.4464  0.0272 -0.1822
  800MPD2    C211784   1.404   4.613  14.061  0.1024 -0.3410  0.1009
  800MPD2    C311785   1.316   4.590  13.954  0.0854 -0.5895 -0.6809
  800MPD2    C411786   1.180   4.628  13.971 -0.2268 -0.6770 -0.0755
  800MPD2    C511787   1.137   4.682  14.086  0.2015 -0.5096 -0.8846
  800MPD2     H11788   1.507   4.587  14.039  0.0856  0.4835 -0.9451
  800MPD2    H111789   1.112   4.629  13.886 -0.3929  0.4375  0.0803
  800MPD2    H211790   1.181   0.036  14.275  0.5040  1.6499 -0.1854
  800MPD2    H311791   1.039   0.007  14.088  0.8439  0.6816  1.8230
  800MPD2     N11792   1.366   4.537  13.831 -0.7433  0.4485  0.0745
  800MPD2    H511793   1.457   4.493  13.842 -0.3733  1.0194 -0.7194
  800MPD2    N111794   1.457   4.715  14.278 -0.4950 -0.1249  0.2120
  800MPD2    H711795   1.435   0.062  14.348 -1.2225  0.7341 -0.8728
  801MPD2     C11796   1.776   0.633  14.251  0.1558  0.4635 -0.2208
  801MPD2    C111797   1.672   0.560  14.302 -0.8344  0.0801  0.0192
  801MPD2    C211798   1.546   0.611  14.312 -0.5609  0.5046  0.2433
  801MPD2    C311799   1.518   0.745  14.283  0.0710 -0.4165 -0.1572
  801MPD2    C411800   1.626   0.823  14.235  0.5685  0.3572 -0.0024
  801MPD2    C511801   1.746   0.765  14.213 -0.2784  0.0483  0.0691
  801MPD2     H11802   1.464   0.553  14.351 -1.8758  1.0013 -1.8237
  801MPD2    H111803   1.617   0.928  14.212 -0.3296 -0.3027 -2.7610
  801MPD2    H211804   1.872   0.585  14.236  0.0087  0.4448 -1.1111
  801MPD2    H311805   1.825   0.828  14.175 -0.6630  0.8407  0.5808
  801MPD2     N11806   1.398   0.811  14.304 -0.2761  0.2900  0.2766
  801MPD2    H511807   1.384   0.911  14.308  1.6072  0.6348 -1.8687
  801MPD2    N111808   1.688   0.430  14.354 -0.3867 -0.2483  0.0687
  801MPD2    H711809   1.606   0.392  14.401  1.1574 -1.9779  1.3247
  802MPD2     C11810   0.364   1.048  17.238  0.4716 -0.5602 -0.1828
  802MPD2    C111811   0.461   1.006  17.326  0.9097 -0.5070 -0.3532
  802MPD2    C211812   0.549   0.910  17.306 -0.0523 -0.5261 -0.1495
  802MPD2    C311813   0.553   0.848  17.179  0.1363 -0.8185 -0.5175
  802MPD2    C411814   0.461   0.894  17.084 -0.1005 -0.0628 -0.0389
  802MPD2    C511815   0.367   0.989  17.114 -0.0822  0.5377 -0.1286
  802MPD2     H11816   0.612   0.873  17.386 -2.0871 -0.7902  1.3488
  802MPD2    H111817   0.457   0.851  16.984 -2.3663  1.5769 -0.6538
  802MPD2    H211818   0.292   1.127  17.255  0.2616 -0.8878  0.4724
  802MPD2    H311819   0.289   1.009  17.041  0.1352  2.6891  0.2067
  802MPD2     N11820   0.644   0.740  17.154  0.3404  0.4353  0.5832
  802MPD2    H511821   0.682   0.689  17.233  0.4988 -0.4199 -0.0574
  802MPD2    N111822   0.478   1.074  17.445 -1.0977  0.5593 -0.4811
  802MPD2    H711823   0.544   1.048  17.517 -1.5003  0.9608  0.0341
  803MPD2     C11824   2.788   3.790  12.228  0.7162  0.7395  0.2681
  803MPD2    C111825   2.657   3.753  12.191  0.0884 -0.0658  0.9315
  803MPD2    C211826   2.552   3.763  12.285  0.7797  0.1331 -0.8025
  803MPD2    C311827   2.577   3.816  12.413  0.6181 -0.2282  0.1699
  803MPD2    C411828   2.702   3.851  12.453  0.0746 -0.2627 -0.0174
  803MPD2    C511829   2.806   3.829  12.360 -0.1540  0.2801  0.3924
  803MPD2     H11830   2.452   3.730  12.260  1.3969 -1.8606 -0.5888
  803MPD2    H111831   2.717   3.886  12.555 -4.3257  1.8983 -0.1059
  803MPD2    H211832   2.875   3.794  12.164  0.2272  3.4742 -0.2451
  803MPD2    H311833   2.906   3.855  12.393  0.6147 -3.1932  0.7009
  803MPD2     N11834   2.479   3.837  12.504  0.4044 -0.2822 -0.3312
  803MPD2    H511835   2.513   3.873  12.593 -1.8499  0.7620  0.1142
  803MPD2    N111836   2.634   3.700  12.066 -0.5073  0.1643 -0.1915
  803MPD2    H711837   2.539   3.668  12.047  0.2595 -2.6738  0.6455
  804MPD2     C11838   1.408   0.373  16.868  0.5474 -0.8056  0.2566
  804MPD2    C111839   1.421   0.357  17.000  0.6953 -0.4383  0.1176
  804MPD2    C211840   1.494   0.454  17.070 -0.3876  0.5661  0.6521
  804MPD2    C311841   1.547   0.566  17.002 -0.3182  0.1071  0.0382
  804MPD2    C411842   1.532   0.586  16.868  0.4124  0.0466 -0.6482
  804MPD2    C511843   1.468   0.482  16.798  0.1839  0.6861  0.5043
  804MPD2     H11844   1.499   0.437  17.177  0.0840 -1.0817  0.3689
  804MPD2    H111845   1.571   0.675  16.820  1.7364  0.0204  0.3885
  804MPD2    H211846   1.365   0.301  16.799 -0.0330 -0.4043  0.2026
  804MPD2    H311847   1.456   0.499  16.692 -2.5111 -1.5981  0.4676
  804MPD2     N11848   1.624   0.656  17.073  0.3123 -0.0881  0.0990
  804MPD2    H511849   1.689   0.712  17.020  0.6866  0.0969  0.7481
  804MPD2    N111850   1.379   0.243  17.074 -0.2344 -0.1745  0.1331
  804MPD2    H711851   1.383   0.249  17.175 -0.3401  1.8415  0.0207
  805MPD2     C11852   0.897   3.683  15.740  0.2234  0.2142 -0.4535
  805MPD2    C111853   0.956   3.714  15.617  0.2148  0.0272 -0.5715
  805MPD2    C211854   1.095   3.728  15.612 -0.1355 -0.4977  0.7255
  805MPD2    C311855   1.174   3.691  15.723  0.3866  0.5483  0.2207
  805MPD2    C411856   1.110   3.665  15.845  1.2616  0.1966  0.5126
  805MPD2    C511857   0.971   3.654  15.854  0.1546 -0.3064 -0.0784
  805MPD2     H11858   1.137   3.762  15.518  0.6020  1.2365  1.6734
  805MPD2    H111859   1.163   3.656  15.939  1.7401  2.5180  0.4552
  805MPD2    H211860   0.789   3.687  15.750  0.5348 -1.2716  3.2135
  805MPD2    H311861   0.922   3.632  15.948 -0.3509  0.4430 -0.1647
  805MPD2     N11862   1.318   3.693  15.703 -0.2245  0.0308 -0.2304
  805MPD2    H511863   1.360   3.733  15.619  1.8374 -0.6703  0.4720
  805MPD2    N111864   0.885   3.720  15.491 -0.1191  0.0562  0.1972
  805MPD2    H711865   0.925   3.772  15.413 -1.4022  1.9114  0.7884
  806MPD2     C11866   2.048   3.059   0.777  0.0034 -0.6923  0.3232
  806MPD2    C111867   1.955   3.154   0.828  0.0346  0.2127  0.3337
  806MPD2    C211868   1.942   3.284   0.783  0.0371 -0.2528  0.2451
  806MPD2    C311869   2.022   3.324   0.674  0.1057  0.8114 -0.1893
  806MPD2    C411870   2.112   3.233   0.617  0.0337 -0.2135  0.7183
  806MPD2    C511871   2.114   3.100   0.663 -0.3241  0.0842 -0.4980
  806MPD2     H11872   1.881   3.354   0.838  0.3415 -1.1158  1.6802
  806MPD2    H111873   2.170   3.247   0.527 -2.6000  1.7303 -0.6969
  806MPD2    H211874   2.065   2.964   0.825 -0.3970 -0.8163  0.2203
  806MPD2    H311875   2.185   3.035   0.613  1.0496  2.3072 -1.4646
  806MPD2     N11876   2.016   3.460   0.641  0.1516  0.3565 -0.4740
  806MPD2    H511877   1.942   3.517   0.680 -0.7731 -2.5536  1.9779
  806MPD2    N111878   1.908   3.109   0.953 -0.9133  0.3389 -0.0626
  806MPD2    H711879   1.929   3.011   0.973 -3.3644 -0.0375  0.6983
  807MPD2     C11880   1.211   3.140   1.481  0.4090  0.7459 -0.5168
  807MPD2    C111881   1.315   3.068   1.535 -0.2856  0.4620 -0.2812
  807MPD2    C211882   1.295   3.006   1.662  0.0985 -0.1565  0.8512
  807MPD2    C311883   1.176   3.022   1.726  0.4522 -0.3773  0.6549
  807MPD2    C411884   1.076   3.096   1.673 -0.6546  0.5217 -0.3484
  807MPD2    C511885   1.096   3.151   1.554  0.0162  0.5238 -0.5182
  807MPD2     H11886   1.382   2.952   1.697 -0.5794 -0.8162  1.5128
  807MPD2    H111887   0.978   3.114   1.716 -0.4445  0.0613  0.3332
  807MPD2    H211888   1.224   3.189   1.385  1.6146  0.0308 -0.7215
  807MPD2    H311889   1.023   3.216   1.506 -0.0609  1.3982  0.7726
  807MPD2     N11890   1.159   2.959   1.850  0.1882 -0.9726  0.7193
  807MPD2    H511891   1.241   2.926   1.900  1.0492  1.4441  0.9257
  807MPD2    N111892   1.440   3.043   1.470  0.2051 -0.1892  0.1769
  807MPD2    H711893   1.505   2.975   1.510 -0.6665 -0.4317  1.1782
  808MPD2     C11894   1.657   0.224   9.424 -0.1428  0.5370  0.2606
  808MPD2    C111895   1.704   0.213   9.550  0.4244 -0.2560  0.1044
  808MPD2    C211896   1.798   0.309   9.586  0.9640  0.8556 -0.6125
  808MPD2    C311897   1.848   0.388   9.491  0.5033  0.4673  0.1537
  808MPD2    C411898   1.826   0.370   9.355  0.6165 -0.8179  0.2703
  808MPD2    C511899   1.721   0.294   9.325  0.9429 -0.0141  0.1857
  808MPD2     H11900   1.831   0.317   9.689  0.4401 -0.3609 -0.3492
  808MPD2    H111901   1.873   0.427   9.276  1.7893  0.2331  1.7159
  808MPD2    H211902   1.584   0.154   9.384 -2.0646  2.4555  0.3698
  808MPD2    H311903   1.701   0.287   9.218  2.1956  0.1309 -0.0537
  808MPD2     N11904   1.938   0.491   9.535 -0.1918  1.1310 -0.3721
  808MPD2    H511905   1.981   0.543   9.459  1.0903  0.9930  0.2611
  808MPD2    N111906   1.654   0.127   9.645 -0.3680 -0.0322  0.0746
  808MPD2    H711907   1.703   0.127   9.733  0.4111 -4.2199 -0.3832
  809MPD2     C11908   2.605   0.314   9.146 -1.4304 -0.3233  0.0140
  809MPD2    C111909   2.614   0.293   9.284  0.5000  0.6020  0.1704
  809MPD2    C211910   2.548   0.379   9.372 -0.2742 -0.3356 -0.1715
  809MPD2    C311911   2.475   0.487   9.321  0.5980  0.3551 -0.4058
  809MPD2    C411912   2.461   0.489   9.183  0.5846 -0.0226  0.2768
  809MPD2    C511913   2.530   0.409   9.096  0.0630 -0.6108 -0.2604
  809MPD2     H11914   2.543   0.348   9.476  0.7178  0.0436 -0.0169
  809MPD2    H111915   2.401   0.570   9.142 -0.1992 -0.0572  1.3551
  809MPD2    H211916   2.660   0.251   9.077 -1.0373  0.2842 -0.2355
  809MPD2    H311917   2.507   0.419   8.990  1.4883  0.7282 -0.4343
  809MPD2     N11918   2.398   0.572   9.400 -0.1157 -0.8765  0.5219
  809MPD2    H511919   2.334   0.633   9.350  0.1044 -1.1611 -0.1043
  809MPD2    N111920   2.679   0.179   9.336  0.0807  0.8870  0.6792
  809MPD2    H711921   2.696   0.166   9.435 -2.1097  1.9726  1.2025
  810MPD2     C11922   1.597   4.104   9.752 -0.4291  0.6632 -0.0082
  810MPD2    C111923   1.602   4.025   9.861 -0.7065  0.6736  0.0654
  810MPD2    C211924   1.717   4.025   9.948  0.2053 -0.7613  0.1564
  810MPD2    C311925   1.814   4.127   9.944 -0.0331  0.3892  0.3065
  810MPD2    C411926   1.806   4.217   9.836  0.3434 -0.2200 -0.4737
  810MPD2    C511927   1.698   4.202   9.748 -0.1722 -0.3428  0.2533
  810MPD2     H11928   1.716   3.949  10.026 -0.2802 -0.0461  0.8401
  810MPD2    H111929   1.860   4.310   9.822 -1.0045  0.6099 -0.1779
  810MPD2    H211930   1.519   4.099   9.677 -0.2014 -1.3393 -0.1117
  810MPD2    H311931   1.687   4.280   9.674  1.7343  0.5130  0.8701
  810MPD2     N11932   1.909   4.137  10.048 -0.7838  0.1804 -0.5255
  810MPD2    H511933   1.944   4.231  10.060  0.0998 -0.5366  2.5766
  810MPD2    N111934   1.505   3.922   9.862 -0.4538 -0.0002  0.8139
  810MPD2    H711935   1.440   3.910   9.785  1.0644 -1.8093 -0.1930
  811MPD2     C11936   1.152   4.364  10.495  0.3106  0.3767  0.1171
  811MPD2    C111937   1.259   4.362  10.408  0.3351  0.3119 -0.0682
  811MPD2    C211938   1.293   4.483  10.352 -0.8257  0.0199 -0.0494
  811MPD2    C311939   1.220   4.600  10.365 -0.6880 -0.7817  0.1346
  811MPD2    C411940   1.112   4.590  10.447 -0.1794 -0.0386  0.8007
  811MPD2    C511941   1.086   4.482  10.513  0.4762  0.9821 -0.0042
  811MPD2     H11942   1.373   4.483  10.279 -1.0274 -0.4423 -0.2740
  811MPD2    H111943   1.050   4.677  10.466 -0.5626 -0.4560  1.4283
  811MPD2    H211944   1.113   4.281  10.554 -2.0847  0.7280 -0.9754
  811MPD2    H311945   1.003   4.482  10.584 -1.4420  1.4458 -2.2577
  811MPD2     N11946   1.260   4.717  10.299  0.3595 -0.3609  0.2085
  811MPD2    H511947   1.357   0.013  10.275 -0.6015  2.9447 -1.1687
  811MPD2    N111948   1.326   4.240  10.383  0.2450  0.4073 -0.2100
  811MPD2    H711949   1.277   4.164  10.430  1.5504 -0.8161 -0.8351
  812MPD2     C11950   4.494   4.651  12.075 -0.1765  0.3690 -0.6686
  812MPD2    C111951   4.628   4.659  12.104 -0.2369  1.1202 -0.6214
  812MPD2    C211952   4.696   4.540  12.153  0.4505  0.4906  0.0250
  812MPD2    C311953   4.624   4.427  12.188 -0.2757 -0.5881  0.0963
  812MPD2    C411954   4.486   4.421  12.162  0.0823 -1.1151 -0.4531
  812MPD2    C511955   4.424   4.534  12.100  0.4482  0.1953  0.1702
  812MPD2     H11956   0.081   4.545  12.162  0.4865  2.5296 -1.4398
  812MPD2    H111957   4.427   4.332  12.184  0.1278 -0.8593  0.7285
  812MPD2    H211958   4.442   0.010  12.026  1.8559  2.9077  1.4017
  812MPD2    H311959   4.317   4.532  12.085  0.7057  0.5671 -1.7357
  812MPD2     N11960   4.694   4.335  12.257 -0.2956  0.2915 -0.5933
  812MPD2    H511961   0.061   4.370  12.291  0.5649 -0.7130 -1.8557
  812MPD2    N111962   4.688   0.061  12.096 -0.5317  0.3863 -0.1124
  812MPD2    H711963   4.631   0.141  12.070  0.2924  1.1043  0.3081
  813MPD2     C11964   4.120   1.430  12.623 -0.6914 -0.5683 -0.7010
  813MPD2    C111965   4.140   1.540  12.698 -0.2709 -0.0299 -0.0374
  813MPD2    C211966   4.046   1.562  12.796  0.4110  0.6017  0.0923
  813MPD2    C311967   3.940   1.474  12.815 -0.4511  0.3977  0.5375
  813MPD2    C411968   3.931   1.355  12.743 -0.9150 -0.0824 -0.0950
  813MPD2    C511969   4.021   1.331  12.646  0.0981 -0.1096 -0.3506
  813MPD2     H11970   4.045   1.657  12.847  2.3546  0.7734 -0.1947
  813MPD2    H111971   3.851   1.282  12.757 -0.2591 -0.9364 -0.7664
  813MPD2    H211972   4.193   1.412  12.545  1.7921  1.3848  1.1666
  813MPD2    H311973   4.023   1.239  12.588  0.8837 -0.0890 -0.3524
  813MPD2     N11974   3.855   1.513  12.922  0.1196  0.0549 -0.0964
  813MPD2    H511975   3.883   1.592  12.979  0.4470  0.5390 -0.9296
  813MPD2    N111976   4.232   1.645  12.682 -0.4741  0.9308 -0.3795
  813MPD2    H711977   4.230   1.713  12.757 -0.0645  1.5689 -0.9484
  814MPD2     C11978   4.486   2.736  11.992 -0.3274  0.2626 -0.1394
  814MPD2    C111979   4.509   2.816  11.881 -0.0340 -0.2953  0.1085
  814MPD2    C211980   4.543   2.949  11.893  0.6856 -0.1680 -0.1060
  814MPD2    C311981   4.550   3.013  12.016 -0.0611 -0.0293 -0.5049
  814MPD2    C411982   4.530   2.929  12.121 -0.2558  0.1464  0.0023
  814MPD2    C511983   4.494   2.795  12.111 -0.5460  0.8861 -0.3252
  814MPD2     H11984   4.556   3.015  11.807  2.6528 -0.2543  0.1169
  814MPD2    H111985   4.529   2.968  12.222  0.6696 -0.3127  0.1858
  814MPD2    H211986   4.470   2.629  11.987  0.5177  0.1209  0.3024
  814MPD2    H311987   4.477   2.732  12.197 -1.8497  0.4482 -0.8959
  814MPD2     N11988   4.583   3.143  12.041 -0.3988  0.0031  0.1635
  814MPD2    H511989   4.613   3.171  12.134 -1.5577 -1.8097  1.0568
  814MPD2    N111990   4.487   2.770  11.748 -0.5159 -0.7054 -0.2922
  814MPD2    H711991   4.520   2.834  11.676 -0.1312 -0.7458 -0.1545
  815MPD2     C11992   0.419   1.607  11.697 -0.4032 -0.2629  0.7437
  815MPD2    C111993   0.432   1.474  11.719  0.9643 -0.0548  0.5425
  815MPD2    C211994   0.323   1.412  11.783 -0.0297 -0.2632  0.7988
  815MPD2    C311995   0.212   1.477  11.827 -0.1212 -0.7577  0.7635
  815MPD2    C411996   0.198   1.610  11.800  0.1888 -0.7096  0.0801
  815MPD2    C511997   0.303   1.671  11.728  0.4076  0.0300  0.4720
  815MPD2     H11998   0.320   1.304  11.777  0.9550 -0.3027  1.0569
  815MPD2    H111999   0.100   1.653  11.817  1.0091  1.4267 -0.6250
  815MPD2    H212000   0.503   1.653  11.646  0.5964 -1.6076  1.1788
  815MPD2    H312001   0.291   1.775  11.701  5.0316  0.8085  1.5041
  815MPD2     N12002   0.103   1.405  11.884 -0.2727  0.1864  0.5612
  815MPD2    H512003   0.013   1.451  11.871  0.4729  1.0382 -1.5571
  815MPD2    N112004   0.537   1.404  11.661  0.2387 -0.0251 -0.0134
  815MPD2    H712005   0.594   1.453  11.594 -0.6530  2.2084  0.8795
  816MPD2     C12006   4.711   0.058  17.344 -0.6671  0.4651 -0.1941
  816MPD2    C112007   0.053   0.167  17.373  0.4029 -0.2992  0.8105
  816MPD2    C212008   0.193   0.182  17.343  0.6787  0.1061  0.2106
  816MPD2    C312009   0.260   0.078  17.275 -0.5876  0.6178  0.2421
  816MPD2    C412010   0.187   4.683  17.245 -0.5265  0.4125 -0.0863
  816MPD2    C512011   0.049   4.683  17.273  0.4879 -1.2524  0.0160
  816MPD2     H12012   0.242   0.277  17.359 -1.0429  1.0685 -0.2981
  816MPD2    H112013   0.224   4.592  17.199 -1.4309  1.4304 -2.8703
  816MPD2    H212014   4.604   0.068  17.360 -0.3784  1.9998  0.7383
  816MPD2    H312015   4.715   4.595  17.243  0.0628 -0.2914 -2.0222
  816MPD2     N12016   0.391   0.096  17.229 -0.5125  0.5903  0.5310
  816MPD2    H512017   0.430   0.190  17.235 -0.3984  0.6496 -1.0421
  816MPD2    N112018   4.703   0.270  17.442 -0.4894  0.2252 -0.7393
  816MPD2    H712019   4.602   0.276  17.433 -0.7504 -0.0839  2.0676
  817MPD2     C12020   4.395   2.013   9.787 -0.7778 -0.4176 -0.3594
  817MPD2    C112021   4.473   2.044   9.676 -0.5134  0.8393  0.3196
  817MPD2    C212022   4.434   2.132   9.582 -0.5198  0.2257 -0.1298
  817MPD2    C312023   4.313   2.194   9.596  0.4003  0.0191 -0.0568
  817MPD2    C412024   4.236   2.173   9.710 -0.1938  1.0129  0.6559
  817MPD2    C512025   4.282   2.086   9.799 -0.0057 -0.0585  0.6816
  817MPD2     H12026   4.500   2.150   9.498  0.5118  0.3709  0.7154
  817MPD2    H112027   4.143   2.227   9.725  0.1947  1.8021  0.2203
  817MPD2    H212028   4.412   1.929   9.853  1.0229  0.0715 -0.2087
  817MPD2    H312029   4.214   2.055   9.878  0.1120 -1.3961  0.2543
  817MPD2     N12030   4.273   2.275   9.484  0.3905 -0.0375  0.4181
  817MPD2    H512031   4.348   2.296   9.418  1.7073  0.5851  2.1200
  817MPD2    N112032   4.586   1.966   9.648  0.1108 -0.3271 -0.1615
  817MPD2    H712033   4.634   1.987   9.561 -1.2351 -1.0637 -1.0907
  818MPD2     C12034   3.565   1.863   9.643  0.2540  0.3352  0.4523
  818MPD2    C112035   3.524   1.780   9.738  0.6971  0.1701 -0.3372
  818MPD2    C212036   3.587   1.658   9.748  0.2286  0.6065 -0.2549
  818MPD2    C312037   3.696   1.631   9.671 -0.1773  0.4914  0.6369
  818MPD2    C412038   3.735   1.714   9.565 -0.1409 -0.3486 -0.1504
  818MPD2    C512039   3.664   1.832   9.550 -0.0660 -0.4177  0.4725
  818MPD2     H12040   3.557   1.591   9.828 -0.2042  0.9692 -0.1138
  818MPD2    H112041   3.823   1.690   9.507  0.8970 -2.0003  2.0985
  818MPD2    H212042   3.500   1.946   9.619 -1.1320 -1.5050 -2.0791
  818MPD2    H312043   3.680   1.908   9.474  2.6974 -1.5193 -0.0709
  818MPD2     N12044   3.767   1.511   9.686 -0.7136  0.5419 -0.3040
  818MPD2    H512045   3.713   1.443   9.739 -1.0019  0.1172 -1.1355
  818MPD2    N112046   3.411   1.801   9.813 -0.4333 -0.3290 -0.0837
  818MPD2    H712047   3.399   1.738   9.892  1.2036 -1.0173 -0.3922
  819MPD2     C12048   1.697   3.435  15.568  0.2224 -0.1219  0.4699
  819MPD2    C112049   1.678   3.310  15.620 -0.0442  0.8091  0.2218
  819MPD2    C212050   1.779   3.260  15.694  0.2741 -0.8269 -0.5290
  819MPD2    C312051   1.899   3.328  15.711  0.0851 -0.3747  0.3561
  819MPD2    C412052   1.921   3.454  15.658  0.4464 -0.0056  0.1088
  819MPD2    C512053   1.812   3.507  15.586 -0.1460 -0.3377 -0.7996
  819MPD2     H12054   1.769   3.161  15.739 -2.4902 -0.2648  0.1377
  819MPD2    H112055   2.010   3.515  15.671 -0.3732  1.6386 -2.1442
  819MPD2    H212056   1.614   3.482  15.516 -1.1924 -0.3126  2.5567
  819MPD2    H312057   1.817   3.609  15.549 -0.8963 -0.1322 -0.3260
  819MPD2     N12058   2.004   3.257  15.782 -0.6511 -0.1329  0.2724
  819MPD2    H512059   1.993   3.164  15.819 -0.8128  1.0785  3.2144
  819MPD2    N112060   1.559   3.243  15.586 -0.0154 -0.0333  0.3105
  819MPD2    H712061   1.517   3.284  15.503 -2.1619  0.5277  1.6904
  820MPD2     C12062   0.750   3.126  15.014  0.0067  0.4040 -0.2681
  820MPD2    C112063   0.833   3.215  15.072  0.0743 -0.0414  0.4746
  820MPD2    C212064   0.933   3.171  15.154 -0.7150  0.4260  0.1148
  820MPD2    C312065   0.956   3.037  15.181  0.7103 -0.2178 -0.6806
  820MPD2    C412066   0.861   2.949  15.127  0.0830  0.1242  0.0328
  820MPD2    C512067   0.762   2.992  15.042 -0.7202 -0.3930 -0.2273
  820MPD2     H12068   0.998   3.246  15.197 -0.4692  0.7574 -0.8440
  820MPD2    H112069   0.858   2.844  15.153 -0.0082 -0.3544 -1.8569
  820MPD2    H212070   0.673   3.147  14.941  1.0544 -0.7115 -1.6963
  820MPD2    H312071   0.702   2.932  14.975 -1.0971  1.4226 -1.5037
  820MPD2     N12072   1.058   2.996  15.265  0.1480  0.0256 -0.0566
  820MPD2    H512073   1.072   2.898  15.286 -0.5331 -0.1542 -0.4301
  820MPD2    N112074   0.809   3.350  15.051  0.6010  0.1938  0.4019
  820MPD2    H712075   0.725   3.385  15.006  0.1278 -0.3713  0.8473
  821MPD2     C12076   1.602   0.287  13.323  0.0437  0.0796 -0.1413
  821MPD2    C112077   1.682   0.178  13.306  0.1238 -0.8524 -0.5195
  821MPD2    C212078   1.796   0.189  13.224  0.0450 -0.2788  0.1117
  821MPD2    C312079   1.838   0.315  13.178 -0.9837 -0.7270 -0.1194
  821MPD2    C412080   1.758   0.426  13.200 -0.7775  0.1515  0.2512
  821MPD2    C512081   1.638   0.410  13.264  0.2256  0.3824  0.1012
  821MPD2     H12082   1.869   0.108  13.231  1.1331  0.6488 -0.5857
  821MPD2    H112083   1.776   0.523  13.154 -1.9379 -0.2516 -1.0411
  821MPD2    H212084   1.506   0.278  13.374  0.5343  1.2372  0.9700
  821MPD2    H312085   1.566   0.491  13.275  0.7990  0.8059  0.7961
  821MPD2     N12086   1.965   0.343  13.107 -0.0659 -0.3062 -0.1354
  821MPD2    H512087   1.973   0.437  13.071  0.9881 -0.1095  0.6153
  821MPD2    N112088   1.649   0.048  13.352 -0.7937  0.5412  0.5796
  821MPD2    H712089   1.715   4.699  13.322 -1.1641 -0.0752  1.2242
  822MPD2     C12090   2.302   4.567  15.868  0.2590 -0.0878 -0.9271
  822MPD2    C112091   2.322   4.581  16.009 -0.3189  0.4897 -0.0746
  822MPD2    C212092   2.252   4.672  16.077  0.2812 -0.0469 -0.5898
  822MPD2    C312093   2.171   0.040  16.014 -0.2777 -0.3110  0.1251
  822MPD2    C412094   2.160   0.038  15.876  0.1456 -0.3803 -0.4389
  822MPD2    C512095   2.228   4.663  15.802 -0.1434  0.2960 -0.6589
  822MPD2     H12096   2.268   4.680  16.184 -0.4875 -1.1032 -0.3982
  822MPD2    H112097   2.095   0.109  15.826  0.4559  0.5882  0.5151
  822MPD2    H212098   2.339   4.488  15.804  0.8446 -0.5477 -0.0076
  822MPD2    H312099   2.211   4.658  15.695 -0.3678 -1.0110 -0.5567
  822MPD2     N12100   2.099   0.124  16.100 -0.0663 -0.4080 -0.3796
  822MPD2    H512101   2.104   0.109  16.200 -3.2917 -3.0595 -0.6177
  822MPD2    N112102   2.410   4.491  16.085 -0.4816 -0.1089 -0.7150
  822MPD2    H712103   2.445   4.522  16.176 -0.5109 -0.8790 -0.4432
  823MPD2     C12104   1.700   0.210  16.800 -1.2407  0.0487  0.4056
  823MPD2    C112105   1.787   0.159  16.710  0.3039  0.8515  0.7345
  823MPD2    C212106   1.854   0.041  16.739  0.8748 -0.1102  0.0596
  823MPD2    C312107   1.837   4.701  16.864 -1.0837  1.0966  0.7166
  823MPD2    C412108   1.754   0.034  16.952  0.7353 -0.7346  0.2618
  823MPD2    C512109   1.682   0.149  16.922  0.0212 -0.5984  0.2494
  823MPD2     H12110   1.921   0.002  16.663  1.0451  0.0872  0.1057
  823MPD2    H112111   1.743   4.713  17.051 -0.4852 -1.2961 -0.1189
  823MPD2    H212112   1.652   0.302  16.768  0.1686  0.1023 -1.5301
  823MPD2    H312113   1.618   0.205  16.989 -1.5305 -2.6883  0.4848
  823MPD2     N12114   1.916   4.586  16.897 -0.0045 -0.2348  0.3296
  823MPD2    H512115   1.909   4.558  16.995 -0.8399  1.7723  0.8564
  823MPD2    N112116   1.802   0.235  16.587  0.7968  0.5153 -0.0282
  823MPD2    H712117   1.764   0.329  16.582  1.3666  0.6522 -1.7568
  824MPD2     C12118   2.838   3.746  16.027  0.7831 -0.1471  0.1302
  824MPD2    C112119   2.922   3.849  16.033 -0.2492  0.2812  0.1244
  824MPD2    C212120   3.052   3.824  16.000 -0.4436  0.6362  0.5420
  824MPD2    C312121   3.091   3.703  15.947  0.2632 -0.2217  0.2279
  824MPD2    C412122   3.002   3.605  15.928  0.7267 -0.6905  0.6346
  824MPD2    C512123   2.880   3.624  15.985 -0.2952  0.3263 -0.2096
  824MPD2     H12124   3.121   3.906  16.014 -2.0622  1.9696  0.6637
  824MPD2    H112125   3.012   3.515  15.867 -1.3884  0.5206 -1.5125
  824MPD2    H212126   2.745   3.758  16.082 -0.3137 -0.6403 -1.5977
  824MPD2    H312127   2.818   3.538  16.004  0.2521  0.2454  1.2080
  824MPD2     N12128   3.218   3.705  15.884  0.2883  0.3983 -0.3245
  824MPD2    H512129   3.270   3.792  15.891 -0.1438  0.5922  0.4867
  824MPD2    N112130   2.882   3.973  16.082  0.4478 -0.0244 -0.4510
  824MPD2    H712131   2.952   4.037  16.119 -0.4948 -0.2021  1.6465
  825MPD2     C12132   3.845   3.867  15.289 -0.6511  0.1666  0.2968
  825MPD2    C112133   3.742   3.912  15.371  0.2163 -0.2453  0.7338
  825MPD2    C212134   3.701   4.042  15.365 -0.5624  0.0664 -0.5915
  825MPD2    C312135   3.766   4.133  15.281  0.0383 -0.3432  0.1056
  825MPD2    C412136   3.866   4.083  15.203  0.3078  0.5571  0.3922
  825MPD2    C512137   3.911   3.954  15.210  0.3171  0.2202 -0.1555
  825MPD2     H12138   3.609   4.077  15.410 -0.2958 -2.1415  1.6102
  825MPD2    H112139   3.916   4.152  15.136  0.5022 -1.6162 -1.6786
  825MPD2    H212140   3.878   3.764  15.294  0.5960  0.6135  1.3779
  825MPD2    H312141   3.992   3.928  15.144  0.5148  2.2707 -0.7032
  825MPD2     N12142   3.722   4.267  15.274  0.3398 -0.3375  0.3456
  825MPD2    H512143   3.771   4.325  15.206 -0.5306  1.2200  1.0428
  825MPD2    N112144   3.674   3.818  15.453  0.0565 -0.4246  0.3163
  825MPD2    H712145   3.720   3.727  15.451  2.2533  0.7348 -2.2787
  826MPD2     C12146   2.349   3.571  13.169  0.1981 -0.0505  0.2436
  826MPD2    C112147   2.475   3.590  13.224 -0.2495  1.6234  0.0149
  826MPD2    C212148   2.483   3.665  13.338  0.0256  0.1755  0.2696
  826MPD2    C312149   2.377   3.715  13.405 -0.0376  0.4243  0.9514
  826MPD2    C412150   2.251   3.701  13.346 -0.3084  0.5029 -0.3949
  826MPD2    C512151   2.243   3.615  13.235  0.0876 -0.4476  0.1387
  826MPD2     H12152   2.583   3.692  13.370  0.4447 -0.2022 -0.7303
  826MPD2    H112153   2.157   3.735  13.387 -0.9797 -0.2402 -1.3400
  826MPD2    H212154   2.329   3.506  13.085  3.5653  2.4661 -2.5089
  826MPD2    H312155   2.144   3.599  13.193 -0.6942  3.2425  0.5705
  826MPD2     N12156   2.387   3.796  13.517 -0.0122  0.6723 -0.2368
  826MPD2    H512157   2.302   3.829  13.562 -0.3433  0.3649 -0.6272
  826MPD2    N112158   2.587   3.542  13.152 -0.2271  0.0923  0.0420
  826MPD2    H712159   2.561   3.485  13.072 -2.4067  1.7112 -0.4073
  827MPD2     C12160   4.254   1.010   9.563  0.1304 -0.6781  0.2084
  827MPD2    C112161   4.234   0.903   9.651  0.2689  0.4585  0.4684
  827MPD2    C212162   4.116   0.827   9.625 -0.3401 -0.0069  0.4892
  827MPD2    C312163   4.027   0.860   9.525  0.6662  1.0197  0.5544
  827MPD2    C412164   4.049   0.974   9.451  0.1046  0.1895 -0.4687
  827MPD2    C512165   4.165   1.048   9.470  0.1624 -0.0934 -0.8251
  827MPD2     H12166   4.097   0.743   9.690  0.8652 -0.7239 -0.0868
  827MPD2    H112167   3.974   1.009   9.381 -0.1659  0.3858 -0.0810
  827MPD2    H212168   4.342   1.070   9.582 -0.3301  0.5498 -1.5120
  827MPD2    H312169   4.185   1.136   9.411 -1.9097 -0.1893 -1.6572
  827MPD2     N12170   3.916   0.773   9.501 -0.4455  0.4106  0.0644
  827MPD2    H512171   3.924   0.684   9.551 -0.6454  0.7981  0.7968
  827MPD2    N112172   4.318   0.892   9.764  0.5951 -0.7748  0.1505
  827MPD2    H712173   4.383   0.969   9.765 -0.9315  0.5170  1.0906
  828MPD2     C12174   2.112   4.346  12.019 -0.5778  0.8211 -0.2400
  828MPD2    C112175   2.130   4.463  11.957 -0.2113  0.0388  0.0648
  828MPD2    C212176   2.240   4.474  11.874  0.6298 -0.1466  0.2240
  828MPD2    C312177   2.327   4.367  11.848  0.3638 -0.2472  0.8687
  828MPD2    C412178   2.300   4.247  11.905  0.2051  0.7509 -0.4197
  828MPD2    C512179   2.198   4.249  11.993 -0.0338 -0.0315 -0.7269
  828MPD2     H12180   2.260   4.575  11.841  1.7353  0.0344  1.4625
  828MPD2    H112181   2.368   4.163  11.891 -1.3028 -0.5727  0.2254
  828MPD2    H212182   2.039   4.327  12.097 -1.4267 -2.5917 -1.8800
  828MPD2    H312183   2.183   4.158  12.051  1.3260  1.2918  1.6672
  828MPD2     N12184   2.441   4.374  11.769 -0.0130  0.0349 -0.0716
  828MPD2    H512185   2.506   4.298  11.752 -0.5326 -0.6384  0.9774
  828MPD2    N112186   2.055   4.578  11.984  0.0370 -0.5485  0.1269
  828MPD2    H712187   2.078   4.663  11.934 -0.6974 -0.0764  0.5817
  829MPD2     C12188   1.609   0.594  11.547 -0.6724 -0.3324  0.5227
  829MPD2    C112189   1.517   0.573  11.646 -0.4426  0.2135 -0.3158
  829MPD2    C212190   1.569   0.506  11.760 -0.4927  0.4318 -0.2778
  829MPD2    C312191   1.695   0.458  11.769  1.4790 -0.1276  0.0891
  829MPD2    C412192   1.782   0.481  11.665 -0.1215 -0.0109  0.1505
  829MPD2    C512193   1.739   0.557  11.558 -0.6456 -0.7188  0.4301
  829MPD2     H12194   1.517   0.490  11.854  1.1059 -1.8726  0.1996
  829MPD2    H112195   1.887   0.453  11.664 -0.4193 -1.1468  0.0526
  829MPD2    H212196   1.580   0.642  11.454 -0.1538 -2.3398 -0.6687
  829MPD2    H312197   1.807   0.576  11.476 -0.7710 -2.4821 -0.0807
  829MPD2     N12198   1.731   0.383  11.885 -0.5080 -0.3217  0.5322
  829MPD2    H512199   1.662   0.381  11.959 -0.2558 -0.8833  0.7533
  829MPD2    N112200   1.388   0.622  11.624 -0.0354 -0.3456 -0.6896
  829MPD2    H712201   1.361   0.661  11.534 -0.3936 -0.6441 -0.7142
  830MPD2     C12202   2.689   2.839  15.915 -0.2025  0.5480 -0.2356
  830MPD2    C112203   2.599   2.901  15.831 -0.9298  0.2861  0.0118
  830MPD2    C212204   2.641   2.977  15.726  0.3057 -0.1503 -0.2329
  830MPD2    C312205   2.774   3.000  15.706  0.1738  0.1635  0.4177
  830MPD2    C412206   2.863   2.952  15.797 -0.2785  0.5143 -0.5157
  830MPD2    C512207   2.824   2.865  15.892  0.9762  0.2367  0.0275
  830MPD2     H12208   2.566   3.028  15.667 -1.0459  0.6000  2.1022
  830MPD2    H112209   2.970   2.970  15.789 -0.5348  2.3057  0.0769
  830MPD2    H212210   2.662   2.759  15.983  0.6856  1.3784  1.1009
  830MPD2    H312211   2.890   2.811  15.958  0.9089 -0.0023 -0.1012
  830MPD2     N12212   2.825   3.091  15.610 -0.9911  0.2644 -0.5927
  830MPD2    H512213   2.921   3.122  15.620 -0.4621 -1.9150  0.9401
  830MPD2    N112214   2.467   2.876  15.857 -0.2266 -0.2812  0.1258
  830MPD2    H712215   2.448   2.841  15.951 -2.0807  3.9217  1.2924
  831MPD2     C12216   2.456   0.247  16.436  0.9560 -0.0631  0.0288
  831MPD2    C112217   2.481   0.128  16.373  0.2301  0.0355 -0.0188
  831MPD2    C212218   2.392   0.024  16.388 -0.6586  0.0472 -0.0245
  831MPD2    C312219   2.265   0.045  16.447  0.2245 -0.3608 -0.3113
  831MPD2    C412220   2.236   0.173  16.484 -0.1717  0.3436  0.2295
  831MPD2    C512221   2.333   0.265  16.489  0.0537 -0.9425  0.0920
  831MPD2     H12222   2.400   4.647  16.347  0.1626 -0.3390  1.0572
  831MPD2    H112223   2.138   0.208  16.515  0.4667  0.1794  2.4134
  831MPD2    H212224   2.518   0.336  16.433 -0.8226  1.1086 -1.9522
  831MPD2    H312225   2.292   0.363  16.514  0.4494 -0.6262 -0.4971
  831MPD2     N12226   2.167   4.666  16.444  0.5936 -0.2068  0.1291
  831MPD2    H512227   2.075   4.700  16.472 -0.0832 -2.4321  0.6688
  831MPD2    N112228   2.603   0.124  16.300  0.2315 -0.6040 -0.2504
  831MPD2    H712229   2.646   0.211  16.271 -0.0617 -0.8565 -1.4492
  832MPD2     C12230   0.837   1.211  17.248  0.3649  0.0904  0.2351
  832MPD2    C112231   0.797   1.338  17.240  0.0408 -0.5999  0.0209
  832MPD2    C212232   0.702   1.376  17.146  0.6842 -0.3859  0.6238
  832MPD2    C312233   0.647   1.278  17.062  0.1596  0.5484 -0.2109
  832MPD2    C412234   0.702   1.148  17.055 -0.1814  0.9735 -0.7329
  832MPD2    C512235   0.791   1.123  17.158 -0.4487  0.2304 -0.1521
  832MPD2     H12236   0.664   1.478  17.149 -1.8388 -1.4450  4.5873
  832MPD2    H112237   0.669   1.064  16.995  1.1141  0.9699 -1.4520
  832MPD2    H212238   0.900   1.180  17.330  0.3871  0.2837  0.2913
  832MPD2    H312239   0.819   1.020  17.178  0.8394  0.6245  0.0638
  832MPD2     N12240   0.535   1.304  16.978 -0.3880 -0.3037  0.0200
  832MPD2    H512241   0.500   1.220  16.934  0.2523  0.3999 -1.8322
  832MPD2    N112242   0.862   1.433  17.321 -0.0211 -0.0443  0.2575
  832MPD2    H712243   0.904   1.393  17.405 -1.1268 -1.9758 -0.1021
  833MPD2     C12244   2.785   2.853  12.576  0.4107 -0.1977 -0.0424
  833MPD2    C112245   2.805   2.909  12.458  0.3815  0.0960 -0.3806
  833MPD2    C212246   2.869   2.832  12.358 -0.2228  0.7881 -0.0627
  833MPD2    C312247   2.909   2.696  12.380  0.6249  0.1273  0.6901
  833MPD2    C412248   2.874   2.642  12.501  0.1800  0.3925 -0.0045
  833MPD2    C512249   2.823   2.720  12.600 -0.1983 -0.3175  0.1471
  833MPD2     H12250   2.880   2.859  12.253  1.9467  1.4653  0.3427
  833MPD2    H112251   2.898   2.538  12.519 -1.4035  0.3894  2.1768
  833MPD2    H212252   2.724   2.906  12.648 -0.0479 -0.0979 -0.5016
  833MPD2    H312253   2.796   2.666  12.690  0.2168  1.1158  1.1248
  833MPD2     N12254   2.992   2.627  12.289 -0.2981  0.4226 -0.0394
  833MPD2    H512255   3.006   2.532  12.323  0.1490  1.3910  2.4270
  833MPD2    N112256   2.761   3.037  12.431 -0.1720  0.3741  0.0229
  833MPD2    H712257   2.701   3.082  12.499 -0.5685 -1.8963  1.1752
  834MPD2     C12258   3.026   1.861  11.663  0.1500  0.0249 -0.4655
  834MPD2    C112259   3.047   1.960  11.568  0.3079 -0.7573  0.4200
  834MPD2    C212260   3.068   2.091  11.610  0.0012 -0.1241  0.2557
  834MPD2    C312261   3.076   2.122  11.750  1.1036 -0.0666  0.3308
  834MPD2    C412262   3.057   2.015  11.842 -0.1874 -0.3741 -0.2256
  834MPD2    C512263   3.032   1.889  11.796  0.1699  0.0250  0.6346
  834MPD2     H12264   3.093   2.174  11.544  0.3861  0.4361  1.1034
  834MPD2    H112265   3.063   2.023  11.950 -1.0550 -0.4074 -0.1732
  834MPD2    H212266   3.004   1.763  11.622 -0.9133  1.2466 -2.8120
  834MPD2    H312267   3.025   1.808  11.867  0.2146 -1.3168 -0.9105
  834MPD2     N12268   3.104   2.261  11.783  0.6280 -1.1604  0.0565
  834MPD2    H512269   3.110   2.333  11.711  0.4259 -3.0518 -1.8382
  834MPD2    N112270   3.036   1.916  11.431  0.2516  0.1178 -0.6181
  834MPD2    H712271   3.048   1.819  11.404  0.9939 -0.4527  1.7725
  835MPD2     C12272   2.975   1.043  10.978  0.1802 -0.0346 -0.1987
  835MPD2    C112273   2.904   0.932  11.004  0.0141  0.0631  0.6808
  835MPD2    C212274   2.976   0.827  11.055 -0.5149  0.0783 -0.1780
  835MPD2    C312275   3.108   0.840  11.101  0.7808 -0.3183  0.7928
  835MPD2    C412276   3.169   0.961  11.088  0.5104 -0.8451 -0.3958
  835MPD2    C512277   3.108   1.063  11.023  0.0609  0.0679  0.0991
  835MPD2     H12278   2.949   0.723  11.039  1.9394 -0.1325 -3.1961
  835MPD2    H112279   3.272   0.978  11.117 -0.7689  0.3661  3.3607
  835MPD2    H212280   2.930   1.131  10.933  0.6106  0.8325  1.0764
  835MPD2    H312281   3.152   1.162  11.032 -0.2405  0.0093  2.3383
  835MPD2     N12282   3.176   0.735  11.162 -0.2986 -0.2936  0.3420
  835MPD2    H512283   3.275   0.754  11.175 -1.1009  2.5506  2.3888
  835MPD2    N112284   2.763   0.919  10.973  0.1613 -0.0356 -0.0632
  835MPD2    H712285   2.720   0.828  10.986  0.2197 -0.2082 -1.0814
  836MPD2     C12286   3.289   0.488  11.964 -0.1547  0.3118 -0.6974
  836MPD2    C112287   3.200   0.434  11.879 -0.6603  0.0007  0.3944
  836MPD2    C212288   3.084   0.381  11.931 -0.9171  0.0663  0.2365
  836MPD2    C312289   3.059   0.384  12.069  0.0094 -0.2179  0.3036
  836MPD2    C412290   3.153   0.443  12.154 -0.0080  1.2878  0.1373
  836MPD2    C512291   3.264   0.491  12.101  0.6230  1.0756 -0.2298
  836MPD2     H12292   3.004   0.352  11.864 -0.9733  0.7192  0.0312
  836MPD2    H112293   3.147   0.458  12.262  1.2259  0.3503  0.3305
  836MPD2    H212294   3.377   0.537  11.923 -0.7447 -0.0200 -2.3810
  836MPD2    H312295   3.342   0.535  12.161 -0.4404  2.1491  0.3589
  836MPD2     N12296   2.936   0.342  12.126 -0.0805 -0.1360 -0.7469
  836MPD2    H512297   2.921   0.373  12.221  0.2715  0.2993 -0.8283
  836MPD2    N112298   3.235   0.446  11.745 -0.2978 -0.3412  0.6642
  836MPD2    H712299   3.327   0.482  11.720 -1.4652  1.0276 -1.6277
  837MPD2     C12300   1.730   0.565  10.176  0.2321  0.1957 -1.2349
  837MPD2    C112301   1.606   0.634  10.186  0.6019 -0.2632 -0.1379
  837MPD2    C212302   1.586   0.761  10.131 -0.1409  0.5273  0.2252
  837MPD2    C312303   1.694   0.831  10.071 -0.2503 -0.0155  0.0663
  837MPD2    C412304   1.813   0.757  10.063 -0.0026  0.3802 -0.6012
  837MPD2    C512305   1.828   0.630  10.107 -0.8390  0.2234 -0.2507
  837MPD2     H12306   1.487   0.802  10.139  0.0332  0.6448  1.7708
  837MPD2    H112307   1.896   0.786  10.000  0.6487  1.4149  0.7419
  837MPD2    H212308   1.751   0.465  10.214  0.1081  1.3178  1.8365
  837MPD2    H312309   1.926   0.583  10.100  0.4106  2.3495  3.2246
  837MPD2     N12310   1.677   0.956  10.011  0.1128  0.0888 -0.3135
  837MPD2    H512311   1.587   1.001  10.026 -0.2505 -1.2860  1.6378
  837MPD2    N112312   1.490   0.567  10.228 -0.1376 -0.2697  0.0470
  837MPD2    H712313   1.403   0.619  10.235  0.0813  0.1600 -0.4674
  838MPD2     C12314   4.155   3.435  11.402 -0.1055 -0.1664  0.6592
  838MPD2    C112315   4.136   3.464  11.537 -0.4587  0.1090 -0.1180
  838MPD2    C212316   4.049   3.380  11.605  0.3719  0.3888  0.0234
  838MPD2    C312317   3.979   3.277  11.545 -0.4263  0.0094  0.5435
  838MPD2    C412318   4.011   3.245  11.416 -0.3957 -0.0943  0.1032
  838MPD2    C512319   4.091   3.326  11.342 -0.4427  0.1415  0.7307
  838MPD2     H12320   4.042   3.401  11.712 -2.7825  2.0816 -0.4977
  838MPD2    H112321   3.958   3.172  11.357 -0.2357  0.6033 -0.9096
  838MPD2    H212322   4.216   3.505  11.347 -0.8928 -2.5617 -3.2959
  838MPD2    H312323   4.115   3.298  11.241  1.2244  2.0001  0.6334
  838MPD2     N12324   3.895   3.198  11.624 -0.2042 -0.3688 -0.6778
  838MPD2    H512325   3.920   3.216  11.721 -1.9588 -0.0021 -0.3044
  838MPD2    N112326   4.191   3.575  11.605 -0.6522  0.0876 -0.2438
  838MPD2    H712327   4.148   3.609  11.691 -1.3465 -1.5847  0.0608
  839MPD2     C12328   4.111   2.840  11.624 -0.2417  0.8021 -0.3881
  839MPD2    C112329   4.136   2.897  11.501  0.1895  0.5615  0.1666
  839MPD2    C212330   4.234   2.993  11.483 -0.2138  0.3138  0.1833
  839MPD2    C312331   4.300   3.046  11.596 -0.0656  0.1900 -0.8896
  839MPD2    C412332   4.256   3.007  11.720 -0.1070 -0.0720 -0.1304
  839MPD2    C512333   4.169   2.897  11.736  0.3350 -0.1748 -0.2835
  839MPD2     H12334   4.247   3.034  11.383 -0.0864 -0.2474 -0.0300
  839MPD2    H112335   4.280   3.053  11.815  0.7995  0.6683 -0.7198
  839MPD2    H212336   4.046   2.755  11.642  4.7748 -3.6116 -2.9036
  839MPD2    H312337   4.140   2.869  11.836 -1.8963 -1.9347 -1.4428
  839MPD2     N12338   4.398   3.152  11.591 -0.3661  0.1667  0.5618
  839MPD2    H512339   4.428   3.192  11.679  0.3236 -1.3628  1.0239
  839MPD2    N112340   4.051   2.860  11.390 -0.3275  0.5794  0.0823
  839MPD2    H712341   4.069   2.904  11.300 -0.9448  0.7443  0.0401
  840MPD2     C12342   0.063   1.255   9.908  0.3870  0.0264 -0.1572
  840MPD2    C112343   0.055   1.177  10.017 -0.4943  0.0474 -0.0168
  840MPD2    C212344   0.135   1.214  10.132 -0.4972 -0.7371  0.4020
  840MPD2    C312345   0.197   1.338  10.139  0.0948 -0.0602 -0.8710
  840MPD2    C412346   0.209   1.408  10.020  0.4773 -0.0968 -0.4107
  840MPD2    C512347   0.149   1.361   9.914  0.4101 -0.3694  0.1333
  840MPD2     H12348   0.129   1.152  10.220 -0.6268 -0.4788  0.5762
  840MPD2    H112349   0.260   1.504  10.015 -0.0600  0.0629 -2.4483
  840MPD2    H212350   0.002   1.233   9.821 -1.9532 -0.4256  1.5959
  840MPD2    H312351   0.151   1.416   9.820  0.5203  0.9273  0.9066
  840MPD2     N12352   0.275   1.387  10.249  0.1031 -0.4048 -0.6313
  840MPD2    H512353   0.328   1.474  10.244  1.8940 -1.6504 -3.3228
  840MPD2    N112354   4.693   1.063  10.003  0.2968  0.6430  0.2653
  840MPD2    H712355   4.638   1.052   9.919  0.0913 -0.2482  0.5107
  841MPD2     C12356   4.089   0.572  14.897  0.4083  0.5653  0.0627
  841MPD2    C112357   4.025   0.621  14.786  0.0801 -0.0915  0.3401
  841MPD2    C212358   4.033   0.757  14.753 -0.0765 -0.0450  0.0853
  841MPD2    C312359   4.089   0.847  14.846 -0.2460  0.9871 -0.3881
  841MPD2    C412360   4.137   0.798  14.966 -0.8896 -0.8510  0.2253
  841MPD2    C512361   4.139   0.660  14.983 -0.4759  0.0430  0.5285
  841MPD2     H12362   3.988   0.794  14.661  1.9375  2.6178  0.1632
  841MPD2    H112363   4.174   0.866  15.042 -1.3860 -1.5154  1.0598
  841MPD2    H212364   4.101   0.467  14.922  0.4533  0.2296 -1.3670
  841MPD2    H312365   4.190   0.628  15.073 -2.7539 -1.3967  1.2998
  841MPD2     N12366   4.100   0.988  14.812  0.1772 -0.2216  0.0296
  841MPD2    H512367   4.087   1.015  14.714 -0.0720 -0.7525 -0.0823
  841MPD2    N112368   3.958   0.537  14.688 -0.5249  0.0487  0.5464
  841MPD2    H712369   3.913   0.576  14.605 -0.4993 -3.2988 -1.0373
  842MPD2     C12370   4.554   1.530  16.537  0.1790 -0.1439  0.2043
  842MPD2    C112371   4.472   1.424  16.570  0.6373  0.3715 -0.1489
  842MPD2    C212372   4.456   1.388  16.704 -0.3499 -0.0464 -0.1095
  842MPD2    C312373   4.538   1.451  16.795 -0.3048 -0.7293  0.0593
  842MPD2    C412374   4.610   1.561  16.764  0.1375 -0.0158  0.2177
  842MPD2    C512375   4.620   1.598  16.633 -0.9861 -0.4313 -0.2622
  842MPD2     H12376   4.408   1.293  16.723 -0.7958  0.3102  0.4996
  842MPD2    H112377   4.670   1.614  16.837 -0.1363  0.6243 -0.0227
  842MPD2    H212378   4.566   1.558  16.433 -1.2846 -4.2363 -1.0670
  842MPD2    H312379   4.674   1.691  16.617 -1.2752 -0.6005 -2.2147
  842MPD2     N12380   4.533   1.427  16.934  0.3031  0.4110  0.6526
  842MPD2    H512381   4.592   1.492  16.984  0.9038 -0.0578  0.5465
  842MPD2    N112382   4.392   1.381  16.465 -0.0208 -0.0723  0.2362
  842MPD2    H712383   4.408   1.428  16.376 -0.5077  0.4151  0.4032
  843MPD2     C12384   1.518   1.827   0.399 -0.2280 -0.2353  0.4341
  843MPD2    C112385   1.526   1.720   0.307  0.0844 -0.7045 -0.2141
  843MPD2    C212386   1.624   1.724   0.212 -0.2688 -0.0241 -0.5013
  843MPD2    C312387   1.708   1.836   0.195 -0.5945 -0.2750 -0.7895
  843MPD2    C412388   1.697   1.940   0.285 -1.2061 -0.2390 -0.2331
  843MPD2    C512389   1.602   1.930   0.387  0.3072  0.1709  0.2626
  843MPD2     H12390   1.640   1.642   0.143 -2.3098 -1.4182  0.6751
  843MPD2    H112391   1.764   2.024   0.289 -2.9190  1.1544 -0.5514
  843MPD2    H212392   1.441   1.831   0.476 -1.1016  0.1421 -0.4570
  843MPD2    H312393   1.580   2.011   0.455  0.9812  0.9047 -0.3847
  843MPD2     N12394   1.823   1.838   0.112  0.1921 -0.2142  0.1140
  843MPD2    H512395   1.885   1.918   0.107  0.4607 -0.5021 -1.0727
  843MPD2    N112396   1.438   1.617   0.330  0.5171  0.0833  0.0176
  843MPD2    H712397   1.389   1.618   0.418 -1.5009  2.1814 -1.1329
  844MPD2     C12398   0.540   1.286  16.457  0.5157 -0.5884 -0.0574
  844MPD2    C112399   0.638   1.196  16.500  0.2427  0.2267  0.3599
  844MPD2    C212400   0.724   1.245  16.605  0.3744 -0.5988 -0.6921
  844MPD2    C312401   0.719   1.372  16.658  0.5568 -0.3898 -0.4829
  844MPD2    C412402   0.628   1.454  16.606 -0.3226  0.5214 -0.4790
  844MPD2    C512403   0.545   1.415  16.504 -0.0365  0.1717 -0.5578
  844MPD2     H12404   0.795   1.176  16.649 -1.6766 -0.0486  3.5012
  844MPD2    H112405   0.621   1.559  16.635  0.0970  0.6914 -0.9854
  844MPD2    H212406   0.474   1.272  16.372 -0.2775 -0.3734  0.5218
  844MPD2    H312407   0.483   1.492  16.459 -1.2318  0.0097  0.8048
  844MPD2     N12408   0.809   1.415  16.759 -1.0754 -0.1171  0.0507
  844MPD2    H512409   0.876   1.344  16.784  0.1842  1.0332 -0.0289
  844MPD2    N112410   0.653   1.066  16.449 -0.4546 -0.0252  0.4944
  844MPD2    H712411   0.731   1.012  16.485  1.1163  1.1994 -1.0872
  845MPD2     C12412   1.289   2.262  16.872  0.1422  0.2700 -0.0945
  845MPD2    C112413   1.171   2.239  16.932  1.0464 -0.4099  0.0715
  845MPD2    C212414   1.128   2.107  16.966  0.5223 -0.1944 -0.7735
  845MPD2    C312415   1.216   2.002  16.945 -0.7234 -0.6747 -0.2056
  845MPD2    C412416   1.328   2.020  16.885 -0.8208 -0.0702  0.0339
  845MPD2    C512417   1.365   2.148  16.849  0.0450  0.9068  0.3684
  845MPD2     H12418   1.029   2.097  17.009  0.9063  0.6654  0.3105
  845MPD2    H112419   1.397   1.937  16.872  0.3672  1.0697 -0.9490
  845MPD2    H212420   1.322   2.362  16.848 -0.4958  0.6183  0.5021
  845MPD2    H312421   1.468   2.153  16.815  0.0519 -1.6374  0.0162
  845MPD2     N12422   1.169   1.870  16.973 -0.0362 -0.3301 -0.0275
  845MPD2    H512423   1.073   1.858  17.002 -0.4319  0.6861 -0.9063
  845MPD2    N112424   1.081   2.347  16.961 -0.5323  0.4749 -0.4267
  845MPD2    H712425   1.103   2.436  16.917 -0.2065 -0.5525 -2.3514
  846MPD2     C12426   2.418   2.262  13.739  0.2554  0.1833  0.0953
  846MPD2    C112427   2.350   2.383  13.751  0.5590  0.6065 -0.2088
  846MPD2    C212428   2.281   2.410  13.871 -0.0620 -0.9808  0.1180
  846MPD2    C312429   2.281   2.322  13.977  0.3884 -0.0413  0.0414
  846MPD2    C412430   2.350   2.201  13.957  0.1866 -0.2278  0.5947
  846MPD2    C512431   2.414   2.173  13.840 -0.2197 -0.3496  0.9095
  846MPD2     H12432   2.228   2.504  13.880  1.0344 -0.1916 -1.5975
  846MPD2    H112433   2.359   2.123  14.031  1.3855 -2.4815 -1.9445
  846MPD2    H212434   2.476   2.236  13.651  1.3815  1.6332  0.4244
  846MPD2    H312435   2.466   2.078  13.833  1.3005  0.6045 -0.7508
  846MPD2     N12436   2.218   2.345  14.099 -0.1139  0.0721  0.2296
  846MPD2    H512437   2.178   2.438  14.105 -0.5212 -0.0924  0.0603
  846MPD2    N112438   2.362   2.489  13.656 -0.2091 -0.2569 -0.3830
  846MPD2    H712439   2.335   2.577  13.698 -0.1670 -1.5925  2.4203
  847MPD2     C12440   2.252   3.306  14.511  0.0421  0.6179 -0.2369
  847MPD2    C112441   2.376   3.333  14.461 -0.2676 -0.5419 -0.2918
  847MPD2    C212442   2.475   3.239  14.475 -0.5734 -0.1302 -0.0644
  847MPD2    C312443   2.450   3.111  14.524  0.1455 -0.2416 -0.1046
  847MPD2    C412444   2.318   3.081  14.564 -0.9219  0.2961 -0.7377
  847MPD2    C512445   2.224   3.178  14.553 -0.0605  0.2454 -0.2095
  847MPD2     H12446   2.580   3.254  14.452 -0.9706  1.3788 -0.9344
  847MPD2    H112447   2.287   2.983  14.597 -1.8154  0.2872 -1.6210
  847MPD2    H212448   2.168   3.373  14.505 -1.0936 -0.9399 -1.9354
  847MPD2    H312449   2.130   3.174  14.606  1.1773  3.7512  2.3034
  847MPD2     N12450   2.563   3.019  14.528 -0.1600  0.2932  0.3682
  847MPD2    H512451   2.646   3.043  14.474  0.9429 -2.5671  0.7990
  847MPD2    N112452   2.414   3.462  14.404  0.0836 -0.4781  0.2534
  847MPD2    H712453   2.510   3.482  14.376 -0.5594 -0.0163 -1.6118
  848MPD2     C12454   0.247   1.421  16.296  0.4782 -0.3032 -0.5678
  848MPD2    C112455   0.243   1.528  16.382 -0.0964  0.1230 -0.3458
  848MPD2    C212456   0.283   1.655  16.336  0.1983 -0.5747  0.3936
  848MPD2    C312457   0.309   1.678  16.204  1.2568  0.2390  0.0140
  848MPD2    C412458   0.304   1.579  16.114 -0.1806  0.6599 -0.5186
  848MPD2    C512459   0.285   1.453  16.166  0.1535 -0.0076  0.2246
  848MPD2     H12460   0.302   1.737  16.404 -1.2245  0.1549 -0.0988
  848MPD2    H112461   0.348   1.592  16.016  2.0557 -0.6368  0.3212
  848MPD2    H212462   0.231   1.319  16.331 -0.1306  0.4334  1.2737
  848MPD2    H312463   0.289   1.369  16.098 -0.9180 -1.0438  1.4382
  848MPD2     N12464   0.317   1.813  16.157 -0.8494 -0.0314 -0.4177
  848MPD2    H512465   0.319   1.832  16.057  2.4931  0.4085 -0.2827
  848MPD2    N112466   0.215   1.510  16.522 -0.2747 -0.0740 -0.2741
  848MPD2    H712467   0.215   1.592  16.582 -2.1975 -0.4331  0.2346
  849MPD2     C12468   4.644   1.874  13.833  0.1178 -0.2376 -0.1462
  849MPD2    C112469   4.689   1.744  13.845 -0.1164  0.5737 -0.5085
  849MPD2    C212470   4.652   1.662  13.947 -0.1781 -0.1095 -0.0904
  849MPD2    C312471   4.548   1.696  14.028 -0.1143 -0.3004  0.0413
  849MPD2    C412472   4.497   1.825  14.021  0.6790  0.4918 -0.2290
  849MPD2    C512473   4.547   1.907  13.921  0.5685 -0.6985 -0.6939
  849MPD2     H12474   4.694   1.562  13.951  2.2223  0.9639  1.4320
  849MPD2    H112475   4.409   1.863  14.071 -0.1689 -1.4017 -0.2973
  849MPD2    H212476   4.684   1.942  13.758 -1.6676 -1.0739 -1.8395
  849MPD2    H312477   4.518   2.011  13.911  1.0264 -0.3579  1.5474
  849MPD2     N12478   4.488   1.599  14.114 -0.0950  1.0061  0.6498
  849MPD2    H512479   4.544   1.515  14.109  0.8531  1.5218  2.5217
  849MPD2    N112480   0.074   1.701  13.764  0.5330 -0.2133  0.2419
  849MPD2    H712481   0.101   1.605  13.783  1.0308 -0.0314  0.4558
  850MPD2     C12482   2.239   3.771  14.814  0.3240  0.0283 -0.2085
  850MPD2    C112483   2.236   3.891  14.884 -0.5144  0.6593  0.3549
  850MPD2    C212484   2.352   3.965  14.905  0.5504 -0.1605 -0.8283
  850MPD2    C312485   2.478   3.912  14.886 -0.5208 -0.0429  0.4897
  850MPD2    C412486   2.473   3.794  14.810 -0.0955  0.5094 -0.0688
  850MPD2    C512487   2.358   3.721  14.777  0.1734 -0.0560  0.4678
  850MPD2     H12488   2.345   4.063  14.950 -0.3251 -1.9019  2.8314
  850MPD2    H112489   2.569   3.751  14.782 -0.5215 -0.1745 -0.4881
  850MPD2    H212490   2.155   3.707  14.791  1.0042 -1.5166  1.5888
  850MPD2    H312491   2.369   3.625  14.727  1.2791 -1.0626  2.6489
  850MPD2     N12492   2.595   3.959  14.945 -0.0909 -0.1555 -0.3728
  850MPD2    H512493   2.662   3.890  14.911  0.1784 -0.9126  1.6896
  850MPD2    N112494   2.103   3.930  14.921  0.1542 -0.6795 -0.6751
  850MPD2    H712495   2.029   3.882  14.871 -2.0032 -0.2859  2.1095
  851MPD2     C12496   2.615   3.982  15.617 -0.7737 -0.0985 -0.0540
  851MPD2    C112497   2.556   3.916  15.507  0.1066 -0.1585  0.1248
  851MPD2    C212498   2.622   3.800  15.454 -0.2440 -0.5360  0.3844
  851MPD2    C312499   2.733   3.743  15.521 -0.0663  0.1427 -0.4210
  851MPD2    C412500   2.779   3.801  15.637  0.2823  0.1752 -0.2538
  851MPD2    C512501   2.726   3.926  15.682 -0.4547  0.5074 -0.0993
  851MPD2     H12502   2.595   3.758  15.358 -1.6434  0.8344  0.1740
  851MPD2    H112503   2.857   3.759  15.699  0.7469  0.8222 -0.4054
  851MPD2    H212504   2.583   4.081  15.649 -2.9518  0.0690 -2.7777
  851MPD2    H312505   2.754   3.954  15.783  0.5640 -0.6533 -0.0553
  851MPD2     N12506   2.781   3.620  15.478 -0.5045 -0.2538  0.3903
  851MPD2    H512507   2.728   3.577  15.403 -0.5516 -0.6394  0.6435
  851MPD2    N112508   2.439   3.970  15.450 -0.5161 -0.1687  0.3632
  851MPD2    H712509   2.415   4.065  15.479 -1.6596 -0.2543 -0.2941
  852MPD2     C12510   2.597   2.443  10.338 -0.1233 -0.2340  0.5972
  852MPD2    C112511   2.611   2.568  10.392  0.2200 -0.6272 -0.6195
  852MPD2    C212512   2.673   2.668  10.315 -0.1557  0.1120  0.6402
  852MPD2    C312513   2.724   2.647  10.188 -0.8809  0.3760 -0.4549
  852MPD2    C412514   2.704   2.520  10.138 -0.1243 -0.1283 -0.4971
  852MPD2    C512515   2.651   2.417  10.215 -0.0138  0.0437 -0.0002
  852MPD2     H12516   2.697   2.761  10.367 -2.4596 -0.9705  3.6723
  852MPD2    H112517   2.733   2.500  10.035 -1.5731 -1.0854 -0.7112
  852MPD2    H212518   2.536   2.363  10.377 -0.1624 -0.4849  0.0181
  852MPD2    H312519   2.625   2.321  10.172 -0.7420 -0.0938  0.7416
  852MPD2     N12520   2.806   2.739  10.122 -0.3858 -0.3735  0.4292
  852MPD2    H512521   2.816   2.826  10.173  0.7315  0.0575 -0.5065
  852MPD2    N112522   2.562   2.604  10.519 -0.4574  0.4107  0.3636
  852MPD2    H712523   2.578   2.699  10.551  0.1648  1.1373 -2.1358
  853MPD2     C12524   4.095   2.050  12.071  0.3403  0.1287  0.3995
  853MPD2    C112525   3.970   2.084  12.031  0.1416  0.1034 -0.1980
  853MPD2    C212526   3.935   2.065  11.896  0.4558 -0.8385  0.0169
  853MPD2    C312527   4.031   2.024  11.802 -0.1137  0.5664  0.8617
  853MPD2    C412528   4.156   1.994  11.843  0.7383 -0.2958 -0.2533
  853MPD2    C512529   4.189   2.011  11.974 -0.2018 -0.0511 -0.3462
  853MPD2     H12530   3.831   2.082  11.872  0.4340 -2.5544 -1.1534
  853MPD2    H112531   4.241   1.975  11.779 -1.5148 -2.7142 -2.5075
  853MPD2    H212532   4.128   2.067  12.173 -1.6268  1.2720  0.8288
  853MPD2    H312533   4.294   2.000  11.997 -0.5392 -0.1592  1.1008
  853MPD2     N12534   4.014   2.006  11.661  0.1309  0.1843 -0.0604
  853MPD2    H512535   4.099   1.995  11.606  0.3610  0.1056  0.3027
  853MPD2    N112536   3.879   2.131  12.127 -0.0811 -0.4259 -0.1449
  853MPD2    H712537   3.914   2.145  12.221 -0.6700 -2.5825  0.4062
  854MPD2     C12538   0.497   2.264  12.514 -0.8239  0.1239 -0.0095
  854MPD2    C112539   0.499   2.338  12.632  0.7754 -0.3335 -0.0515
  854MPD2    C212540   0.547   2.276  12.745 -0.0334 -0.0907  0.5574
  854MPD2    C312541   0.581   2.139  12.740  0.4610  0.0417  0.5415
  854MPD2    C412542   0.591   2.076  12.620 -0.2394  0.5166  0.1742
  854MPD2    C512543   0.541   2.136  12.505  0.3256  0.5944 -0.3489
  854MPD2     H12544   0.564   2.329  12.838  0.2096 -0.0785  0.5057
  854MPD2    H112545   0.637   1.978  12.618  0.9456  1.0921 -1.5681
  854MPD2    H212546   0.475   2.308  12.417 -2.2804 -0.3609  0.1045
  854MPD2    H312547   0.547   2.080  12.412  0.7632  0.8093 -0.4532
  854MPD2     N12548   0.618   2.061  12.852 -0.1365  0.3464 -0.8705
  854MPD2    H512549   0.665   1.975  12.826  2.0692  0.9114  1.2168
  854MPD2    N112550   0.439   2.466  12.630  0.5438 -0.3360  0.1237
  854MPD2    H712551   0.402   2.494  12.539  0.9416 -1.1274 -0.2778
  855MPD2     C12552   0.598   1.839  13.843 -0.1177  0.1112 -0.3753
  855MPD2    C112553   0.696   1.768  13.770  0.3384 -0.1887 -0.1383
  855MPD2    C212554   0.737   1.807  13.645 -0.2971  0.6881  0.4308
  855MPD2    C312555   0.693   1.923  13.594  0.1633  0.7313 -0.3732
  855MPD2    C412556   0.592   1.995  13.664 -0.1481 -0.5047  1.3774
  855MPD2    C512557   0.544   1.952  13.790  0.5857 -0.0129  0.1290
  855MPD2     H12558   0.798   1.740  13.584  0.7923  1.3461  0.8014
  855MPD2    H112559   0.536   2.077  13.620  1.0458  0.1908  1.1689
  855MPD2    H212560   0.555   1.806  13.937 -1.3255  0.2265 -0.8859
  855MPD2    H312561   0.480   2.018  13.848  0.6534  1.0415 -0.9834
  855MPD2     N12562   0.715   1.970  13.468  0.0599 -0.1707  0.1353
  855MPD2    H512563   0.642   2.032  13.435  0.8207  1.6606  1.8751
  855MPD2    N112564   0.734   1.640  13.813 -0.0574 -0.4715  0.3822
  855MPD2    H712565   0.777   1.577  13.746  1.8724  2.1278 -0.8043
  856MPD2     C12566   3.458   2.710  13.572 -0.9816 -0.2200 -0.1178
  856MPD2    C112567   3.545   2.778  13.646 -0.2210  0.9054  0.3257
  856MPD2    C212568   3.506   2.895  13.705  0.6351  0.0270  0.3931
  856MPD2    C312569   3.381   2.956  13.686 -0.5730 -0.2142  0.1203
  856MPD2    C412570   3.299   2.886  13.601 -0.2561 -0.0850  0.0963
  856MPD2    C512571   3.334   2.764  13.548  0.6890  0.3765  0.0124
  856MPD2     H12572   3.575   2.930  13.781  0.0714  0.1946  0.8248
  856MPD2    H112573   3.200   2.923  13.575  1.3846  2.6803 -2.1374
  856MPD2    H212574   3.474   2.618  13.517 -1.3035 -0.1006 -0.4116
  856MPD2    H312575   3.262   2.719  13.481  2.4939 -1.6101 -0.5844
  856MPD2     N12576   3.330   3.066  13.750 -0.3387  0.1128  0.7187
  856MPD2    H512577   3.232   3.086  13.734 -0.0867  0.6877 -0.1045
  856MPD2    N112578   3.679   2.739  13.655  0.7527  0.2462 -0.6527
  856MPD2    H712579   3.739   2.794  13.715  1.9560 -2.5312  0.6890
  857MPD2     C12580   4.667   0.602  12.694 -1.0213  0.3019  0.0709
  857MPD2    C112581   0.044   0.584  12.602  0.0494 -0.1125 -0.2873
  857MPD2    C212582   0.123   0.692  12.567 -0.3307  0.5696 -0.4854
  857MPD2    C312583   0.130   0.804  12.646  0.5405 -0.4229  0.2756
  857MPD2    C412584   0.031   0.817  12.744 -0.8344  0.1800  0.1886
  857MPD2    C512585   4.661   0.719  12.761  0.5846  0.2600  0.2459
  857MPD2     H12586   0.201   0.697  12.491 -1.3548  0.9830 -1.5219
  857MPD2    H112587   0.023   0.914  12.792 -0.3073 -0.5478  1.7332
  857MPD2    H212588   4.611   0.515  12.725 -1.2611  0.5216  0.2498
  857MPD2    H312589   4.582   0.737  12.833  0.4084 -1.7905  0.5594
  857MPD2     N12590   0.238   0.890  12.622 -0.3718  0.5813  0.0928
  857MPD2    H512591   0.310   0.873  12.552 -0.1945  0.3486  0.3316
  857MPD2    N112592   0.061   0.457  12.548  0.1207 -0.2910  0.1860
  857MPD2    H712593   4.709   0.392  12.572 -1.9490  1.0679 -2.5711
  858MPD2     C12594   0.698   3.643  17.020 -0.1914  1.0881 -0.7670
  858MPD2    C112595   0.831   3.612  17.043 -0.0909 -0.3191 -0.1532
  858MPD2    C212596   0.871   3.623  17.174 -0.3825  0.1965 -0.1350
  858MPD2    C312597   0.787   3.651  17.278  0.2475  0.3886 -0.4135
  858MPD2    C412598   0.660   3.688  17.244  0.0012 -0.5556 -0.0696
  858MPD2    C512599   0.614   3.688  17.113 -0.3632  0.3095 -0.3366
  858MPD2     H12600   0.970   3.584  17.195 -0.4845  0.6497  1.2496
  858MPD2    H112601   0.585   3.709  17.320  0.7373 -1.9895  1.0552
  858MPD2    H212602   0.660   3.630  16.919 -0.9669  0.7120 -0.4273
  858MPD2    H312603   0.516   3.725  17.087 -0.1690  0.4351 -0.8990
  858MPD2     N12604   0.827   3.668  17.413 -0.1792 -0.4356  0.7901
  858MPD2    H512605   0.757   3.679  17.485  0.1502 -2.5418  1.4294
  858MPD2    N112606   0.905   3.558  16.939 -0.4683 -0.0144  0.5096
  858MPD2    H712607   0.856   3.546  16.851 -0.5584 -1.5368  0.7609
  859MPD2     C12608   0.103   1.029  15.208 -0.3654 -0.1871  0.0745
  859MPD2    C112609   4.711   1.085  15.154 -0.2599 -0.7047 -0.3311
  859MPD2    C212610   4.626   1.024  15.061 -0.2268 -0.2789 -0.1574
  859MPD2    C312611   4.665   0.895  15.020 -0.0278  0.4453 -0.7951
  859MPD2    C412612   0.046   0.832  15.085  0.4240 -0.1693 -0.9790
  859MPD2    C512613   0.124   0.897  15.178 -0.1903 -0.7962  0.6239
  859MPD2     H12614   4.537   1.070  15.020 -1.0183 -0.1841  1.6543
  859MPD2    H112615   0.066   0.725  15.077  3.5970  0.4055 -0.8531
  859MPD2    H212616   0.160   1.085  15.281  1.6707 -3.4125  0.9391
  859MPD2    H312617   0.190   0.850  15.249  0.1630 -1.7104 -0.2991
  859MPD2     N12618   4.607   0.818  14.912  0.4278  0.2492 -0.4579
  859MPD2    H512619   4.642   0.723  14.918 -0.0447  0.1775  1.3998
  859MPD2    N112620   4.685   1.217  15.186  0.2621  0.1008 -0.2284
  859MPD2    H712621   0.032   1.277  15.229  0.4494 -1.3072  1.4830
  860MPD2     C12622   1.366   1.276  11.580  0.2632 -1.2438 -0.0167
  860MPD2    C112623   1.346   1.251  11.713 -0.7361 -0.2446  0.2635
  860MPD2    C212624   1.308   1.356  11.801 -0.2183  0.1009  0.2972
  860MPD2    C312625   1.300   1.479  11.741 -0.1918 -0.1063  0.3910
  860MPD2    C412626   1.311   1.507  11.608 -0.0085  0.3766  1.0296
  860MPD2    C512627   1.340   1.397  11.528  0.1132  0.2289  0.0625
  860MPD2     H12628   1.274   1.340  11.903  0.3684 -0.6854  0.3725
  860MPD2    H112629   1.296   1.607  11.566  0.4636 -0.7598 -1.8813
  860MPD2    H212630   1.394   1.193  11.516 -0.8503  0.5362 -2.8745
  860MPD2    H312631   1.342   1.408  11.420  0.0359 -0.4668 -0.0059
  860MPD2     N12632   1.284   1.578  11.838 -0.2846  0.1784  0.3756
  860MPD2    H512633   1.278   1.545  11.934 -2.5347  0.4397  0.3062
  860MPD2    N112634   1.373   1.126  11.774  0.5093  0.1083 -0.2765
  860MPD2    H712635   1.372   1.131  11.875 -0.2126 -3.5432 -0.0923
  861MPD2     C12636   1.036   0.303  11.010  0.3707  0.1264  0.3859
  861MPD2    C112637   0.901   0.282  11.023 -0.0066 -1.1533  0.3845
  861MPD2    C212638   0.809   0.342  10.941 -0.1227  0.1233 -0.1738
  861MPD2    C312639   0.849   0.441  10.847 -0.1594 -1.0195 -0.3315
  861MPD2    C412640   0.984   0.464  10.835  0.0354 -0.7563  0.1090
  861MPD2    C512641   1.077   0.390  10.911  0.1313 -0.7704  0.2694
  861MPD2     H12642   0.705   0.315  10.956 -0.5522  1.1825 -1.2198
  861MPD2    H112643   1.031   0.539  10.772 -4.9710  1.0796 -1.4453
  861MPD2    H212644   1.108   0.251  11.072  0.4823 -2.0209 -1.5404
  861MPD2    H312645   1.181   0.420  10.900  0.4827 -1.0236  2.8362
  861MPD2     N12646   0.764   0.508  10.759 -0.2592  0.0060  0.3238
  861MPD2    H512647   0.808   0.581  10.704  0.3672  0.1838  1.0615
  861MPD2    N112648   0.844   0.203  11.131  0.0229 -0.1852 -0.0878
  861MPD2    H712649   0.742   0.203  11.133  0.0204 -0.2203 -0.2141
  862MPD2     C12650   0.748   0.464  10.213  0.3629 -0.1914  0.4443
  862MPD2    C112651   0.636   0.511  10.279  0.1797  0.2057 -0.3253
  862MPD2    C212652   0.564   0.429  10.362  0.0503 -0.3223  0.0108
  862MPD2    C312653   0.620   0.307  10.393  0.1453 -0.3615  0.0607
  862MPD2    C412654   0.734   0.259  10.329 -0.2506 -0.3790  0.2446
  862MPD2    C512655   0.785   0.335  10.233  0.2862  0.0815  0.7524
  862MPD2     H12656   0.470   0.465  10.402  1.7689  4.0213  0.0944
  862MPD2    H112657   0.774   0.159  10.340 -0.4660 -0.7635 -2.4333
  862MPD2    H212658   0.807   0.517  10.139  0.3584 -4.3312 -2.5962
  862MPD2    H312659   0.870   0.289  10.183  0.4844 -0.9073  2.0006
  862MPD2     N12660   0.569   0.217  10.491 -0.3864  0.1096 -0.7570
  862MPD2    H512661   0.621   0.135  10.519 -0.1447  0.0301 -1.4388
  862MPD2    N112662   0.612   0.648  10.252 -0.0320 -0.3172  1.1409
  862MPD2    H712663   0.654   0.689  10.169 -1.1974 -0.3410  0.5484
  863MPD2     C12664   3.966   3.237  16.648  0.0396  0.3606 -0.2907
  863MPD2    C112665   3.882   3.138  16.683 -0.7654 -0.4968  0.1102
  863MPD2    C212666   3.922   3.045  16.783  0.5894  0.2948 -0.1645
  863MPD2    C312667   4.045   3.064  16.843  0.3004  1.0240 -0.7728
  863MPD2    C412668   4.126   3.164  16.796 -0.9450 -0.7502  0.6193
  863MPD2    C512669   4.089   3.249  16.701  0.7056  0.9169 -0.1291
  863MPD2     H12670   3.863   2.958  16.806 -0.2173  0.9041  0.0419
  863MPD2    H112671   4.230   3.173  16.826 -1.0242 -1.7692  1.1888
  863MPD2    H212672   3.936   3.307  16.572 -2.2041 -2.0942 -1.6502
  863MPD2    H312673   4.154   3.324  16.658  2.0474 -0.1112  0.0801
  863MPD2     N12674   4.099   2.979  16.945  0.1097  0.1382 -0.0090
  863MPD2    H512675   4.193   3.003  16.976  1.0557 -0.9737 -2.0068
  863MPD2    N112676   3.747   3.136  16.633 -0.3973 -0.0115 -0.1368
  863MPD2    H712677   3.721   3.194  16.553  0.7413  1.3210  0.4498
  864MPD2     C12678   4.453   4.285  17.342  0.9310 -0.2073  0.3462
  864MPD2    C112679   4.481   4.203  17.230 -0.4974  0.1028 -0.0754
  864MPD2    C212680   4.515   4.261  17.107 -0.3586  0.3300 -0.1275
  864MPD2    C312681   4.526   4.399  17.095 -0.2116 -0.5909 -0.3635
  864MPD2    C412682   4.484   4.472  17.205  0.7625 -0.5854 -0.8661
  864MPD2    C512683   4.453   4.420  17.324 -0.0703 -0.6547  0.5749
  864MPD2     H12684   4.530   4.190  17.026 -0.4302  0.1696  0.0002
  864MPD2    H112685   4.483   4.579  17.188  2.2703 -0.5051 -0.4815
  864MPD2    H212686   4.436   4.239  17.438  0.0896  1.4064  0.9572
  864MPD2    H312687   4.434   4.491  17.403  1.6298 -0.5208  0.8699
  864MPD2     N12688   4.568   4.466  16.980 -0.6446  0.3012  0.0025
  864MPD2    H512689   4.561   4.566  16.970  0.0944  0.5509  1.8994
  864MPD2    N112690   4.474   4.062  17.251  0.0034  0.0044  0.2224
  864MPD2    H712691   4.465   4.034  17.348  2.1728 -2.1479 -0.1911
  865MPD2     C12692   4.631   4.588  16.083 -0.4137 -0.3251  0.4155
  865MPD2    C112693   4.631   4.520  16.204 -0.3778 -0.4494  1.0279
  865MPD2    C212694   4.567   4.568  16.316  0.3404 -0.1385  0.0333
  865MPD2    C312695   4.531   4.704  16.318  0.0727 -0.5138 -0.1640
  865MPD2    C412696   4.545   0.054  16.201  0.5865  0.2991  0.2206
  865MPD2    C512697   4.585   4.720  16.082 -0.2813  0.5116  0.5700
  865MPD2     H12698   4.557   4.508  16.406 -0.6285  0.0075  0.0218
  865MPD2    H112699   4.516   0.158  16.211 -2.0338 -0.4010 -0.1026
  865MPD2    H212700   4.674   4.535  15.999  0.0339  0.0414  0.4125
  865MPD2    H312701   4.586   0.062  15.995  1.0449  0.8341  0.8230
  865MPD2     N12702   4.487   0.055  16.433  0.3694 -0.5548 -0.0318
  865MPD2    H512703   4.444   0.145  16.412  2.2906  0.1155 -1.1331
  865MPD2    N112704   4.693   4.391  16.205 -0.2047  0.5585  0.6028
  865MPD2    H712705   0.011   4.356  16.118  1.7751  1.5838  1.1164
  866MPD2     C12706   1.363   0.214  11.415 -0.2858  0.6023  0.2434
  866MPD2    C112707   1.370   0.274  11.291 -0.1131  0.5509  0.2541
  866MPD2    C212708   1.279   0.374  11.262  0.2741  0.3216  0.1721
  866MPD2    C312709   1.178   0.416  11.351 -0.8653 -0.8040 -0.6499
  866MPD2    C412710   1.183   0.362  11.480 -0.5159 -0.3145 -0.8973
  866MPD2    C512711   1.285   0.273  11.510 -0.5237  0.1737  0.0525
  866MPD2     H12712   1.269   0.399  11.157 -0.9753  0.4469  0.3226
  866MPD2    H112713   1.103   0.389  11.548 -0.3795 -0.5813 -0.6322
  866MPD2    H212714   1.438   0.139  11.437 -0.9697 -0.1773 -0.0911
  866MPD2    H312715   1.277   0.233  11.610 -0.7313  0.9452  0.3474
  866MPD2     N12716   1.067   0.502  11.322 -0.0762  0.1713  0.5377
  866MPD2    H512717   0.990   0.503  11.389  1.0814  2.4351  1.8062
  866MPD2    N112718   1.469   0.227  11.200 -0.8838 -0.2836  0.3670
  866MPD2    H712719   1.518   0.141  11.225 -0.7420 -0.0487  0.8863
  867MPD2     C12720   3.005   4.249  16.925 -0.1900 -0.2069  0.3439
  867MPD2    C112721   3.134   4.216  16.927 -0.1547 -0.0903  0.1156
  867MPD2    C212722   3.214   4.312  16.982  0.2828  0.8291  0.2210
  867MPD2    C312723   3.180   4.440  17.017  0.1488  0.0366 -0.1778
  867MPD2    C412724   3.053   4.467  16.988  0.1438 -0.9566 -0.4896
  867MPD2    C512725   2.963   4.375  16.949  0.4283  0.2468 -0.0862
  867MPD2     H12726   3.309   4.269  17.008 -0.2196 -2.1704 -2.8571
  867MPD2    H112727   3.013   4.566  17.008  0.7840 -1.3673  2.8984
  867MPD2    H212728   2.931   4.171  16.910 -0.4082 -0.2912  1.8708
  867MPD2    H312729   2.859   4.406  16.955  0.5603  0.8451 -0.8307
  867MPD2     N12730   3.267   4.534  17.089 -0.0716 -0.5119  0.0459
  867MPD2    H512731   3.228   4.625  17.111 -0.3552 -0.1720 -1.8425
  867MPD2    N112732   3.172   4.091  16.896 -0.3475  0.5806 -0.8202
  867MPD2    H712733   3.117   4.006  16.894 -0.0132  0.3515 -0.2616
  868MPD2     C12734   0.187   4.130  13.317  0.4671  0.3073 -0.3898
  868MPD2    C112735   0.262   4.068  13.407 -0.7223 -0.1379 -0.1314
  868MPD2    C212736   0.216   4.069  13.541  0.5464 -0.1049  0.1672
  868MPD2    C312737   0.090   4.124  13.574  0.3819  0.4522 -0.5048
  868MPD2    C412738   0.015   4.181  13.476  0.1791 -0.1894  0.4415
  868MPD2    C512739   0.065   4.194  13.350  0.6895  0.4343  0.2894
  868MPD2     H12740   0.287   4.028  13.612 -0.7207 -1.3862  0.6836
  868MPD2    H112741   4.644   4.234  13.485 -0.7727 -1.4577 -1.9649
  868MPD2    H212742   0.223   4.137  13.215  2.4989 -3.5238  0.0740
  868MPD2    H312743   0.007   4.246  13.274  1.3738  2.8456  1.3992
  868MPD2     N12744   0.045   4.127  13.709  0.3302 -0.6991 -0.4301
  868MPD2    H512745   0.096   4.066  13.771  0.2231  0.0942  0.4360
  868MPD2    N112746   0.374   3.996  13.365  0.5668 -0.4544 -0.0771
  868MPD2    H712747   0.387   3.988  13.265 -0.4237  2.1238 -0.4020
  869MPD2     C12748   0.901   0.797   1.753 -0.0642  0.0067 -1.0346
  869MPD2    C112749   1.015   0.850   1.810  0.4966 -0.1016 -0.7093
  869MPD2    C212750   1.076   0.957   1.747 -0.1369 -0.2575 -0.0976
  869MPD2    C312751   1.024   1.018   1.632 -0.0147  0.5795 -0.4202
  869MPD2    C412752   0.914   0.962   1.573 -0.1438  0.3560  0.1946
  869MPD2    C512753   0.857   0.849   1.632  0.1408  0.4120  0.5539
  869MPD2     H12754   1.142   1.023   1.801 -1.3380  1.3461 -0.5706
  869MPD2    H112755   0.864   0.996   1.484  1.3279  0.6303 -0.5202
  869MPD2    H212756   0.851   0.722   1.814 -2.6646  1.3125 -1.5637
  869MPD2    H312757   0.771   0.802   1.586  0.8631 -0.8217  0.4598
  869MPD2     N12758   1.096   1.114   1.563 -0.4853  0.2476  0.0698
  869MPD2    H512759   1.056   1.146   1.476 -1.3784 -0.8707  0.0661
  869MPD2    N112760   1.053   0.798   1.935  0.9267  0.3645 -0.0533
  869MPD2    H712761   0.994   0.729   1.981  1.3091 -0.1265 -0.2863
  870MPD2     C12762   0.444   4.509   1.826 -0.1382 -0.2952  0.5052
  870MPD2    C112763   0.536   4.588   1.759 -0.2236  0.0048  0.0156
  870MPD2    C212764   0.497   4.662   1.650 -0.2543  0.0999  0.3562
  870MPD2    C312765   0.368   4.652   1.597  0.7356 -0.1706  0.5801
  870MPD2    C412766   0.277   4.561   1.656 -0.6736  0.3006 -0.1173
  870MPD2    C512767   0.323   4.498   1.768  0.3038  0.5342  0.0557
  870MPD2     H12768   0.569   4.718   1.591  0.3350 -0.0918  0.8948
  870MPD2    H112769   0.172   4.540   1.639 -0.7513  1.2096 -0.7871
  870MPD2    H212770   0.470   4.454   1.916  1.7847 -1.6750 -0.9131
  870MPD2    H312771   0.259   4.427   1.819  1.1901 -0.8984 -0.8268
  870MPD2     N12772   0.333   0.008   1.482 -0.3125  0.3188 -0.4371
  870MPD2    H512773   0.412   0.059   1.442  0.8681 -0.3487  1.0295
  870MPD2    N112774   0.661   4.588   1.815 -0.1765 -0.3138  0.1041
  870MPD2    H712775   0.687   4.500   1.857 -0.3440 -0.5330 -0.2541
  871MPD2     C12776   2.303   4.132  16.396 -0.5249 -0.1124  0.8361
  871MPD2    C112777   2.309   4.087  16.525 -0.2160  0.1557 -0.4444
  871MPD2    C212778   2.366   3.959  16.545  1.1443 -0.6607  0.8206
  871MPD2    C312779   2.431   3.895  16.438 -0.0232  0.1184 -0.1326
  871MPD2    C412780   2.423   3.940  16.313 -0.8235  0.3801  0.0408
  871MPD2    C512781   2.358   4.063  16.297  0.4596 -0.2617 -0.6670
  871MPD2     H12782   2.374   3.918  16.645  1.5275  1.1342  1.5431
  871MPD2    H112783   2.480   3.898  16.230 -0.0616 -2.0878  1.8178
  871MPD2    H212784   2.262   4.229  16.370 -0.4905 -0.1866  0.5002
  871MPD2    H312785   2.359   4.112  16.201  0.1010 -0.0594 -0.5660
  871MPD2     N12786   2.508   3.783  16.468  0.4438  0.5419  0.0035
  871MPD2    H512787   2.506   3.744  16.562  0.5461 -0.1178 -0.2715
  871MPD2    N112788   2.275   4.171  16.632  0.3777  0.4736  0.0496
  871MPD2    H712789   2.240   4.265  16.615  0.2014  0.4151  0.0911
  872MPD2     C12790   2.695   2.469  14.043  0.7981 -0.7772 -0.1060
  872MPD2    C112791   2.780   2.371  14.007  0.5205  0.5131  0.4548
  872MPD2    C212792   2.760   2.250  14.066 -0.2636 -0.6155 -0.0139
  872MPD2    C312793   2.650   2.233  14.146 -0.5568  0.3874 -0.5005
  872MPD2    C412794   2.560   2.334  14.182 -0.9539  0.3187  0.6255
  872MPD2    C512795   2.580   2.449  14.117 -0.4182  0.0399  0.0822
  872MPD2     H12796   2.836   2.174  14.051 -0.0720 -0.2656 -0.8675
  872MPD2    H112797   2.478   2.329  14.252 -1.0667  0.4126  0.4977
  872MPD2    H212798   2.725   2.569  14.016 -0.9448 -0.1265  0.3392
  872MPD2    H312799   2.509   2.531  14.128  0.4121  0.6387  1.0233
  872MPD2     N12800   2.621   2.114  14.211 -0.0678 -0.0878 -0.0041
  872MPD2    H512801   2.531   2.108  14.256 -0.1210 -1.9912 -0.3188
  872MPD2    N112802   2.893   2.402  13.927 -0.5495 -0.0116  0.3594
  872MPD2    H712803   2.971   2.338  13.937 -1.1898 -1.0436 -1.3177
  873MPD2     C12804   1.207   1.980   1.712  0.3737  1.0175 -0.7705
  873MPD2    C112805   1.076   1.966   1.734 -0.0985  0.8041  0.2397
  873MPD2    C212806   1.021   1.845   1.770 -0.5652  0.8500  0.0038
  873MPD2    C312807   1.105   1.738   1.800 -0.1723  0.0579 -1.3943
  873MPD2    C412808   1.240   1.767   1.805 -0.3022  0.3374 -0.1043
  873MPD2    C512809   1.290   1.883   1.751 -0.0497  0.2333  0.3853
  873MPD2     H12810   0.917   1.824   1.790  0.3959 -0.6776  3.3302
  873MPD2    H112811   1.315   1.693   1.828  0.5669  0.7812 -1.5265
  873MPD2    H212812   1.256   2.073   1.683  1.6645  0.2934 -0.9407
  873MPD2    H312813   1.397   1.891   1.737  0.2169 -2.4275  0.9112
  873MPD2     N12814   1.052   1.611   1.832  0.8990 -0.0587 -0.0264
  873MPD2    H512815   1.116   1.537   1.859  0.1252 -1.0420 -0.8579
  873MPD2    N112816   0.985   2.069   1.709  0.0632 -0.3142 -0.8871
  873MPD2    H712817   1.027   2.154   1.672  0.0316 -0.3666 -1.0419
  874MPD2     C12818   4.286   1.763  15.851 -0.1040 -0.0089  0.3983
  874MPD2    C112819   4.355   1.704  15.955  0.0684 -0.6054  0.5389
  874MPD2    C212820   4.469   1.770  16.003  0.2894 -0.0946  0.1821
  874MPD2    C312821   4.503   1.896  15.953  0.9634  0.3733 -0.6121
  874MPD2    C412822   4.437   1.949  15.844 -0.2202 -0.2718 -0.0030
  874MPD2    C512823   4.326   1.881  15.801 -0.2445 -0.5178 -0.4877
  874MPD2     H12824   4.526   1.727  16.084  0.1816 -1.4490 -0.4755
  874MPD2    H112825   4.475   2.032  15.786 -0.8453  1.1305  1.5733
  874MPD2    H212826   4.198   1.718  15.805  0.0741  0.6326 -0.5751
  874MPD2    H312827   4.275   1.926  15.717 -0.9258 -0.6806 -0.1641
  874MPD2     N12828   4.623   1.951  16.015 -0.5423 -0.4422 -0.5966
  874MPD2    H512829   4.670   1.892  16.083 -1.3805 -1.6979 -1.1016
  874MPD2    N112830   4.295   1.587  16.011  0.4618  0.8089  0.0933
  874MPD2    H712831   4.208   1.560  15.966  0.6415 -1.4609  1.1217
  875MPD2     C12832   1.210   0.537  14.587  0.3078 -0.3324  0.8443
  875MPD2    C112833   1.091   0.545  14.657  0.2575 -0.1249 -0.2797
  875MPD2    C212834   1.087   0.600  14.788  0.0227  0.1861 -0.6206
  875MPD2    C312835   1.199   0.646  14.851  0.0596 -0.0558 -0.1548
  875MPD2    C412836   1.316   0.628  14.771  0.1892  0.6142  0.6864
  875MPD2    C512837   1.323   0.581  14.647 -0.0358  0.2564  0.1964
  875MPD2     H12838   0.991   0.614  14.836 -1.0232 -1.6509 -2.1629
  875MPD2    H112839   1.407   0.681  14.800 -0.1246  1.9100 -0.6755
  875MPD2    H212840   1.223   0.522  14.480  1.8085  1.4087  0.7889
  875MPD2    H312841   1.414   0.590  14.589  0.3750  1.7139  1.0895
  875MPD2     N12842   1.220   0.708  14.976  0.3436 -0.5347 -0.0882
  875MPD2    H512843   1.312   0.744  14.998 -0.0397  1.0334 -0.9980
  875MPD2    N112844   0.971   0.512  14.597  0.4743  0.5446  0.3382
  875MPD2    H712845   0.896   0.521  14.665  0.1257 -1.5006  0.2464
  876MPD2     C12846   4.254   1.435  15.710  0.1068 -0.4996  0.0937
  876MPD2    C112847   4.394   1.462  15.715 -0.0642 -0.3242  0.8797
  876MPD2    C212848   4.473   1.374  15.793  0.2128 -0.0405 -0.3542
  876MPD2    C312849   4.414   1.261  15.853 -0.5303  0.2404 -0.4169
  876MPD2    C412850   4.279   1.233  15.835 -0.0557 -0.8406 -0.4281
  876MPD2    C512851   4.201   1.325  15.773  0.1661  0.1887 -0.3244
  876MPD2     H12852   4.579   1.394  15.802  0.2024  1.0621 -2.5537
  876MPD2    H112853   4.229   1.145  15.874 -1.5728  0.0552 -0.3263
  876MPD2    H212854   4.185   1.502  15.659  0.8604  1.1883  1.3089
  876MPD2    H312855   4.094   1.309  15.777  0.1983 -0.1034 -0.6739
  876MPD2     N12856   4.495   1.182  15.931 -0.1778  0.1464 -0.2208
  876MPD2    H512857   4.590   1.216  15.943 -0.0979 -0.6908  1.4220
  876MPD2    N112858   4.447   1.577  15.646 -0.2298  0.4352  0.4529
  876MPD2    H712859   4.382   1.637  15.597 -0.3139 -0.5214 -0.6219
  877MPD2     C12860   4.411   2.012  15.004 -0.5007 -0.4629  0.3298
  877MPD2    C112861   4.533   2.047  15.060  0.7202 -0.1076 -0.3217
  877MPD2    C212862   4.617   2.123  14.987 -0.5171 -0.4519 -0.1324
  877MPD2    C312863   4.582   2.152  14.854 -0.2056 -0.1163 -0.6346
  877MPD2    C412864   4.465   2.113  14.799  0.6859 -0.0666 -0.4308
  877MPD2    C512865   4.381   2.039  14.874  0.0152 -0.4569  0.0445
  877MPD2     H12866   4.718   2.141  15.021 -0.4212  1.1946 -1.2327
  877MPD2    H112867   4.438   2.128  14.694  1.8617  0.0881 -0.7029
  877MPD2    H212868   4.333   1.963  15.062 -1.7017 -1.5074 -2.1556
  877MPD2    H312869   4.288   2.019  14.822 -1.4093 -0.8991  2.8175
  877MPD2     N12870   4.676   2.206  14.763 -0.3470 -0.2824 -0.3718
  877MPD2    H512871   4.646   2.217  14.666 -0.0891  0.8879 -0.3270
  877MPD2    N112872   4.583   2.004  15.183  0.7359 -0.2967  0.1723
  877MPD2    H712873   4.672   2.046  15.208  1.6700 -2.3180  0.2335
  878MPD2     C12874   0.123   1.367  12.914  0.5172  0.1868 -0.4820
  878MPD2    C112875   0.103   1.498  12.943  0.4164 -0.1753  0.6353
  878MPD2    C212876   0.145   1.546  13.068  0.7995 -0.1555  0.3117
  878MPD2    C312877   0.205   1.461  13.149 -0.0754 -0.4234 -0.3834
  878MPD2    C412878   0.224   1.326  13.114  0.2492  0.1178  0.5077
  878MPD2    C512879   0.189   1.289  12.995  0.1719  0.1562 -0.7367
  878MPD2     H12880   0.133   1.652  13.088 -0.4819 -0.3543  0.5808
  878MPD2    H112881   0.287   1.265  13.178 -0.1152 -0.6431  0.1486
  878MPD2    H212882   0.099   1.335  12.814 -2.0487  1.0652 -0.1560
  878MPD2    H312883   0.215   1.194  12.950  1.7994  0.6215 -0.7868
  878MPD2     N12884   0.258   1.523  13.262 -0.1227  0.1759  0.2742
  878MPD2    H512885   0.232   1.619  13.279  2.5621  0.8147  0.6677
  878MPD2    N112886   0.033   1.582  12.853  0.5583  0.2395 -0.3045
  878MPD2    H712887   0.012   1.548  12.760  0.0528 -1.2658  0.3682
  879MPD2     C12888   4.436   2.774  16.859 -0.3613 -0.3583  0.4625
  879MPD2    C112889   4.446   2.671  16.951 -0.7306 -0.2568  0.0773
  879MPD2    C212890   4.357   2.568  16.951 -0.1836  0.4616  0.4531
  879MPD2    C312891   4.250   2.572  16.871 -0.8220  0.4527  0.5104
  879MPD2    C412892   4.233   2.686  16.785 -0.7024 -0.0381 -0.1430
  879MPD2    C512893   4.324   2.782  16.779 -0.0968 -0.2408 -0.5191
  879MPD2     H12894   4.384   2.485  17.016  1.7222  0.3010 -0.5317
  879MPD2    H112895   4.140   2.691  16.729 -1.7205 -1.1191  1.4729
  879MPD2    H212896   4.507   2.856  16.854 -0.5426 -0.2140  0.2711
  879MPD2    H312897   4.293   2.865  16.717  0.5047  1.7032  1.7534
  879MPD2     N12898   4.154   2.473  16.853 -0.4916  0.5456  0.0936
  879MPD2    H512899   4.077   2.492  16.790 -0.8085  1.9784  0.9330
  879MPD2    N112900   4.555   2.685  17.042  0.1342  0.0449  0.0436
  879MPD2    H712901   4.616   2.766  17.040 -0.2073  0.2693 -1.4127
  880MPD2     C12902   0.887   4.146   0.866  0.4540 -0.0088 -0.5082
  880MPD2    C112903   0.999   4.217   0.818  0.1718  0.0275 -0.1194
  880MPD2    C212904   1.131   4.171   0.859  0.2175 -0.6769  0.0924
  880MPD2    C312905   1.147   4.057   0.925 -0.0211 -0.3462 -0.4362
  880MPD2    C412906   1.038   3.978   0.955 -0.0223  0.4104  0.6483
  880MPD2    C512907   0.907   4.023   0.929 -0.1322 -0.0389 -0.0699
  880MPD2     H12908   1.212   4.242   0.852  0.5497 -1.0375  0.2467
  880MPD2    H112909   1.047   3.882   1.004 -0.9535 -0.6089 -1.1801
  880MPD2    H212910   0.783   4.172   0.849  0.2720 -1.1488 -1.0964
  880MPD2    H312911   0.825   3.955   0.951 -0.5469  0.6988  0.6625
  880MPD2     N12912   1.276   4.019   0.961  0.0630 -0.8856 -0.0467
  880MPD2    H512913   1.351   4.086   0.947  1.6151 -2.9144 -1.4392
  880MPD2    N112914   0.973   4.346   0.751  0.0625 -0.4640  0.3445
  880MPD2    H712915   0.881   4.361   0.711 -0.8474 -3.2774  1.3729
  881MPD2     C12916   1.117   0.304  17.624  0.4074 -0.4438 -0.1755
  881MPD2    C112917   1.175   0.185  17.636 -0.7123  0.3617  0.5370
  881MPD2    C212918   1.164   0.126   0.068  0.1068 -0.3429  0.2757
  881MPD2    C312919   1.092   0.186   0.171  0.3545  0.6516 -0.4286
  881MPD2    C412920   1.054   0.311   0.158  0.5311 -0.5351 -0.1416
  881MPD2    C512921   1.067   0.373   0.038 -0.0305  0.3641 -0.1181
  881MPD2     H12922   1.214   0.032   0.090 -0.4734 -0.9411 -0.9359
  881MPD2    H112923   1.017   0.361   0.247 -0.7078  0.4685 -1.2098
  881MPD2    H212924   1.133   0.348  17.526 -1.7503  0.6268 -0.0474
  881MPD2    H312925   1.034   0.476   0.033  1.3857  0.7384 -1.6421
  881MPD2     N12926   1.076   0.134   0.298 -0.5823 -0.2517 -0.2615
  881MPD2    H512927   1.040   0.197   0.369  0.0002 -0.4494  0.2068
  881MPD2    N112928   1.209   0.122  17.515 -0.1694 -0.1927  0.0362
  881MPD2    H712929   1.199   0.172  17.427 -1.0865 -1.1900 -0.4237
  882MPD2     C12930   4.683   2.308  13.989  0.1805 -0.0814 -0.6976
  882MPD2    C112931   4.635   2.297  14.113 -0.4836 -0.0768  0.5506
  882MPD2    C212932   4.500   2.289  14.128 -0.4723 -0.0404 -0.1820
  882MPD2    C312933   4.403   2.288  14.029  0.2540  0.1608 -0.4036
  882MPD2    C412934   4.456   2.298  13.903 -0.1561  0.0809 -0.3939
  882MPD2    C512935   4.591   2.307  13.885  0.9668  0.5343 -0.7715
  882MPD2     H12936   4.466   2.276  14.230  2.0811 -1.2158  0.5244
  882MPD2    H112937   4.395   2.312  13.815 -0.0691  0.2683 -0.4252
  882MPD2    H212938   0.066   2.309  13.964  0.0031 -1.6642 -1.5194
  882MPD2    H312939   4.631   2.308  13.784 -0.1191  0.3589 -1.2077
  882MPD2     N12940   4.270   2.254  14.042 -0.8831 -0.0243  0.2231
  882MPD2    H512941   4.215   2.227  13.961 -0.0248 -1.7830  0.2404
  882MPD2    N112942   0.003   2.297  14.226 -0.8752 -0.4161 -0.2521
  882MPD2    H712943   0.104   2.300  14.213 -0.7784  0.9405  0.8397
  883MPD2     C12944   1.930   1.990  16.432  0.3682 -0.0451 -0.0776
  883MPD2    C112945   2.000   2.079  16.353  0.9457  0.9703 -0.3150
  883MPD2    C212946   2.107   2.146  16.416  0.3584 -0.2179 -0.1213
  883MPD2    C312947   2.147   2.119  16.544 -0.5831  1.0263  0.0266
  883MPD2    C412948   2.080   2.021  16.616  0.3520 -0.3840  0.5390
  883MPD2    C512949   1.977   1.953  16.553 -0.0756  0.4882  0.1165
  883MPD2     H12950   2.178   2.208  16.362  0.6242 -1.1240 -0.8225
  883MPD2    H112951   2.100   1.997  16.720 -0.7306 -0.4621  0.7200
  883MPD2    H212952   1.848   1.926  16.400 -1.4051  1.8084  0.7809
  883MPD2    H312953   1.923   1.876  16.606  2.0358 -0.9855  0.1108
  883MPD2     N12954   2.243   2.210  16.600  0.2989 -0.1894 -1.0098
  883MPD2    H512955   2.277   2.281  16.536  0.8499  1.1486  0.8018
  883MPD2    N112956   1.961   2.104  16.220  0.8053  0.1276 -0.1661
  883MPD2    H712957   2.014   2.175  16.172 -3.3367  2.1701 -1.7313
  884MPD2     C12958   3.664   2.518  15.232  0.3635  0.4889  0.0067
  884MPD2    C112959   3.673   2.648  15.196 -0.0975 -0.1752  0.0131
  884MPD2    C212960   3.573   2.736  15.231  0.5460  0.7281  0.5182
  884MPD2    C312961   3.457   2.694  15.297 -0.6041  0.5574 -0.0868
  884MPD2    C412962   3.444   2.560  15.309  1.1482  0.7853  0.2333
  884MPD2    C512963   3.546   2.470  15.274  0.0334 -0.0293  1.0029
  884MPD2     H12964   3.585   2.840  15.200  0.7532  1.2029  2.2027
  884MPD2    H112965   3.359   2.507  15.350  0.6195  0.2067 -1.5897
  884MPD2    H212966   3.741   2.448  15.202  1.7580  2.0400 -0.0669
  884MPD2    H312967   3.521   2.366  15.293  0.3732 -0.3447 -0.2811
  884MPD2     N12968   3.367   2.792  15.347  0.0575 -0.1515 -0.1452
  884MPD2    H512969   3.390   2.888  15.324 -1.6215  0.1908 -0.4318
  884MPD2    N112970   3.785   2.709  15.135  0.3888  0.3630  0.3000
  884MPD2    H712971   3.780   2.808  15.115  0.6914  0.3889  0.3510
  885MPD2     C12972   1.965   2.873   0.400 -0.5409  0.2154  0.0477
  885MPD2    C112973   1.995   2.766   0.319 -0.3569 -0.0172 -0.1936
  885MPD2    C212974   2.001   2.785   0.182 -0.3741  0.8589  0.0426
  885MPD2    C312975   1.982   2.910   0.123  0.0897 -0.1827  0.3259
  885MPD2    C412976   1.974   3.017   0.212 -0.4513  0.0829 -0.4225
  885MPD2    C512977   1.969   2.999   0.353 -1.1397 -0.3522 -0.3015
  885MPD2     H12978   2.027   2.705   0.113  0.9668  1.0091  0.3799
  885MPD2    H112979   1.981   3.118   0.172  2.8284  0.0823  0.1094
  885MPD2    H212980   1.959   2.859   0.508 -0.2548 -1.3397 -0.1370
  885MPD2    H312981   1.961   3.085   0.418 -1.9010  0.1022 -0.9932
  885MPD2     N12982   1.988   2.922  17.677 -0.1038 -0.3373 -0.3513
  885MPD2    H512983   1.997   2.840  17.618  0.3964 -1.5321  1.3857
  885MPD2    N112984   2.019   2.644   0.385 -0.4050  0.5528 -0.4185
  885MPD2    H712985   2.029   2.648   0.486  1.5585 -0.4199 -0.5602
  886MPD2     C12986   3.205   1.184  15.096 -0.0585  0.2267 -0.1446
  886MPD2    C112987   3.310   1.228  15.168  0.4755  0.2118  0.2287
  886MPD2    C212988   3.343   1.357  15.163  0.2497 -0.1026  0.2660
  886MPD2    C312989   3.275   1.446  15.083 -0.6328  0.1480  0.3609
  886MPD2    C412990   3.166   1.404  15.014  0.0097 -0.5020  0.3394
  886MPD2    C512991   3.130   1.273  15.020  0.4865  0.4303  0.1794
  886MPD2     H12992   3.440   1.381  15.204  1.4348 -3.2510 -0.6737
  886MPD2    H112993   3.110   1.472  14.951 -0.2489 -2.7868 -1.9014
  886MPD2    H212994   3.156   1.088  15.094  1.7238 -0.7024  1.9092
  886MPD2    H312995   3.052   1.233  14.956  1.0780  0.0756 -0.3178
  886MPD2     N12996   3.316   1.582  15.059 -0.0770 -0.0871 -0.0813
  886MPD2    H512997   3.274   1.625  14.977  0.4958  0.4058 -0.1172
  886MPD2    N112998   3.404   1.138  15.226  0.0957 -0.3324 -0.8222
  886MPD2    H712999   3.492   1.180  15.252  0.2411 -0.8357 -0.5060
  887MPD2     C13000   4.092   1.193  15.377 -0.3124  0.4670 -0.1443
  887MPD2    C113001   3.953   1.225  15.377  0.3801  0.6640 -0.4205
  887MPD2    C213002   3.920   1.362  15.391  0.1725  0.2752  0.3820
  887MPD2    C313003   4.019   1.453  15.402 -0.3305 -0.1829  0.7823
  887MPD2    C413004   4.154   1.419  15.408  0.0661  0.0767  0.7022
  887MPD2    C513005   4.183   1.292  15.385 -0.1185 -0.0887  0.9653
  887MPD2     H13006   3.815   1.389  15.395  0.4488  1.9184 -3.7527
  887MPD2    H113007   4.231   1.496  15.410 -0.4736  0.6933 -1.8716
  887MPD2    H213008   4.127   1.091  15.369 -1.8433 -0.1737  1.3911
  887MPD2    H313009   4.285   1.254  15.383  0.4241  1.4564 -0.4156
  887MPD2     N13010   3.981   1.587  15.439  0.4762  0.0529  0.4861
  887MPD2    H513011   3.884   1.615  15.432  0.2251 -0.9128  0.1799
  887MPD2    N113012   3.843   1.126  15.377  0.3706 -0.2015 -0.0724
  887MPD2    H713013   3.746   1.157  15.376  0.4184 -0.0704 -0.6103
  888MPD2     C13014   0.701   1.644  14.794  0.0189  0.5229 -0.1929
  888MPD2    C113015   0.757   1.633  14.917  0.2133 -0.1949 -0.0348
  888MPD2    C213016   0.854   1.734  14.940 -0.3731  0.0485  0.0046
  888MPD2    C313017   0.900   1.822  14.847 -0.6221  0.4150 -0.2656
  888MPD2    C413018   0.851   1.829  14.722 -0.4688 -0.1692  0.1482
  888MPD2    C513019   0.763   1.725  14.700 -0.1777  0.2195  0.4753
  888MPD2     H13020   0.902   1.736  15.038  0.4246 -0.8891 -0.3609
  888MPD2    H113021   0.884   1.891  14.640  0.5972 -0.9541 -0.0172
  888MPD2    H213022   0.620   1.584  14.754  2.1903 -2.0703 -0.6629
  888MPD2    H313023   0.726   1.710  14.600 -0.1004 -1.0601  0.6335
  888MPD2     N13024   0.997   1.914  14.894  0.6568 -0.9387 -0.0594
  888MPD2    H513025   1.017   1.911  14.993  0.6953  0.4113 -0.0200
  888MPD2    N113026   0.723   1.534  15.014 -0.1719 -0.4731 -0.3600
  888MPD2    H713027   0.770   1.531  15.103 -0.8820  1.2346  0.0743
  889MPD2     C13028   0.481   1.622  12.446  0.3432  0.5997  0.1297
  889MPD2    C113029   0.458   1.599  12.582  0.1102 -0.0031  0.0152
  889MPD2    C213030   0.392   1.696  12.656  0.2337  0.9825 -0.0041
  889MPD2    C313031   0.350   1.817  12.602  0.9484  0.8814 -0.6133
  889MPD2    C413032   0.379   1.830  12.466  0.8229 -0.3043 -0.8259
  889MPD2    C513033   0.443   1.739  12.387 -0.2563 -0.8881 -0.0340
  889MPD2     H13034   0.380   1.683  12.763  0.4525 -1.4972 -0.3026
  889MPD2    H113035   0.367   1.926  12.418  0.9063 -1.0499 -2.3186
  889MPD2    H213036   0.514   1.546  12.376  1.2353  0.1781  1.0104
  889MPD2    H313037   0.458   1.749  12.280 -1.8170 -0.0039 -0.1547
  889MPD2     N13038   0.297   1.923  12.683  0.2742  0.3026 -0.3948
  889MPD2    H513039   0.310   1.918  12.784 -1.5515 -2.2881 -0.2827
  889MPD2    N113040   0.469   1.476  12.642 -0.5883 -0.2305 -0.1089
  889MPD2    H713041   0.433   1.450  12.733 -0.1835 -1.5560 -0.3292
  890MPD2     C13042   4.344   2.949  14.544  0.4902 -0.1386 -0.1775
  890MPD2    C113043   4.446   3.012  14.611 -0.2477 -0.0717 -0.0597
  890MPD2    C213044   4.537   2.931  14.689  0.3956  0.5780 -0.2572
  890MPD2    C313045   4.513   2.791  14.701 -0.8758  0.1577  0.3888
  890MPD2    C413046   4.397   2.736  14.639  0.5649  0.5814  0.2436
  890MPD2    C513047   4.315   2.815  14.565  0.4245 -0.2707 -0.4445
  890MPD2     H13048   4.617   2.982  14.740  1.2460 -0.4920 -0.5118
  890MPD2    H113049   4.368   2.632  14.654 -1.7380  1.0654 -0.8737
  890MPD2    H213050   4.270   3.005  14.488  1.0466 -0.8471 -1.6252
  890MPD2    H313051   4.228   2.765  14.523 -1.0723 -0.3354  2.7036
  890MPD2     N13052   4.597   2.715  14.789  0.0456  0.0341  0.0992
  890MPD2    H513053   4.679   2.767  14.818 -0.7540  0.5273  1.4800
  890MPD2    N113054   4.465   3.155  14.581 -0.4582 -0.3618 -0.4588
  890MPD2    H713055   4.392   3.200  14.527  0.3582  2.1198  0.5037
  891MPD2     C13056   2.731   1.113  16.648  0.2960  0.6298  0.2212
  891MPD2    C113057   2.627   1.044  16.706  0.3574 -0.5748 -0.0738
  891MPD2    C213058   2.659   0.931  16.781 -0.2052 -0.3053  0.2640
  891MPD2    C313059   2.793   0.900  16.811  0.2744 -0.2690  0.3532
  891MPD2    C413060   2.894   0.967  16.751  0.2916 -1.0038  0.4187
  891MPD2    C513061   2.863   1.078  16.671  0.4619 -0.3045 -0.4284
  891MPD2     H13062   2.581   0.870  16.824 -0.8386  1.0249  1.0168
  891MPD2    H113063   2.994   0.929  16.770  0.2809 -0.9932  0.4993
  891MPD2    H213064   2.715   1.196  16.580  0.8923  1.7496  1.4472
  891MPD2    H313065   2.940   1.125  16.612 -1.7090  0.3571 -2.7275
  891MPD2     N13066   2.810   0.779  16.887 -0.0947  0.3325  0.1777
  891MPD2    H513067   2.724   0.739  16.923 -0.3439 -0.8582 -1.7190
  891MPD2    N113068   2.500   1.091  16.670 -0.0190 -0.1327  0.1301
  891MPD2    H713069   2.498   1.167  16.603 -2.8939  0.8218  1.3044
  892MPD2     C13070   3.869   2.200  14.946  0.5110 -0.1394 -0.0152
  892MPD2    C113071   3.770   2.190  14.855  0.0632  0.5537  0.2192
  892MPD2    C213072   3.809   2.152  14.734 -0.3556 -0.4888 -0.0055
  892MPD2    C313073   3.943   2.139  14.695  0.3126  0.2123  0.1855
  892MPD2    C413074   4.043   2.154  14.787 -0.0369 -0.1141  0.2473
  892MPD2    C513075   4.005   2.183  14.917 -0.8049 -0.0856  0.1542
  892MPD2     H13076   3.735   2.140  14.656 -2.1609  2.2358  1.2885
  892MPD2    H113077   4.149   2.156  14.766 -0.0190  1.8597  0.5391
  892MPD2    H213078   3.845   2.241  15.043  1.1614 -1.9257  0.9082
  892MPD2    H313079   4.087   2.189  14.988 -1.2171  1.5481  0.4811
  892MPD2     N13080   3.978   2.117  14.559 -0.7686 -0.6094 -0.7085
  892MPD2    H513081   4.077   2.124  14.541 -0.3687 -1.1052  1.2407
  892MPD2    N113082   3.633   2.231  14.880  0.3620  0.0178 -0.2919
  892MPD2    H713083   3.575   2.243  14.798  0.4401  2.1554 -0.0244
  893MPD2     C13084   4.553   4.649   1.719 -0.1635  0.1462  0.2711
  893MPD2    C113085   4.663   4.637   1.797  0.8303 -0.2167 -0.2654
  893MPD2    C213086   4.685   4.529   1.879  0.1445 -1.0394  0.1657
  893MPD2    C313087   4.583   4.436   1.903 -0.0348  0.3679 -0.1285
  893MPD2    C413088   4.465   4.454   1.836 -0.9254 -0.8715  0.3829
  893MPD2    C513089   4.457   4.557   1.745  0.2666  0.0459 -0.1032
  893MPD2     H13090   0.058   4.520   1.930 -1.1101 -1.3570  2.4361
  893MPD2    H113091   4.379   4.390   1.849 -1.9902  0.4966  0.0438
  893MPD2    H213092   4.541   4.722   1.640  1.1115 -0.0479 -0.0988
  893MPD2    H313093   4.358   4.573   1.703  1.1262 -0.0115 -2.1429
  893MPD2     N13094   4.587   4.318   1.982  0.2580 -0.3594  0.1091
  893MPD2    H513095   4.507   4.256   1.984  1.5174 -2.0245 -0.0084
  893MPD2    N113096   0.022   0.025   1.787 -0.1378 -0.6799 -0.4453
  893MPD2    H713097   4.719   0.079   1.705  2.7085  1.0442 -0.2028
  894MPD2     C13098   3.171   3.383   0.540 -0.5908  0.3352 -0.3644
  894MPD2    C113099   3.280   3.411   0.457  0.9196  0.2734  0.2606
  894MPD2    C213100   3.403   3.348   0.493 -0.5813 -0.5165  0.5803
  894MPD2    C313101   3.412   3.274   0.611  0.3992 -0.2917 -0.2549
  894MPD2    C413102   3.302   3.253   0.696  0.5176  0.0018 -0.9874
  894MPD2    C513103   3.185   3.304   0.655  0.2738  0.3102 -0.7739
  894MPD2     H13104   3.489   3.368   0.430 -0.0289  1.7124  2.0366
  894MPD2    H113105   3.308   3.178   0.775 -0.3326 -0.3982 -1.2952
  894MPD2    H213106   3.072   3.425   0.532 -0.1602  1.0538 -2.0173
  894MPD2    H313107   3.101   3.281   0.719  0.1617  0.1005 -0.9975
  894MPD2     N13108   3.545   3.231   0.648 -0.3351  0.6679  0.0426
  894MPD2    H513109   3.623   3.270   0.595 -0.7693 -1.7164 -2.3890
  894MPD2    N113110   3.276   3.509   0.353  0.5225  0.5612  0.1339
  894MPD2    H713111   3.358   3.532   0.297  2.1576 -0.5132  2.0891
  895MPD2     C13112   3.036   1.235  13.383  0.2151 -0.0073  0.4831
  895MPD2    C113113   2.920   1.175  13.340 -0.0800  0.4685  0.7328
  895MPD2    C213114   2.903   1.039  13.351 -0.1466  0.4123  0.2914
  895MPD2    C313115   3.001   0.962  13.402 -0.0078  0.3656 -0.6475
  895MPD2    C413116   3.121   1.019  13.439  0.0389  0.6749 -0.0802
  895MPD2    C513117   3.137   1.155  13.421  0.0731  1.0357  0.1526
  895MPD2     H13118   2.807   0.996  13.323 -0.1266  1.6877 -1.6823
  895MPD2    H113119   3.205   0.956  13.464 -1.2438 -1.0396 -0.0487
  895MPD2    H213120   3.056   1.341  13.374 -0.2805  0.1831  1.6219
  895MPD2    H313121   3.235   1.202  13.427  0.4912  0.1667  0.2169
  895MPD2     N13122   2.998   0.822  13.396 -0.0665 -0.0530  0.3543
  895MPD2    H513123   3.082   0.771  13.420  0.2621  0.4316  0.2376
  895MPD2    N113124   2.815   1.251  13.281 -0.3269  0.1882  0.4137
  895MPD2    H713125   2.731   1.203  13.252  1.5032 -0.8542 -3.2341
  896MPD2     C13126   4.666   3.996   1.742 -0.8306  0.0734 -0.1369
  896MPD2    C113127   4.714   3.890   1.658 -0.0791 -0.2848 -0.1583
  896MPD2    C213128   4.636   3.778   1.642  0.4735  0.2525 -0.8696
  896MPD2    C313129   4.501   3.776   1.681 -0.7594 -0.6583  0.1850
  896MPD2    C413130   4.448   3.892   1.746 -0.3481  0.3424  0.5093
  896MPD2    C513131   4.535   3.997   1.773 -0.2054 -0.1244 -0.2374
  896MPD2     H13132   4.681   3.688   1.602  1.0903 -0.2319  0.9411
  896MPD2    H113133   4.345   3.896   1.778 -1.1812  1.2457 -2.3233
  896MPD2    H213134   0.008   4.079   1.771  0.1714 -0.2451 -1.4561
  896MPD2    H313135   4.495   4.083   1.824  2.0646  0.1529  1.0750
  896MPD2     N13136   4.440   3.654   1.654  0.2445  1.0663  0.0322
  896MPD2    H513137   4.500   3.593   1.600 -0.4915  0.1016  0.3097
  896MPD2    N113138   0.126   3.883   1.615 -0.3320 -0.3948  0.1388
  896MPD2    H713139   0.186   3.958   1.647 -1.0162  0.0875  0.2885
  897MPD2     C13140   1.806   1.098  10.338 -0.6425 -0.0729 -0.0087
  897MPD2    C113141   1.765   1.230  10.348 -0.5563  0.8349  0.7036
  897MPD2    C213142   1.647   1.269  10.408 -0.1730  0.0423  0.2181
  897MPD2    C313143   1.569   1.170  10.470  0.0282 -0.2455  0.3057
  897MPD2    C413144   1.616   1.039  10.479 -0.0375 -0.0964  0.2032
  897MPD2    C513145   1.733   1.010  10.410 -0.0302  0.1245  0.7836
  897MPD2     H13146   1.610   1.371  10.398  0.0278 -0.0499 -1.5428
  897MPD2    H113147   1.559   0.955  10.519 -1.5319  0.3122 -1.0606
  897MPD2    H213148   1.903   1.063  10.304 -0.9130 -0.3350 -0.5210
  897MPD2    H313149   1.762   0.906  10.409 -2.1781 -0.4803  0.8600
  897MPD2     N13150   1.443   1.222  10.524  0.6228  0.1356  0.2140
  897MPD2    H513151   1.412   1.313  10.492 -0.0402  0.0254  0.5404
  897MPD2    N113152   1.867   1.324  10.295  0.1461  0.6839  0.3270
  897MPD2    H713153   1.956   1.284  10.269  0.3119 -0.5051  2.7297
  898MPD2     C13154   3.431   0.894   0.218  0.3379  0.6193  0.6577
  898MPD2    C113155   3.545   0.973   0.202 -0.0852 -0.2213 -0.0000
  898MPD2    C213156   3.529   1.103   0.165 -0.6573  0.4715  0.1045
  898MPD2    C313157   3.407   1.160   0.149  0.6099 -0.1629  0.2093
  898MPD2    C413158   3.294   1.084   0.178 -0.1034  0.5475 -0.1864
  898MPD2    C513159   3.311   0.955   0.214 -0.6123 -0.4016  0.3877
  898MPD2     H13160   3.616   1.166   0.146  1.7365 -2.0145  2.7841
  898MPD2    H113161   3.190   1.115   0.180 -0.0559  0.7465 -1.0072
  898MPD2    H213162   3.433   0.788   0.239 -2.8897  0.7819  1.8399
  898MPD2    H313163   3.222   0.902   0.246  0.3094 -2.4205 -0.4643
  898MPD2     N13164   3.396   1.301   0.110 -0.9893  0.1803  0.1567
  898MPD2    H513165   3.483   1.346   0.083 -1.0763  0.4992  0.4195
  898MPD2    N113166   3.673   0.916   0.217  0.1986  0.0641  0.0155
  898MPD2    H713167   3.752   0.980   0.222 -0.0956  0.3549  0.9023
  899MPD2     C13168   3.887   2.222  17.148 -0.1567  0.3034  0.1299
  899MPD2    C113169   3.984   2.278  17.227  0.7946 -0.8657  0.0441
  899MPD2    C213170   4.004   2.210  17.347  0.4517 -0.2300 -0.5551
  899MPD2    C313171   3.934   2.088  17.376  0.7323  0.5251  0.4364
  899MPD2    C413172   3.847   2.033  17.285 -0.3205  0.1532 -0.4691
  899MPD2    C513173   3.819   2.104  17.176  0.1517 -0.0336  0.2945
  899MPD2     H13174   4.082   2.248  17.412  1.0618 -1.7840 -0.3837
  899MPD2    H113175   3.806   1.934  17.304  0.1243  0.2404  0.9550
  899MPD2    H213176   3.859   2.278  17.059 -1.1531 -0.7279 -0.2116
  899MPD2    H313177   3.755   2.053  17.105  1.8283  0.5171 -1.5985
  899MPD2     N13178   3.943   2.029  17.501  0.8416  0.2499 -0.5179
  899MPD2    H513179   3.925   1.929  17.508  2.0071  0.0431 -0.4641
  899MPD2    N113180   4.036   2.402  17.196 -0.5218 -0.0465  0.1204
  899MPD2    H713181   4.006   2.435  17.105  0.0269  1.3207  0.4392
  900MPD2     C13182   3.679   4.291  12.976  0.5540  0.0907 -0.3175
  900MPD2    C113183   3.744   4.241  12.859 -0.3256  0.2210 -0.7244
  900MPD2    C213184   3.674   4.224  12.741  1.0924  0.0698  0.3582
  900MPD2    C313185   3.541   4.254  12.734 -0.2638 -0.4126 -0.0811
  900MPD2    C413186   3.482   4.315  12.840 -0.3667  0.6647  0.7495
  900MPD2    C513187   3.547   4.327  12.961 -0.5492  0.5587  0.2926
  900MPD2     H13188   3.727   4.176  12.659 -1.1191 -1.1666 -0.3358
  900MPD2    H113189   3.376   4.336  12.845 -0.4450  0.7950 -1.6097
  900MPD2    H213190   3.724   4.304  13.073 -0.4703 -1.4845  0.3644
  900MPD2    H313191   3.492   4.379  13.039 -0.8518  0.1885  0.3224
  900MPD2     N13192   3.470   4.200  12.620 -0.6962  0.4104 -0.3034
  900MPD2    H513193   3.527   4.152  12.551 -1.1928 -0.5183 -0.0608
  900MPD2    N113194   3.879   4.196  12.872 -0.2145  0.3258 -0.3546
  900MPD2    H713195   3.910   4.169  12.965 -1.5722  1.4855  0.4240
  901MPD2     C13196   3.848   3.266  12.622 -0.2041 -0.0327  0.9345
  901MPD2    C113197   3.978   3.257  12.670  0.2588  0.8181  0.2718
  901MPD2    C213198   4.031   3.362  12.742  0.2439  0.1876  0.1942
  901MPD2    C313199   3.956   3.482  12.760 -0.0347  0.4873 -0.7043
  901MPD2    C413200   3.819   3.485  12.718 -0.2246  0.3284  0.2745
  901MPD2    C513201   3.772   3.377  12.643 -0.2189  0.4469  0.4080
  901MPD2     H13202   4.134   3.354  12.776  0.8166  2.1246 -1.1151
  901MPD2    H113203   3.759   3.572  12.743  0.1639 -0.1392  2.8196
  901MPD2    H213204   3.805   3.198  12.551  0.8114 -1.9669  2.1725
  901MPD2    H313205   3.673   3.381  12.599 -0.8941 -1.3456  1.7722
  901MPD2     N13206   4.019   3.600  12.810 -0.7227 -0.7166  0.4919
  901MPD2    H513207   4.116   3.587  12.839 -0.0225  2.4029 -0.3831
  901MPD2    N113208   4.050   3.134  12.647 -0.0334  0.5217  0.0726
  901MPD2    H713209   4.008   3.063  12.587 -0.7814  0.3334  0.8133
  902MPD2     C13210   2.278   1.857  12.523 -0.0588 -0.4639 -0.0436
  902MPD2    C113211   2.409   1.839  12.489  0.0525  0.0528 -0.4017
  902MPD2    C213212   2.448   1.709  12.465 -0.3254 -0.5212  0.1019
  902MPD2    C313213   2.362   1.604  12.495  0.1419 -0.5595 -1.1141
  902MPD2    C413214   2.230   1.627  12.533  0.3955 -0.2639  0.2243
  902MPD2    C513215   2.190   1.753  12.540 -0.1312  0.7229 -0.0391
  902MPD2     H13216   2.544   1.695  12.416 -0.4602 -2.2544  0.3265
  902MPD2    H113217   2.160   1.547  12.555  0.3122 -0.3153 -0.2258
  902MPD2    H213218   2.240   1.956  12.546  0.5343 -0.3145  0.2834
  902MPD2    H313219   2.085   1.766  12.566 -1.4531 -3.7755 -3.0321
  902MPD2     N13220   2.403   1.468  12.478  0.1365  1.0094 -0.1637
  902MPD2    H513221   2.329   1.401  12.491  1.0445 -0.5564 -3.0258
  902MPD2    N113222   2.488   1.953  12.471  0.5792 -0.3032  0.0969
  902MPD2    H713223   2.446   2.044  12.488  0.6997 -0.1100 -0.6156
  903MPD2     C13224   2.356   0.920  11.861 -0.4538 -0.0181 -0.3617
  903MPD2    C113225   2.308   0.956  11.982  0.2231 -0.1397 -0.4018
  903MPD2    C213226   2.170   0.931  12.000 -0.0003 -0.4846 -0.8283
  903MPD2    C313227   2.084   0.881  11.902  0.0318  0.8074 -0.4266
  903MPD2    C413228   2.150   0.847  11.785  0.2555  0.6824  0.0973
  903MPD2    C513229   2.282   0.879  11.762 -0.2332 -0.7078  0.4512
  903MPD2     H13230   2.130   0.969  12.094  1.5816  0.0712 -0.3900
  903MPD2    H113231   2.094   0.816  11.697 -0.4149  0.6990  0.5220
  903MPD2    H213232   2.463   0.929  11.844 -0.4526 -1.0069 -0.9276
  903MPD2    H313233   2.334   0.850  11.671  0.4009  1.4075  0.1453
  903MPD2     N13234   1.948   0.858  11.926  0.4477  0.0860  0.1872
  903MPD2    H513235   1.907   0.885  12.014  1.2384 -2.7497  1.4249
  903MPD2    N113236   2.389   1.006  12.081 -0.4853  0.0851  0.1981
  903MPD2    H713237   2.490   0.999  12.067 -0.1505  1.6319  1.7242
  904MPD2     C13238   2.606   1.000  13.766 -0.7351 -0.5181  0.7667
  904MPD2    C113239   2.599   1.045  13.901 -0.0433 -0.1006 -0.0351
  904MPD2    C213240   2.721   1.077  13.960  0.5852  0.0480  0.2159
  904MPD2    C313241   2.837   1.077  13.890 -0.5731  0.2753  0.3800
  904MPD2    C413242   2.839   1.032  13.761  0.2528  0.4340 -0.0596
  904MPD2    C513243   2.729   0.995  13.700  0.1777  0.4417  0.7094
  904MPD2     H13244   2.718   1.103  14.065  0.1454  0.1111  0.1870
  904MPD2    H113245   2.931   1.037  13.704 -0.1321  0.2084 -0.7036
  904MPD2    H213246   2.515   0.974  13.712  0.5271 -2.8212 -0.2413
  904MPD2    H313247   2.727   0.977  13.593  4.4287  2.7962  0.2463
  904MPD2     N13248   2.956   1.106  13.958  0.0206 -0.4333 -0.1898
  904MPD2    H513249   2.952   1.093  14.059  0.7840 -0.9332 -0.2246
  904MPD2    N113250   2.483   1.060  13.991 -0.6781  0.0629 -0.0273
  904MPD2    H713251   2.513   1.065  14.087  1.3445  1.0583 -0.7093
  905MPD2     C13252   2.172   0.666  13.400 -0.6570 -0.2050 -0.0908
  905MPD2    C113253   2.269   0.746  13.458  0.2393 -0.1200  0.1503
  905MPD2    C213254   2.398   0.707  13.465  0.9265  0.1295  0.6785
  905MPD2    C313255   2.432   0.580  13.420 -0.1855 -0.5063  0.9889
  905MPD2    C413256   2.332   0.497  13.373  0.0758 -0.2946 -0.6808
  905MPD2    C513257   2.205   0.542  13.355 -0.0503 -0.6259  0.0399
  905MPD2     H13258   2.472   0.758  13.525 -0.1089  0.0721  2.0086
  905MPD2    H113259   2.357   0.405  13.322  1.7666  0.3798 -1.0596
  905MPD2    H213260   2.068   0.693  13.386 -0.0445  1.3947 -1.5693
  905MPD2    H313261   2.132   0.472  13.315 -0.1286 -0.6718  0.2672
  905MPD2     N13262   2.568   0.550  13.415  0.0703  0.1945  0.4470
  905MPD2    H513263   2.639   0.620  13.432 -0.3285  0.5045  0.8166
  905MPD2    N113264   2.235   0.876  13.497  0.3318  0.5343 -0.0751
  905MPD2    H713265   2.140   0.899  13.523 -0.0504 -0.7808 -0.3538
  906MPD2     C13266   0.051   1.562  11.044 -0.1354 -0.7790  0.6402
  906MPD2    C113267   0.110   1.454  10.975 -0.3949  0.0291  0.2743
  906MPD2    C213268   0.092   1.332  11.033 -0.2036 -0.9369 -0.0218
  906MPD2    C313269   0.012   1.305  11.139 -0.2449 -0.9499  0.6837
  906MPD2    C413270   4.668   1.405  11.197 -0.2445 -0.0284  0.7026
  906MPD2    C513271   4.687   1.534  11.151 -0.8091 -0.3934  0.2921
  906MPD2     H13272   0.142   1.250  10.983  0.4357 -1.2732  1.1680
  906MPD2    H113273   4.609   1.380  11.285 -1.5879  0.3865 -0.0759
  906MPD2    H213274   0.073   1.663  11.014 -0.1174 -0.3409  2.1249
  906MPD2    H313275   4.638   1.612  11.209  3.1523  2.4330 -0.1038
  906MPD2     N13276   4.721   1.173  11.185  0.1109 -0.0483 -0.2356
  906MPD2    H513277   4.636   1.162  11.239 -0.3146 -2.9423 -1.4522
  906MPD2    N113278   0.191   1.458  10.860  0.2982  0.6104 -0.0401
  906MPD2    H713279   0.229   1.376  10.815  1.9619  0.1050  2.2573
  907MPD2     C13280   3.888   0.237  15.693  0.1511  0.0695 -0.1546
  907MPD2    C113281   3.857   0.100  15.707  0.4748 -0.3409 -0.1612
  907MPD2    C213282   3.883   0.047  15.837 -0.1486  0.1642  0.7694
  907MPD2    C313283   3.942   0.130  15.931 -0.0851 -0.1561  0.0997
  907MPD2    C413284   3.974   0.264  15.906 -0.5195  0.4422  0.1787
  907MPD2    C513285   3.948   0.316  15.780 -0.8356  0.3922 -0.3463
  907MPD2     H13286   3.878   4.664  15.858 -2.1877  0.5785  2.2959
  907MPD2    H113287   4.011   0.331  15.983 -0.7895  0.6990  0.0850
  907MPD2    H213288   3.881   0.278  15.593  0.1094  0.8962  0.1927
  907MPD2    H313289   3.972   0.417  15.750  1.1843 -0.5460 -1.8997
  907MPD2     N13290   3.976   0.071  16.054  0.7782  0.3579 -0.2139
  907MPD2    H513291   3.948   4.696  16.067  1.8199  0.1454  0.4116
  907MPD2    N113292   3.786   0.022  15.605 -0.1341  0.2816  0.1471
  907MPD2    H713293   3.759   4.652  15.637  0.3193 -0.5222 -1.7329
  908MPD2     C13294   2.204   1.168   9.542 -0.4441  0.3268  0.2363
  908MPD2    C113295   2.121   1.109   9.638 -0.3606  0.1298  0.2876
  908MPD2    C213296   2.120   1.159   9.760  0.3399  0.2889 -0.5492
  908MPD2    C313297   2.178   1.283   9.786 -0.2121 -0.1684  0.3990
  908MPD2    C413298   2.258   1.340   9.692  0.2126  0.5742  0.9549
  908MPD2    C513299   2.278   1.277   9.574  0.0564 -0.0961  0.2854
  908MPD2     H13300   2.068   1.110   9.841  2.5686  2.6323  2.2974
  908MPD2    H113301   2.309   1.436   9.693 -0.3480  0.8811 -0.0459
  908MPD2    H213302   2.218   1.135   9.440  0.2905 -2.4529  1.2336
  908MPD2    H313303   2.337   1.330   9.500  0.6746 -1.8120 -0.4508
  908MPD2     N13304   2.150   1.350   9.914 -0.1747  0.2367 -0.7113
  908MPD2    H513305   2.117   1.288   9.987 -0.1576 -0.3885 -1.2343
  908MPD2    N113306   2.037   1.003   9.604  0.2702 -0.0188  0.7981
  908MPD2    H713307   1.976   0.985   9.684 -0.1346 -0.5686  0.3641
  909MPD2     C13308   1.864   3.693  11.816  0.0298 -0.2499  0.0103
  909MPD2    C113309   1.783   3.779  11.738  0.0202  0.0430  0.0757
  909MPD2    C213310   1.684   3.859  11.804 -0.0853 -0.2567 -0.3412
  909MPD2    C313311   1.650   3.836  11.932 -0.0768 -0.0973  0.2738
  909MPD2    C413312   1.727   3.746  12.007 -0.1990  0.5821  0.2259
  909MPD2    C513313   1.837   3.691  11.949 -0.0489  0.0247  0.1279
  909MPD2     H13314   1.632   3.932  11.743  1.0022 -0.6315 -1.7203
  909MPD2    H113315   1.703   3.731  12.112 -1.6533 -1.9313 -0.4692
  909MPD2    H213316   1.947   3.638  11.771 -0.3485 -0.2990 -0.6277
  909MPD2    H313317   1.905   3.623  11.999 -0.5353 -1.2062 -0.8751
  909MPD2     N13318   1.552   3.914  11.988  0.3369 -0.2555  0.6726
  909MPD2    H513319   1.507   3.988  11.934 -1.4836 -0.2325  2.2180
  909MPD2    N113320   1.798   3.817  11.609 -0.0155 -0.0120 -0.1206
  909MPD2    H713321   1.750   3.899  11.574  0.0753  0.1810  0.2093
  910MPD2     C13322   2.628   0.543  15.598 -0.0041 -0.1295 -0.2883
  910MPD2    C113323   2.752   0.497  15.554 -0.1075  0.6034 -0.4398
  910MPD2    C213324   2.783   0.485  15.419  0.8577 -0.1724 -0.0275
  910MPD2    C313325   2.681   0.527  15.332  0.5750  0.5490  0.3571
  910MPD2    C413326   2.562   0.574  15.376  0.5300 -0.2283  0.1031
  910MPD2    C513327   2.533   0.594  15.511 -0.0141 -0.0493  0.0655
  910MPD2     H13328   2.869   0.428  15.385  2.0060  0.5889  1.6527
  910MPD2    H113329   2.492   0.598  15.297 -1.0816  1.4451  2.0209
  910MPD2    H213330   2.600   0.543  15.702  0.1082  0.6648 -0.2615
  910MPD2    H313331   2.440   0.641  15.541  0.4905  0.7880  0.2966
  910MPD2     N13332   2.705   0.530  15.193 -0.2684 -0.3492  0.4798
  910MPD2    H513333   2.625   0.555  15.135 -0.2379 -1.1289  0.0994
  910MPD2    N113334   2.846   0.451  15.643 -0.3028 -0.0794  0.0434
  910MPD2    H713335   2.932   0.408  15.611 -0.6846 -0.0077 -1.0712
  911MPD2     C13336   1.258   1.548  16.668 -0.5960  0.4815 -1.0027
  911MPD2    C113337   1.173   1.455  16.618 -0.0059 -0.6894 -0.6963
  911MPD2    C213338   1.069   1.491  16.539  0.0804  0.2042 -0.0759
  911MPD2    C313339   1.046   1.625  16.519 -0.8862  0.1563  0.2630
  911MPD2    C413340   1.134   1.719  16.568 -0.0527  0.6020  0.1860
  911MPD2    C513341   1.243   1.682  16.644  0.6858 -0.0292 -0.2367
  911MPD2     H13342   0.998   1.421  16.496  2.3901 -1.8586 -0.5653
  911MPD2    H113343   1.130   1.824  16.544 -2.8285  0.2795 -0.7814
  911MPD2    H213344   1.352   1.522  16.715 -1.1094  0.8973  0.2437
  911MPD2    H313345   1.311   1.753  16.689  1.4960 -0.5308 -0.6791
  911MPD2     N13346   0.937   1.660  16.433  0.6568  0.0841 -0.8118
  911MPD2    H513347   0.889   1.582  16.390  0.4638 -0.6030  0.6821
  911MPD2    N113348   1.209   1.323  16.651  0.4024 -0.2240 -0.2303
  911MPD2    H713349   1.296   1.318  16.703 -0.8414 -0.6451  1.8046
  912MPD2     C13350   0.881   1.410  15.815  0.4764 -0.3308 -0.3459
  912MPD2    C113351   0.789   1.409  15.919 -0.0395 -0.3981  0.2374
  912MPD2    C213352   0.748   1.284  15.965 -0.0626  0.2606 -0.0879
  912MPD2    C313353   0.818   1.170  15.931  0.4931 -0.1446 -0.7758
  912MPD2    C413354   0.926   1.177  15.841  0.1676  0.0776  0.6093
  912MPD2    C513355   0.950   1.296  15.782 -1.0517  0.1701  0.4994
  912MPD2     H13356   0.666   1.266  16.032 -0.2454 -0.4063 -0.4887
  912MPD2    H113357   0.986   1.091  15.815  0.5787  0.8316 -0.9273
  912MPD2    H213358   0.889   1.497  15.751 -0.7111  0.1001  0.0802
  912MPD2    H313359   1.026   1.308  15.707 -1.7879 -1.1047 -0.4381
  912MPD2     N13360   0.779   1.055  15.999  0.1776 -0.3311 -0.2173
  912MPD2    H513361   0.717   1.071  16.077 -2.0809  1.4334 -2.3767
  912MPD2    N113362   0.738   1.530  15.968  0.4828 -0.1053 -0.5290
  912MPD2    H713363   0.779   1.613  15.927 -0.0334  0.3813 -0.0511
  913MPD2     C13364   1.794   2.674  11.175  0.1890 -0.0151 -0.0004
  913MPD2    C113365   1.694   2.776  11.148 -0.2681 -0.0038  0.1593
  913MPD2    C213366   1.678   2.806  11.015  0.0497  0.3150 -0.2303
  913MPD2    C313367   1.751   2.748  10.915 -0.7890 -0.4534  0.9529
  913MPD2    C413368   1.828   2.645  10.942  0.2335  0.0227  0.0656
  913MPD2    C513369   1.857   2.604  11.070 -0.4386 -0.1105  0.2365
  913MPD2     H13370   1.607   2.884  10.990 -0.3265  0.5234  1.4774
  913MPD2    H113371   1.881   2.606  10.856 -2.0274  1.2022 -1.8463
  913MPD2    H213372   1.816   2.648  11.277 -3.2701  1.5426  1.1449
  913MPD2    H313373   1.924   2.522  11.092  0.9376  0.9585  0.0293
  913MPD2     N13374   1.732   2.784  10.779 -0.2555  0.3388  0.4855
  913MPD2    H513375   1.787   2.727  10.714  0.3546  2.1354 -0.5689
  913MPD2    N113376   1.636   2.845  11.257  0.1231  0.2029  0.0911
  913MPD2    H713377   1.658   2.822  11.353 -0.4213 -0.9632 -0.0620
  914MPD2     C13378   4.012   2.641  11.999 -0.1182 -0.3504  0.3711
  914MPD2    C113379   3.971   2.765  12.044 -0.3275  0.2011  0.0948
  914MPD2    C213380   4.024   2.812  12.168 -0.4684 -0.1218  0.1261
  914MPD2    C313381   4.122   2.736  12.230 -0.3525  0.2362 -0.0328
  914MPD2    C413382   4.169   2.621  12.168  0.1861  0.6334 -0.3251
  914MPD2    C513383   4.110   2.574  12.060 -0.6057 -0.0220 -0.2905
  914MPD2     H13384   3.982   2.893  12.225 -0.3504  0.0799 -0.0754
  914MPD2    H113385   4.247   2.563  12.216  0.8651 -1.7478 -4.3548
  914MPD2    H213386   3.964   2.598  11.911 -0.0432  0.4741 -0.0690
  914MPD2    H313387   4.166   2.494  12.013 -1.1125  0.3465 -1.5203
  914MPD2     N13388   4.172   2.786  12.353  0.7664 -0.1973  0.0041
  914MPD2    H513389   4.136   2.878  12.377 -1.7346 -0.6506 -2.0457
  914MPD2    N113390   3.870   2.837  11.972 -0.0042  0.2980 -0.3813
  914MPD2    H713391   3.844   2.801  11.881 -1.1568  0.6118 -0.1710
  915MPD2     C13392   2.474   2.440  15.635 -0.2507 -0.4559 -0.4561
  915MPD2    C113393   2.360   2.505  15.594 -0.5204  0.9758  0.5421
  915MPD2    C213394   2.281   2.580  15.678  0.1379 -0.6042  0.3322
  915MPD2    C313395   2.306   2.578  15.810 -0.6070  0.1147 -0.2055
  915MPD2    C413396   2.409   2.502  15.853  0.3362 -0.2944  0.5618
  915MPD2    C513397   2.496   2.442  15.770  0.3505  0.0909 -0.1904
  915MPD2     H13398   2.196   2.632  15.635  1.2819 -0.2654 -1.5253
  915MPD2    H113399   2.441   2.502  15.957 -0.0021  0.8028  0.6624
  915MPD2    H213400   2.523   2.363  15.576  2.4894  2.9181 -2.6046
  915MPD2    H313401   2.579   2.386  15.813  0.3108 -0.4141 -0.7849
  915MPD2     N13402   2.203   2.631  15.897 -0.7281  0.2308  0.3187
  915MPD2    H513403   2.127   2.683  15.854  0.2172  1.0158 -0.4013
  915MPD2    N113404   2.320   2.486  15.460  0.1734  0.0620 -0.1153
  915MPD2    H713405   2.362   2.410  15.407 -1.4433 -2.0988  1.7141
  916MPD2     C13406   0.394   1.181  15.872  0.2252  0.0664 -0.0278
  916MPD2    C113407   0.353   1.060  15.931 -0.8017  0.1132  0.2121
  916MPD2    C213408   0.414   0.937  15.888 -0.6847 -0.2062 -0.3136
  916MPD2    C313409   0.505   0.935  15.792 -0.3692 -1.4083  0.1068
  916MPD2    C413410   0.555   1.053  15.738  0.5206 -0.4048 -0.2309
  916MPD2    C513411   0.491   1.173  15.775  0.4071 -0.1080  0.4165
  916MPD2     H13412   0.372   0.848  15.934  0.6256 -0.5773  0.1533
  916MPD2    H113413   0.645   1.060  15.678  0.9145  2.7522  0.7277
  916MPD2    H213414   0.341   1.274  15.887  2.9432  1.4632  1.0168
  916MPD2    H313415   0.534   1.268  15.745 -0.4598 -0.2069 -1.1508
  916MPD2     N13416   0.560   0.812  15.757 -0.7399 -0.0231  0.4889
  916MPD2    H513417   0.516   0.728  15.796 -0.3458  0.1213  1.2431
  916MPD2    N113418   0.238   1.061  16.022  0.2592  0.4991 -0.6578
  916MPD2    H713419   0.183   1.146  16.027 -1.3842 -0.7062  1.5492
  917MPD2     C13420   0.714   3.428  11.134 -0.1072  0.0550  0.2678
  917MPD2    C113421   0.665   3.521  11.229 -1.1969 -0.0303  0.4810
  917MPD2    C213422   0.733   3.636  11.239  0.9024  0.0297 -0.1576
  917MPD2    C313423   0.821   3.683  11.141  0.0758 -0.5907  0.3607
  917MPD2    C413424   0.877   3.588  11.057  0.0129 -0.6651 -0.6947
  917MPD2    C513425   0.811   3.460  11.049  0.5771 -0.3641  0.1077
  917MPD2     H13426   0.685   3.700  11.311 -0.4489 -2.6402  1.2956
  917MPD2    H113427   0.946   3.624  10.981 -1.9774 -1.2141 -2.7721
  917MPD2    H213428   0.679   3.325  11.124 -2.2426  0.9476 -1.3890
  917MPD2    H313429   0.849   3.392  10.974 -1.6523 -1.1669 -0.2911
  917MPD2     N13430   0.862   3.817  11.136 -0.5917  0.1016 -0.0699
  917MPD2    H513431   0.945   3.840  11.082 -1.4823  0.8176 -1.1502
  917MPD2    N113432   0.558   3.478  11.306  0.1246 -0.3950 -0.1761
  917MPD2    H713433   0.522   3.385  11.284  1.0587 -1.3861  2.4237
  918MPD2     C13434   0.208   3.995  12.072  0.8715 -0.2706 -0.1149
  918MPD2    C113435   0.338   3.946  12.050 -0.2402  0.0295 -0.3487
  918MPD2    C213436   0.359   3.840  11.964 -0.2984  0.9901 -0.1117
  918MPD2    C313437   0.251   3.798  11.887  0.0077  0.5974  0.1601
  918MPD2    C413438   0.131   3.861  11.894 -0.0578 -0.4765 -0.5729
  918MPD2    C513439   0.107   3.954  11.993 -0.6631  0.4646  0.1040
  918MPD2     H13440   0.446   3.776  11.952  0.8866  2.4244  0.7814
  918MPD2    H113441   0.057   3.835  11.818  0.7625  3.9793 -2.8991
  918MPD2    H213442   0.185   4.074  12.142 -1.3581  0.1897 -1.3590
  918MPD2    H313443   0.008   3.996  12.008 -0.8563  0.3024 -0.6774
  918MPD2     N13444   0.267   3.684  11.808  0.2209 -0.4210 -1.0015
  918MPD2    H513445   0.362   3.648  11.806  0.3376 -0.2489  1.2734
  918MPD2    N113446   0.450   3.987  12.126 -0.3476 -0.1306 -0.3486
  918MPD2    H713447   0.532   3.936  12.095 -0.0435  0.2272 -0.1387
  919MPD2     C13448   1.093   2.685  11.444 -0.6088  0.3374 -0.8815
  919MPD2    C113449   1.165   2.566  11.429  0.1221  0.2048 -0.1428
  919MPD2    C213450   1.260   2.565  11.323 -0.7053  1.4758  0.6398
  919MPD2    C313451   1.268   2.663  11.225  0.1990 -0.5443 -0.0552
  919MPD2    C413452   1.192   2.779  11.249 -0.0929 -0.0493  0.8161
  919MPD2    C513453   1.114   2.794  11.359  0.2835 -0.3556 -0.7292
  919MPD2     H13454   1.306   2.467  11.315 -1.4536  1.1417  0.4347
  919MPD2    H113455   1.182   2.861  11.178 -0.4758 -0.6183  0.2094
  919MPD2    H213456   1.017   2.692  11.521  1.0869  0.1011  0.8184
  919MPD2    H313457   1.042   2.874  11.368 -0.6385 -1.0697 -1.7555
  919MPD2     N13458   1.353   2.647  11.116 -0.0423 -0.9284 -0.1480
  919MPD2    H513459   1.367   2.721  11.048 -0.6530 -1.9944 -1.4526
  919MPD2    N113460   1.143   2.446  11.500 -0.1442 -0.4242  0.1503
  919MPD2    H713461   1.208   2.369  11.494 -1.2271 -1.3928  1.0914
  920MPD2     C13462   1.139   2.691  10.177  0.3631 -0.4784  0.5788
  920MPD2    C113463   1.130   2.560  10.218  0.2814 -0.6098 -0.2373
  920MPD2    C213464   1.188   2.533  10.344  0.1037  0.1835  0.0234
  920MPD2    C313465   1.253   2.631  10.417  0.3255  0.0495 -0.3621
  920MPD2    C413466   1.253   2.762  10.377 -0.5172  0.2816  0.3744
  920MPD2    C513467   1.183   2.791  10.263 -0.2156 -0.1733 -0.7031
  920MPD2     H13468   1.182   2.432  10.383  0.9227  0.4934  0.9323
  920MPD2    H113469   1.308   2.839  10.430  0.8913 -0.0939 -0.5364
  920MPD2    H213470   1.117   2.726  10.076 -3.1202  1.4701  2.0343
  920MPD2    H313471   1.164   2.895  10.239  0.0946 -0.0162 -0.2603
  920MPD2     N13472   1.315   2.595  10.540 -0.2996 -0.3627 -0.6227
  920MPD2    H513473   1.309   2.498  10.570  1.2827  0.2160  1.5203
  920MPD2    N113474   1.078   2.454  10.135 -0.4011 -0.0987  0.1984
  920MPD2    H713475   1.096   2.362  10.174  0.5843  0.7472  1.7227
  921MPD2     C13476   1.833   1.160  17.073  0.4249  0.0193 -0.0064
  921MPD2    C113477   1.822   1.148  16.939  0.5109 -0.0237 -0.1439
  921MPD2    C213478   1.703   1.098  16.886  0.0844 -0.0535 -0.0159
  921MPD2    C313479   1.599   1.067  16.973  0.7038  0.6294 -0.2824
  921MPD2    C413480   1.609   1.099  17.106 -0.0665 -0.3923  0.4800
  921MPD2    C513481   1.729   1.138  17.156 -0.4746  0.2553  0.9313
  921MPD2     H13482   1.704   1.073  16.781  0.3339  0.0941 -0.0493
  921MPD2    H113483   1.527   1.087  17.176 -0.6550  0.0472 -0.1312
  921MPD2    H213484   1.925   1.192  17.122  0.6305  0.2493 -0.5402
  921MPD2    H313485   1.720   1.147  17.264  0.7137 -0.7150  1.1135
  921MPD2     N13486   1.480   1.016  16.926 -0.2337 -0.0374 -0.3249
  921MPD2    H513487   1.392   1.014  16.976 -2.4690  1.8263 -4.2044
  921MPD2    N113488   1.929   1.185  16.860 -0.6562 -0.2885 -0.7497
  921MPD2    H713489   2.012   1.219  16.908 -0.3732  0.0806 -1.5089
  922MPD2     C13490   2.867   3.570  17.524  0.8204  0.0882 -1.0614
  922MPD2    C113491   2.771   3.649  17.475  0.1515  0.5194 -0.2480
  922MPD2    C213492   2.638   3.620  17.475 -0.4944  0.1961  0.3288
  922MPD2    C313493   2.593   3.494  17.529  0.0267  0.1226  1.1911
  922MPD2    C413494   2.691   3.409  17.578 -0.8106  0.4215  0.1687
  922MPD2    C513495   2.825   3.460  17.584  0.0797 -0.1651  0.0399
  922MPD2     H13496   2.568   3.679  17.417  0.3062  0.0629 -0.7614
  922MPD2    H113497   2.673   3.310  17.618  0.3949  0.7365  1.4926
  922MPD2    H213498   2.971   3.599  17.520 -0.1433  3.7130  0.5016
  922MPD2    H313499   2.902   3.405  17.638  0.0614 -0.5492 -0.3306
  922MPD2     N13500   2.460   3.448  17.500  0.4185  0.1105 -0.1412
  922MPD2    H513501   2.398   3.517  17.458 -0.2896  0.2871  1.1855
  922MPD2    N113502   2.827   3.760  17.406  0.3089  0.2630 -0.3516
  922MPD2    H713503   2.928   3.754  17.399  0.2378 -0.3243 -0.9064
  923MPD2     C13504   4.460   0.967   8.736 -0.2848 -0.2470  0.4917
  923MPD2    C113505   4.417   1.085   8.778  0.3678  0.3967 -0.0321
  923MPD2    C213506   4.488   1.160   8.862  0.4599  0.4670 -0.2966
  923MPD2    C313507   4.606   1.107   8.918 -0.4190  0.4217 -1.4497
  923MPD2    C413508   4.655   0.991   8.875  1.4338  0.4123  0.3041
  923MPD2    C513509   4.578   0.920   8.790  0.0122  0.3279  0.3960
  923MPD2     H13510   4.449   1.255   8.897 -2.2744  0.8357 -4.4296
  923MPD2    H113511   0.023   0.959   8.925  0.5754  0.1023  1.6787
  923MPD2    H213512   4.404   0.898   8.674  0.8841 -0.4255 -0.3617
  923MPD2    H313513   4.605   0.818   8.766  2.4054  0.9663  0.3929
  923MPD2     N13514   4.687   1.162   9.020  0.3888 -0.2682  0.3544
  923MPD2    H513515   0.040   1.104   9.055 -0.2915  0.0052  2.2432
  923MPD2    N113516   4.284   1.113   8.749 -0.8988 -0.2244  0.0996
  923MPD2    H713517   4.243   1.043   8.688 -0.9101 -1.1335  1.1668
  924MPD2     C13518   3.905   4.007  16.110 -0.3157  0.1805  0.8419
  924MPD2    C113519   3.851   4.070  16.219  0.3915 -0.5181 -0.7487
  924MPD2    C213520   3.900   4.192  16.258  0.1421 -0.2349  0.5410
  924MPD2    C313521   4.017   4.234  16.196  0.0074 -0.5433 -0.1161
  924MPD2    C413522   4.061   4.175  16.086  0.2514  0.2144 -0.1906
  924MPD2    C513523   4.009   4.060  16.044  0.0097 -0.4931  0.1439
  924MPD2     H13524   3.855   4.255  16.333  2.2821  1.5624  0.3231
  924MPD2    H113525   4.144   4.217  16.030 -0.7567 -1.4032 -2.8661
  924MPD2    H213526   3.870   3.920  16.056  0.1329 -0.8367  2.1878
  924MPD2    H313527   4.054   4.008  15.960  0.3899 -0.2607  0.2006
  924MPD2     N13528   4.083   4.356  16.238 -0.0114 -0.1574 -0.4662
  924MPD2    H513529   4.147   4.386  16.165 -0.6996 -2.0774 -1.8746
  924MPD2    N113530   3.724   4.019  16.265 -0.1045 -0.5539 -0.1727
  924MPD2    H713531   3.676   3.947  16.212  0.5495 -0.9370 -0.2470
  925MPD2     C13532   2.744   1.395  14.681 -0.2528 -0.0009  0.2653
  925MPD2    C113533   2.633   1.475  14.699 -0.1620 -0.2463  1.0021
  925MPD2    C213534   2.542   1.457  14.805  0.4995  0.5872 -0.1217
  925MPD2    C313535   2.580   1.381  14.905 -0.9579  0.7183  0.9918
  925MPD2    C413536   2.697   1.303  14.895  0.1519 -0.0179  0.0235
  925MPD2    C513537   2.780   1.313  14.787  0.7626 -0.3631 -0.9611
  925MPD2     H13538   2.446   1.506  14.792 -0.4766 -1.2565  0.2023
  925MPD2    H113539   2.722   1.236  14.978 -0.2257 -0.0444  0.1153
  925MPD2    H213540   2.818   1.413  14.605  1.5883 -1.2082  1.7628
  925MPD2    H313541   2.869   1.251  14.792  1.6517  0.9704 -0.2060
  925MPD2     N13542   2.512   1.355  15.026  0.0652 -0.3350  0.1347
  925MPD2    H513543   2.561   1.292  15.088  0.9884 -0.1672 -0.4289
  925MPD2    N113544   2.582   1.556  14.598 -0.3707 -0.6407  0.0980
  925MPD2    H713545   2.492   1.596  14.621 -0.2498 -0.1548 -0.2732
  926MPD2     C13546   1.398   0.499  13.633 -0.2217  0.0422 -0.0858
  926MPD2    C113547   1.335   0.542  13.519  0.1052 -0.1382 -0.4970
  926MPD2    C213548   1.371   0.662  13.454  0.5937 -0.6613  0.4012
  926MPD2    C313549   1.489   0.727  13.496 -0.2586  0.2455 -0.6481
  926MPD2    C413550   1.571   0.664  13.591  0.5859  0.0561 -0.3984
  926MPD2    C513551   1.521   0.558  13.668  0.6040 -0.0553 -0.4099
  926MPD2     H13552   1.302   0.696  13.378  2.4253  2.5420  0.1675
  926MPD2    H113553   1.665   0.706  13.626 -0.2408  0.5211  1.2473
  926MPD2    H213554   1.365   0.420  13.699  0.8974 -0.7224 -0.4390
  926MPD2    H313555   1.579   0.522  13.753  3.6310  1.1410 -1.9835
  926MPD2     N13556   1.530   0.842  13.432 -0.2456 -0.2544 -0.0215
  926MPD2    H513557   1.477   0.867  13.349  0.1848  2.1800  0.4342
  926MPD2    N113558   1.203   0.496  13.487  0.3367  0.2362 -0.5136
  926MPD2    H713559   1.158   0.539  13.407  0.9505  0.0827 -0.9420
  927MPD2     C13560   1.082   2.667  17.441 -0.5634 -0.0377 -0.0383
  927MPD2    C113561   1.205   2.648  17.495 -0.4161  0.3444  0.2147
  927MPD2    C213562   1.304   2.618  17.407 -0.8307  0.2395  0.1862
  927MPD2    C313563   1.282   2.607  17.271  0.8944 -0.0760  0.1314
  927MPD2    C413564   1.158   2.635  17.218 -0.2932 -0.7117 -0.2616
  927MPD2    C513565   1.055   2.664  17.304  0.2047  0.5820 -0.0173
  927MPD2     H13566   1.408   2.616  17.438 -0.8398  2.6759  0.3418
  927MPD2    H113567   1.143   2.621  17.112 -0.6631  0.5717 -0.3781
  927MPD2    H213568   0.996   2.683  17.505 -0.4916 -1.0008  0.3026
  927MPD2    H313569   0.950   2.678  17.280 -0.0339 -1.6250 -0.2541
  927MPD2     N13570   1.384   2.551  17.195  0.1844 -0.1660  0.3183
  927MPD2    H513571   1.460   2.499  17.238  2.0539  1.0704 -1.5073
  927MPD2    N113572   1.223   2.663  17.637  0.7366 -0.1815 -0.0361
  927MPD2    H713573   1.142   2.681   0.003  0.4927 -1.2829 -0.0387
  928MPD2     C13574   4.664   0.664   1.192 -0.1228  0.8853  0.1445
  928MPD2    C113575   4.700   0.789   1.200 -0.2476  0.0091  0.4241
  928MPD2    C213576   4.698   0.868   1.084  0.3294 -0.5128  0.6085
  928MPD2    C313577   4.689   0.809   0.959  0.5018 -1.2181  0.6120
  928MPD2    C413578   4.657   0.673   0.954  0.5167  0.1413  0.4223
  928MPD2    C513579   4.648   0.609   1.073 -0.2114 -0.5232 -0.0628
  928MPD2     H13580   4.710   0.976   1.086 -2.1153 -0.2207 -0.2988
  928MPD2    H113581   4.633   0.620   0.863 -1.5047  1.5156  0.1597
  928MPD2    H213582   4.679   0.597   1.276 -1.0644 -0.4579 -0.7793
  928MPD2    H313583   4.623   0.503   1.074  0.2690 -0.6455 -1.4814
  928MPD2     N13584   4.680   0.881   0.839  0.6804  0.6519 -0.0706
  928MPD2    H513585   4.656   0.824   0.758 -0.0111  0.4871  0.2493
  928MPD2    N113586   4.717   0.837   1.331 -0.3878 -0.6549  0.3103
  928MPD2    H713587   4.703   0.774   1.409  0.5053  0.6155  1.4950
  929MPD2     C13588   4.449   1.167  10.216 -0.4595  0.0555  0.3690
  929MPD2    C113589   4.343   1.079  10.214 -0.5049  0.4829 -0.2431
  929MPD2    C213590   4.260   1.071  10.101  0.1063 -0.1998  0.0551
  929MPD2    C313591   4.276   1.169  10.005 -0.4367  0.2428 -0.2461
  929MPD2    C413592   4.391   1.247  10.004  0.2685 -0.5208 -0.9910
  929MPD2    C513593   4.466   1.253  10.111  0.1493 -0.2599  0.0923
  929MPD2     H13594   4.166   1.020  10.116 -0.2065  0.3612  0.0265
  929MPD2    H113595   4.406   1.318   9.924 -0.3353  0.6618 -0.0653
  929MPD2    H213596   4.505   1.177  10.308  0.1555 -0.0974  0.0115
  929MPD2    H313597   4.550   1.322  10.113 -0.2438  0.2304 -0.1004
  929MPD2     N13598   4.178   1.178   9.899  0.2811 -0.1231  0.2593
  929MPD2    H513599   4.195   1.247   9.827  0.6058  0.9691  1.3788
  929MPD2    N113600   4.315   1.008  10.336  0.5214 -0.0175  0.2892
  929MPD2    H713601   4.371   1.029  10.418 -1.8922 -1.2111  2.1881
  930MPD2     C13602   0.842   3.132  14.095 -0.1382  0.2175 -0.0651
  930MPD2    C113603   0.944   3.155  14.009  0.0487 -0.1052  0.0375
  930MPD2    C213604   0.969   3.079  13.898  0.1502 -0.6125  0.0454
  930MPD2    C313605   0.880   2.977  13.861  0.4589 -0.1365 -0.7352
  930MPD2    C413606   0.774   2.951  13.945 -0.5364 -0.5611  0.5907
  930MPD2    C513607   0.755   3.030  14.059  0.3133 -0.4323  0.4713
  930MPD2     H13608   1.064   3.092  13.847 -1.2436 -1.3464 -2.7003
  930MPD2    H113609   0.691   2.884  13.925 -0.5042 -0.6726  0.8288
  930MPD2    H213610   0.817   3.190  14.183  0.2750  1.2587 -0.6342
  930MPD2    H313611   0.658   3.014  14.105 -0.2192 -2.0321 -1.1949
  930MPD2     N13612   0.893   2.893  13.741 -0.5132  0.0216  0.7676
  930MPD2    H513613   0.833   2.811  13.752 -0.2151 -0.2943  0.0676
  930MPD2    N113614   1.023   3.268  14.042  1.1613  0.1912 -0.2446
  930MPD2    H713615   1.015   3.311  14.134 -0.2470  0.9176 -0.6983
  931MPD2     C13616   1.728   2.259   0.440 -0.2781  0.3509 -0.4555
  931MPD2    C113617   1.634   2.332   0.508  0.1058  0.5796  0.1993
  931MPD2    C213618   1.648   2.342   0.644 -0.2473 -0.0399  0.5401
  931MPD2    C313619   1.733   2.260   0.717 -0.2146  0.5107  0.1584
  931MPD2    C413620   1.824   2.184   0.650  0.3047 -0.3873  0.3721
  931MPD2    C513621   1.819   2.183   0.512 -0.3654 -0.5792 -0.4943
  931MPD2     H13622   1.576   2.406   0.694 -1.5273  0.6272 -2.1694
  931MPD2    H113623   1.890   2.116   0.703  0.6735 -1.0600 -0.9686
  931MPD2    H213624   1.728   2.242   0.333  0.0047  0.6258 -0.4989
  931MPD2    H313625   1.884   2.120   0.451 -0.1832 -0.3863 -0.4971
  931MPD2     N13626   1.738   2.258   0.853 -0.4097  0.2849  0.0825
  931MPD2    H513627   1.811   2.202   0.895 -0.9262 -0.0803  0.4919
  931MPD2    N113628   1.533   2.405   0.431  0.3816  0.9432  0.0317
  931MPD2    H713629   1.532   2.381   0.332  2.0255 -0.7482  0.4300
  932MPD2     C13630   2.769   1.338  11.192 -0.0508 -0.2157  0.9204
  932MPD2    C113631   2.901   1.371  11.231 -0.9547  0.5360  0.3080
  932MPD2    C213632   2.974   1.277  11.301  0.1147  0.0934  0.1950
  932MPD2    C313633   2.936   1.152  11.333  0.3865 -0.2911 -0.2567
  932MPD2    C413634   2.808   1.120  11.296  0.3897 -0.5277 -0.4651
  932MPD2    C513635   2.726   1.208  11.229 -0.0641  0.1406 -0.8132
  932MPD2     H13636   3.070   1.311  11.340 -0.5123  1.5172  0.5148
  932MPD2    H113637   2.767   1.020  11.310 -0.3925 -0.3570 -1.4758
  932MPD2    H213638   2.700   1.411  11.152 -1.8239 -1.3672  1.8628
  932MPD2    H313639   2.633   1.173  11.186 -1.3411 -0.8262  2.8404
  932MPD2     N13640   3.004   1.047  11.404 -0.0159 -0.1132  0.1898
  932MPD2    H513641   2.963   0.954  11.410  0.0702 -0.2749 -1.9321
  932MPD2    N113642   2.947   1.508  11.217  0.3749 -0.2512 -0.3523
  932MPD2    H713643   2.995   1.551  11.296  0.0019 -0.4777 -0.0021
  933MPD2     C13644   0.095   1.563   1.922 -0.9608  0.4673  0.5788
  933MPD2    C113645   4.720   1.508   1.839  0.1916 -0.1881 -0.1135
  933MPD2    C213646   4.605   1.580   1.804 -0.9004 -0.0787 -0.5621
  933MPD2    C313647   4.587   1.703   1.865  0.3921  0.0658 -0.2006
  933MPD2    C413648   4.678   1.756   1.951  0.0046  0.5147 -0.1509
  933MPD2    C513649   0.074   1.684   1.968 -1.3509 -0.4671 -0.1570
  933MPD2     H13650   4.538   1.523   1.742 -0.8186  0.2443 -0.9482
  933MPD2    H113651   4.683   1.854   1.998 -1.3289  0.3965  0.2268
  933MPD2    H213652   0.190   1.514   1.940  0.0469  2.0583 -0.4552
  933MPD2    H313653   0.155   1.730   2.023 -1.3373  0.4222 -0.9210
  933MPD2     N13654   4.474   1.775   1.824  0.2529 -0.3511  0.1547
  933MPD2    H513655   4.430   1.747   1.737 -0.4403  1.6915 -0.1561
  933MPD2    N113656   0.030   1.383   1.786  0.1838  0.2003  0.1334
  933MPD2    H713657   0.105   1.334   1.834  1.1289  1.5409  0.0208
  934MPD2     C13658   0.039   2.831   2.121 -0.2525 -0.6133 -0.1025
  934MPD2    C113659   0.149   2.782   2.043 -0.2548 -0.5146 -1.0885
  934MPD2    C213660   0.130   2.765   1.910  0.0650  0.9996 -0.1784
  934MPD2    C313661   0.006   2.789   1.857 -0.4753 -0.1557  1.0549
  934MPD2    C413662   4.622   2.834   1.924  0.2376 -1.0802 -0.0305
  934MPD2    C513663   4.643   2.858   2.058 -0.7901 -0.4521  0.3824
  934MPD2     H13664   0.218   2.732   1.856  1.6393  0.3643  2.7272
  934MPD2    H113665   4.529   2.857   1.872  1.2472  0.1070 -1.3087
  934MPD2    H213666   0.034   2.837   2.229 -0.8610 -0.6594 -0.1245
  934MPD2    H313667   4.570   2.896   2.129 -1.3294  0.8604 -0.8739
  934MPD2     N13668   4.696   2.748   1.725  0.6786 -0.3650  0.0752
  934MPD2    H513669   4.613   2.794   1.688  0.9534 -0.5994 -0.8373
  934MPD2    N113670   0.259   2.722   2.104  0.1059 -0.0599  0.7296
  934MPD2    H713671   0.332   2.700   2.038  0.2250 -0.2655  0.9296
  935MPD2     C13672   0.364   2.068   1.054 -0.5708  0.2957 -0.5881
  935MPD2    C113673   0.269   2.142   0.989 -0.3352  0.2336 -0.6412
  935MPD2    C213674   0.218   2.256   1.041 -0.4050  0.7690  0.1623
  935MPD2    C313675   0.245   2.292   1.171  0.4957 -0.0468  0.3966
  935MPD2    C413676   0.350   2.230   1.232 -0.1156  0.1762  0.0678
  935MPD2    C513677   0.414   2.125   1.172 -0.2349  0.4222  0.0472
  935MPD2     H13678   0.155   2.316   0.977 -2.2440 -1.7651 -0.4285
  935MPD2    H113679   0.390   2.272   1.323  0.9457 -0.8199  0.0586
  935MPD2    H213680   0.412   1.976   1.022 -0.9076  0.5929 -1.9528
  935MPD2    H313681   0.501   2.077   1.215 -0.1431 -1.1703 -1.8728
  935MPD2     N13682   0.172   2.395   1.248  0.7747 -0.2020 -0.6742
  935MPD2    H513683   0.198   2.406   1.345  0.4736  2.2419 -0.8839
  935MPD2    N113684   0.218   2.107   0.859 -0.4583 -0.1202  0.1461
  935MPD2    H713685   0.153   2.174   0.818  0.8156  0.7262 -0.4973
  936MPD2     C13686   3.521   4.559  12.504 -0.2390  0.0214  0.2897
  936MPD2    C113687   3.568   4.690  12.523 -0.7430  0.0363 -0.6117
  936MPD2    C213688   3.663   0.023  12.441  0.2511  0.0796 -0.1672
  936MPD2    C313689   3.711   4.669  12.332  0.5311 -0.2543 -0.0405
  936MPD2    C413690   3.660   4.541  12.306  0.1439  0.4674 -0.5029
  936MPD2    C513691   3.571   4.489  12.397  0.3107 -0.5021 -0.6627
  936MPD2     H13692   3.700   0.122  12.463  0.5750 -0.5531  2.0762
  936MPD2    H113693   3.685   4.484  12.218  0.0158 -1.1620  0.5167
  936MPD2    H213694   3.450   4.508  12.568  1.5346 -1.4369  1.0765
  936MPD2    H313695   3.521   4.394  12.386  2.3010 -1.9040  2.2585
  936MPD2     N13696   3.802   0.002  12.241  0.4720  0.1844  0.0545
  936MPD2    H513697   3.820   4.676  12.154 -1.2527 -2.4395  1.1618
  936MPD2    N113698   3.526   0.058  12.621 -0.2771  0.1325 -0.7277
  936MPD2    H713699   3.571   0.149  12.629  0.1192 -0.2239  1.1723
  937MPD2     C13700   1.318   1.784  11.321  0.0798  0.1312 -0.1674
  937MPD2    C113701   1.321   1.924  11.329 -0.5241  0.0742  0.0633
  937MPD2    C213702   1.441   1.985  11.303  0.7670  0.0634  0.2812
  937MPD2    C313703   1.551   1.917  11.246  0.3440 -0.3394  0.0648
  937MPD2    C413704   1.532   1.782  11.224 -0.2652 -0.1742  0.1369
  937MPD2    C513705   1.420   1.721  11.264  0.1088  0.2787  0.0482
  937MPD2     H13706   1.449   2.087  11.338  1.6428 -0.3159  1.1849
  937MPD2    H113707   1.617   1.729  11.182 -0.3797 -0.8967  0.8004
  937MPD2    H213708   1.236   1.723  11.356  0.2187 -0.3585 -0.6950
  937MPD2    H313709   1.404   1.615  11.248 -0.0397  0.4520 -0.9585
  937MPD2     N13710   1.674   1.973  11.217 -0.2780  0.9548 -0.4444
  937MPD2    H513711   1.744   1.918  11.168  1.2692  2.1076  0.4370
  937MPD2    N113712   1.239   1.992  11.417  0.2499  0.7684 -0.6678
  937MPD2    H713713   1.280   2.078  11.453  0.7410  0.5612 -0.7363
  938MPD2     C13714   4.065   2.830   0.597 -0.5313 -0.3189  0.4365
  938MPD2    C113715   4.165   2.829   0.694  0.8119  0.2056 -0.0511
  938MPD2    C213716   4.129   2.780   0.818  0.4117 -0.1917  0.2227
  938MPD2    C313717   3.996   2.745   0.842 -0.0805  0.8021  0.7482
  938MPD2    C413718   3.903   2.759   0.739  0.3443  0.0532 -0.3755
  938MPD2    C513719   3.934   2.801   0.614 -0.0508  0.9040  0.3989
  938MPD2     H13720   4.199   2.767   0.900  1.6910  0.1689 -0.8195
  938MPD2    H113721   3.801   2.731   0.762  0.3401 -0.3872 -0.9246
  938MPD2    H213722   4.077   2.880   0.501 -0.3249  0.5026  0.8937
  938MPD2    H313723   3.860   2.816   0.537 -0.4102  0.1888  0.5995
  938MPD2     N13724   3.959   2.704   0.972 -0.4624  0.1738 -0.4379
  938MPD2    H513725   3.861   2.697   0.997 -0.3132  0.1421  0.1426
  938MPD2    N113726   4.299   2.867   0.675 -0.0033  0.2417 -0.6430
  938MPD2    H713727   4.362   2.861   0.754  0.2948  0.8002 -0.8337
  939MPD2     C13728   3.978   3.826   0.905 -0.3387 -0.5286 -0.1412
  939MPD2    C113729   3.993   3.915   0.801 -0.2125  0.4268  0.4427
  939MPD2    C213730   4.115   3.949   0.759  0.2635 -0.1438  0.9500
  939MPD2    C313731   4.222   3.902   0.828 -0.2992  0.0934  1.2030
  939MPD2    C413732   4.203   3.819   0.938  0.1923 -0.0712 -0.4738
  939MPD2    C513733   4.078   3.773   0.969 -0.4999  0.2881  0.4525
  939MPD2     H13734   4.127   4.012   0.672  1.1408  1.1878  2.0244
  939MPD2    H113735   4.289   3.768   0.981  0.0088 -0.4677 -0.5752
  939MPD2    H213736   3.881   3.781   0.924 -0.1278 -0.1945  1.7143
  939MPD2    H313737   4.063   3.698   1.045 -0.3663  0.7404  0.9215
  939MPD2     N13738   4.348   3.930   0.768 -0.2386 -0.1324 -0.5324
  939MPD2    H513739   4.335   3.990   0.687  1.6717 -1.1924 -1.6491
  939MPD2    N113740   3.867   3.955   0.735 -0.6338 -0.2839 -0.2506
  939MPD2    H713741   3.780   3.920   0.774 -0.9321  1.0124  0.2411
  940MPD2     C13742   3.705   0.020  13.130  0.3883 -0.0705  0.0980
  940MPD2    C113743   3.816   0.084  13.090  0.5347  0.2359 -0.1047
  940MPD2    C213744   3.864   0.062  12.965  0.4082 -0.0089 -0.4117
  940MPD2    C313745   3.810   4.697  12.874  0.1017  0.2267 -0.7668
  940MPD2    C413746   3.702   4.623  12.923 -0.4489 -0.0180 -0.3603
  940MPD2    C513747   3.647   4.656  13.045  0.2308 -0.1782 -0.4092
  940MPD2     H13748   3.963   0.104  12.949  0.0615  0.9368 -0.0879
  940MPD2    H113749   3.653   4.557  12.852  2.7718 -2.9309  0.1491
  940MPD2    H213750   3.654   0.029  13.225  3.6283  0.0398  1.8308
  940MPD2    H313751   3.555   4.608  13.078  1.4298 -1.3754  1.1716
  940MPD2     N13752   3.878   4.658  12.759  0.4107  0.8044 -0.2693
  940MPD2    H513753   3.849   4.579  12.702  1.0376 -1.1031  2.0576
  940MPD2    N113754   3.886   0.178  13.164  0.4498 -0.1068 -0.2580
  940MPD2    H713755   3.954   0.227  13.106 -0.0222  0.4343 -0.3558
  941MPD2     C13756   3.372   4.649   9.491 -0.4296 -0.7974 -0.0826
  941MPD2    C113757   3.475   4.608   9.577  0.0584 -0.0056 -1.2153
  941MPD2    C213758   3.470   4.482   9.629 -0.0248 -0.3918 -0.3812
  941MPD2    C313759   3.366   4.397   9.613  0.3553 -0.4789 -0.0850
  941MPD2    C413760   3.261   4.445   9.547  0.8176 -0.3611  0.0509
  941MPD2    C513761   3.266   4.563   9.483  0.2139 -0.1690  0.7422
  941MPD2     H13762   3.552   4.461   9.697  0.1307  1.1918 -0.0816
  941MPD2    H113763   3.178   4.376   9.534  1.5786 -1.0583 -1.0625
  941MPD2    H213764   3.368   0.021   9.437 -0.0009 -0.8433 -0.1905
  941MPD2    H313765   3.184   4.600   9.423  0.4719  0.1784  0.6059
  941MPD2     N13766   3.359   4.265   9.677  0.2012 -0.7070  0.1740
  941MPD2    H513767   3.271   4.217   9.662 -0.9939  1.8745 -1.1793
  941MPD2    N113768   3.588   4.690   9.598 -0.2438 -0.2630 -0.4146
  941MPD2    H713769   3.646   4.675   9.680 -0.3487  1.7743  0.0398
  942MPD2     C13770   3.043   0.948   9.981 -1.0234 -0.0385 -0.1998
  942MPD2    C113771   2.995   0.892   9.869  0.2200  0.4484  0.3919
  942MPD2    C213772   3.029   0.942   9.741  0.3779  0.2072 -0.1921
  942MPD2    C313773   3.108   1.056   9.727  0.4562  0.0483 -0.4534
  942MPD2    C413774   3.149   1.123   9.847  0.2192  0.7944 -0.3943
  942MPD2    C513775   3.122   1.065   9.971  0.4528 -0.9647 -0.7151
  942MPD2     H13776   3.008   0.890   9.649  4.0732 -2.8272  0.6728
  942MPD2    H113777   3.215   1.209   9.842 -1.7113  2.2224 -1.4242
  942MPD2    H213778   3.013   0.917  10.081 -0.7637  0.4950  0.0402
  942MPD2    H313779   3.162   1.106  10.063 -0.8238  2.2114 -1.5902
  942MPD2     N13780   3.163   1.101   9.606 -0.1401  0.7496 -0.6881
  942MPD2    H513781   3.241   1.165   9.614 -0.2283  0.8665 -0.7563
  942MPD2    N113782   2.933   0.769   9.873  0.0906 -0.8254  0.1390
  942MPD2    H713783   2.894   0.732   9.786  0.4105  1.8880 -1.1638
  943MPD2     C13784   1.684   4.123   9.399  0.1715  0.3804  0.0436
  943MPD2    C113785   1.673   3.990   9.418 -0.6187 -0.1501  0.0767
  943MPD2    C213786   1.577   3.930   9.339  0.8671 -0.0371 -0.4916
  943MPD2    C313787   1.530   3.992   9.224  0.5621 -0.4512 -0.6249
  943MPD2    C413788   1.557   4.120   9.194 -0.8235  0.3475 -0.1645
  943MPD2    C513789   1.623   4.185   9.288 -0.3748 -0.4517 -0.0645
  943MPD2     H13790   1.558   3.824   9.353  1.2428  0.0814  0.9660
  943MPD2    H113791   1.509   4.174   9.113  1.9544  2.2073 -0.6021
  943MPD2    H213792   1.737   4.185   9.470  1.2799 -0.5122 -0.0069
  943MPD2    H313793   1.646   4.290   9.271 -0.3958 -1.0905 -3.8938
  943MPD2     N13794   1.438   3.939   9.139 -0.2661 -0.1165 -0.4055
  943MPD2    H513795   1.394   4.003   9.073 -1.1570  0.2094  0.5140
  943MPD2    N113796   1.739   3.929   9.530  0.0298 -0.5911 -0.0492
  943MPD2    H713797   1.795   3.988   9.591  1.0130 -2.0081  0.4136
  944MPD2     C13798   1.734   3.043  11.666 -0.5866 -0.1573  0.5928
  944MPD2    C113799   1.764   3.124  11.557 -0.2608 -0.0793 -0.3790
  944MPD2    C213800   1.717   3.251  11.542  0.4007 -0.6426  0.0721
  944MPD2    C313801   1.623   3.301  11.640  0.4164 -0.1277  0.4215
  944MPD2    C413802   1.600   3.218  11.745 -0.0386  0.0898 -0.2879
  944MPD2    C513803   1.657   3.095  11.759 -0.5154 -0.2441  0.0475
  944MPD2     H13804   1.739   3.314  11.457  1.9337  0.3327  1.1912
  944MPD2    H113805   1.533   3.245  11.826 -0.5988 -4.0408  0.6122
  944MPD2    H213806   1.777   2.945  11.679  0.6720  0.4284  0.9396
  944MPD2    H313807   1.626   3.031  11.840 -0.3524  0.3215  0.5503
  944MPD2     N13808   1.571   3.422  11.619 -0.3540 -0.0419  0.2075
  944MPD2    H513809   1.582   3.469  11.530  1.6784  1.0376  1.0265
  944MPD2    N113810   1.835   3.049  11.456  0.3935  0.3420 -0.2043
  944MPD2    H713811   1.865   2.953  11.470 -3.3488 -0.6332  1.1179
    1TCq1    O113812   4.600   3.899  14.462  0.3625 -0.2486 -0.3081
    1TCq1    C113813   4.641   3.994  14.551  0.6007  0.9854  0.4003
    1TCq1    O213814   4.588   4.093  14.597 -0.3987 -0.1720  0.2455
    1TCq1    C213815   0.062   3.955  14.569 -0.3359 -0.2423  0.3292
    1TCq1    C313816   0.100   3.824  14.592  1.1382  0.1784  0.6514
    1TCq1    C413817   0.221   3.797  14.664  0.3269  0.1016 -0.6870
    1TCq1    C513818   0.298   3.904  14.709 -0.6733 -0.2331 -0.1219
    1TCq1    C613819   0.252   4.035  14.683  0.5695 -0.2117 -0.0250
    1TCq1    C713820   0.138   4.059  14.613 -0.0665  0.0511 -0.1052
    1TCq1    C813821   0.316   4.150  14.749  0.1205  0.3061 -0.1110
    1TCq1    O413822   0.428   4.136  14.796 -0.0090 -0.2443 -0.1049
    1TCq1    C913823   0.271   3.661  14.696 -0.0006 -0.4580 -0.3293
    1TCq1    O513824   0.378   3.651  14.759  0.2409 -0.3902  1.1567
    1TCq1    O613825   0.187   3.568  14.691  0.0014 -0.6185  0.5632
    1TCq1    H113826   4.661   3.855  14.398 -1.1191 -1.1254 -1.1329
    1TCq1    H213827   0.047   3.733  14.563  3.2599 -1.0956  0.7938
    1TCq1    H313828   0.386   3.874  14.765 -0.7517  0.1564  0.2125
    1TCq1    H413829   0.094   4.156  14.593 -0.4015 -0.2115 -0.6534
    2MPD2     C13830   0.323   4.606  14.977 -0.1166 -0.2062 -0.4757
    2MPD2    C113831   0.230   4.609  14.876 -0.0667  0.3820  0.2097
    2MPD2    C213832   0.192   4.489  14.821  0.3815 -0.0203 -0.3426
    2MPD2    C313833   0.272   4.375  14.833  0.7467  0.0150  0.4194
    2MPD2    C413834   0.375   4.388  14.927  0.4784  0.4442  0.2045
    2MPD2    C513835   0.401   4.497  14.998  0.2659  0.6105 -0.2296
    2MPD2     H13836   0.116   4.485  14.744 -0.6618  1.6702  0.6202
    2MPD2    H113837   0.434   4.306  14.966  2.1138  1.8253  0.6539
    2MPD2    H213838   0.356   4.698  15.024  0.3800  0.1469 -1.4940
    2MPD2    H313839   0.479   4.491  15.073 -2.0135 -0.2915  2.0502
    2MPD2     N13840   0.235   4.262  14.762 -0.5108  0.9739 -0.4485
    2MPD2    H513841   0.155   4.269  14.699 -0.8195  0.2453 -0.1450
    2MPD2    N113842   0.185   0.013  14.821 -0.3898  0.6448  0.9516
    2MPD2    H713843   0.230   0.096  14.859  0.4190 -0.0942  1.5929
    3TMC2    C113844   0.061   0.164  14.710 -0.4821 -0.8299 -0.5176
    3TMC2    C213845   0.086   0.256  14.809 -0.4865 -0.0522 -0.4402
    3TMC2    C313846   0.098   0.387  14.777  0.2774 -0.0527 -0.0257
    3TMC2    C413847   0.042   0.201  14.583  0.2574 -0.3941  0.5682
    3TMC2    C513848   0.048   0.334  14.557  0.2169 -0.7187 -0.2531
    3TMC2    C613849   0.074   0.430  14.655  0.3737  0.4428  1.1643
    3TMC2     C13850   0.085   0.026  14.733 -0.2331 -1.1318 -0.4495
    3TMC2     O13851   0.044   4.668  14.650  0.8370  0.1433  0.5647
    3TMC2     H13852   0.103   0.217  14.908  1.3657 -0.3772 -0.8864
    3TMC2    H113853   0.014   0.126  14.510 -2.5108  1.4129 -0.1994
    3TMC2    H213854   0.087   0.536  14.635 -1.9722  0.0905 -2.1922
    3TMC2    C713855   0.088   0.383  14.426  0.2536 -0.4301 -0.5948
    3TMC2    C813856   0.133   0.478  14.882  0.2312  0.0307 -0.2119
    3TMC2    O113857   0.149   0.306  14.346 -0.3260  0.3463  0.5833
    3TMC2    O213858   0.087   0.595  14.873  0.7350 -0.1443 -0.0749
    3TMC2    O513859   0.261   0.449  14.900  0.0521 -0.0991 -0.6267
    3TMC2    H513860   0.294   0.358  14.884 -1.8120 -0.7912 -0.5849
    4MPD2     C13861   3.659   0.734  13.690 -1.0224 -0.6907 -0.9439
    4MPD2    C113862   3.770   0.720  13.607 -0.0128  0.2290  0.4588
    4MPD2    C213863   3.888   0.780  13.649  0.4186 -0.1671 -0.0965
    4MPD2    C313864   3.894   0.841  13.772  0.3918  0.6694  0.1513
    4MPD2    C413865   3.782   0.854  13.851  0.3085 -0.0740 -0.0538
    4MPD2    C513866   3.664   0.803  13.803 -0.0085  0.0293  0.0732
    4MPD2     H13867   3.978   0.769  13.589 -0.2248  0.1399 -1.1310
    4MPD2    H113868   3.789   0.901  13.948 -1.0750 -1.5313  0.7440
    4MPD2    H213869   3.570   0.679  13.663 -0.9737 -1.5584  0.6398
    4MPD2    H313870   3.578   0.819  13.867  0.0959  0.1474  0.1850
    4MPD2     N13871   4.017   0.898  13.810  0.9262  0.3944  0.6892
    4MPD2    H513872   4.092   0.878  13.744  1.2473 -0.2739  1.2568
    4MPD2    N113873   3.745   0.664  13.479 -0.0640 -0.1571  0.3618
    4MPD2    H713874   3.649   0.634  13.464 -0.7858  0.8248  3.0597
    5TCq2    C113875   4.063   0.933  13.941  0.2472 -0.6295  0.4521
    5TCq2    O213876   3.999   0.931  14.043 -0.1376 -0.4502 -0.3139
    5TCq2    C213877   4.197   0.980  13.952 -0.2960  0.5142 -0.6441
    5TCq2    C313878   4.250   1.041  13.844 -0.7764  0.0272 -0.7518
    5TCq2    C413879   4.384   1.078  13.851 -0.3309 -0.3518 -1.0285
    5TCq2    C513880   4.456   1.054  13.963 -0.4722 -0.1178  0.0785
    5TCq2    C613881   4.401   0.982  14.065  0.0401  0.2372 -0.5006
    5TCq2    C713882   4.269   0.955  14.069 -0.4503 -0.0839 -0.1668
    5TCq2    C813883   4.482   0.880  14.142 -0.1941  0.5243 -0.6058
    5TCq2    O413884   4.440   0.851  14.254  0.5962  0.3683 -0.8694
    5TCq2    C913885   4.450   1.118  13.733 -1.1718  0.4418 -0.3999
    5TCq2    O513886   4.373   1.173  13.646 -0.0463 -0.2001 -0.5824
    5TCq2    O613887   4.562   1.163  13.763  0.6744 -0.2340  0.2121
    5TCq2    H213888   4.200   1.062  13.750  0.3670 -0.1896 -1.4183
    5TCq2    H313889   4.562   1.077  13.963 -0.6824  0.9091  1.4178
    5TCq2    H413890   4.226   0.890  14.144 -1.1088  1.7304  1.0402
    6MPD1     C13891   2.775   1.708  12.824 -0.0013  0.0639 -0.1308
    6MPD1    C113892   2.698   1.603  12.791  0.5681  1.0109  0.0224
    6MPD1    C213893   2.743   1.472  12.805  0.0668 -0.9545 -0.5119
    6MPD1    C313894   2.864   1.451  12.861  0.0181 -0.4686 -0.4976
    6MPD1    C413895   2.945   1.557  12.896 -0.3223  0.2348 -0.5655
    6MPD1    C513896   2.901   1.689  12.878 -0.0707 -0.6035 -0.2913
    6MPD1     H13897   2.686   1.390  12.763 -1.9130  0.8879 -1.4452
    6MPD1    H113898   3.042   1.536  12.938  0.7160  0.3787 -2.9407
    6MPD1    H213899   2.735   1.808  12.812  0.7757  0.0683 -2.7302
    6MPD1    H313900   2.963   1.773  12.908 -1.8254  0.6750 -0.2504
    6MPD1     N13901   2.924   1.322  12.872 -0.1571  0.4072 -0.8254
    6MPD1    H513902   3.021   1.327  12.902 -0.7934  1.8470  1.0141
    6MPD1    N113903   2.568   1.628  12.753  0.1347  0.1100 -0.4172
    6MPD1    H613904   2.553   1.692  12.676  0.8808  2.1875  1.1504
    6MPD1    H713905   2.520   1.542  12.727 -1.6902  1.2204 -0.7260
    7MPD2     C13906   2.980   0.459  13.079  0.1580 -0.5008 -0.0119
    7MPD2    C113907   3.070   0.560  13.091  0.1204 -0.1972 -0.1939
    7MPD2    C213908   3.200   0.521  13.141 -0.6716  0.1521 -0.0060
    7MPD2    C313909   3.230   0.391  13.181 -0.6977  0.1841 -0.0360
    7MPD2    C413910   3.129   0.294  13.163  0.4840  0.5439  1.2058
    7MPD2    C513911   3.006   0.328  13.123 -0.4548  0.3476 -0.1362
    7MPD2     H13912   3.269   0.602  13.161 -0.1533 -0.2839 -0.0289
    7MPD2    H113913   3.152   0.191  13.191 -1.1944 -1.1315 -3.5759
    7MPD2    H213914   2.878   0.480  13.048  0.7157  1.3729 -0.5304
    7MPD2    H313915   2.931   0.251  13.113 -1.0290  0.9411 -0.4422
    7MPD2     N13916   3.357   0.362  13.218  0.5769  0.0972 -0.2527
    7MPD2    H513917   3.372   0.263  13.231 -1.0543  0.0481  1.2106
    7MPD2    N113918   3.060   0.682  13.036  0.0204  0.7903  0.2985
    7MPD2    H713919   3.144   0.740  13.032  0.5131  0.0938  0.6141
    8TMC3    C113920   3.584   0.403  13.246  0.6677  0.0688 -1.4795
    8TMC3    C213921   3.671   0.458  13.341  0.5701  0.3553 -0.4744
    8TMC3    C313922   3.773   0.538  13.293 -0.2358  0.2456  0.4287
    8TMC3    C413923   3.621   0.393  13.116 -0.2100 -0.1363 -0.3975
    8TMC3    C513924   3.722   0.475  13.074 -0.0526 -0.2166 -0.8806
    8TMC3    C613925   3.803   0.546  13.158  0.5770 -0.5991  0.7482
    8TMC3     C13926   3.451   0.454  13.257 -0.0994  0.3726 -0.0147
    8TMC3     O13927   3.443   0.569  13.303  0.3470 -0.1234  0.0947
    8TMC3     H13928   3.620   0.458  13.437 -0.1395  0.7403 -0.8468
    8TMC3    H113929   3.557   0.341  13.046  1.0223 -0.5105 -1.2497
    8TMC3    H213930   3.887   0.612  13.139 -0.4225  0.0104 -1.4991
    8TMC3    C713931   3.678   0.545  12.952 -0.9889  0.0128  0.2592
    8TMC3    C813932   3.827   0.647  13.372  0.3167  0.3953  0.4471
    8TMC3    O113933   3.568   0.508  12.907 -0.5831 -0.4234  0.4160
    8TMC3    O213934   3.938   0.689  13.359 -0.2799  0.5059  0.1342
    9TMC3    C113935   2.953   1.082  12.871  1.0377  0.5554 -0.8501
    9TMC3    C213936   3.064   1.097  12.796  0.1543  0.0055  0.0839
    9TMC3    C313937   3.143   0.979  12.782 -0.3816  0.7819  0.1391
    9TMC3    C413938   2.907   0.963  12.923 -0.0362  0.7967  0.8556
    9TMC3    C513939   2.985   0.855  12.905 -0.2474  0.0618 -0.5599
    9TMC3    C613940   3.108   0.858  12.839  0.1113 -0.2088  0.2430
    9TMC3     C13941   2.863   1.198  12.874  0.5107  0.3611  0.2291
    9TMC3     O13942   2.741   1.172  12.887  0.3933 -0.0887  0.0306
    9TMC3     H13943   3.091   1.196  12.761 -0.2045  0.1361  0.1716
    9TMC3    H113944   2.814   0.957  12.980 -0.6772  0.6611 -0.2067
    9TMC3    H213945   3.143   0.761  12.807  0.7194  0.0257  0.1994
    9TMC3    C713946   2.949   0.742  12.985  0.0948  0.3597  0.1746
    9TMC3    C813947   3.276   0.993  12.718 -0.1222  0.4967  0.6941
    9TMC3    O113948   2.831   0.710  12.997  1.1623  0.2780  0.3313
    9TMC3    O213949   3.304   1.091  12.646  0.0242 -0.5814 -0.8505
   10MPD2     C13950   3.774   0.876  12.833 -0.1306 -0.3456 -0.0390
   10MPD2    C113951   3.689   0.772  12.869 -0.8450 -0.0248 -0.1007
   10MPD2    C213952   3.555   0.779  12.846  0.6747 -0.2252  0.3221
   10MPD2    C313953   3.500   0.887  12.779 -0.1309  0.0747 -0.0422
   10MPD2    C413954   3.584   0.990  12.736 -0.4646 -0.5602 -0.2926
   10MPD2    C513955   3.714   0.988  12.778  0.1728 -0.6539  0.2539
   10MPD2     H13956   3.477   0.711  12.878 -0.1818  1.5581  2.0733
   10MPD2    H113957   3.551   1.078  12.682 -1.2586 -0.0940  0.9646
   10MPD2    H213958   3.876   0.884  12.866 -0.1457 -1.5891  0.2881
   10MPD2    H313959   3.773   1.075  12.752 -0.2638 -0.3573  0.2378
   10MPD2     N13960   3.353   0.886  12.767  0.0942  0.4094 -0.0279
   10MPD2    H513961   3.308   0.816  12.825 -2.0668 -0.0890 -2.2880
   10MPD2    N113962   3.747   0.660  12.935 -0.0136 -0.5669 -0.8661
   10MPD2    H713963   3.844   0.668  12.961 -0.4038  0.1489  0.3651
   11MPD2     C13964   0.159   0.565  14.199 -0.4658  0.8712 -0.0918
   11MPD2    C113965   0.050   0.583  14.277 -0.1578  0.6593 -0.1610
   11MPD2    C213966   4.677   0.679  14.240  0.1478 -0.2112  0.0605
   11MPD2    C313967   4.691   0.757  14.127  0.1112  0.2533 -0.2140
   11MPD2    C413968   0.076   0.732  14.052 -0.0507  0.7412 -0.6943
   11MPD2    C513969   0.174   0.642  14.085 -0.7141 -0.1823 -0.1023
   11MPD2     H13970   4.593   0.686  14.308  0.3158 -1.9684  0.4676
   11MPD2    H113971   0.096   0.789  13.962  2.0898 -0.4033 -0.9324
   11MPD2    H213972   0.235   0.492  14.222  0.7237  1.8445 -0.9080
   11MPD2    H313973   0.261   0.632  14.021  0.4782  0.8180  1.3354
   11MPD2     N13974   4.599   0.855  14.081 -0.8576 -0.0772 -0.2428
   11MPD2    H513975   4.608   0.900  13.991  0.4899  0.3126  0.0934
   11MPD2    N113976   0.020   0.502  14.390  0.6226  0.5488 -0.0546
   11MPD2    H713977   4.681   0.544  14.460 -1.0603 -1.0158 -0.5843
    1MPD1     C13978   1.719   1.774  16.967  0.4152  0.1660 -0.4740
    1MPD1    C113979   1.725   1.637  16.936 -0.7068  0.2708  0.7104
    1MPD1    C213980   1.856   1.580  16.928  0.5190 -0.0571  0.5618
    1MPD1    C313981   1.970   1.663  16.927 -0.3356  0.1289  0.0416
    1MPD1    C413982   1.955   1.798  16.938  0.6924 -0.3205  0.3844
    1MPD1    C513983   1.831   1.854  16.956 -1.2214 -1.2822 -1.0447
    1MPD1     H13984   1.877   1.475  16.916 -1.3643 -0.4596  0.7983
    1MPD1    H113985   2.042   1.863  16.940 -0.9175  1.7071  3.4769
    1MPD1    H213986   1.627   1.831  16.976 -0.5204 -1.6522  1.7298
    1MPD1    H313987   1.823   1.962  16.956 -0.0246 -1.1945  0.1788
    1MPD1     N13988   2.101   1.617  16.919  0.8215 -0.1909  0.0080
    1MPD1    H513989   2.179   1.682  16.927  2.3233 -2.1844  1.4219
    1MPD1    N113990   1.611   1.561  16.938  0.5334 -0.3163 -0.4048
    1MPD1    H613991   1.523   1.611  16.924 -0.4488 -1.8917  0.0894
    1MPD1    H713992   1.618   1.484  16.872 -0.7506 -0.1136 -0.7719
    2MPD1     C13993   2.974   0.979  17.126 -0.0094  0.6883  0.9415
    2MPD1    C113994   3.013   1.086  17.054 -0.8336  0.6116 -0.8297
    2MPD1    C213995   2.912   1.176  17.021 -0.0482  0.2329  0.1608
    2MPD1    C313996   2.779   1.153  17.049  0.0162  0.0941 -0.7660
    2MPD1    C413997   2.748   1.035  17.118 -0.1064  0.3182 -0.8948
    2MPD1    C513998   2.847   0.944  17.149  0.7462 -0.2607  0.2463
    2MPD1     H13999   2.942   1.269  16.973  0.7087  0.5988  1.3430
    2MPD1    H114000   2.645   1.010  17.141  0.3053  1.8269  2.6129
    2MPD1    H214001   3.044   0.897  17.142 -1.1024 -0.7940 -1.8889
    2MPD1    H314002   2.812   0.850  17.190  1.8778  0.6061  3.2310
    2MPD1     N14003   2.689   1.255  17.022 -0.0144  0.3309  0.6254
    2MPD1    H514004   2.730   1.338  16.981 -2.5488 -0.6560 -3.9301
    2MPD1    N114005   3.148   1.109  17.026  0.0593 -0.0835 -0.2735
    2MPD1    H614006   3.193   1.019  17.007  0.4171 -0.4948  2.4899
    2MPD1    H714007   3.165   1.157  16.938  1.2062  1.4111  0.7704
    3TMC3    C114008   2.487   1.356  16.970  0.2286 -0.7224 -0.1670
    3TMC3    C214009   2.543   1.397  16.848  0.6314  0.1796 -0.5927
    3TMC3    C314010   2.462   1.472  16.762  0.4790 -0.7349  0.0567
    3TMC3    C414011   2.355   1.381  17.004  0.4330  0.0364 -0.2636
    3TMC3    C514012   2.289   1.465  16.919  0.1822  0.2934  0.1934
    3TMC3    C614013   2.339   1.520  16.804 -0.5359 -0.0826  0.3686
    3TMC3     C14014   2.552   1.241  17.023 -0.7548 -0.1703 -1.0144
    3TMC3     O14015   2.489   1.152  17.074  0.0250  0.3622  1.0299
    3TMC3     H14016   2.627   1.355  16.794  0.5040 -0.2193 -0.4750
    3TMC3    H114017   2.302   1.321  17.076 -0.0300 -0.3461 -0.9184
    3TMC3    H214018   2.274   1.582  16.744 -0.9518 -1.9787 -1.1270
    3TMC3    C714019   2.142   1.485  16.930  0.0685 -0.4442  0.0213
    3TMC3    C814020   2.474   1.470  16.616  0.2950 -0.7646 -0.4092
    3TMC3    O114021   2.087   1.389  16.981 -0.2235  0.4512 -0.2566
    3TMC3    O214022   2.527   1.367  16.579 -0.7095 -0.2320 -0.0345
    4MPD1     C14023   2.280   1.601  16.173 -0.2352 -0.3222 -0.1297
    4MPD1    C114024   2.254   1.709  16.257 -1.0065  0.2312 -0.1537
    4MPD1    C214025   2.309   1.705  16.385  0.0943  0.5227  0.5287
    4MPD1    C314026   2.369   1.588  16.422 -0.4148  0.4038  0.1478
    4MPD1    C414027   2.377   1.478  16.344  0.4374  0.3604 -0.3119
    4MPD1    C514028   2.337   1.491  16.222  0.5039 -0.3063 -0.2292
    4MPD1     H14029   2.289   1.783  16.458 -0.4512  2.1440 -1.3392
    4MPD1    H114030   2.410   1.381  16.378  2.7886  1.0461 -0.6355
    4MPD1    H214031   2.257   1.604  16.067 -0.2220  1.8991 -0.0659
    4MPD1    H314032   2.354   1.413  16.149 -1.2801 -0.8611 -0.0521
    4MPD1     N14033   2.412   1.578  16.556  0.2977 -0.4701  0.4435
    4MPD1    H514034   2.388   1.655  16.619  1.4529  1.1588 -1.1139
    4MPD1    N114035   2.191   1.828  16.208  0.9575 -0.2149  0.3353
    4MPD1    H614036   2.137   1.879  16.278  0.5878 -0.3859  0.1722
    4MPD1    H714037   2.137   1.816  16.123  1.5226 -1.6118  0.1841
    1TCq1    O114038   3.376   1.161  11.775 -0.0066 -0.0929  0.3806
    1TCq1    C114039   3.261   1.191  11.839  0.6001  0.0099  0.0172
    1TCq1    O214040   3.219   1.146  11.940 -0.8237 -0.0693  0.2117
    1TCq1    C214041   3.170   1.273  11.753  0.1116  0.2107 -0.5059
    1TCq1    C314042   3.225   1.381  11.684 -0.8721 -0.0210 -0.5727
    1TCq1    C414043   3.128   1.450  11.612 -0.1451  0.3355  1.1643
    1TCq1    C514044   2.998   1.399  11.593  0.1641  0.3553  0.2558
    1TCq1    C614045   2.954   1.283  11.659 -0.4095  0.2959 -0.1634
    1TCq1    C714046   3.042   1.223  11.742  0.1006  0.1066 -0.3128
    1TCq1    C814047   2.811   1.259  11.688 -0.7120 -0.3823 -0.5771
    1TCq1    O414048   2.775   1.167  11.758 -0.0864 -0.4314 -0.0528
    1TCq1    C914049   3.174   1.552  11.512  0.2347 -0.5002  0.4550
    1TCq1    O514050   3.297   1.585  11.498 -0.2796 -0.0466 -0.2006
    1TCq1    O614051   3.089   1.603  11.429  0.6733 -0.3526  0.2758
    1TCq1    H114052   3.396   1.204  11.689  2.2866 -0.3487  0.7782
    1TCq1    H214053   3.330   1.407  11.686 -0.7589 -0.6737  2.0803
    1TCq1    H314054   2.942   1.463  11.526 -0.1046 -1.8261 -1.5955
    1TCq1    H414055   3.005   1.140  11.801  0.8192 -0.6305 -0.9082
    2MPD1     C14056   2.332   1.336  11.540  0.5134  0.6726 -0.4574
    2MPD1    C114057   2.413   1.400  11.451 -1.4376 -0.1321 -0.0732
    2MPD1    C214058   2.549   1.393  11.475 -0.2079 -0.0405  1.1147
    2MPD1    C314059   2.597   1.327  11.584  0.1694  0.4485 -0.3681
    2MPD1    C414060   2.511   1.254  11.665 -0.8348  0.0483  0.4430
    2MPD1    C514061   2.382   1.250  11.639 -0.3347  0.1706 -0.0752
    2MPD1     H14062   2.612   1.442  11.402 -1.4666  0.7849  0.5839
    2MPD1    H114063   2.551   1.194  11.745 -0.2285  0.0524  0.1417
    2MPD1    H214064   2.225   1.321  11.527  0.2182  1.5358  0.9762
    2MPD1    H314065   2.318   1.194  11.706  1.2238 -1.9654 -0.3833
    2MPD1     N14066   2.739   1.329  11.594  0.9469  0.2111  1.0472
    2MPD1    H514067   2.787   1.403  11.544  0.9757 -0.8529 -0.5073
    2MPD1    N114068   2.352   1.442  11.332 -0.2146  0.5033 -0.5232
    2MPD1    H614069   2.256   1.475  11.343 -0.3702 -0.4862  1.0331
    2MPD1    H714070   2.403   1.515  11.284  2.6657  0.3819  2.3370
    1TCq1    O114071   4.227   1.682   1.993  0.0096 -0.0350 -0.0648
    1TCq1    C114072   4.224   1.666   2.127 -0.0620  0.1332 -0.3948
    1TCq1    O214073   4.169   1.740   2.203  0.4904  0.2995 -0.6054
    1TCq1    C214074   4.358   1.605   2.137 -0.0488 -0.6204 -0.0347
    1TCq1    C314075   4.451   1.651   2.227 -0.6763  0.4507  0.1648
    1TCq1    C414076   4.572   1.589   2.249 -0.9432 -0.1487 -0.0474
    1TCq1    C514077   4.604   1.489   2.166  0.4764 -0.0217  0.2455
    1TCq1    C614078   4.506   1.433   2.089 -0.0771 -0.2323  0.1585
    1TCq1    C714079   4.378   1.490   2.073 -0.1972 -0.2693 -0.0059
    1TCq1    C814080   4.525   1.298   2.033 -1.2355  0.0178 -0.0308
    1TCq1    O414081   4.617   1.225   2.069 -0.2256 -0.7908  0.6112
    1TCq1    C914082   4.680   1.652   2.319 -0.7561  0.2520  0.8281
    1TCq1    O514083   4.654   1.756   2.382 -0.1559  0.2663 -0.3724
    1TCq1    O614084   0.072   1.614   2.291  0.2864 -0.3712 -0.1470
    1TCq1    H114085   4.276   1.608   1.951  0.1217 -0.3079  0.5485
    1TCq1    H214086   4.440   1.756   2.254 -1.5704  0.1588  0.9375
    1TCq1    H314087   4.696   1.434   2.181 -0.2229 -1.0906  0.6313
    1TCq1    H414088   4.292   1.436   2.034 -0.5896 -0.4501  1.0986
    2MPD1     C14089   4.412   0.924   1.709  0.0106 -1.3183 -0.2620
    2MPD1    C114090   4.374   1.048   1.652  0.3087  0.1521  0.3493
    2MPD1    C214091   4.377   1.161   1.731  0.5847  0.9069  0.4450
    2MPD1    C314092   4.428   1.151   1.859 -0.6476 -0.5011 -0.0599
    2MPD1    C414093   4.462   1.033   1.922  0.3491 -0.2060 -0.2410
    2MPD1    C514094   4.446   0.919   1.847  0.7104  0.3863  0.2071
    2MPD1     H14095   4.350   1.260   1.699  0.7574  0.2401 -1.7842
    2MPD1    H114096   4.496   1.021   2.024 -1.1389  0.8686  0.3835
    2MPD1    H214097   4.420   0.828   1.661  1.3012 -0.5425 -1.6123
    2MPD1    H314098   4.472   0.824   1.892  2.3841  0.2864 -0.9876
    2MPD1     N14099   4.445   1.273   1.926 -0.1440  0.2749 -0.8484
    2MPD1    H514100   4.402   1.357   1.888 -2.8769 -2.0541 -2.9327
    2MPD1    N114101   4.327   1.055   1.522 -0.2707 -0.0462 -0.4083
    2MPD1    H614102   4.369   0.988   1.458  0.9126  1.2672 -1.0123
    2MPD1    H714103   4.323   1.146   1.478  0.9275  0.6973  1.0520
    1MPD1     C14104   0.044   2.597  10.887  0.2108 -0.4120  0.2593
    1MPD1    C114105   0.045   2.461  10.910 -0.4257 -0.0134 -0.1910
    1MPD1    C214106   0.092   2.423  11.034 -0.4594 -0.1598 -0.0049
    1MPD1    C314107   0.126   2.514  11.133  0.5165 -0.3092  0.5501
    1MPD1    C414108   0.110   2.644  11.114  0.5273 -0.6513  0.5281
    1MPD1    C514109   0.072   2.691  10.988  0.0208 -0.2437  0.2052
    1MPD1     H14110   0.115   2.317  11.041  1.5849  0.2166 -1.0576
    1MPD1    H114111   0.152   2.719  11.181  3.1149  0.1417 -1.9752
    1MPD1    H214112   0.033   2.636  10.787 -2.8565 -3.1212 -0.4418
    1MPD1    H314113   0.082   2.796  10.966 -0.2895 -0.0050  1.2033
    1MPD1     N14114   0.174   2.472  11.260 -0.0597  0.4503 -0.9560
    1MPD1    H514115   0.185   2.544  11.331 -1.4546 -0.5352  0.2823
    1MPD1    N114116   0.049   2.379  10.798 -0.4055  0.0284  0.1870
    1MPD1    H614117   0.014   2.288  10.830 -1.0389 -0.5077 -2.0729
    1MPD1    H714118   4.709   2.411  10.725  0.0865 -0.5896 -0.5121
    2MPD1     C14119   0.219   2.722  10.019 -0.0513 -1.0092 -0.3281
    2MPD1    C114120   0.090   2.671  10.057 -0.4069  0.5153 -0.5580
    2MPD1    C214121   0.079   2.557  10.137  0.4620 -0.8268 -0.3939
    2MPD1    C314122   0.192   2.486  10.178  0.0072  0.0973  0.3644
    2MPD1    C414123   0.318   2.533  10.142 -0.0116 -0.5174 -0.3728
    2MPD1    C514124   0.327   2.640  10.052 -0.7593  0.2561 -0.2001
    2MPD1     H14125   4.699   2.522  10.152 -0.8423  2.8433 -0.6623
    2MPD1    H114126   0.411   2.482  10.162  0.0031  0.1317  1.1712
    2MPD1    H214127   0.232   2.811   9.958 -2.8372 -0.4815 -0.1167
    2MPD1    H314128   0.427   2.673  10.027 -0.2426 -1.3478 -0.2060
    2MPD1     N14129   0.199   2.365  10.248 -0.2151  0.0027  0.2358
    2MPD1    H514130   0.289   2.325  10.272 -1.0476 -2.0069 -0.0543
    2MPD1    N114131   4.701   2.746  10.024 -0.5226  0.2882  0.1383
    2MPD1    H614132   4.720   2.799   9.939  0.3351 -0.2771 -0.0319
    2MPD1    H714133   4.609   2.703  10.033 -0.1481 -0.5280  0.0578
    3MPD1     C14134   4.670   1.345  10.528  0.4339 -0.7211 -0.2239
    3MPD1    C114135   4.650   1.427  10.636 -0.2489 -0.1609 -0.2289
    3MPD1    C214136   4.643   1.559  10.629  0.3728 -1.0359  0.3412
    3MPD1    C314137   4.676   1.623  10.510 -0.2041  0.3802  0.2603
    3MPD1    C414138   4.702   1.545  10.398  0.3896  0.1994 -0.0071
    3MPD1    C514139   4.694   1.409  10.414 -0.7825 -0.0500 -0.7573
    3MPD1     H14140   4.622   1.623  10.714 -0.0305 -0.0517 -0.4961
    3MPD1    H114141   0.007   1.584  10.300  0.6856 -0.0288 -0.0134
    3MPD1    H214142   4.678   1.237  10.538  1.9111 -0.4785  1.0834
    3MPD1    H314143   4.720   1.347  10.329 -1.6399 -1.9713  0.3748
    3MPD1     N14144   4.683   1.762  10.519 -0.3355  0.1108 -0.4719
    3MPD1    H514145   4.676   1.796  10.614  0.8984  0.5750 -0.5534
    3MPD1    N114146   4.599   1.367  10.757  0.2352 -0.0072  0.2543
    3MPD1    H614147   4.626   1.425  10.836  0.4972 -1.1388  0.9911
    3MPD1    H714148   4.635   1.273  10.774  2.5791  0.9823  0.7208
    4MPD2     C14149   0.858   2.366  11.286 -0.7879  0.0714  0.0658
    4MPD2    C114150   0.772   2.264  11.324 -0.6641  1.1473 -0.4607
    4MPD2    C214151   0.809   2.134  11.292  0.2985 -0.0269  0.0654
    4MPD2    C314152   0.921   2.108  11.216 -0.1176 -0.0562 -0.2279
    4MPD2    C414153   0.995   2.214  11.165 -0.4226 -0.5372  0.4285
    4MPD2    C514154   0.959   2.343  11.195  0.0765 -0.3554  0.4590
    4MPD2     H14155   0.741   2.051  11.305 -3.0761  3.0468  2.2363
    4MPD2    H114156   1.091   2.199  11.117 -0.7078  0.0120 -0.3037
    4MPD2    H214157   0.857   2.463  11.335  4.0316  0.5170 -0.7137
    4MPD2    H314158   1.036   2.416  11.172  0.3919 -1.0174 -0.6295
    4MPD2     N14159   0.959   1.973  11.197  0.0527  0.2808  0.3392
    4MPD2    H514160   0.901   1.904  11.245  1.2361 -1.7425 -1.1407
    4MPD2    N114161   0.663   2.276  11.413 -0.1695  0.6811  0.5664
    4MPD2    H714162   0.627   2.186  11.444 -0.2732  0.6307  0.2919
    5TMC3    C114163   0.484   2.372  11.515 -0.2875  0.3339  0.5874
    5TMC3    C214164   0.378   2.412  11.434  0.4014  0.2825 -0.3909
    5TMC3    C314165   0.279   2.324  11.415 -0.3864 -0.3748 -0.3004
    5TMC3    C414166   0.478   2.243  11.570 -0.2202  0.4312  0.1400
    5TMC3    C514167   0.374   2.161  11.551 -0.4207  0.2983 -0.1421
    5TMC3    C614168   0.271   2.200  11.472  0.0633  0.0989 -0.4984
    5TMC3     C14169   0.612   2.397  11.455  0.2042  0.0495  1.0946
    5TMC3     O14170   0.639   2.510  11.418  0.6455  0.4653 -0.3442
    5TMC3     H14171   0.387   2.503  11.375 -0.3550 -0.0389 -1.0186
    5TMC3    H114172   0.554   2.210  11.640  1.3782  1.5722 -1.0657
    5TMC3    H214173   0.180   2.143  11.456  0.9658 -1.9003  1.5335
    5TMC3    C714174   0.425   2.034  11.518 -0.1241 -0.1054  1.0092
    5TMC3    C814175   0.191   2.340  11.302 -0.3784 -0.0195 -0.2457
    5TMC3    O114176   0.544   2.034  11.517 -0.0777 -0.2450 -0.1149
    5TMC3    O214177   0.171   2.238  11.240 -0.4436 -0.3580 -0.2788
    6TMC3    C114178   0.122   2.173  10.354  0.3776 -0.0225  0.2202
    6TMC3    C214179   0.031   2.067  10.352 -0.2965  0.1952  0.2447
    6TMC3    C314180   0.042   1.976  10.450 -0.2256  0.7487  0.5087
    6TMC3    C414181   0.218   2.185  10.448  0.2545 -0.6012  0.3744
    6TMC3    C514182   0.220   2.090  10.545 -0.2254 -0.4697 -0.5116
    6TMC3    C614183   0.138   1.981  10.544 -0.3662  0.7256  0.8856
    6TMC3     C14184   0.084   2.296  10.290  0.7492 -0.5893 -0.6352
    6TMC3     O14185   4.686   2.315  10.282 -0.2360 -0.1740 -0.1148
    6TMC3     H14186   4.679   2.053  10.275  1.1941  0.0898 -1.1662
    6TMC3    H114187   0.287   2.268  10.460 -1.1699  0.3745  1.7012
    6TMC3    H214188   0.151   1.897  10.612 -0.3956  1.1611  1.4242
    6TMC3    C714189   0.349   2.059  10.609  0.6222  0.0082  0.3431
    6TMC3    C814190   4.720   1.838  10.412 -0.4008  0.7315  0.5794
    6TMC3    O114191   0.393   1.955  10.578 -0.1971 -0.0000  0.4730
    6TMC3    O214192   0.008   1.810  10.290  0.5446 -0.3562 -0.2513
    7MPD2     C14193   0.399   1.600  11.268  0.0195  0.3514 -0.3018
    7MPD2    C114194   0.499   1.674  11.306  0.6784  0.2785  1.1040
    7MPD2    C214195   0.479   1.794  11.381 -0.0941 -0.5071  0.4331
    7MPD2    C314196   0.351   1.826  11.413 -0.2616 -0.1464 -0.5746
    7MPD2    C414197   0.246   1.747  11.380 -0.9678 -0.1513 -0.6182
    7MPD2    C514198   0.270   1.638  11.304 -0.1185 -0.3722  0.7366
    7MPD2     H14199   0.565   1.857  11.400  0.6130 -1.2025 -0.4168
    7MPD2    H114200   0.145   1.785  11.390 -0.6276  0.6757 -0.2855
    7MPD2    H214201   0.401   1.514  11.203  0.6973 -0.2806  0.5506
    7MPD2    H314202   0.198   1.567  11.265 -0.3854 -0.7241  1.8892
    7MPD2     N14203   0.324   1.956  11.468  0.6834 -0.5660  0.1914
    7MPD2    H514204   0.231   1.995  11.473  0.1224 -1.9123  0.0438
    7MPD2    N114205   0.625   1.629  11.249 -0.2245  1.0506 -0.2019
    7MPD2    H714206   0.627   1.540  11.200  0.4283  2.0847 -2.0333
    8TMC3    C114207   0.836   1.652  11.157  0.4136 -0.3362 -0.0876
    8TMC3    C214208   0.781   1.636  11.038  0.5755 -0.0962 -0.2974
    8TMC3    C314209   0.835   1.713  10.935 -0.3064  0.4508 -0.2664
    8TMC3    C414210   0.954   1.723  11.179  0.0675 -0.2683 -0.6272
    8TMC3    C514211   1.014   1.786  11.079  0.0106 -0.0238  0.3964
    8TMC3    C614212   0.950   1.780  10.958 -0.0745 -0.4112  0.2483
    8TMC3     C14213   0.741   1.691  11.256  0.3312 -0.2803  0.4818
    8TMC3     O14214   0.778   1.792  11.312  0.0363 -0.3217  0.1564
    8TMC3     H14215   0.688   1.581  11.025  1.6877 -1.7996 -1.0568
    8TMC3    H114216   0.988   1.727  11.281 -0.5722 -4.4263 -0.2657
    8TMC3    H214217   0.993   1.835  10.875  1.2736 -0.1538  1.1178
    8TMC3    C714218   1.050   1.927  11.103  0.9137 -0.1541 -0.2957
    8TMC3    C814219   0.734   1.802  10.890  0.2785  0.5528  0.0617
    8TMC3    O114220   1.108   1.996  11.020 -0.1095 -0.9401 -0.0680
    8TMC3    O214221   0.627   1.751  10.860  0.3181 -1.1725 -0.2099
    9MPD2     C14222   0.750   2.167  10.902  0.5873 -0.8960  0.2880
    9MPD2    C114223   0.697   2.048  10.868  0.5395  0.4966  0.3782
    9MPD2    C214224   0.582   2.043  10.790  0.4226  0.1465 -0.0995
    9MPD2    C314225   0.522   2.165  10.747  0.4394  0.2587  0.5166
    9MPD2    C414226   0.573   2.287  10.785  0.7089 -0.3734  0.2298
    9MPD2    C514227   0.684   2.283  10.865  0.0431 -0.4255  0.7134
    9MPD2     H14228   0.554   1.944  10.757  1.1877 -0.2475  0.4161
    9MPD2    H114229   0.519   2.379  10.765  1.2906 -0.1747 -0.4576
    9MPD2    H214230   0.840   2.172  10.962 -0.1734 -2.4983  1.5594
    9MPD2    H314231   0.722   2.380  10.894  0.1642  0.2770 -1.7527
    9MPD2     N14232   0.406   2.169  10.669 -0.7184  0.2348  0.2042
    9MPD2    H514233   0.354   2.256  10.666 -0.2321  0.5330  0.3447
    9MPD2    N114234   0.768   1.935  10.908  0.2249 -0.6105 -0.7702
    9MPD2    H714235   0.858   1.956  10.949  0.2507  1.4023 -1.8447
    1MPD1     C14236   3.865   1.037  16.041 -0.3516  0.5986 -0.7051
    1MPD1    C114237   3.997   0.990  16.038 -0.2918 -0.0842  0.4491
    1MPD1    C214238   4.060   0.967  16.153 -0.0439  0.4549  0.3015
    1MPD1    C314239   3.994   0.994  16.269 -0.2538 -1.1733  0.6254
    1MPD1    C414240   3.861   1.027  16.276 -0.0124  0.2032 -0.7010
    1MPD1    C514241   3.801   1.058  16.158 -0.2286 -0.4273 -0.0216
    1MPD1     H14242   4.165   0.940  16.145 -0.3526 -1.3742  2.4513
    1MPD1    H114243   3.809   1.045  16.370  1.4462  0.5753  0.0285
    1MPD1    H214244   3.814   1.056  15.947  1.3259  0.6011 -1.6236
    1MPD1    H314245   3.701   1.099  16.167  0.7285  2.3776 -1.8751
    1MPD1     N14246   4.056   0.980  16.395 -0.1654  0.0205  0.8942
    1MPD1    H514247   4.000   0.988  16.480  0.3433  0.7838  1.1489
    1MPD1    N114248   4.063   0.936  15.925  0.0794  0.4260 -0.2496
    1MPD1    H614249   4.051   0.994  15.842  0.5222  2.5753  1.1892
    1MPD1    H714250   4.162   0.915  15.936 -0.2748 -1.5625 -0.8818
    2MPD1     C14251   0.331   0.835  16.593  0.2721  0.1624  0.2422
    2MPD1    C114252   0.256   0.949  16.581  0.7433 -0.5806  0.5063
    2MPD1    C214253   0.120   0.940  16.600 -0.3391  0.0758  0.2628
    2MPD1    C314254   0.045   0.822  16.612  0.2130 -0.0212  1.0470
    2MPD1    C414255   0.118   0.707  16.630  0.3039 -0.4010  0.3626
    2MPD1    C514256   0.262   0.715  16.610  0.5676  0.1565  0.0890
    2MPD1     H14257   0.060   1.030  16.603  0.5116  0.6287  0.7225
    2MPD1    H114258   0.077   0.608  16.644 -0.3948 -0.0896  0.4754
    2MPD1    H214259   0.438   0.832  16.580  0.2833  3.2122 -0.2478
    2MPD1    H314260   0.319   0.625  16.632 -1.4801 -0.4076  3.0860
    2MPD1     N14261   4.625   0.832  16.629  0.3545  0.2007 -0.0296
    2MPD1    H514262   4.587   0.926  16.635 -0.3143 -0.2110  2.2142
    2MPD1    N114263   0.316   1.075  16.562  0.0460 -0.2010  0.2327
    2MPD1    H614264   0.256   1.146  16.520 -2.4568 -0.6357  3.0397
    2MPD1    H714265   0.404   1.060  16.513 -0.4978  1.5136 -1.2698
    3TCq2    C114266   4.536   0.731  16.657 -0.5293  0.0322 -0.1874
    3TCq2    O214267   4.568   0.620  16.701  0.3512  0.0040 -0.0895
    3TCq2    C214268   4.390   0.769  16.654 -0.2045  0.2972 -0.1423
    3TCq2    C314269   4.302   0.700  16.728  0.3113  0.3550  0.0339
    3TCq2    C414270   4.167   0.723  16.705  0.2058 -0.4536  0.2638
    3TCq2    C514271   4.122   0.820  16.617 -0.4915 -0.0913 -0.7608
    3TCq2    C614272   4.216   0.888  16.548 -0.6104 -0.5838 -0.5488
    3TCq2    C714273   4.351   0.872  16.573  0.0984 -0.4843  0.6230
    3TCq2    C814274   4.187   0.943  16.414 -0.1536 -0.0497 -0.9131
    3TCq2    O414275   4.270   0.913  16.329 -0.3499  0.1339 -0.6418
    3TCq2    C914276   4.070   0.655  16.779  0.1694  0.2054 -0.4271
    3TCq2    O514277   4.111   0.563  16.860 -0.3084  0.6680  0.1697
    3TCq2    O614278   3.951   0.685  16.756  0.0561 -0.5634  0.0331
    3TCq2    H214279   4.341   0.620  16.789  1.2640  1.2389  0.5945
    3TCq2    H314280   4.016   0.837  16.601 -0.3795  0.5898 -0.7630
    3TCq2    H414281   4.421   0.921  16.505  0.1641 -1.0132  0.3060
    1TCq1    O114282   2.484   4.174  12.564  0.3482 -0.0587  0.2334
    1TCq1    C114283   2.577   4.135  12.651  0.3961  0.8901 -0.6296
    1TCq1    O214284   2.586   4.021  12.701  0.4502 -0.1693 -0.0606
    1TCq1    C214285   2.608   4.248  12.744 -0.2493  0.2697 -0.3860
    1TCq1    C314286   2.501   4.301  12.808  0.2474  0.1101  0.1417
    1TCq1    C414287   2.516   4.361  12.929 -0.0599 -0.0584 -0.1392
    1TCq1    C514288   2.642   4.375  12.987  0.6747 -0.7237  0.5799
    1TCq1    C614289   2.748   4.317  12.917 -0.1025  0.2194 -0.4689
    1TCq1    C714290   2.730   4.249  12.799  0.0677 -0.0251  0.0072
    1TCq1    C814291   2.889   4.364  12.943  0.5933 -0.6549  0.1415
    1TCq1    O414292   2.967   4.337  12.849 -0.1280 -0.1245  0.1990
    1TCq1    C914293   2.401   4.418  12.996 -0.2736  0.3114 -0.0012
    1TCq1    O514294   2.281   4.414  12.952 -0.2883 -0.1953 -0.2446
    1TCq1    O614295   2.421   4.461  13.110 -0.5380  0.2130 -0.0881
    1TCq1    H114296   2.485   4.269  12.543  0.6296  0.0486  0.7250
    1TCq1    H214297   2.401   4.293  12.766  0.0966  0.6875  0.4033
    1TCq1    H314298   2.648   4.428  13.082 -4.8589 -1.4187  1.3130
    1TCq1    H414299   2.814   4.220  12.737  0.3873 -0.3007  0.5691
    2MPD2     C14300   3.151   4.484  13.005 -0.3800  0.1006  0.0013
    2MPD2    C114301   3.042   4.492  13.088  0.4206  0.3818  0.2384
    2MPD2    C214302   3.046   4.565  13.203 -0.5312  0.2898  0.3713
    2MPD2    C314303   3.160   4.637  13.241 -0.0093 -0.5109  0.9147
    2MPD2    C414304   3.266   4.627  13.164 -0.2925 -0.3583  0.6326
    2MPD2    C514305   3.260   4.557  13.047  0.1273  0.9971 -0.9940
    2MPD2     H14306   2.957   4.559  13.265 -2.0981  0.3507 -1.8643
    2MPD2    H114307   3.355   4.688  13.181  0.9296 -2.3675  1.4077
    2MPD2    H214308   3.160   4.440  12.906 -0.1539 -1.8610  0.8753
    2MPD2    H314309   3.349   4.559  12.984  1.1851 -1.0232  0.4359
    2MPD2     N14310   3.155   4.710  13.361 -0.2057 -0.6222 -0.2693
    2MPD2    H514311   3.070   4.693  13.412 -1.0631  0.7508 -1.2446
    2MPD2    N114312   2.912   4.435  13.059  0.4034 -0.4443  0.2664
    2MPD2    H714313   2.836   4.463  13.120 -0.8342 -1.2718 -0.9220
    3TCq1    O114314   3.352   0.383  13.813 -0.2235 -0.1282  0.6128
    3TCq1    C114315   3.301   0.437  13.696 -0.1506  0.5136  0.2054
    3TCq1    O214316   3.374   0.493  13.615 -0.2333 -1.0897  0.2714
    3TCq1    C214317   3.209   0.337  13.653  0.8835  0.4053  0.3960
    3TCq1    C314318   3.140   0.271  13.756 -0.4271  0.6311  0.3493
    3TCq1    C414319   3.100   0.145  13.735  0.3424 -0.0716 -0.0420
    3TCq1    C514320   3.122   0.086  13.617  0.6226  0.0505 -0.6805
    3TCq1    C614321   3.198   0.151  13.522  0.4979 -0.7001  0.2796
    3TCq1    C714322   3.241   0.282  13.533  0.4089  0.5720 -0.4191
    3TCq1    C814323   3.248   0.073  13.411 -0.0501 -0.8646  0.2586
    3TCq1    O414324   3.350   0.108  13.354  0.5492  0.4419  0.0942
    3TCq1    C914325   3.052   0.068  13.849 -0.0408  0.1669  0.2204
    3TCq1    O514326   3.068   0.124  13.962  0.0430  0.5685  0.5236
    3TCq1    O614327   3.036   4.666  13.838 -0.3689 -0.2314  0.4602
    3TCq1    H114328   3.319   0.296  13.843  0.6443 -1.5250 -2.5045
    3TCq1    H214329   3.122   0.312  13.855  1.3373  2.2768 -0.0170
    3TCq1    H314330   3.109   4.701  13.608  0.3881  0.1468 -1.4502
    3TCq1    H414331   3.311   0.315  13.458  1.2931 -2.3349 -0.8774
    1MPD2     C14332   2.822   0.240  14.664  0.0040  0.3826 -0.4346
    1MPD2    C114333   2.845   0.148  14.764  0.2334 -1.1176  1.1256
    1MPD2    C214334   2.949   0.157  14.853 -0.8689 -0.7699 -0.1922
    1MPD2    C314335   3.028   0.270  14.848 -0.9733 -0.1720  0.0305
    1MPD2    C414336   3.016   0.355  14.742 -0.3313 -0.0278  0.1233
    1MPD2    C514337   2.913   0.340  14.649 -0.0875  0.1926  0.6981
    1MPD2     H14338   2.963   0.094  14.941 -0.3027  0.1123  0.3490
    1MPD2    H114339   3.069   0.449  14.740  1.9741 -1.3508 -0.6406
    1MPD2    H214340   2.743   0.222  14.591  0.3546 -0.5137 -0.5885
    1MPD2    H314341   2.904   0.406  14.564 -2.0246 -0.6246  0.2726
    1MPD2     N14342   3.121   0.291  14.955  0.0319 -0.2380 -0.3663
    1MPD2    H514343   3.122   0.217  15.025  2.8514 -0.5840 -0.7398
    1MPD2    N114344   2.752   0.046  14.781  0.1190  0.1108 -0.1095
    1MPD2    H714345   2.670   0.047  14.721 -0.4730  0.7188  0.7034
    2TMC3    C114346   2.638   4.584  14.891 -0.7403  0.5557  0.3201
    2TMC3    C214347   2.660   4.470  14.957  0.1130  0.2592  0.2276
    2TMC3    C314348   2.561   4.425  15.046  0.5799 -0.6345  0.2011
    2TMC3    C414349   2.516   4.638  14.893 -0.4318  0.2227 -0.1730
    2TMC3    C514350   2.412   4.586  14.962  0.2800 -0.0173  0.1856
    2TMC3    C614351   2.436   4.477  15.039  0.7475 -0.3538  0.5416
    2TMC3     C14352   2.756   4.659  14.867  0.1096  0.1266 -0.3724
    2TMC3     O14353   2.841   4.613  14.943  0.5337  0.4432 -0.2433
    2TMC3     H14354   2.753   4.414  14.954 -0.2678 -0.4231  1.2401
    2TMC3    H114355   2.505   0.000  14.826  1.5379  1.3219  0.8952
    2TMC3    H214356   2.365   4.443  15.114  0.0306  0.8206  0.4019
    2TMC3    C714357   2.281   4.641  14.964 -0.1682 -0.0053  0.4048
    2TMC3    C814358   2.615   4.441  15.180  0.3144 -0.9337  0.3058
    2TMC3    O114359   2.214   4.602  15.056  0.0624  0.7885  0.6192
    2TMC3    O214360   2.540   4.421  15.276  0.5635 -0.0915 -0.3266
    3TCq1    O114361   1.695   0.962  14.524  0.0950 -0.7459  0.0438
    3TCq1    C114362   1.678   0.883  14.634 -0.6108 -0.3222 -0.8332
    3TCq1    O214363   1.576   0.865  14.697 -0.8638  0.6463  0.0002
    3TCq1    C214364   1.791   0.789  14.625  0.3175  0.1378 -0.5137
    3TCq1    C314365   1.906   0.826  14.559  0.6516 -0.5881  0.6263
    3TCq1    C414366   2.000   0.735  14.532  0.0972  0.1191 -0.8068
    3TCq1    C514367   1.985   0.611  14.588  0.0274 -0.8930 -0.5338
    3TCq1    C614368   1.869   0.572  14.652  0.1007  0.1305 -0.3130
    3TCq1    C714369   1.765   0.661  14.664  0.4117  0.0383 -0.8040
    3TCq1    C814370   1.854   0.440  14.711  0.6133 -0.5056 -0.2085
    3TCq1    O414371   1.741   0.407  14.727 -0.3492 -0.1161  0.2877
    3TCq1    C914372   2.120   0.772  14.462  1.1368 -0.0911  0.9251
    3TCq1    O514373   2.229   0.720  14.494  0.4427  0.1137 -0.7029
    3TCq1    O614374   2.108   0.860  14.374 -0.3308  0.6939 -0.0037
    3TCq1    H114375   1.779   0.942  14.479 -0.0675 -1.7552  0.1979
    3TCq1    H214376   1.929   0.929  14.531 -2.4618  0.0110  0.2474
    3TCq1    H314377   2.068   0.543  14.573  1.1104  0.1799  0.6050
    3TCq1    H414378   1.669   0.633  14.707  0.3984  1.8379  0.3186
    4MPD2     C14379   1.873   0.172  14.817  0.6179 -0.3747 -0.2006
    4MPD2    C114380   1.984   0.248  14.797 -0.0897 -0.0896  0.1102
    4MPD2    C214381   2.113   0.200  14.815  0.6451  0.3997 -0.0136
    4MPD2    C314382   2.125   0.074  14.871 -0.5195 -0.7906  0.5473
    4MPD2    C414383   2.010   0.004  14.919 -0.1934 -0.6558 -0.2383
    4MPD2    C514384   1.889   0.058  14.884  0.7552 -0.2207 -0.1191
    4MPD2     H14385   2.201   0.263  14.807 -0.0385  1.1033 -1.7844
    4MPD2    H114386   2.010   4.626  14.959  0.3871 -0.2541  0.7568
    4MPD2    H214387   1.773   0.197  14.785  0.6416 -0.2442 -0.1742
    4MPD2    H314388   1.797   0.002  14.898  1.2366 -0.6378  1.3927
    4MPD2     N14389   2.254   0.025  14.883  0.5077  0.0615 -0.1882
    4MPD2    H514390   2.322   0.079  14.831  1.5915 -0.1289  1.0565
    4MPD2    N114391   1.977   0.385  14.740  0.4995 -0.6005  0.1404
    4MPD2    H714392   2.062   0.439  14.726  0.7918 -0.3923  2.7204
    5TMC2    C114393   3.237   0.200  15.270  0.2788 -0.5407  0.1973
    5TMC2    C214394   3.217   0.294  15.370 -0.1005 -0.0059 -0.1938
    5TMC2    C314395   3.211   0.426  15.328  0.8129  0.1844  0.2291
    5TMC2    C414396   3.268   0.245  15.142 -0.3676 -0.0837 -0.0558
    5TMC2    C514397   3.257   0.380  15.114 -0.2096  0.2180 -0.5391
    5TMC2    C614398   3.221   0.470  15.201 -0.0187  0.0203 -0.2562
    5TMC2     C14399   3.160   0.085  15.263  0.5396 -0.1426  0.8451
    5TMC2     O14400   3.139   0.048  15.149  0.0649  0.6189 -0.5795
    5TMC2     H14401   3.194   0.267  15.473 -3.2616 -0.4110 -1.0030
    5TMC2    H114402   3.320   0.184  15.070  0.6362 -0.4491  0.9798
    5TMC2    H214403   3.234   0.574  15.175 -2.0168  0.0349 -1.1669
    5TMC2    C714404   3.197   0.405  14.985  0.2961 -0.6996 -0.0895
    5TMC2    C814405   3.180   0.518  15.438 -0.2488 -0.5678 -0.0738
    5TMC2    O114406   3.184   0.522  14.945 -0.3224 -0.3250 -0.1754
    5TMC2    O214407   3.202   0.481  15.550 -0.2867 -0.2157 -0.1884
    5TMC2    O514408   3.085   0.599  15.386 -0.5486  0.5509  0.1356
    5TMC2    H514409   3.074   0.578  15.291 -4.0296  2.1379  0.1863
    6MPD2     C14410   2.783   4.501  15.413 -0.0439 -0.0713  0.0481
    6MPD2    C114411   2.809   4.553  15.291  0.5220  0.5694 -0.3354
    6MPD2    C214412   2.925   4.634  15.279 -0.8206  0.0476  0.0077
    6MPD2    C314413   3.004   4.663  15.389  0.3252 -0.3937 -0.4557
    6MPD2    C414414   2.975   4.610  15.514  0.0826 -0.0507  0.3240
    6MPD2    C514415   2.865   4.527  15.524  0.7979  0.3159 -0.3100
    6MPD2     H14416   2.951   4.676  15.182 -2.0230  1.7788  0.4346
    6MPD2    H114417   3.039   4.639  15.596 -3.3838  1.4201  2.5140
    6MPD2    H214418   2.708   4.424  15.427 -1.1736  0.7889 -1.3038
    6MPD2    H314419   2.847   4.479  15.620  0.0648  0.3894 -0.4095
    6MPD2     N14420   3.116   0.031  15.381 -0.0484 -0.3606  0.0751
    6MPD2    H514421   3.162   0.067  15.464 -0.3837 -0.8555  0.4787
    6MPD2    N114422   2.735   4.510  15.176  0.6928 -0.4343  0.2653
    6MPD2    H714423   2.771   4.545  15.088  0.7218 -0.6548  0.1921
  945NH3     N114424   0.121   4.648   0.442  1.2860  0.4893 -0.1933
  945NH3     H214425   0.222   4.637   0.443  1.2494  0.1714  0.1143
  945NH3     H314426   0.107   4.717   0.515  3.3085  1.0053 -0.3001
  945NH3     H414427   0.116   4.693   0.351 -0.0888 -0.2609 -0.4913
  946SOD     NA14428   1.884   3.352  15.091  0.4370 -0.3675 -0.5097
  947SOD     NA14429   3.882   4.584  14.503  0.6635  0.0376 -0.9314
  948SOD     NA14430   2.308   4.424  10.383  0.2023 -0.5155 -0.6828
  949SOD     NA14431   3.797   3.856  11.266 -0.2839  0.7208  0.2863
  950SOD     NA14432   2.878   3.614   0.508  0.1921  0.2814 -0.1604
  951SOD     NA14433   0.404   3.440  14.826  0.1570 -0.1619 -0.0633
  952SOD     NA14434   1.043   1.873   5.438 -0.0053  0.0901  0.3944
  953SOD     NA14435   1.674   0.145  10.322 -0.4159  0.1350  0.1454
  954SOD     NA14436   0.650   2.724  11.382 -0.1143  0.3560  0.5312
  955SOD     NA14437   3.765   0.313  13.890 -0.1027  0.4980 -0.4406
  956SOD     NA14438   4.691   4.498   0.497  0.5305  0.4217 -0.3879
  957SOD     NA14439   3.407   4.603  11.928 -0.5656  0.0007  0.0190
  958SOD     NA14440   1.186   0.071   5.176  0.4194 -0.3818  0.1753
  959SOD     NA14441   4.386   0.850  15.405  0.4608 -0.1607 -0.3361
  960SOD     NA14442   1.917   3.390  11.193 -0.1709  0.3631 -0.5051
  961SOD     NA14443   2.871   3.955  10.056 -0.3433 -0.1561  0.2738
  962SOD     NA14444   3.987   0.266  10.790  0.3689 -0.9129 -0.3555
  963SOD     NA14445   0.478   1.736   0.311 -0.3025 -0.3076 -0.1652
  964SOD     NA14446   4.491   2.958  13.113 -0.0613 -0.3317 -0.1127
  965SOD     NA14447   1.991   4.646  13.064 -0.2802  0.3949  0.5286
  966SOD     NA14448   4.164   4.446  14.640  0.0989 -0.4433  0.1819
  967SOD     NA14449   0.194   3.474   1.122 -0.0185  0.3686  0.1837
  968SOD     NA14450   2.232   3.644   9.836 -0.3465 -0.4243 -0.1192
  969SOD     NA14451   0.575   0.228  16.439 -0.3212  0.2541 -0.6762
  970SOD     NA14452   0.125   3.093   2.591 -0.1646  0.1654  0.1568
  971SOD     NA14453   2.207   4.422  13.166  0.8552 -0.2240  0.0410
  972SOD     NA14454   2.999   4.663  14.056 -0.1388 -0.2961  0.0033
  973SOD     NA14455   3.460   3.616  11.723  0.3354 -0.2804 -0.2700
  974SOD     NA14456   3.927   1.034  13.204  0.4667 -0.0615  0.1788
  975SOD     NA14457   0.699   1.792   1.662 -0.0028  0.1583  0.7514
  976SOD     NA14458   4.567   1.372  13.839 -0.3883 -0.0772  0.0516
  977SOD     NA14459   3.371   4.379   7.787 -0.2515  0.3818  0.2225
  978SOD     NA14460   3.161   1.296   7.513  0.0930 -0.2279  0.0259
  979SOD     NA14461   3.736   3.143  13.901  0.3606 -0.1070  0.0767
  980SOD     NA14462   1.385   3.022  13.072  0.0425 -0.1566  0.1385
  981SOD     NA14463   0.506   3.149   1.514  0.1995  0.0277 -0.0291
  982SOD     NA14464   1.955   3.331   4.273 -0.0961  0.0995  0.1398
  983SOD     NA14465   3.834   2.478  16.321  0.2622  0.1614 -0.1498
  984SOD     NA14466   2.810   1.099   9.399  0.2338 -0.3251 -0.0190
  985SOD     NA14467   3.645   0.322  10.893  0.3278  0.1802 -0.2199
  986SOD     NA14468   4.068   4.689  10.849 -0.0815  0.1362  0.1792
  987SOD     NA14469   2.765   0.862   1.154  0.1526  0.3466 -0.2044
  988SOD     NA14470   1.910   0.069  10.047  0.0890  0.0908 -0.7126
  989SOD     NA14471   0.805   2.868   2.598  0.0788 -0.2146 -0.2149
  990SOD     NA14472   0.097   3.601   9.556 -0.8650  0.1809  0.6928
  991SOD     NA14473   1.743   1.351   0.925  0.0077 -0.1270  0.2157
  992SOD     NA14474   2.417   0.828  14.576 -0.2368 -0.7297 -0.1609
  993SOD     NA14475   1.698   3.617  12.969 -0.4944  0.1120  0.2214
  994SOD     NA14476   3.540   4.044  11.323  0.2389 -0.5308  0.1799
  995SOD     NA14477   4.671   0.478  15.955  0.0521 -0.5274 -0.1097
  996SOD     NA14478   4.498   1.612   8.580 -0.0745  0.2334  0.5028
  997SOD     NA14479   0.893   2.389   0.628 -0.1875 -0.6380  0.3105
  998SOD     NA14480   3.209   4.012   0.750 -0.1652  0.1430  0.5791
  999SOD     NA14481   0.230   4.428  10.039 -0.5106 -0.1251 -0.3893
 1000SOD     NA14482   2.524   3.599   9.145  0.1850 -0.0363 -0.0255
 1001SOD     NA14483   2.133   4.488  12.530 -0.1581  0.3425 -0.4651
 1002SOD     NA14484   2.367   0.537  14.519 -0.3768 -0.2980 -0.1057
 1003SOD     NA14485   3.708   2.675   3.391  0.1213  0.1134  0.0031
 1004SOD     NA14486   0.591   4.091  12.844  0.0164  0.8975  0.6391
 1005SOD     NA14487   3.444   3.637  12.838  0.0993 -0.2936 -0.0927
 1006SOD     NA14488   3.100   3.780  10.207 -0.2953 -0.6299  0.0596
 1007SOD     NA14489   4.253   3.444   2.744  0.1227 -0.2094 -0.8365
 1008SOD     NA14490   1.207   0.114  13.660  0.0629 -0.0459 -0.3835
 1009SOD     NA14491   2.688   2.132  16.101 -0.0372 -0.0635  0.1673
 1010SOD     NA14492   4.381   0.198  14.920  0.2322 -0.3724 -0.0307
 1011SOD     NA14493   3.861   0.579  16.916 -0.0342 -0.4734 -0.5084
 1012SOL     OW14494   1.119   3.955   8.397  0.0564  0.1006  0.0718
 1012SOL    HW114495   1.195   3.905   8.428 -0.6130 -2.3537 -2.3081
 1012SOL    HW214496   1.052   3.898   8.435  0.3359 -0.0624  0.3262
 1013SOL     OW14497   4.040   1.837   8.309  0.0881 -0.0333 -0.0234
 1013SOL    HW114498   3.990   1.918   8.322  0.1505  0.1343 -0.8263
 1013SOL    HW214499   4.045   1.818   8.402  4.1734 -0.2011 -0.2730
 1014SOL     OW14500   0.763   0.260   0.343  0.0115  0.7935  0.0355
 1014SOL    HW114501   0.761   0.350   0.310  0.8452  0.8062  0.0225
 1014SOL    HW214502   0.694   0.222   0.289 -1.7292  0.8712  2.1608
 1015SOL     OW14503   3.062   1.414   1.325 -0.1750 -0.3221 -0.0003
 1015SOL    HW114504   3.123   1.476   1.284  0.2506  0.8194  2.3927
 1015SOL    HW214505   3.116   1.353   1.376  4.0670  1.1517 -2.7158
 1016SOL     OW14506   4.630   3.130   5.473 -0.6802  0.1969  0.0780
 1016SOL    HW114507   4.708   3.106   5.522 -2.4777 -0.6046  2.5882
 1016SOL    HW214508   4.623   3.218   5.510  1.7387  0.1433  0.6529
 1017SOL     OW14509   2.097   0.476   1.457 -0.6567 -0.0484 -0.2261
 1017SOL    HW114510   2.014   0.501   1.417  0.9156  2.0139 -2.2568
 1017SOL    HW214511   2.155   0.548   1.431 -0.7318 -0.1984 -0.8000
 1018SOL     OW14512   3.311   2.756   4.743 -0.2564  0.2403 -0.3287
 1018SOL    HW114513   3.259   2.732   4.667  1.1546  0.0758 -1.2510
 1018SOL    HW214514   3.240   2.763   4.807  0.0401 -0.4767  0.0903
 1019SOL     OW14515   0.001   0.342  15.538 -0.4141 -0.1206  0.0669
 1019SOL    HW114516   0.001   0.249  15.562  1.0940 -0.3395 -0.8051
 1019SOL    HW214517   0.091   0.351  15.507 -0.1526 -1.2622  0.5040
 1020SOL     OW14518   3.881   1.754  17.566 -0.6435  0.9163  0.6948
 1020SOL    HW114519   3.912   1.705  17.643 -0.5725 -0.5977 -0.3167
 1020SOL    HW214520   3.813   1.694  17.537 -0.3624  0.0102  1.9090
 1021SOL     OW14521   2.913   2.149  10.147 -0.0382  0.2897 -0.3715
 1021SOL    HW114522   2.958   2.227  10.179 -1.4364  1.2503 -0.7440
 1021SOL    HW214523   2.928   2.164  10.054  0.0508 -1.7808 -0.6997
 1022SOL     OW14524   1.061   2.117   6.909  0.5530  0.9417  0.2704
 1022SOL    HW114525   0.990   2.152   6.963  0.1362  2.4196 -1.2364
 1022SOL    HW214526   1.064   2.029   6.947  0.7585  0.7736 -0.1278
 1023SOL     OW14527   4.508   2.794   2.518 -0.4025  0.4371 -0.2938
 1023SOL    HW114528   4.473   2.729   2.579 -1.3069  2.2970  1.1784
 1023SOL    HW214529   4.586   2.748   2.489 -0.0532  0.8644 -0.0438
 1024SOL     OW14530   0.183   0.188  12.827  0.6256  0.5773 -0.1194
 1024SOL    HW114531   0.205   0.279  12.848 -0.6606  0.8479  0.0422
 1024SOL    HW214532   0.088   0.195  12.820  0.3351 -2.7044  0.6442
 1025SOL     OW14533   2.073   1.681   4.291  0.3984  1.0839  0.2548
 1025SOL    HW114534   2.152   1.644   4.329  0.8032 -0.0902 -1.7414
 1025SOL    HW214535   2.118   1.759   4.258 -0.3517  1.6519  0.5799
 1026SOL     OW14536   1.306   3.566   5.140 -0.6414 -0.1440 -0.5986
 1026SOL    HW114537   1.247   3.591   5.211  0.3777 -1.1312  0.6010
 1026SOL    HW214538   1.342   3.485   5.177 -2.4096 -0.4008  0.5462
 1027SOL     OW14539   0.728   3.205   6.990 -0.3548  0.0605  0.0942
 1027SOL    HW114540   0.725   3.156   6.908  1.6650 -0.7076  0.4770
 1027SOL    HW214541   0.741   3.294   6.957  3.4444  0.3193  2.2560
 1028SOL     OW14542   1.392   1.640   2.540 -0.6678  0.0589  0.5842
 1028SOL    HW114543   1.404   1.551   2.507  0.1190  0.8764 -1.3819
 1028SOL    HW214544   1.316   1.665   2.487  0.7043 -0.5106 -1.6705
 1029SOL     OW14545   0.114   1.971   7.771  0.5111  0.0582  0.2918
 1029SOL    HW114546   0.042   1.996   7.712  0.5661  4.3612  2.0516
 1029SOL    HW214547   0.195   1.992   7.725  0.1699 -1.3099 -0.9589
 1030SOL     OW14548   2.386   3.770   8.044 -0.3197 -0.3626  0.3195
 1030SOL    HW114549   2.407   3.783   8.137  1.6394 -0.5799 -0.0986
 1030SOL    HW214550   2.290   3.766   8.048 -0.3765 -0.2393 -1.1107
 1031SOL     OW14551   4.262   2.357  16.498 -0.0283 -0.3995  0.1080
 1031SOL    HW114552   4.282   2.275  16.544  1.9539 -0.1804 -0.3526
 1031SOL    HW214553   4.308   2.345  16.415 -2.8948  0.8675 -1.6396
 1032SOL     OW14554   0.461   2.098   9.334 -0.9014 -0.5648 -0.2772
 1032SOL    HW114555   0.534   2.149   9.370 -0.4008 -1.4868  0.0150
 1032SOL    HW214556   0.423   2.074   9.419  0.0738 -0.8233  0.0858
 1033SOL     OW14557   4.463   2.494   3.116  0.1128 -0.2570 -0.3050
 1033SOL    HW114558   4.509   2.572   3.083  0.2127 -0.6884 -1.2037
 1033SOL    HW214559   4.539   2.456   3.160  0.2397 -0.1882 -0.4621
 1034SOL     OW14560   0.841   3.391   4.153 -0.0796  0.1212  0.3377
 1034SOL    HW114561   0.749   3.371   4.139 -0.5777  1.5472  1.6118
 1034SOL    HW214562   0.879   3.303   4.155 -1.1325 -0.2977  1.7691
 1035SOL     OW14563   1.070   1.363   5.106 -0.2200 -0.3674 -0.2051
 1035SOL    HW114564   1.113   1.446   5.089 -1.6560  0.0952 -1.5409
 1035SOL    HW214565   1.144   1.338   5.162 -0.5448 -0.5714  0.1392
 1036SOL     OW14566   2.972   1.910   3.515 -0.1763  0.3922  0.3083
 1036SOL    HW114567   2.984   1.881   3.606 -1.7107 -2.4240 -0.4224
 1036SOL    HW214568   2.890   1.866   3.492  0.7999  0.0551 -2.5444
 1037SOL     OW14569   0.366   4.274   9.937 -0.1906  0.2405  0.4066
 1037SOL    HW114570   0.326   4.188   9.925 -0.3687  0.5008 -0.8845
 1037SOL    HW214571   0.449   4.244   9.974 -0.5612 -1.2116  0.0545
 1038SOL     OW14572   4.628   3.255   2.978  0.5813 -0.0157  0.5108
 1038SOL    HW114573   4.655   3.280   2.889  0.1399  1.1902  0.7104
 1038SOL    HW214574   4.555   3.193   2.974 -0.2090  0.9715 -0.2875
 1039SOL     OW14575   3.976   1.188   4.500 -0.2895  0.7399  0.2756
 1039SOL    HW114576   3.934   1.191   4.585 -1.0030 -1.4945  0.0060
 1039SOL    HW214577   3.959   1.099   4.471  0.5387  1.3140 -1.9923
 1040SOL     OW14578   1.646   1.148   3.325  0.1509 -0.4142  0.3328
 1040SOL    HW114579   1.665   1.059   3.356  0.7149 -0.0378  1.0388
 1040SOL    HW214580   1.723   1.181   3.278  0.0125  0.4696  0.7403
 1041SOL     OW14581   4.418   4.272   7.221  0.4368  0.5760  0.2741
 1041SOL    HW114582   4.339   4.240   7.178  0.3544  2.9844 -1.3735
 1041SOL    HW214583   4.435   4.195   7.275  0.2430 -0.7004 -1.4781
 1042SOL     OW14584   3.739   1.541   1.382  0.0586  0.1512  0.0615
 1042SOL    HW114585   3.750   1.621   1.331 -1.4542 -0.0217 -0.5485
 1042SOL    HW214586   3.831   1.524   1.402  0.0149  0.0470  0.1752
 1043SOL     OW14587   3.752   2.896   5.552  0.0099 -0.1491  0.2246
 1043SOL    HW114588   3.804   2.974   5.571 -1.4732  1.0502 -0.6556
 1043SOL    HW214589   3.669   2.941   5.560  0.4868  0.6626  0.5523
 1044SOL     OW14590   1.483   4.577   7.903 -0.4712 -0.6763 -0.0819
 1044SOL    HW114591   1.508   4.515   7.972 -0.3359 -2.2259 -1.5132
 1044SOL    HW214592   1.510   4.665   7.930  0.5378 -0.8682 -0.4453
 1045SOL     OW14593   2.995   3.364  14.335  0.2882  0.1735  0.0490
 1045SOL    HW114594   3.024   3.275  14.316 -2.3089 -0.3197 -1.6518
 1045SOL    HW214595   2.948   3.348  14.417  1.5005  1.9160  1.0810
 1046SOL     OW14596   4.400   1.090  12.759 -0.5149  0.0134 -0.2336
 1046SOL    HW114597   4.485   1.083  12.715 -0.5189  0.1853 -0.2690
 1046SOL    HW214598   4.417   1.060  12.848  1.1123  2.4117  0.2563
 1047SOL     OW14599   0.613   0.373   3.147 -0.1671 -0.6060 -0.3794
 1047SOL    HW114600   0.583   0.395   3.059 -0.7386  0.6101  0.1266
 1047SOL    HW214601   0.539   0.411   3.194 -1.9516 -1.8561 -2.1718
 1048SOL     OW14602   3.667   1.583   3.402 -0.1354 -0.0385 -0.1858
 1048SOL    HW114603   3.651   1.494   3.371  1.6031 -0.3167 -0.2706
 1048SOL    HW214604   3.584   1.626   3.379 -1.2361 -0.9637  2.0997
 1049SOL     OW14605   4.350   4.079   4.089 -0.4668  0.5592 -0.5240
 1049SOL    HW114606   4.277   4.141   4.085 -0.0762  1.1867  2.3092
 1049SOL    HW214607   4.416   4.129   4.138 -0.4457  1.7674 -1.7885
 1050SOL     OW14608   1.912   0.034   8.322 -0.4436 -0.1778  0.0549
 1050SOL    HW114609   1.984   0.097   8.335  1.2268 -1.7146 -1.6989
 1050SOL    HW214610   1.839   0.064   8.375 -2.1034 -1.6798 -1.4028
 1051SOL     OW14611   4.629   4.425   5.383  0.2782  0.3021 -0.1205
 1051SOL    HW114612   4.618   4.436   5.289 -1.2812 -1.3696 -0.1226
 1051SOL    HW214613   4.641   4.515   5.414  0.4342  0.4440 -0.6010
 1052SOL     OW14614   3.145   1.213  12.221  0.1061 -0.5549 -0.2670
 1052SOL    HW114615   3.113   1.156  12.150 -1.3213  0.5957 -0.5601
 1052SOL    HW214616   3.142   1.299  12.180 -1.0385 -0.9837 -1.1071
 1053SOL     OW14617   0.559   2.024   7.801  0.1040 -0.4477 -0.2972
 1053SOL    HW114618   0.566   2.044   7.895  2.1870 -0.8418 -0.3694
 1053SOL    HW214619   0.636   1.969   7.788 -0.2089 -0.9355 -0.0587
 1054SOL     OW14620   2.526   4.387   2.525  0.0270 -0.1499  0.3243
 1054SOL    HW114621   2.527   4.461   2.586  0.9967 -0.3264  0.5303
 1054SOL    HW214622   2.610   4.349   2.551  0.8705  1.0145 -0.7133
 1055SOL     OW14623   4.399   2.192  12.171 -0.1979  0.9391  0.3675
 1055SOL    HW114624   4.361   2.248  12.238 -1.0331  0.4459  0.3014
 1055SOL    HW214625   4.387   2.239  12.088  0.0310 -1.6657 -1.1517
 1056SOL     OW14626   0.275   3.237  10.693 -0.4439 -0.7675  0.5127
 1056SOL    HW114627   0.262   3.324  10.729  1.0676  0.3742 -1.6612
 1056SOL    HW214628   0.352   3.243  10.635 -0.3170 -1.7147  0.5785
 1057SOL     OW14629   1.547   4.388   4.077  0.8292  0.2041 -0.0620
 1057SOL    HW114630   1.494   4.339   4.141  0.1959 -0.7241 -1.2876
 1057SOL    HW214631   1.632   4.344   4.076 -0.0334 -1.5078  0.9077
 1058SOL     OW14632   2.594   0.875  10.240 -0.1717 -0.0840 -0.3584
 1058SOL    HW114633   2.553   0.801  10.195 -1.0232 -0.1141  0.4511
 1058SOL    HW214634   2.566   0.873  10.332  0.8233 -1.2520 -0.0848
 1059SOL     OW14635   3.243   3.987   9.120 -0.1570  0.6375  0.3529
 1059SOL    HW114636   3.154   4.010   9.093  0.8379  0.1250 -3.3758
 1059SOL    HW214637   3.277   4.066   9.161  1.1056  0.8614 -1.1044
 1060SOL     OW14638   3.481   2.536  16.642 -0.0101 -0.0555 -0.2172
 1060SOL    HW114639   3.433   2.459  16.615  0.5266 -0.2369 -0.6502
 1060SOL    HW214640   3.551   2.486  16.684  2.4999  1.9291 -2.0410
 1061SOL     OW14641   0.127   3.820   3.857  0.6669 -0.0147 -0.5564
 1061SOL    HW114642   0.088   3.737   3.886  2.2256 -0.6953 -0.3719
 1061SOL    HW214643   0.124   3.809   3.762  0.4139 -0.7499 -0.4690
 1062SOL     OW14644   3.023   3.566   7.554  0.0414 -0.6263 -0.4113
 1062SOL    HW114645   3.083   3.541   7.624 -1.0376 -0.3351  0.6316
 1062SOL    HW214646   3.092   3.589   7.493 -0.1022 -0.3458 -0.4690
 1063SOL     OW14647   3.851   1.967   7.821 -0.4901  0.3587 -0.1926
 1063SOL    HW114648   3.930   1.960   7.769  1.2636  1.9089  2.2591
 1063SOL    HW214649   3.883   1.943   7.908 -0.0728  1.3790 -0.0687
 1064SOL     OW14650   1.078   3.155  12.620  0.2609  0.1825  0.0950
 1064SOL    HW114651   1.151   3.178  12.562 -0.1127 -0.4393 -0.6116
 1064SOL    HW214652   1.002   3.158  12.562 -0.1633 -0.4989  0.6193
 1065SOL     OW14653   3.578   2.301   6.068 -0.7901 -0.3321  0.1202
 1065SOL    HW114654   3.662   2.263   6.040 -1.2053 -0.1239 -1.3991
 1065SOL    HW214655   3.602   2.349   6.147 -1.6430 -0.8527  0.6979
 1066SOL     OW14656   3.015   2.767   9.363 -0.5715  0.4829  0.1816
 1066SOL    HW114657   3.099   2.742   9.403  0.2811 -0.0770 -1.9717
 1066SOL    HW214658   2.964   2.690   9.386 -0.8762  0.0184 -2.0949
 1067SOL     OW14659   2.153   2.248   5.009  0.4019  0.0786  0.0621
 1067SOL    HW114660   2.193   2.330   4.982  1.3542  0.1135  1.5602
 1067SOL    HW214661   2.226   2.222   5.065  1.0989 -1.4695 -1.5700
 1068SOL     OW14662   4.142   1.309   2.854 -0.0284  0.6113  0.8350
 1068SOL    HW114663   4.122   1.394   2.815  2.0524  0.1945 -1.1759
 1068SOL    HW214664   4.188   1.269   2.780  0.0814 -0.0326  1.2539
 1069SOL     OW14665   1.067   0.481  14.115 -0.0701 -0.1158 -0.3660
 1069SOL    HW114666   1.148   0.431  14.122 -0.3049 -0.4306  0.1080
 1069SOL    HW214667   1.035   0.471  14.205 -1.3562  2.4252 -0.5367
 1070SOL     OW14668   1.419   3.867   7.998 -0.0166 -0.0723  0.0520
 1070SOL    HW114669   1.368   3.853   8.078  1.3859 -1.4276  0.6932
 1070SOL    HW214670   1.510   3.847   8.019 -0.1859 -2.5684 -1.6169
 1071SOL     OW14671   2.567   1.722   5.215 -0.1726  0.4126  0.7492
 1071SOL    HW114672   2.573   1.817   5.224 -0.3681  0.5604 -0.6474
 1071SOL    HW214673   2.650   1.695   5.255  0.7795  0.5922 -1.1123
 1072SOL     OW14674   0.900   4.054   8.071 -0.4118  0.1241  0.0327
 1072SOL    HW114675   0.879   4.147   8.058  0.0420  0.4381  1.5467
 1072SOL    HW214676   0.900   4.052   8.167 -2.2309 -2.3761 -0.0302
 1073SOL     OW14677   0.829   3.720   5.223  0.0016 -0.4285  0.0222
 1073SOL    HW114678   0.831   3.697   5.130  0.0655 -0.7660  0.1059
 1073SOL    HW214679   0.858   3.811   5.233 -0.2722 -0.3387  0.0073
 1074SOL     OW14680   1.565   1.555   7.122  0.4373 -0.1559 -0.1443
 1074SOL    HW114681   1.581   1.497   7.197 -1.5992  1.1546  1.3184
 1074SOL    HW214682   1.650   1.555   7.080 -0.0263 -1.2153 -1.0753
 1075SOL     OW14683   3.596   2.952   1.252  0.0120  0.0503 -0.5295
 1075SOL    HW114684   3.531   2.972   1.185 -1.4567  1.2471  1.2561
 1075SOL    HW214685   3.679   2.967   1.207  0.0839  0.3305 -0.3014
 1076SOL     OW14686   0.603   4.715   4.444 -0.7303  0.2792 -0.2255
 1076SOL    HW114687   0.509   0.007   4.433 -1.0700 -1.7753 -0.1867
 1076SOL    HW214688   0.639   0.079   4.428  0.1795  0.1525  1.1710
 1077SOL     OW14689   4.516   2.773   7.966 -0.1577  0.5672  0.0037
 1077SOL    HW114690   4.588   2.819   7.923  2.4212 -2.9442  0.5713
 1077SOL    HW214691   4.443   2.802   7.910 -1.2032  0.0485  1.0858
 1078SOL     OW14692   2.142   1.183  17.320  0.4482 -0.9469  0.0217
 1078SOL    HW114693   2.151   1.165  17.226 -0.7317  0.5913 -0.3917
 1078SOL    HW214694   2.227   1.221  17.340  0.2774 -0.4641 -0.1900
 1079SOL     OW14695   2.228   4.712  11.290  0.0604  0.2282  0.4548
 1079SOL    HW114696   2.267   0.031  11.214 -2.4595 -2.1458 -2.1098
 1079SOL    HW214697   2.253   0.060  11.351 -2.2233  0.8440  0.6805
 1080SOL     OW14698   3.609   2.598   7.880  0.1445 -0.0232  0.1709
 1080SOL    HW114699   3.670   2.672   7.886  0.3886 -0.1671 -0.4935
 1080SOL    HW214700   3.594   2.605   7.786  0.3480  0.4521  0.1748
 1081SOL     OW14701   4.334   3.438   7.986 -0.5240 -0.4870  0.3170
 1081SOL    HW114702   4.343   3.534   7.982  2.3043 -0.7520  0.0864
 1081SOL    HW214703   4.423   3.402   7.991 -0.9117 -0.8177  4.2995
 1082SOL     OW14704   0.901   3.162  11.787 -0.3332  0.0788  0.3659
 1082SOL    HW114705   0.992   3.173  11.816  0.7724  0.4821 -3.1387
 1082SOL    HW214706   0.885   3.234  11.726  2.6944  0.9345  0.5582
 1083SOL     OW14707   1.809   4.220   8.755  0.2204  0.3661 -0.2737
 1083SOL    HW114708   1.822   4.283   8.826  1.3528 -0.0623 -0.0918
 1083SOL    HW214709   1.880   4.156   8.757 -2.2466 -2.2869  2.9745
 1084SOL     OW14710   3.145   4.375   8.519 -0.2581 -0.0895 -0.1888
 1084SOL    HW114711   3.166   4.365   8.426 -2.4575 -0.2930 -0.6524
 1084SOL    HW214712   3.058   4.412   8.507 -1.3028 -2.0821  1.4042
 1085SOL     OW14713   1.796   1.502   4.335 -0.0241 -0.4752 -0.0706
 1085SOL    HW114714   1.758   1.540   4.255 -0.7735  2.4017  1.6654
 1085SOL    HW214715   1.882   1.543   4.341  0.2698 -1.2454  0.9106
 1086SOL     OW14716   4.196   2.038   7.188  0.1871  0.0751 -0.2952
 1086SOL    HW114717   4.151   2.113   7.148 -1.9836 -1.2318 -0.2563
 1086SOL    HW214718   4.214   1.981   7.114  1.5550 -0.4718  0.4602
 1087SOL     OW14719   4.624   2.629   5.921 -0.0175  0.2329 -0.1297
 1087SOL    HW114720   4.695   2.603   5.863 -1.8092  0.8228 -2.6097
 1087SOL    HW214721   4.581   2.545   5.935  2.2582 -0.7352  1.0330
 1088SOL     OW14722   2.325   1.895   6.462  0.0143 -0.4806 -0.3990
 1088SOL    HW114723   2.401   1.926   6.413  0.1193 -0.8005 -0.4389
 1088SOL    HW214724   2.280   1.976   6.485  1.4314  0.2526 -0.1678
 1089SOL     OW14725   1.054   1.646   1.473  0.5990  0.1429 -0.3624
 1089SOL    HW114726   0.982   1.709   1.480  1.7112  1.5872 -1.8920
 1089SOL    HW214727   1.006   1.564   1.459 -0.4575  0.4649  1.4148
 1090SOL     OW14728   1.886   3.121   7.013 -0.1482  0.7326 -0.6380
 1090SOL    HW114729   1.829   3.057   6.970 -0.4666 -0.7537  2.0464
 1090SOL    HW214730   1.899   3.080   7.098  2.3605 -1.6503 -2.1776
 1091SOL     OW14731   3.310   2.267   4.162  0.3387  0.4448  0.1282
 1091SOL    HW114732   3.343   2.180   4.141 -1.4811 -0.6900  1.9721
 1091SOL    HW214733   3.332   2.315   4.082  1.5928 -0.0272  0.1883
 1092SOL     OW14734   3.811   2.902   7.536 -0.5732 -0.5987 -0.4568
 1092SOL    HW114735   3.727   2.931   7.502 -0.6164  0.9344  1.0126
 1092SOL    HW214736   3.781   2.840   7.602 -1.3460  0.9277  0.6142
 1093SOL     OW14737   2.624   2.595  11.609 -0.1362 -0.1847  0.1188
 1093SOL    HW114738   2.539   2.638  11.614 -1.2502 -2.3390 -0.4509
 1093SOL    HW214739   2.643   2.591  11.515  0.8107  3.5720  0.1247
 1094SOL     OW14740   4.078   1.918  15.184 -0.4618  0.3317  0.3509
 1094SOL    HW114741   4.159   1.870  15.168  0.3647  0.9726  2.5858
 1094SOL    HW214742   4.018   1.851  15.152 -0.4664 -0.3021  1.7141
 1095SOL     OW14743   4.319   1.515   8.671  0.2229 -0.4806  0.6355
 1095SOL    HW114744   4.287   1.454   8.604  1.1875  2.4210 -2.5052
 1095SOL    HW214745   4.322   1.457   8.747 -0.1840 -2.9304 -1.1858
 1096SOL     OW14746   0.128   0.485   0.792 -0.2450  0.0866 -0.0801
 1096SOL    HW114747   0.183   0.437   0.729 -0.7037 -2.2755  1.3318
 1096SOL    HW214748   0.094   0.554   0.735  0.5212  2.0928  1.9065
 1097SOL     OW14749   3.914   1.221  11.215 -0.0784  0.2783  0.1781
 1097SOL    HW114750   3.840   1.269  11.177 -0.9498 -0.6577  0.6888
 1097SOL    HW214751   3.922   1.253  11.305 -0.5106  0.1764  0.2543
 1098SOL     OW14752   2.524   3.241  10.189 -0.3875  0.2340 -0.6346
 1098SOL    HW114753   2.484   3.328  10.196  0.5990  0.5990  0.4947
 1098SOL    HW214754   2.598   3.251  10.249  0.8187  1.4854 -2.3204
 1099SOL     OW14755   4.009   1.783   9.802 -0.5521  0.1281 -0.7686
 1099SOL    HW114756   3.977   1.703   9.761 -0.6043  0.4984 -1.4498
 1099SOL    HW214757   4.032   1.749   9.888 -0.5881  1.6122 -0.1775
 1100SOL     OW14758   3.416   4.506  11.166  0.2863  0.4362  0.7065
 1100SOL    HW114759   3.340   4.457  11.198  0.3161  0.5530  0.9571
 1100SOL    HW214760   3.413   4.579  11.228 -1.6447  0.3634  0.7031
 1101SOL     OW14761   2.050   3.884  16.872 -0.7306  0.1908 -0.0348
 1101SOL    HW114762   2.141   3.908  16.855 -0.5575 -0.9214 -0.6669
 1101SOL    HW214763   2.040   3.800  16.827  0.3846  0.0617 -0.0282
 1102SOL     OW14764   3.956   2.329   2.982 -0.0944 -0.2037  0.0009
 1102SOL    HW114765   3.949   2.271   3.058  2.7124 -0.0435  0.3892
 1102SOL    HW214766   3.939   2.272   2.907 -1.2891  2.3625 -1.6856
 1103SOL     OW14767   1.379   1.136   3.392  0.4157 -0.3355  0.2476
 1103SOL    HW114768   1.380   1.063   3.331  0.3816 -0.9571  0.9833
 1103SOL    HW214769   1.470   1.165   3.384  0.2722 -0.9061 -3.3378
 1104SOL     OW14770   2.897   1.236  12.052 -0.1911 -0.3240 -0.2370
 1104SOL    HW114771   2.909   1.318  12.099  3.2465 -1.6842  1.2537
 1104SOL    HW214772   2.882   1.280  11.968 -1.1112  1.3145  0.7966
 1105SOL     OW14773   1.607   4.051  16.325 -0.0601  0.2809 -0.5151
 1105SOL    HW114774   1.516   4.036  16.350 -0.1100  0.8079 -0.3720
 1105SOL    HW214775   1.604   4.140  16.290  0.5722 -0.4071 -2.2779
 1106SOL     OW14776   3.546   4.020   5.473 -0.3252 -0.1632  0.2340
 1106SOL    HW114777   3.568   3.995   5.383 -1.2430  1.9342 -0.5751
 1106SOL    HW214778   3.501   3.942   5.505  1.2831 -2.2486 -2.5478
 1107SOL     OW14779   1.863   1.651  11.772  0.5970  0.1866  0.7792
 1107SOL    HW114780   1.861   1.710  11.697 -1.6002 -1.2694 -0.2938
 1107SOL    HW214781   1.937   1.594  11.751  1.9968  2.6836 -1.0229
 1108SOL     OW14782   0.501   0.644   4.708 -0.5483  0.0482  0.0351
 1108SOL    HW114783   0.505   0.670   4.800 -1.7099  0.9047 -0.1652
 1108SOL    HW214784   0.468   0.725   4.669 -0.2982  0.5802  0.9181
 1109SOL     OW14785   2.093   0.128   8.878 -0.0578  0.1428 -0.2605
 1109SOL    HW114786   2.096   0.156   8.786  0.3922  1.4085  0.1324
 1109SOL    HW214787   2.181   0.157   8.902  0.1891  0.6497 -1.7959
 1110SOL     OW14788   0.289   2.981   7.420 -0.1150  0.5852  0.0210
 1110SOL    HW114789   0.296   3.059   7.475  1.2547  0.5105 -0.0569
 1110SOL    HW214790   0.215   2.997   7.361 -0.5247  3.8303  1.3741
 1111SOL     OW14791   2.627   2.216   8.712 -0.2140 -0.4452 -0.2633
 1111SOL    HW114792   2.600   2.263   8.633 -0.4079  0.7409  0.5195
 1111SOL    HW214793   2.577   2.134   8.716 -1.3841  0.3724  1.8074
 1112SOL     OW14794   3.467   2.066  13.979  0.8344 -0.1668 -0.5377
 1112SOL    HW114795   3.529   1.994  13.966 -0.3813 -1.3801  0.3567
 1112SOL    HW214796   3.513   2.143  13.945 -0.5709  0.2381 -1.5248
 1113SOL     OW14797   0.471   0.688   5.540  0.6509 -0.5042  0.1599
 1113SOL    HW114798   0.544   0.718   5.594  2.0022 -0.8604 -1.4421
 1113SOL    HW214799   0.401   0.741   5.578 -1.1064 -3.7302  1.4270
 1114SOL     OW14800   1.234   4.487   0.075 -0.3334  0.6533  0.0896
 1114SOL    HW114801   1.203   4.552   0.138 -2.1855  1.2181 -1.3772
 1114SOL    HW214802   1.261   4.543   0.002 -0.7042 -0.4756 -0.9116
 1115SOL     OW14803   1.879   2.557  10.601 -0.1523 -0.3589  0.2813
 1115SOL    HW114804   1.851   2.466  10.608 -1.6100  0.0859  0.2204
 1115SOL    HW214805   1.881   2.565  10.506  1.1762  0.8653  0.4098
 1116SOL     OW14806   3.252   2.739  14.996  0.2846  0.0393 -0.0442
 1116SOL    HW114807   3.192   2.669  15.023  0.5036 -0.7726 -1.6964
 1116SOL    HW214808   3.334   2.725  15.044 -0.0172  0.5910  0.6506
 1117SOL     OW14809   3.244   1.990   4.319 -0.5499  0.3331  0.0751
 1117SOL    HW114810   3.322   1.963   4.368 -0.0163 -0.2486 -1.0904
 1117SOL    HW214811   3.279   2.014   4.234 -0.0762 -0.1506  0.1311
 1118SOL     OW14812   0.177   2.967  14.438 -0.2840  0.4615  0.0964
 1118SOL    HW114813   0.233   2.893  14.414 -1.4128 -0.3131 -0.1293
 1118SOL    HW214814   0.094   2.928  14.411 -0.0303 -0.1223  0.1463
 1119SOL     OW14815   4.335   4.022  13.030  0.3782  0.8193  0.4178
 1119SOL    HW114816   4.367   3.943  12.988 -2.3100 -0.8550  1.5099
 1119SOL    HW214817   4.393   4.025  13.107  0.7043 -1.2976  0.2499
 1120SOL     OW14818   0.578   2.200  12.167  0.4335  0.2091 -0.3073
 1120SOL    HW114819   0.626   2.271  12.210  0.9743  0.2666 -0.9965
 1120SOL    HW214820   0.638   2.127  12.183 -1.5323 -1.6786 -1.5223
 1121SOL     OW14821   3.756   2.235   7.530 -0.0736 -0.0000 -0.0216
 1121SOL    HW114822   3.769   2.149   7.491 -0.6140  0.4698 -1.2251
 1121SOL    HW214823   3.784   2.292   7.458  3.4854  0.8785  2.0547
 1122SOL     OW14824   0.820   2.859   9.557  0.6224  0.0718  0.3149
 1122SOL    HW114825   0.849   2.783   9.608  1.7982 -0.0641 -0.5672
 1122SOL    HW214826   0.906   2.888   9.527  1.0659 -1.2991  0.2635
 1123SOL     OW14827   2.728   3.978   8.192  0.0199  0.6703  0.1928
 1123SOL    HW114828   2.684   3.930   8.263 -0.0069 -0.8541 -0.8744
 1123SOL    HW214829   2.812   3.996   8.233 -0.1621  0.5605  0.6199
 1124SOL     OW14830   1.316   2.736   7.039  0.6763  0.2867  0.3891
 1124SOL    HW114831   1.270   2.820   7.047  0.8383  0.3881  0.2476
 1124SOL    HW214832   1.320   2.715   7.133 -1.2675 -0.0229  0.4060
 1125SOL     OW14833   3.877   1.326  16.612 -0.6325  0.2394  0.1504
 1125SOL    HW114834   3.815   1.391  16.646  0.1151 -0.6652  3.2244
 1125SOL    HW214835   3.892   1.375  16.531  1.2516 -1.5503 -0.5778
 1126SOL     OW14836   1.218   2.536   8.527  0.0286  0.1078  0.0192
 1126SOL    HW114837   1.213   2.627   8.557 -1.1836 -0.1544  0.5987
 1126SOL    HW214838   1.302   2.511   8.566  0.1577 -0.8515 -0.8695
 1127SOL     OW14839   3.104   3.093   4.846  0.2059 -0.3624  0.0505
 1127SOL    HW114840   3.088   3.187   4.839  1.4261 -0.3787 -2.7746
 1127SOL    HW214841   3.067   3.067   4.931 -0.2285 -0.4236 -0.1554
 1128SOL     OW14842   4.305   2.579  14.298  0.7067 -0.3298 -0.1868
 1128SOL    HW114843   4.295   2.499  14.246  1.7609 -2.0686  2.3012
 1128SOL    HW214844   4.382   2.620  14.258  0.4189  2.1214  1.7989
 1129SOL     OW14845   4.552   1.635   4.200  0.5154 -0.2227 -0.4025
 1129SOL    HW114846   4.536   1.640   4.105 -1.0012 -0.7772 -0.1808
 1129SOL    HW214847   4.557   1.726   4.229  1.3263 -0.6313  0.7339
 1130SOL     OW14848   2.192   0.450   6.421 -0.2353 -0.2911  0.2064
 1130SOL    HW114849   2.111   0.404   6.395 -0.5355 -0.1028  0.8122
 1130SOL    HW214850   2.196   0.527   6.364  1.1741  1.5488  2.8539
 1131SOL     OW14851   3.211   1.475   8.091 -0.0465  0.0013 -0.0451
 1131SOL    HW114852   3.204   1.555   8.038  2.4996  1.1761  1.3977
 1131SOL    HW214853   3.119   1.449   8.096 -0.4431  1.3106 -0.4593
 1132SOL     OW14854   0.030   3.167   5.803 -0.4763 -0.2787 -0.0717
 1132SOL    HW114855   0.101   3.125   5.852  0.2028  0.2400 -0.6061
 1132SOL    HW214856   0.081   3.247   5.784  0.0321 -0.5670  0.0771
 1133SOL     OW14857   1.383   3.660   9.491 -0.2246  0.2719  0.2211
 1133SOL    HW114858   1.477   3.674   9.498 -0.3597  1.1079  0.3545
 1133SOL    HW214859   1.360   3.629   9.579  0.4114  0.9671  0.6265
 1134SOL     OW14860   4.101   1.997   5.066 -0.2197  0.4593 -0.0824
 1134SOL    HW114861   4.192   1.984   5.094 -0.7872 -1.7979  0.6859
 1134SOL    HW214862   4.070   1.913   5.033 -1.8193  0.7485  0.6805
 1135SOL     OW14863   2.274   2.215  15.815  0.2778  0.1035 -0.1390
 1135SOL    HW114864   2.214   2.241  15.745  0.0384 -0.2954 -0.0826
 1135SOL    HW214865   2.349   2.266  15.785 -0.4008  0.4967 -1.1780
 1136SOL     OW14866   0.805   2.800   3.828 -0.2394  0.8686  0.5301
 1136SOL    HW114867   0.873   2.854   3.868 -1.2820  0.5469  2.7304
 1136SOL    HW214868   0.750   2.876   3.814 -0.1238  0.7888 -0.3364
 1137SOL     OW14869   2.285   1.170   0.735  0.4221  0.0160 -0.2733
 1137SOL    HW114870   2.335   1.242   0.695 -0.7202  0.3329 -1.1025
 1137SOL    HW214871   2.204   1.219   0.744 -0.1637 -1.5452  2.8348
 1138SOL     OW14872   3.643   0.416   2.564  0.0127  0.0945 -0.3311
 1138SOL    HW114873   3.637   0.450   2.654  1.3901  1.3952 -0.7298
 1138SOL    HW214874   3.569   0.356   2.558 -0.2419  0.1880  1.9477
 1139SOL     OW14875   0.757   0.661  15.179 -0.5584  0.5884 -0.8467
 1139SOL    HW114876   0.843   0.661  15.139  0.2137 -0.2241  0.8233
 1139SOL    HW214877   0.745   0.570  15.204  0.2434  1.3996  2.5430
 1140SOL     OW14878   3.298   0.219   2.012 -0.5184  0.8530  0.0965
 1140SOL    HW114879   3.344   0.289   1.965 -0.3180  0.3811 -0.4179
 1140SOL    HW214880   3.338   0.217   2.098  0.3948  0.2157 -0.3414
 1141SOL     OW14881   4.702   2.989  16.706  0.2970  0.0268  0.2672
 1141SOL    HW114882   4.665   3.076  16.723  1.3359  0.2495  1.3882
 1141SOL    HW214883   0.070   3.011  16.682  0.2305 -2.2513 -1.9783
 1142SOL     OW14884   2.652   0.762   7.020 -0.3568  0.7957  0.5007
 1142SOL    HW114885   2.614   0.699   6.959 -0.0912  1.0545  0.0658
 1142SOL    HW214886   2.681   0.832   6.961 -0.7830 -0.2885 -0.9775
 1143SOL     OW14887   4.227   0.328  16.821  0.0002 -0.0767  0.1354
 1143SOL    HW114888   4.198   0.416  16.845 -0.0147 -0.3406  1.1050
 1143SOL    HW214889   4.307   0.342  16.771  0.7212 -0.1396  1.2561
 1144SOL     OW14890   1.211   4.708  11.073  0.1787  0.1560 -0.0076
 1144SOL    HW114891   1.142   0.031  11.122 -1.2947 -0.9857 -1.0465
 1144SOL    HW214892   1.229   4.634  11.132 -3.4256 -2.6602 -2.4378
 1145SOL     OW14893   3.763   0.710   4.427  0.0808 -0.0888 -0.0470
 1145SOL    HW114894   3.854   0.683   4.442 -0.2843 -1.5597 -0.4301
 1145SOL    HW214895   3.728   0.622   4.439 -0.6653  0.4127  1.3755
 1146SOL     OW14896   0.747   3.846  16.717 -0.0803  0.5502  0.3391
 1146SOL    HW114897   0.660   3.882  16.738 -0.0800  0.4564  0.5039
 1146SOL    HW214898   0.722   3.760  16.684 -1.2562  0.7647  0.6677
 1147SOL     OW14899   1.124   0.160  16.298 -0.3615  0.5382 -0.9612
 1147SOL    HW114900   1.135   0.250  16.329 -3.2633  0.2694  0.8773
 1147SOL    HW214901   1.212   0.131  16.274 -0.7422 -1.3656 -0.0400
 1148SOL     OW14902   1.883   0.304   4.977  0.1998 -0.2356 -0.2447
 1148SOL    HW114903   1.869   0.321   4.884  2.2673 -1.3770 -0.7765
 1148SOL    HW214904   1.913   0.388   5.012 -0.1381  0.5441 -1.8255
 1149SOL     OW14905   0.875   4.471   1.094  0.3951 -0.3003 -0.1897
 1149SOL    HW114906   0.919   4.546   1.054 -0.1060  0.3382  0.4485
 1149SOL    HW214907   0.959   4.425   1.102 -0.0110 -0.9877  0.0932
 1150SOL     OW14908   3.262   2.464   7.662  0.5597  0.3780  0.3773
 1150SOL    HW114909   3.283   2.392   7.602  1.4754  0.3598  0.7287
 1150SOL    HW214910   3.330   2.454   7.728  1.3953  0.2219 -0.5016
 1151SOL     OW14911   4.220   0.278   0.899 -0.2398  0.0174 -0.3015
 1151SOL    HW114912   4.241   0.230   0.979 -0.0074  0.8433  0.1236
 1151SOL    HW214913   4.143   0.237   0.859  0.6996 -0.9905 -1.1065
 1152SOL     OW14914   3.883   3.549  14.128  0.1680  0.6300  0.1064
 1152SOL    HW114915   3.806   3.580  14.177  1.0254  2.4665  0.2723
 1152SOL    HW214916   3.961   3.580  14.174  0.7863  0.9201 -1.1495
 1153SOL     OW14917   4.474   1.806  11.297 -0.8235  0.4664  0.1918
 1153SOL    HW114918   4.399   1.846  11.253  0.4895  1.1524 -1.4349
 1153SOL    HW214919   4.445   1.715  11.303  1.6606 -0.3792 -0.4945
 1154SOL     OW14920   2.664   1.852   7.142  0.4056  0.3896  0.3551
 1154SOL    HW114921   2.693   1.873   7.231  1.5468  2.5701 -0.5355
 1154SOL    HW214922   2.625   1.935   7.115  1.1291 -0.5044 -3.5026
 1155SOL     OW14923   3.375   1.939   7.690  0.2139  0.2674 -0.2359
 1155SOL    HW114924   3.383   2.010   7.754  0.0787 -0.2202  0.3200
 1155SOL    HW214925   3.461   1.897   7.686  1.1670  2.0322  1.4374
 1156SOL     OW14926   4.152   4.062   0.447  0.2020  0.5773  0.3455
 1156SOL    HW114927   4.212   4.052   0.373  0.9756  2.8857  0.6734
 1156SOL    HW214928   4.176   4.151   0.470 -0.9957  1.1758 -0.7527
 1157SOL     OW14929   2.912   3.509   4.262 -0.1599  0.4120 -0.5819
 1157SOL    HW114930   2.846   3.543   4.321  0.5748  0.7328  0.0608
 1157SOL    HW214931   2.936   3.430   4.311 -0.4095  0.7057  0.0027
 1158SOL     OW14932   1.958   3.613   7.229  0.6032  0.1514 -0.3565
 1158SOL    HW114933   1.913   3.646   7.151  1.5439  0.6713 -0.6733
 1158SOL    HW214934   1.877   3.576   7.264  1.6197 -0.3822  1.4329
 1159SOL     OW14935   2.552   3.102   3.722  0.0373  0.0621  0.2003
 1159SOL    HW114936   2.496   3.173   3.753 -0.5594 -0.1673 -0.3617
 1159SOL    HW214937   2.489   3.054   3.668  1.9954 -1.1234 -1.0760
 1160SOL     OW14938   3.517   1.539   5.692 -0.4836  0.2322  0.7109
 1160SOL    HW114939   3.533   1.633   5.702 -1.9038  0.3670  1.6163
 1160SOL    HW214940   3.606   1.503   5.702 -0.3705  0.3876  0.2823
 1161SOL     OW14941   4.259   3.830   4.200  0.5640  0.3219  0.2780
 1161SOL    HW114942   4.301   3.830   4.285 -1.0096  0.0628  1.0608
 1161SOL    HW214943   4.282   3.919   4.171 -0.0349  0.2817 -0.3303
 1162SOL     OW14944   2.994   0.692   8.264  0.2536 -0.2123 -0.3618
 1162SOL    HW114945   2.990   0.597   8.250 -0.5703 -0.2165 -0.1016
 1162SOL    HW214946   3.059   0.709   8.196  0.1791  0.0538 -0.3689
 1163SOL     OW14947   3.689   0.463   7.473 -0.1380  0.6117  0.7199
 1163SOL    HW114948   3.696   0.420   7.388 -0.5414 -0.1142  1.0557
 1163SOL    HW214949   3.598   0.491   7.464 -0.8512 -2.0691 -0.4262
 1164SOL     OW14950   3.536   2.837  14.001 -0.3420 -0.6680  0.3990
 1164SOL    HW114951   3.545   2.754  14.049  3.0444 -1.1663 -1.1455
 1164SOL    HW214952   3.623   2.865  13.973 -1.7254  1.3517 -1.8310
 1165SOL     OW14953   0.046   4.677  11.337  0.0404 -0.3658  0.2036
 1165SOL    HW114954   0.063   4.671  11.243  2.9747 -2.3972  0.8425
 1165SOL    HW214955   0.050   4.583  11.352  1.6255 -0.3381  0.0044
 1166SOL     OW14956   0.045   0.721   4.389  0.2636 -0.2765  0.0200
 1166SOL    HW114957   0.138   0.743   4.393  0.8260 -2.5101 -1.1959
 1166SOL    HW214958   0.005   0.807   4.404  0.2230 -0.5982  1.8100
 1167SOL     OW14959   4.476   2.283  10.701 -0.1107 -0.1682  0.1136
 1167SOL    HW114960   4.542   2.221  10.732 -0.2748 -0.2370  0.3240
 1167SOL    HW214961   4.478   2.272  10.606  1.8543  1.8930 -0.0853
 1168SOL     OW14962   2.022   0.171   4.369 -0.1296 -0.3685 -0.2025
 1168SOL    HW114963   1.996   0.124   4.290 -0.1149  0.5484 -0.7439
 1168SOL    HW214964   2.051   0.254   4.331  1.1704 -0.5387  0.4153
 1169SOL     OW14965   2.855   1.858   4.062  0.1738  1.0204 -0.0616
 1169SOL    HW114966   2.829   1.941   4.022 -0.2176  1.7169  1.6499
 1169SOL    HW214967   2.867   1.888   4.152 -0.4836  2.6524 -0.5151
 1170SOL     OW14968   0.257   1.761   6.429  0.3217  0.2581 -0.1755
 1170SOL    HW114969   0.201   1.824   6.385  0.6170  1.0466  0.5856
 1170SOL    HW214970   0.297   1.709   6.360  0.7159 -1.4591  1.3294
 1171SOL     OW14971   2.649   0.698  11.158 -0.4028 -0.3589  0.0470
 1171SOL    HW114972   2.713   0.642  11.202  1.0114  1.5648  0.4580
 1171SOL    HW214973   2.629   0.758  11.230  1.7620  0.9112 -0.4096
 1172SOL     OW14974   4.429   3.422  15.710  0.0654  0.7867  0.1047
 1172SOL    HW114975   4.379   3.352  15.752 -2.6693 -0.7554 -5.7905
 1172SOL    HW214976   4.484   3.374  15.648  0.9146  0.1833  1.3300
 1173SOL     OW14977   4.457   2.328  16.295 -0.0367  0.4347 -0.2373
 1173SOL    HW114978   4.501   2.243  16.305 -0.3395  0.4183  0.9389
 1173SOL    HW214979   4.527   2.389  16.270  0.0226  1.1549  1.6672
 1174SOL     OW14980   2.317   4.501   0.165  0.3545 -0.4049 -0.2118
 1174SOL    HW114981   2.316   4.491   0.070 -0.7663 -0.5144 -0.1812
 1174SOL    HW214982   2.283   4.416   0.194 -0.7450  0.1790  0.2289
 1175SOL     OW14983   2.115   1.171   1.176  0.0602 -0.1058  0.1197
 1175SOL    HW114984   2.211   1.167   1.168 -0.0369 -1.6397 -0.3346
 1175SOL    HW214985   2.104   1.258   1.213 -0.6464  0.3238 -1.1232
 1176SOL     OW14986   3.965   3.581   3.785 -0.6966 -0.2408 -0.7143
 1176SOL    HW114987   4.011   3.507   3.825  1.9281  1.3248 -0.7793
 1176SOL    HW214988   3.991   3.649   3.847 -0.6444  0.1858 -1.2024
 1177SOL     OW14989   1.696   3.847   8.454  0.2409  0.5316  0.7087
 1177SOL    HW114990   1.788   3.840   8.478  0.2099 -0.1057  0.6548
 1177SOL    HW214991   1.675   3.924   8.507  0.2166  1.2640 -0.3636
 1178SOL     OW14992   1.640   3.874   1.598  1.0191  0.1744  0.0868
 1178SOL    HW114993   1.624   3.800   1.539 -1.1332  2.1360 -1.7873
 1178SOL    HW214994   1.551   3.910   1.604  0.5039 -0.9692 -0.5556
 1179SOL     OW14995   0.142   4.166   0.267  0.7183  0.2163  0.1573
 1179SOL    HW114996   0.134   4.073   0.286  1.8848 -0.2414 -1.6166
 1179SOL    HW214997   0.102   4.206   0.345 -0.1233  1.3306 -0.8433
 1180SOL     OW14998   3.256   3.843   0.921 -0.0300  0.0429  0.0166
 1180SOL    HW114999   3.258   3.884   1.008  0.7001 -2.2962  1.1117
 1180SOL    HW215000   3.316   3.772   0.944  0.8089  1.2924  1.7160
 1181SOL     OW15001   3.698   1.839  11.788  0.1122  0.6804 -0.1683
 1181SOL    HW115002   3.710   1.909  11.724  2.4508  0.6290  0.1863
 1181SOL    HW215003   3.614   1.811  11.753  0.7667  0.8450 -1.8891
 1182SOL     OW15004   1.669   3.189   7.180  0.3419 -0.4433 -0.1482
 1182SOL    HW115005   1.726   3.184   7.103 -0.8990 -0.8546 -1.0401
 1182SOL    HW215006   1.713   3.232   7.253 -0.3726  1.3377 -0.7729
 1183SOL     OW15007   3.736   4.313   6.384 -0.0409 -0.2924 -0.1771
 1183SOL    HW115008   3.683   4.380   6.340 -0.6885 -0.8839 -0.2959
 1183SOL    HW215009   3.713   4.337   6.474 -0.9078  0.0412 -0.4884
 1184SOL     OW15010   2.403   0.858   0.563 -0.4893 -0.0386 -0.4197
 1184SOL    HW115011   2.417   0.823   0.651  0.7534 -0.1398 -0.6531
 1184SOL    HW215012   2.321   0.908   0.565 -0.0191  0.7976 -1.8306
 1185SOL     OW15013   2.803   1.573   2.705 -0.0929 -0.1876  0.3697
 1185SOL    HW115014   2.840   1.519   2.775  0.5688 -0.7041 -0.3927
 1185SOL    HW215015   2.729   1.617   2.747  0.2618  1.0816 -0.3257
 1186SOL     OW15016   2.758   2.949   8.631  0.0616 -0.2176  0.2793
 1186SOL    HW115017   2.741   2.870   8.580  2.1831 -1.0217  0.8460
 1186SOL    HW215018   2.853   2.946   8.639 -0.0175 -1.4281  0.6370
 1187SOL     OW15019   3.266   0.360   6.309 -0.3200  0.1017  0.4176
 1187SOL    HW115020   3.204   0.425   6.340 -0.9722 -0.5025  0.3856
 1187SOL    HW215021   3.335   0.420   6.280 -0.2227 -0.1532  0.1183
 1188SOL     OW15022   3.005   1.090   6.868 -0.2533 -0.0767 -0.0719
 1188SOL    HW115023   3.039   1.044   6.945 -0.6948 -1.9378 -0.9831
 1188SOL    HW215024   3.090   1.100   6.824 -0.0660  0.5932  0.4473
 1189SOL     OW15025   4.122   0.063   5.470  0.2013 -0.0344  0.5161
 1189SOL    HW115026   4.045   0.067   5.527 -1.0855  1.5444 -1.3433
 1189SOL    HW215027   4.166   0.147   5.469 -1.5154  0.8849  1.5689
 1190SOL     OW15028   0.517   0.597   0.132  0.2078 -0.2078 -0.3000
 1190SOL    HW115029   0.464   0.518   0.143  2.1232 -1.3752  0.4631
 1190SOL    HW215030   0.606   0.563   0.137 -0.5055 -2.3093 -2.2245
 1191SOL     OW15031   0.210   0.763   5.338  0.1573 -0.3660 -0.1772
 1191SOL    HW115032   0.196   0.802   5.424 -2.3000 -2.2028  0.2485
 1191SOL    HW215033   0.300   0.793   5.323 -0.6227  1.5490 -0.9789
 1192SOL     OW15034   2.221   2.807   1.720 -0.0631  0.1879  0.2188
 1192SOL    HW115035   2.205   2.901   1.727  1.2215  0.3377  1.2622
 1192SOL    HW215036   2.133   2.780   1.743  0.1955 -1.6458 -0.9641
 1193SOL     OW15037   1.422   0.922   7.893 -0.0729  0.1787 -0.1081
 1193SOL    HW115038   1.463   1.008   7.891 -1.0891  0.6820  0.9470
 1193SOL    HW215039   1.333   0.948   7.869  0.2009 -0.1137 -1.4587
 1194SOL     OW15040   1.056   4.495   5.011  0.3017 -0.0740 -0.0348
 1194SOL    HW115041   1.111   4.458   5.080  0.7141  1.5313  0.5045
 1194SOL    HW215042   1.121   4.530   4.950 -0.2149 -0.9981 -1.1207
 1195SOL     OW15043   0.411   2.036  13.404  0.0862  0.4987 -0.3113
 1195SOL    HW115044   0.433   2.129  13.392  1.1580  0.4888  1.5261
 1195SOL    HW215045   0.354   2.050  13.479 -0.9864 -0.3251 -0.9688
 1196SOL     OW15046   0.624   4.242  15.117  0.1986  0.1768 -0.1224
 1196SOL    HW115047   0.586   4.324  15.148  0.4613  0.2628 -0.0215
 1196SOL    HW215048   0.718   4.262  15.111  0.1774  0.1356 -0.5705
 1197SOL     OW15049   3.909   0.684  14.120 -0.6507 -0.4373  0.2055
 1197SOL    HW115050   3.944   0.656  14.204 -0.1624  0.2072  0.2160
 1197SOL    HW215051   3.940   0.775  14.111 -0.3171 -0.5360  0.3544
 1198SOL     OW15052   2.925   2.459   2.227 -0.0108  0.5533 -0.2035
 1198SOL    HW115053   2.990   2.526   2.249 -2.0561  2.9155 -1.3649
 1198SOL    HW215054   2.880   2.455   2.311  1.6559  1.3647  0.7200
 1199SOL     OW15055   3.026   2.212  14.700 -0.0189 -0.5755 -1.3196
 1199SOL    HW115056   2.973   2.203  14.780 -1.0959  1.9723 -1.7327
 1199SOL    HW215057   3.070   2.296  14.711  0.0764 -0.9285  1.0056
 1200SOL     OW15058   3.431   3.913   7.378  0.2370  0.2162  0.4616
 1200SOL    HW115059   3.355   3.893   7.433 -0.8847  3.2985  0.0400
 1200SOL    HW215060   3.461   3.998   7.410  1.1667 -0.4898  1.4431
 1201SOL     OW15061   1.416   0.150  13.767 -0.3498  0.4510  0.0493
 1201SOL    HW115062   1.497   0.133  13.719 -0.2892  0.1709  0.2549
 1201SOL    HW215063   1.448   0.187  13.849 -0.3867  2.3534 -0.7792
 1202SOL     OW15064   2.592   0.428   3.728 -0.1118  0.2466 -0.0953
 1202SOL    HW115065   2.657   0.486   3.770 -1.0591  0.6276  0.8457
 1202SOL    HW215066   2.565   0.489   3.660  2.1920  0.6345 -0.6752
 1203SOL     OW15067   4.481   4.219   8.188  0.4430  0.4602 -0.2247
 1203SOL    HW115068   4.560   4.171   8.165  0.7690 -0.1585  2.2891
 1203SOL    HW215069   4.414   4.204   8.121 -1.5657 -1.1818  2.1546
 1204SOL     OW15070   1.482   3.993   3.381 -0.0256  0.4613  0.4069
 1204SOL    HW115071   1.516   4.080   3.401  0.6424 -0.2942  2.6340
 1204SOL    HW215072   1.469   4.004   3.287 -1.6245  0.8780  0.6820
 1205SOL     OW15073   2.668   1.906   3.552 -0.1372 -0.0193 -0.2727
 1205SOL    HW115074   2.609   1.909   3.627  0.8812 -1.9642  0.6053
 1205SOL    HW215075   2.665   1.996   3.519 -0.5533 -0.3008 -1.0015
 1206SOL     OW15076   2.853   0.821  14.399  0.4374  0.2910 -0.4587
 1206SOL    HW115077   2.916   0.830  14.471 -0.7646 -1.5843  0.8333
 1206SOL    HW215078   2.866   0.729  14.374  2.2571  0.5455 -0.4753
 1207SOL     OW15079   3.379   1.228   3.402  0.2259  0.2254  0.0705
 1207SOL    HW115080   3.288   1.210   3.382  0.3813 -3.0540  2.2613
 1207SOL    HW215081   3.378   1.243   3.497 -3.4038 -1.8128  0.3422
 1208SOL     OW15082   0.985   0.865   5.497  0.6283  0.1113 -0.1696
 1208SOL    HW115083   0.928   0.790   5.512  0.3748  0.1009 -1.2165
 1208SOL    HW215084   1.030   0.870   5.581  2.2521 -0.1046 -1.0262
 1209SOL     OW15085   3.157   2.599  10.851  0.1767 -0.2281 -0.3602
 1209SOL    HW115086   3.110   2.642  10.923  1.8321 -0.1824  0.6983
 1209SOL    HW215087   3.101   2.618  10.776 -1.9088  1.5448  1.6432
 1210SOL     OW15088   4.489   2.539   6.551  0.3556  0.4750 -0.1682
 1210SOL    HW115089   4.526   2.523   6.465 -0.9535  0.2375 -0.6786
 1210SOL    HW215090   4.400   2.516   6.526  0.3089  0.8069 -0.3069
 1211SOL     OW15091   2.754   3.713   3.036  0.3377 -0.4813  0.4609
 1211SOL    HW115092   2.844   3.679   3.031  0.8836  0.7639  1.8513
 1211SOL    HW215093   2.703   3.632   3.041  2.1194 -1.9441 -4.0699
 1212SOL     OW15094   4.562   0.654   6.301 -0.0503 -0.1344  0.1471
 1212SOL    HW115095   4.512   0.649   6.382  0.4938 -0.8709  0.4314
 1212SOL    HW215096   4.558   0.564   6.269 -0.8135  0.3788 -1.2115
 1213SOL     OW15097   4.370   3.657  16.331 -0.8538  0.3407 -0.1165
 1213SOL    HW115098   4.438   3.612  16.382 -0.0604  0.8739 -0.7130
 1213SOL    HW215099   4.299   3.598  16.355 -1.4718  0.0746 -2.5564
 1214SOL     OW15100   3.768   3.999   7.646  0.1491  0.5256  0.3390
 1214SOL    HW115101   3.815   4.043   7.575 -1.3060  1.4272 -0.0726
 1214SOL    HW215102   3.798   4.040   7.727  1.1298 -1.3621  0.9442
 1215SOL     OW15103   2.905   0.779  11.388  0.1218  0.0110  0.1789
 1215SOL    HW115104   2.831   0.723  11.407 -1.2336  1.3470 -1.1695
 1215SOL    HW215105   2.950   0.720  11.328  0.6423 -0.3836  0.9521
 1216SOL     OW15106   0.648   0.128  12.884  0.5438 -0.1758 -0.2284
 1216SOL    HW115107   0.698   0.154  12.961 -0.3367  3.6325 -0.9496
 1216SOL    HW215108   0.602   0.210  12.866  0.9975 -0.6171 -3.4564
 1217SOL     OW15109   2.176   4.005   6.515 -0.4739 -0.3651 -0.4051
 1217SOL    HW115110   2.194   4.015   6.608  0.0752  0.3359 -0.5871
 1217SOL    HW215111   2.199   4.093   6.483 -2.9902 -0.1422 -1.6780
 1218SOL     OW15112   1.452   3.042   3.492  0.0463 -0.1343  0.2119
 1218SOL    HW115113   1.383   2.999   3.542 -0.8326 -0.6974 -1.4848
 1218SOL    HW215114   1.516   3.052   3.562  0.5012 -1.4025 -0.0398
 1219SOL     OW15115   2.348   2.664  16.384  0.7830  0.2184 -0.0969
 1219SOL    HW115116   2.254   2.649  16.390  0.9354  0.2281  2.3189
 1219SOL    HW215117   2.364   2.692  16.474 -1.9999  2.5554 -0.3023
 1220SOL     OW15118   0.074   4.007   7.662 -0.4883 -0.3319  0.0005
 1220SOL    HW115119   0.120   3.951   7.724 -1.0029 -0.2290  0.4671
 1220SOL    HW215120   0.065   4.088   7.711  0.4299 -0.7229  0.8152
 1221SOL     OW15121   0.320   0.743  11.060  0.4843 -0.6459 -0.2024
 1221SOL    HW115122   0.306   0.795  10.981  0.5853  0.8646  0.7722
 1221SOL    HW215123   0.266   0.670  11.030 -0.1906  0.1646 -0.9472
 1222SOL     OW15124   1.851   4.176  13.006  0.2566  0.4415  0.6610
 1222SOL    HW115125   1.760   4.156  13.030  0.2828 -1.3849 -0.7504
 1222SOL    HW215126   1.854   4.142  12.917 -1.7261  0.6668  0.4981
 1223SOL     OW15127   1.360   2.485   5.517  0.5469  0.6117 -0.4271
 1223SOL    HW115128   1.310   2.565   5.535  0.8631  0.6885  0.0855
 1223SOL    HW215129   1.447   2.510   5.546 -0.4283  0.4012  2.6522
 1224SOL     OW15130   0.338   1.957   3.783 -0.1291  0.5191 -0.0860
 1224SOL    HW115131   0.347   2.046   3.818  0.8898  0.5501 -0.4319
 1224SOL    HW215132   0.246   1.945   3.759  0.3986 -0.4304 -1.5583
 1225SOL     OW15133   3.517   1.939  15.366  0.0716 -0.3839  0.0447
 1225SOL    HW115134   3.488   2.016  15.414  1.4799  0.2132 -0.0553
 1225SOL    HW215135   3.432   1.913  15.331 -0.3423 -0.4120  1.0411
 1226SOL     OW15136   4.505   1.643   3.196 -0.0909 -1.0545 -0.0275
 1226SOL    HW115137   4.506   1.578   3.126  0.7722 -0.9944 -0.0624
 1226SOL    HW215138   4.589   1.685   3.183 -2.4832  4.1320  1.1370
 1227SOL     OW15139   4.052   1.462  10.029  0.1752  0.0200  0.3019
 1227SOL    HW115140   4.145   1.456  10.055  0.7063 -2.4329 -2.1845
 1227SOL    HW215141   4.025   1.542  10.074  1.7055  0.2736  0.7955
 1228SOL     OW15142   1.370   0.599  13.984 -0.2229 -0.4016  0.9289
 1228SOL    HW115143   1.319   0.523  14.014 -2.1515  1.5520  2.5980
 1228SOL    HW215144   1.423   0.601  14.064  1.1309  1.5728 -0.0270
 1229SOL     OW15145   1.542   1.917   6.362 -0.1480 -0.7259 -0.0970
 1229SOL    HW115146   1.553   1.895   6.454 -0.5357 -2.5303 -0.4806
 1229SOL    HW215147   1.448   1.934   6.361  0.2048  1.2878 -0.5337
 1230SOL     OW15148   0.326   0.475  15.561  0.0847  0.7224 -0.3609
 1230SOL    HW115149   0.365   0.561  15.544  1.3696  0.3609  0.8130
 1230SOL    HW215150   0.300   0.449  15.472 -3.5905  0.9619  0.6333
 1231SOL     OW15151   1.093   1.914   0.883  0.4883 -0.2088  0.0357
 1231SOL    HW115152   1.028   1.863   0.835 -0.2862  2.0158 -1.2471
 1231SOL    HW215153   1.074   1.889   0.974 -2.0959  0.7464 -0.2440
 1232SOL     OW15154   2.384   2.498   2.077  0.1163  0.2100  0.0998
 1232SOL    HW115155   2.296   2.535   2.082 -0.2908 -1.0438  2.3729
 1232SOL    HW215156   2.418   2.547   2.002  1.1018  0.7481  0.8856
 1233SOL     OW15157   0.495   2.132   3.334 -0.0701 -0.4731 -0.3522
 1233SOL    HW115158   0.453   2.109   3.251  0.1892  0.2032 -0.6747
 1233SOL    HW215159   0.494   2.050   3.382  0.0133 -0.0676  0.3409
 1234SOL     OW15160   3.703   1.195   5.614 -0.1401 -0.4299  0.0083
 1234SOL    HW115161   3.748   1.116   5.644  2.4669  1.0423 -0.0396
 1234SOL    HW215162   3.650   1.158   5.543  1.1750 -3.1103  0.4259
 1235SOL     OW15163   2.039   0.762   6.535  0.6687  0.1881 -0.6770
 1235SOL    HW115164   2.099   0.706   6.584 -1.7096 -1.3297  0.5001
 1235SOL    HW215165   2.079   0.814   6.465  0.3433  0.3763 -0.7211
 1236SOL     OW15166   0.626   4.645   0.946  0.0053 -0.3387  0.1053
 1236SOL    HW115167   0.695   4.704   0.914  1.3961 -0.7850  2.2784
 1236SOL    HW215168   0.612   4.687   1.031  0.9175  1.2138 -0.5087
 1237SOL     OW15169   0.867   1.993   9.178  0.0527  0.4144  0.7059
 1237SOL    HW115170   0.833   1.936   9.247 -1.2843  1.0019  0.5516
 1237SOL    HW215171   0.801   2.063   9.173  1.5173  1.6734 -1.2548
 1238SOL     OW15172   0.258   3.659   7.642  0.1732 -0.0726 -0.0835
 1238SOL    HW115173   0.328   3.701   7.591 -1.2278  2.5891  0.1743
 1238SOL    HW215174   0.300   3.603   7.707 -0.1630  1.5611  1.5482
 1239SOL     OW15175   4.160   0.079   5.901  0.4475 -0.0595 -0.3700
 1239SOL    HW115176   4.078   0.048   5.861 -0.8322  1.0227  1.3870
 1239SOL    HW215177   4.130   0.115   5.985  1.1094 -1.5561  0.4946
 1240SOL     OW15178   1.680   4.442  14.936 -0.1421 -0.1551  0.0742
 1240SOL    HW115179   1.712   4.520  14.980 -0.7139  1.2933 -2.0610
 1240SOL    HW215180   1.723   4.371  14.984  0.0558  0.0903  0.2563
 1241SOL     OW15181   2.267   2.875  16.578 -0.2351 -0.2288  0.2787
 1241SOL    HW115182   2.351   2.920  16.569  0.5063 -1.7308 -0.3423
 1241SOL    HW215183   2.256   2.875  16.673 -0.0818 -3.8834  0.3239
 1242SOL     OW15184   4.133   1.146  16.994 -0.3736 -0.0400 -0.0211
 1242SOL    HW115185   4.118   1.191  16.911 -0.9797 -2.0571 -1.0200
 1242SOL    HW215186   4.228   1.156  17.003 -0.0994 -2.1131 -0.7178
 1243SOL     OW15187   1.806   0.030   8.797  0.2006  0.2418 -0.4726
 1243SOL    HW115188   1.873   0.038   8.865 -0.0180  2.6078 -0.5619
 1243SOL    HW215189   1.781   0.118   8.771  0.3010  0.2384 -0.5803
 1244SOL     OW15190   3.059   0.888   3.442  0.4580 -0.0513 -0.8559
 1244SOL    HW115191   2.984   0.829   3.430 -0.1427  0.0288  2.4495
 1244SOL    HW215192   3.130   0.842   3.397 -1.0773 -3.1498 -0.1649
 1245SOL     OW15193   3.743   1.749  11.491  0.0856  0.1974  0.4753
 1245SOL    HW115194   3.837   1.740  11.477  0.1742  0.6111  0.7980
 1245SOL    HW215195   3.725   1.655  11.490 -1.9078  0.5752  0.9467
 1246SOL     OW15196   4.251   2.525   8.044 -0.5586 -0.4020 -0.3804
 1246SOL    HW115197   4.286   2.436   8.052  0.2628 -0.0499  0.0616
 1246SOL    HW215198   4.278   2.541   7.954  2.0590 -1.7335  0.1459
 1247SOL     OW15199   0.680   0.025   2.969  0.3167  0.1665  0.1912
 1247SOL    HW115200   0.668   0.036   3.063  0.0018  0.0116  0.1701
 1247SOL    HW215201   0.713   0.108   2.935 -1.4471  0.7051 -0.2240
 1248SOL     OW15202   1.571   1.771  15.927  0.1178  0.3615 -0.3617
 1248SOL    HW115203   1.542   1.817  16.006 -1.1924 -0.1599 -0.5508
 1248SOL    HW215204   1.500   1.788  15.866 -0.5549 -2.7913 -0.4321
 1249SOL     OW15205   3.458   4.430  11.785  0.0406 -0.5628  0.2280
 1249SOL    HW115206   3.460   4.483  11.705  3.1709  1.1165  1.4280
 1249SOL    HW215207   3.403   4.357  11.757  0.2932 -1.2543  1.5148
 1250SOL     OW15208   3.292   0.301   3.404  0.1157 -0.1823 -0.4654
 1250SOL    HW115209   3.221   0.350   3.363  0.7541  0.1470 -1.1769
 1250SOL    HW215210   3.271   0.303   3.497  0.5045  0.0852 -0.3843
 1251SOL     OW15211   0.050   4.167   4.197 -0.3881  0.2189  0.2909
 1251SOL    HW115212   0.115   4.237   4.192  1.5848 -1.6533 -0.0469
 1251SOL    HW215213   0.111   4.094   4.188 -0.2230  0.4942 -0.8251
 1252SOL     OW15214   0.594   2.721  15.582 -0.2441  0.2836 -0.1862
 1252SOL    HW115215   0.635   2.795  15.629  1.0727  1.6013 -3.4072
 1252SOL    HW215216   0.512   2.715  15.631 -0.1391 -1.5246 -0.2323
 1253SOL     OW15217   2.347   2.532   6.116  0.0144 -0.6514 -0.4100
 1253SOL    HW115218   2.377   2.444   6.136 -1.5274 -1.6211 -2.3365
 1253SOL    HW215219   2.353   2.536   6.020 -1.1189  1.3610 -0.4012
 1254SOL     OW15220   3.943   3.491   4.336  0.6424  0.7705 -0.1747
 1254SOL    HW115221   3.891   3.494   4.416  0.0621 -1.1444 -0.4843
 1254SOL    HW215222   3.964   3.399   4.323 -0.7163  0.4460 -0.1023
 1255SOL     OW15223   3.769   1.186   7.166 -0.1137 -0.3583  0.4436
 1255SOL    HW115224   3.852   1.212   7.206  0.2391  0.1844 -0.6170
 1255SOL    HW215225   3.727   1.137   7.237 -0.0477  1.9150  2.0188
 1256SOL     OW15226   3.373   2.608   3.706  0.4258  0.3229 -0.4693
 1256SOL    HW115227   3.373   2.683   3.766  0.5377  0.2386 -0.3611
 1256SOL    HW215228   3.462   2.574   3.719 -1.1782 -3.2322  1.2902
 1257SOL     OW15229   1.756   1.841   0.806 -0.0702  0.4701  0.1068
 1257SOL    HW115230   1.782   1.931   0.824  0.5162 -0.0295  1.7338
 1257SOL    HW215231   1.832   1.785   0.797  0.2680  1.3535 -2.5090
 1258SOL     OW15232   2.890   0.632   9.412 -0.0554 -0.3196 -0.6667
 1258SOL    HW115233   2.899   0.608   9.320 -2.8032  0.9220 -1.2831
 1258SOL    HW215234   2.967   0.685   9.434  1.0975 -1.8153 -1.1180
 1259SOL     OW15235   2.835   3.289   5.236  0.2016  0.0960  0.3035
 1259SOL    HW115236   2.834   3.341   5.156  0.4673  1.7809  1.3866
 1259SOL    HW215237   2.740   3.279   5.241  0.2191 -0.3202 -0.2106
 1260SOL     OW15238   3.855   4.086   9.414 -0.0916 -0.4897 -0.6540
 1260SOL    HW115239   3.861   3.991   9.422 -0.6186 -0.5153 -0.6241
 1260SOL    HW215240   3.855   4.097   9.319 -0.5270 -0.8187 -0.6889
 1261SOL     OW15241   3.139   1.569   4.685  0.3554  0.0635 -0.6018
 1261SOL    HW115242   3.220   1.562   4.734 -2.2602  0.7215  3.7953
 1261SOL    HW215243   3.156   1.646   4.631 -2.3419  0.3360 -1.0563
 1262SOL     OW15244   2.908   1.276   9.484  0.0953 -0.4466  0.4057
 1262SOL    HW115245   2.918   1.342   9.416  0.1459  0.4022  1.2246
 1262SOL    HW215246   2.962   1.309   9.556  0.6889  0.0023 -0.2488
 1263SOL     OW15247   0.445   2.282   4.583 -0.1556 -0.2123  0.0902
 1263SOL    HW115248   0.385   2.275   4.657 -0.0053  2.1828  0.4570
 1263SOL    HW215249   0.514   2.332   4.627 -0.6291  0.8769 -0.3980
 1264SOL     OW15250   3.592   4.629   4.289  0.4322  0.2590  0.4861
 1264SOL    HW115251   3.680   4.642   4.325  0.5189 -0.8944  0.6795
 1264SOL    HW215252   3.570   4.718   4.263 -0.2262 -0.0027  0.1434
 1265SOL     OW15253   0.881   1.565   8.782  0.0200  0.0759 -0.2848
 1265SOL    HW115254   0.900   1.615   8.702 -3.2310  1.7005 -0.0448
 1265SOL    HW215255   0.947   1.608   8.837  1.8400 -1.5782 -1.1846
 1266SOL     OW15256   4.484   1.462   7.626  0.1355  0.2191 -0.2413
 1266SOL    HW115257   4.560   1.440   7.680 -0.2952 -0.7647 -0.0445
 1266SOL    HW215258   4.410   1.456   7.686  0.5367 -0.5006  0.1771
 1267SOL     OW15259   3.327   4.356   6.359 -0.7933 -0.1509 -0.2807
 1267SOL    HW115260   3.395   4.410   6.318 -0.9029 -0.3241 -0.6918
 1267SOL    HW215261   3.327   4.386   6.449  0.7407  2.2457 -1.0730
 1268SOL     OW15262   1.501   3.379  12.086  0.0131  0.4763  0.3103
 1268SOL    HW115263   1.595   3.363  12.092 -0.1657  0.0004  1.8580
 1268SOL    HW215264   1.490   3.420  12.000 -0.0378  0.6139  0.3818
 1269SOL     OW15265   1.905   4.707   6.406  0.2359  0.3247  0.5779
 1269SOL    HW115266   1.934   4.615   6.404  1.0640  0.5431  2.0733
 1269SOL    HW215267   1.835   4.719   6.342 -0.5032 -1.5273  1.0170
 1270SOL     OW15268   2.592   1.596   9.572  0.3883  0.1392 -0.6952
 1270SOL    HW115269   2.576   1.628   9.661  3.2249 -3.1310  0.9696
 1270SOL    HW215270   2.605   1.502   9.582 -3.5718 -0.2519  0.6341
 1271SOL     OW15271   1.445   3.646   2.716  0.2672 -0.0541 -0.6195
 1271SOL    HW115272   1.499   3.725   2.708  0.9610 -0.5924 -1.2076
 1271SOL    HW215273   1.386   3.687   2.779 -0.4003 -0.1206 -1.1962
 1272SOL     OW15274   4.494   3.476   3.398 -0.7110  0.2486 -0.0571
 1272SOL    HW115275   4.573   3.431   3.428  0.9790  1.6618 -2.2825
 1272SOL    HW215276   4.467   3.525   3.475 -0.3888  0.6433 -0.1906
 1273SOL     OW15277   4.364   4.133   2.838 -0.6077 -0.1425  1.2840
 1273SOL    HW115278   4.459   4.135   2.854 -0.5694 -1.5089  1.1803
 1273SOL    HW215279   4.349   4.192   2.764  0.8647 -1.2978  0.0715
 1274SOL     OW15280   2.548   1.825   4.924  0.0371 -0.2782 -0.2207
 1274SOL    HW115281   2.521   1.794   5.010 -1.6051 -0.7085 -0.8741
 1274SOL    HW215282   2.470   1.872   4.892  2.2135  1.1327 -3.4379
 1275SOL     OW15283   3.317   4.680   7.004  0.0638 -0.7130  0.4496
 1275SOL    HW115284   3.254   4.706   7.071 -0.4231  0.2753 -0.3931
 1275SOL    HW215285   3.298   0.004   6.922  0.0116 -0.3014  0.6960
 1276SOL     OW15286   0.213   0.149  16.039 -0.1705 -0.8125 -0.1413
 1276SOL    HW115287   0.197   0.161  16.133 -2.4659  0.9270 -0.7606
 1276SOL    HW215288   0.302   0.115  16.034 -0.0297 -0.3315 -0.8020
 1277SOL     OW15289   2.046   4.318   6.040 -0.1234  0.1470 -0.3684
 1277SOL    HW115290   2.081   4.267   6.113  0.2552  1.1485  0.1495
 1277SOL    HW215291   2.113   4.306   5.973  0.0356  2.4911 -0.6249
 1278SOL     OW15292   2.196   1.007   5.100  0.2906  0.1533  0.5723
 1278SOL    HW115293   2.226   1.076   5.159  1.7815 -1.4103  1.6220
 1278SOL    HW215294   2.106   1.034   5.079  0.7615  0.4446 -1.0671
 1279SOL     OW15295   4.100   1.330  17.613  0.0096  0.2558 -0.2331
 1279SOL    HW115296   4.023   1.362  17.661 -0.7761 -1.1968 -0.5295
 1279SOL    HW215297   4.169   1.343  17.678 -0.1076  1.4050 -0.3305
 1280SOL     OW15298   1.365   3.401   1.452 -0.4032  0.9066 -0.2589
 1280SOL    HW115299   1.409   3.375   1.533  0.4028 -0.7419 -1.2431
 1280SOL    HW215300   1.393   3.336   1.388  0.7376 -0.6651  1.8425
 1281SOL     OW15301   3.076   3.647   9.290  0.0133  0.2707  0.4127
 1281SOL    HW115302   3.049   3.620   9.203  0.1905  1.4815 -0.0200
 1281SOL    HW215303   3.132   3.580   9.327 -1.3680 -0.8469  0.4731
 1282SOL     OW15304   2.967   3.995   0.690  0.2635 -0.0185 -0.6138
 1282SOL    HW115305   2.923   3.981   0.606 -0.2774  0.7921 -0.4653
 1282SOL    HW215306   2.907   4.046   0.744 -0.7027  0.5739 -2.2453
 1283SOL     OW15307   1.290   4.488   2.773  0.4844 -0.1923  0.5204
 1283SOL    HW115308   1.380   4.505   2.801 -0.0716  1.2184  1.4469
 1283SOL    HW215309   1.298   4.433   2.695 -0.0139 -0.0880  0.3967
 1284SOL     OW15310   1.413   1.615  14.751  0.2269  0.2080  0.2214
 1284SOL    HW115311   1.384   1.705  14.743  1.3600  0.7138  1.8406
 1284SOL    HW215312   1.394   1.604  14.844  0.7681  0.0318  0.3155
 1285SOL     OW15313   1.578   2.809   0.488  0.2740  0.4121  0.1879
 1285SOL    HW115314   1.633   2.854   0.552  0.6303 -1.0970  0.9349
 1285SOL    HW215315   1.518   2.879   0.462 -2.9127 -1.5619  2.1858
 1286SOL     OW15316   3.508   3.988  10.762  0.1043 -0.0511 -0.2708
 1286SOL    HW115317   3.554   4.063  10.724  0.5778  0.2583  0.9226
 1286SOL    HW215318   3.541   3.908  10.721  1.2084  0.0275  0.4703
 1287SOL     OW15319   0.279   3.168   5.331 -0.1639 -0.5732 -0.4019
 1287SOL    HW115320   0.216   3.227   5.289 -0.2358  0.7645  1.5815
 1287SOL    HW215321   0.363   3.214   5.329 -0.7437  0.4260 -2.1542
 1288SOL     OW15322   2.698   0.391   4.128 -0.2735 -0.5006  0.0636
 1288SOL    HW115323   2.753   0.450   4.076 -0.3869 -1.8550 -1.5852
 1288SOL    HW215324   2.621   0.403   4.072  1.6696  0.8372 -2.3288
 1289SOL     OW15325   1.322   0.238   9.262  0.0609 -0.3289  0.0445
 1289SOL    HW115326   1.380   0.310   9.285 -1.4787  0.3797  1.7561
 1289SOL    HW215327   1.324   0.254   9.168  0.2407 -1.1496 -0.0927
 1290SOL     OW15328   2.450   0.990   9.097  0.3139 -0.0117  0.2511
 1290SOL    HW115329   2.443   1.064   9.037 -0.8038  0.0273  0.4352
 1290SOL    HW215330   2.458   1.032   9.182 -1.8635  1.5661 -0.3332
 1291SOL     OW15331   4.414   2.100   6.566  0.1113 -0.5185 -0.3061
 1291SOL    HW115332   4.507   2.079   6.575 -0.0907 -1.1122  0.4663
 1291SOL    HW215333   4.371   2.015   6.556 -1.4961  0.0691  1.6720
 1292SOL     OW15334   3.238   2.362   0.729  0.3009  0.5707  0.0365
 1292SOL    HW115335   3.246   2.446   0.684 -1.6025  0.0390 -1.3102
 1292SOL    HW215336   3.279   2.379   0.814 -2.5901  0.1771  1.4862
 1293SOL     OW15337   3.957   0.819  11.942  0.0188 -0.0858  0.4681
 1293SOL    HW115338   3.980   0.739  11.990  1.8226 -0.2138 -0.6070
 1293SOL    HW215339   3.871   0.793  11.909  0.1413 -0.4488  0.4332
 1294SOL     OW15340   2.870   3.202   4.615  0.2911 -0.0727  0.0122
 1294SOL    HW115341   2.923   3.235   4.542  0.4255  1.9729  1.0138
 1294SOL    HW215342   2.913   3.242   4.691 -4.5050  0.4045  2.4577
 1295SOL     OW15343   2.272   2.914   9.996 -0.0701  0.2369 -0.2747
 1295SOL    HW115344   2.293   3.008   9.990  1.6281 -0.1018  0.3748
 1295SOL    HW215345   2.238   2.916  10.086 -0.4599 -4.3261 -0.3227
 1296SOL     OW15346   2.877   4.138   5.705 -0.8617 -0.3834  0.2166
 1296SOL    HW115347   2.919   4.216   5.742  1.6773 -2.4274  1.6829
 1296SOL    HW215348   2.792   4.175   5.680 -0.4571  0.9093  0.7705
 1297SOL     OW15349   1.002   1.824   5.199  0.1466  0.0409  0.4057
 1297SOL    HW115350   1.019   1.896   5.138  1.7872 -2.7863 -2.4726
 1297SOL    HW215351   0.915   1.811   5.163  0.6698 -2.5013  0.0117
 1298SOL     OW15352   0.116   2.698   8.304 -0.1695  0.3574 -0.1447
 1298SOL    HW115353   0.187   2.684   8.241 -0.8041 -1.9092 -0.3304
 1298SOL    HW215354   0.058   2.633   8.266 -0.6205  0.1121  0.9582
 1299SOL     OW15355   0.206   3.905   6.037  0.0153  0.1136 -0.0983
 1299SOL    HW115356   0.242   3.985   5.998  0.3777 -1.1369 -2.3469
 1299SOL    HW215357   0.273   3.898   6.105 -1.4603 -0.8815  1.2556
 1300SOL     OW15358   1.518   1.259  17.557 -0.1720 -0.6055 -0.1822
 1300SOL    HW115359   1.579   1.331  17.549 -0.6206 -0.0627  1.1665
 1300SOL    HW215360   1.572   1.188  17.523 -1.6221 -1.8998  0.1863
 1301SOL     OW15361   1.866   1.223   3.239 -0.0474 -0.4473 -0.2250
 1301SOL    HW115362   1.854   1.301   3.185 -1.7505  0.2784  1.1658
 1301SOL    HW215363   1.870   1.151   3.177  0.5574  0.8993 -1.7314
 1302SOL     OW15364   4.025   0.276   3.306 -0.0325  0.3608  0.3763
 1302SOL    HW115365   3.972   0.288   3.227  1.6345  0.8599 -0.6454
 1302SOL    HW215366   4.021   0.181   3.315  0.7718  0.1564 -1.5162
 1303SOL     OW15367   1.475   4.152  11.727  0.3173 -0.1996  0.4920
 1303SOL    HW115368   1.535   4.180  11.659  1.1256 -0.2484  1.1910
 1303SOL    HW215369   1.396   4.186  11.685 -0.0261 -1.8077 -0.1925
 1304SOL     OW15370   3.879   1.491  12.016  0.2455  0.4234  0.0440
 1304SOL    HW115371   3.854   1.575  12.055 -1.1427 -0.3791  0.8968
 1304SOL    HW215372   3.825   1.427  12.063 -0.2507 -0.5382 -1.8306
 1305SOL     OW15373   0.068   0.135  10.422  0.3749  0.2572 -0.3828
 1305SOL    HW115374   0.053   0.229  10.428 -0.8107  0.0734 -0.4194
 1305SOL    HW215375   0.013   0.109  10.348  0.8905  0.3960 -0.8065
 1306SOL     OW15376   3.216   0.626   0.897 -0.1558 -0.2272  0.4553
 1306SOL    HW115377   3.146   0.665   0.844  0.2898 -0.1193 -0.0574
 1306SOL    HW215378   3.242   0.706   0.942  2.8445 -1.5016  0.9821
 1307SOL     OW15379   3.336   2.634   5.083 -0.0380  0.3440  0.4576
 1307SOL    HW115380   3.244   2.608   5.093 -0.5865  1.9977 -0.3399
 1307SOL    HW215381   3.370   2.626   5.172 -1.5819 -1.2712  0.9288
 1308SOL     OW15382   1.665   2.917   2.950  0.4520 -0.2523 -0.0110
 1308SOL    HW115383   1.685   2.881   2.863  2.8332  0.2432  0.3297
 1308SOL    HW215384   1.660   3.011   2.937  1.8732 -0.2872 -0.8600
 1309SOL     OW15385   3.719   2.932   3.043 -0.1174 -0.7268 -0.3428
 1309SOL    HW115386   3.732   2.961   2.953  4.0895  0.6983  0.7166
 1309SOL    HW215387   3.783   2.986   3.090 -0.0056  1.5969 -3.1783
 1310SOL     OW15388   3.422   1.650   7.359  0.0652  0.0046  0.5482
 1310SOL    HW115389   3.413   1.624   7.451  0.0197 -1.8253  0.0301
 1310SOL    HW215390   3.349   1.710   7.344 -0.2991 -0.4286  0.5907
 1311SOL     OW15391   1.172   3.877   1.352  0.2103 -0.0758 -0.3901
 1311SOL    HW115392   1.217   3.798   1.381  3.4483  0.5164 -3.8375
 1311SOL    HW215393   1.100   3.841   1.300 -0.8325  1.3352  0.0629
 1312SOL     OW15394   1.836   3.342  10.991 -0.5592  0.2806  0.0533
 1312SOL    HW115395   1.824   3.419  10.935 -2.7430 -0.6192 -0.7262
 1312SOL    HW215396   1.754   3.293  10.989 -0.4675  0.1245  0.2037
 1313SOL     OW15397   2.723   3.201   9.915  0.4244  0.6287  0.0739
 1313SOL    HW115398   2.695   3.146   9.988 -0.0739 -1.2203 -1.5082
 1313SOL    HW215399   2.709   3.138   9.845 -2.6182 -0.8163  1.9845
 1314SOL     OW15400   1.231   0.485   8.302  0.3028 -0.8228 -0.7333
 1314SOL    HW115401   1.149   0.484   8.252 -0.5061  2.1562  0.5506
 1314SOL    HW215402   1.291   0.457   8.233 -1.2329 -0.4184 -2.2184
 1315SOL     OW15403   3.708   3.486   2.464  0.3822  0.5012 -0.5373
 1315SOL    HW115404   3.720   3.579   2.447  1.4887  0.0986 -1.8936
 1315SOL    HW215405   3.631   3.471   2.409  1.6311 -0.0731 -2.1332
 1316SOL     OW15406   3.198   3.499   1.183 -0.2449 -0.2951 -0.6800
 1316SOL    HW115407   3.114   3.485   1.227 -0.1703  1.0885 -0.1156
 1316SOL    HW215408   3.198   3.422   1.126  0.2754  0.1265 -1.2448
 1317SOL     OW15409   1.287   1.652   8.445  0.1605  0.5931  0.1721
 1317SOL    HW115410   1.336   1.691   8.518 -0.5064  0.2446  0.8097
 1317SOL    HW215411   1.282   1.561   8.474 -0.5536  0.1564 -1.3150
 1318SOL     OW15412   1.670   3.504  17.483  0.0524  0.3159  0.7716
 1318SOL    HW115413   1.645   3.414  17.462 -0.6009  0.7474 -0.2874
 1318SOL    HW215414   1.762   3.490  17.507  0.0894  0.4338  0.7020
 1319SOL     OW15415   4.579   0.014   3.880 -0.2359  0.5361  0.1804
 1319SOL    HW115416   4.494   4.697   3.860 -0.8702  1.0570  1.8814
 1319SOL    HW215417   4.589   0.093   3.827  1.5738  0.3435  0.2436
 1320SOL     OW15418   4.257   2.895   2.810  0.4751 -0.5210 -0.1309
 1320SOL    HW115419   4.299   2.831   2.867 -0.4115 -1.3801 -0.4507
 1320SOL    HW215420   4.245   2.831   2.740 -1.1169 -2.0462  1.5332
 1321SOL     OW15421   2.749   4.202  13.653  0.0898  0.0566  0.4246
 1321SOL    HW115422   2.761   4.238  13.741  1.8945  1.0089 -0.2235
 1321SOL    HW215423   2.818   4.245  13.602 -0.7940 -0.2533 -1.0280
 1322SOL     OW15424   0.628   4.066   0.287  0.2061  0.3109  0.1029
 1322SOL    HW115425   0.635   4.132   0.356 -1.0117 -1.1287  1.6152
 1322SOL    HW215426   0.561   4.106   0.232 -0.1515  0.8788  0.9559
 1323SOL     OW15427   2.552   3.293   5.143  0.0467 -0.5180  0.3578
 1323SOL    HW115428   2.523   3.203   5.128  0.0596 -0.1621 -1.8136
 1323SOL    HW215429   2.506   3.335   5.071  2.0043  1.0257  0.0304
 1324SOL     OW15430   2.666   2.070  14.898  0.4701 -0.1730 -0.4961
 1324SOL    HW115431   2.667   1.976  14.885  0.4271 -0.0618 -1.3193
 1324SOL    HW215432   2.658   2.105  14.809  0.6476 -1.6284 -1.0842
 1325SOL     OW15433   3.617   0.348  13.724 -0.4661  0.7650 -0.6044
 1325SOL    HW115434   3.588   0.290  13.653  0.5661 -0.1357 -0.2802
 1325SOL    HW215435   3.565   0.425  13.700 -1.7129 -0.7068 -2.7358
 1326SOL     OW15436   1.308   2.164   2.633  0.6761  0.0976  0.4119
 1326SOL    HW115437   1.339   2.226   2.568  1.4166 -0.7647 -0.0571
 1326SOL    HW215438   1.318   2.074   2.603  3.0715  0.1331  1.0991
 1327SOL     OW15439   3.331   0.996   7.874  0.2764 -0.2866 -0.3663
 1327SOL    HW115440   3.406   1.000   7.934 -0.8308 -0.5453  1.0331
 1327SOL    HW215441   3.258   0.995   7.936 -1.4036  1.4063 -2.3371
 1328SOL     OW15442   4.418   3.997   5.294 -0.1492 -0.2718 -0.5359
 1328SOL    HW115443   4.471   4.007   5.214  0.9003  0.0028  0.1893
 1328SOL    HW215444   4.438   4.078   5.341 -0.6273 -1.0433  1.0001
 1329SOL     OW15445   1.916   2.301   4.870 -0.3689  0.5176 -0.2834
 1329SOL    HW115446   1.960   2.259   4.797 -0.4303 -0.2072  0.0971
 1329SOL    HW215447   1.986   2.284   4.933  1.1720 -0.4407 -2.2784
 1330SOL     OW15448   1.129   4.323   1.166  0.4283  0.0492 -0.4866
 1330SOL    HW115449   1.184   4.344   1.090  0.6980 -0.6054 -0.4734
 1330SOL    HW215450   1.202   4.301   1.224 -1.6645  0.1544  2.1585
 1331SOL     OW15451   2.688   2.557   5.225 -0.3041  0.0719 -0.2299
 1331SOL    HW115452   2.695   2.612   5.303 -1.0751 -1.6919  1.0606
 1331SOL    HW215453   2.782   2.554   5.205 -0.4436  1.2852 -1.1183
 1332SOL     OW15454   1.695   3.354   5.038  0.6241 -0.0558 -0.0236
 1332SOL    HW115455   1.715   3.366   4.945  1.0227  4.1325  0.5749
 1332SOL    HW215456   1.627   3.420   5.053  0.7488 -0.3172  1.6767
 1333SOL     OW15457   3.047   2.887   5.531  0.1277  0.3519 -0.4748
 1333SOL    HW115458   3.055   2.851   5.443  0.5269 -2.6004  0.7388
 1333SOL    HW215459   3.035   2.805   5.580 -0.1184 -0.6495 -2.2201
 1334SOL     OW15460   0.698   1.387   3.827 -0.2516  0.7396  0.3011
 1334SOL    HW115461   0.677   1.306   3.873  0.4492 -0.7480 -2.0716
 1334SOL    HW215462   0.789   1.371   3.802 -0.2138  0.8481  0.3688
 1335SOL     OW15463   2.126   1.925   5.813  0.4372 -0.3483 -0.0619
 1335SOL    HW115464   2.115   1.925   5.908  1.9882 -0.6183  0.1181
 1335SOL    HW215465   2.163   1.838   5.822 -0.7818 -0.4026  4.2550
 1336SOL     OW15466   2.502   2.340   2.717 -0.2223  0.7368 -0.2347
 1336SOL    HW115467   2.488   2.256   2.673  0.0981  0.4963  0.1262
 1336SOL    HW215468   2.468   2.326   2.806  2.7759  1.1449  0.9648
 1337SOL     OW15469   0.828   4.382   8.308  0.0596  0.5675 -0.1218
 1337SOL    HW115470   0.733   4.372   8.307  0.3250 -2.1184  0.1196
 1337SOL    HW215471   0.845   4.382   8.214 -1.9903  0.1395 -0.4942
 1338SOL     OW15472   0.558   3.460  10.763  0.1617 -0.0662  0.0027
 1338SOL    HW115473   0.624   3.529  10.774 -0.0443 -0.4469  3.6512
 1338SOL    HW215474   0.616   3.384  10.772  1.0697  1.0575  3.3980
 1339SOL     OW15475   4.367   3.333  16.484 -0.2671 -0.5024 -0.4372
 1339SOL    HW115476   4.357   3.300  16.395 -1.7450  0.4174 -0.6022
 1339SOL    HW215477   4.292   3.391  16.477 -0.1898 -0.3102  0.3400
 1340SOL     OW15478   1.766   0.143   6.751  0.0279  0.1568 -0.4398
 1340SOL    HW115479   1.733   0.233   6.744  0.7320  0.3299 -1.6174
 1340SOL    HW215480   1.749   0.109   6.839  0.5454 -2.2727 -1.2647
 1341SOL     OW15481   3.048   3.399   6.433  0.3769  0.2210 -0.4646
 1341SOL    HW115482   3.049   3.467   6.365  1.3726  0.6532 -0.0156
 1341SOL    HW215483   3.112   3.436   6.493 -0.1978  0.7438 -0.1726
 1342SOL     OW15484   4.658   1.939   8.000 -0.9303 -0.0510  0.0341
 1342SOL    HW115485   4.645   1.847   7.980  0.7219 -0.4200  0.6895
 1342SOL    HW215486   4.722   1.950   7.929 -0.8990  0.2051  0.1026
 1343SOL     OW15487   1.997   3.413  11.404 -0.5601 -0.0447  0.4471
 1343SOL    HW115488   1.990   3.501  11.441  0.4980  1.0451 -1.9106
 1343SOL    HW215489   1.988   3.356  11.480 -0.3322 -0.1704  0.3809
 1344SOL     OW15490   0.291   4.496   8.042  0.0101 -0.5220 -0.6593
 1344SOL    HW115491   0.320   4.585   8.060 -0.7953 -0.1878 -1.0447
 1344SOL    HW215492   0.243   4.473   8.121  0.3323 -0.1852 -0.3696
 1345SOL     OW15493   0.407   4.555  15.430 -0.3697 -0.3220 -0.1071
 1345SOL    HW115494   0.434   4.546  15.522 -1.4606  0.8184  0.3233
 1345SOL    HW215495   0.314   4.575  15.436 -0.2509 -0.2615  1.5255
 1346SOL     OW15496   0.740   2.450  15.591 -0.2758  0.3928  0.0434
 1346SOL    HW115497   0.771   2.541  15.587 -0.9469  0.5866 -0.7719
 1346SOL    HW215498   0.663   2.460  15.535 -0.7882  0.9218  0.8356
 1347SOL     OW15499   3.338   2.304   0.999  0.5415  0.3453 -0.0353
 1347SOL    HW115500   3.318   2.232   1.059  0.3941 -0.1023 -0.6175
 1347SOL    HW215501   3.407   2.359   1.034  1.3548 -1.8908  1.7868
 1348SOL     OW15502   0.542   2.619  11.699 -0.2170  0.4069 -0.2616
 1348SOL    HW115503   0.591   2.542  11.730 -0.8826 -0.6212 -1.7544
 1348SOL    HW215504   0.618   2.677  11.690 -0.1678  0.3654 -0.1113
 1349SOL     OW15505   0.913   0.844   3.327  0.5777  0.7220 -0.3833
 1349SOL    HW115506   0.828   0.888   3.332 -1.0679 -2.4485 -0.9152
 1349SOL    HW215507   0.889   0.755   3.303  2.2663 -0.1493  1.1363
 1350SOL     OW15508   0.775   1.753   6.828  0.4351  0.2644  0.2456
 1350SOL    HW115509   0.768   1.845   6.803 -0.0363 -0.0583 -0.8030
 1350SOL    HW215510   0.779   1.709   6.743 -0.9197 -1.4882  1.1033
 1351SOL     OW15511   0.806   4.419   9.432  1.0689  0.7645 -0.5393
 1351SOL    HW115512   0.782   4.331   9.460  0.0872  1.4815  0.8425
 1351SOL    HW215513   0.902   4.409   9.427  0.7606 -2.0658 -0.7709
 1352SOL     OW15514   4.657   1.427   7.903  0.0357  0.5198 -0.6548
 1352SOL    HW115515   4.579   1.375   7.922  0.7247 -0.3535 -0.2111
 1352SOL    HW215516   4.711   1.418   7.982 -1.1547 -0.4431  0.0518
 1353SOL     OW15517   0.358   2.410   9.367 -0.3295 -0.0273 -0.5877
 1353SOL    HW115518   0.373   2.369   9.452 -2.0352  3.7003  1.5310
 1353SOL    HW215519   0.431   2.383   9.310 -0.4899 -0.7627 -0.4460
 1354SOL     OW15520   3.844   0.671   2.603 -0.2593  0.7515 -0.0311
 1354SOL    HW115521   3.916   0.607   2.596 -1.3914 -0.5728  0.5264
 1354SOL    HW215522   3.769   0.618   2.630  0.3890  0.1327  0.5526
 1355SOL     OW15523   1.685   0.097   2.587  0.5293 -0.6176  0.4662
 1355SOL    HW115524   1.711   0.162   2.652 -0.6586 -0.6715  0.9932
 1355SOL    HW215525   1.753   0.031   2.603 -0.7071 -2.4725 -1.9665
 1356SOL     OW15526   1.665   3.312   9.576 -0.4642  0.3918 -0.1671
 1356SOL    HW115527   1.587   3.260   9.560  0.7714 -1.1924 -1.0153
 1356SOL    HW215528   1.699   3.284   9.660 -1.2712  0.7130  0.2645
 1357SOL     OW15529   1.362   2.285  10.158  0.1259  0.1024  0.4864
 1357SOL    HW115530   1.426   2.297  10.229  1.6713 -1.2789 -0.6686
 1357SOL    HW215531   1.401   2.331  10.084  2.0976  0.3739  1.6976
 1358SOL     OW15532   4.299   0.140   1.127 -0.1921  0.1555  0.2105
 1358SOL    HW115533   4.393   0.160   1.126 -0.0690 -0.4741 -1.4360
 1358SOL    HW215534   4.298   0.049   1.156 -0.4391  0.4464  1.1250
 1359SOL     OW15535   3.195   3.282  12.502  0.0181 -0.4018 -0.1934
 1359SOL    HW115536   3.110   3.323  12.488 -0.1024 -0.8098 -0.6583
 1359SOL    HW215537   3.246   3.306  12.425 -0.7547 -1.9867 -1.2078
 1360SOL     OW15538   4.329   1.309   1.186 -0.0998  0.3520 -0.3407
 1360SOL    HW115539   4.333   1.355   1.269 -0.6956  0.6917 -0.4984
 1360SOL    HW215540   4.245   1.266   1.195  0.0237  0.0983 -0.4012
 1361SOL     OW15541   2.051   3.406   8.130  0.4496  0.0061 -0.4995
 1361SOL    HW115542   2.073   3.317   8.104  2.6812 -0.0525  1.5902
 1361SOL    HW215543   2.136   3.448   8.115  0.0114  1.2435  0.5290
 1362SOL     OW15544   4.315   4.392  15.031  0.0587  0.1178  0.4776
 1362SOL    HW115545   4.334   4.337  15.107  2.3211 -0.4832 -0.5054
 1362SOL    HW215546   4.404   4.407  14.998 -0.1042 -1.2025 -0.5964
 1363SOL     OW15547   1.085   1.024  10.007  0.1881 -0.8023  0.3541
 1363SOL    HW115548   1.072   0.930   9.997 -1.2741 -0.8352  2.5604
 1363SOL    HW215549   1.042   1.048   9.924 -2.0095 -1.1283  1.3881
 1364SOL     OW15550   0.341   1.270   5.490  0.9023 -0.2106  0.0628
 1364SOL    HW115551   0.286   1.222   5.428 -1.0365  1.3404  0.5939
 1364SOL    HW215552   0.383   1.334   5.434  2.6357 -0.9784  0.4725
 1365SOL     OW15553   0.830   3.412   6.369 -0.1928 -0.1948  0.4440
 1365SOL    HW115554   0.908   3.377   6.414 -0.2280  0.2261  0.8292
 1365SOL    HW215555   0.774   3.405   6.447  1.7199  1.3031  1.9680
 1366SOL     OW15556   4.301   2.101   8.711 -0.1480  0.2877 -0.4612
 1366SOL    HW115557   4.310   2.195   8.721  2.0283  0.1574 -1.1287
 1366SOL    HW215558   4.283   2.072   8.800  2.2570 -0.3529 -0.1648
 1367SOL     OW15559   0.857   0.091   9.016 -0.1211 -0.1766 -0.0292
 1367SOL    HW115560   0.902   0.046   9.087  0.5580 -1.0935 -1.0338
 1367SOL    HW215561   0.844   0.173   9.063 -0.0718  0.0337 -0.3808
 1368SOL     OW15562   2.039   2.944   7.486 -0.1133 -0.1419  0.1099
 1368SOL    HW115563   2.087   2.907   7.412 -1.3793 -0.4605 -0.5717
 1368SOL    HW215564   2.041   2.869   7.545  0.7810 -1.7882 -1.9979
 1369SOL     OW15565   4.170   4.168   5.941  0.4317 -0.5012 -0.3508
 1369SOL    HW115566   4.234   4.123   5.886  1.8842  1.0904  0.0524
 1369SOL    HW215567   4.094   4.110   5.935 -0.5889  0.7112  0.8517
 1370SOL     OW15568   2.775   1.697  15.913 -0.4242  0.0830 -0.7581
 1370SOL    HW115569   2.688   1.685  15.951  0.2309 -0.8087  0.4640
 1370SOL    HW215570   2.825   1.734  15.986 -1.6484 -3.5814  1.9388
 1371SOL     OW15571   1.982   4.154  16.131  0.1734 -0.2500  0.0367
 1371SOL    HW115572   1.966   4.070  16.173  0.2699 -0.5354 -0.4900
 1371SOL    HW215573   2.040   4.132  16.058 -1.5567 -1.0585 -1.1113
 1372SOL     OW15574   2.364   0.821  15.308 -0.4988 -0.1070  0.0520
 1372SOL    HW115575   2.450   0.805  15.270 -0.4477  1.2521 -0.4066
 1372SOL    HW215576   2.393   0.867  15.387 -0.0170 -3.5115  1.8628
 1373SOL     OW15577   3.263   3.673   6.903  0.7523  0.4334  0.3541
 1373SOL    HW115578   3.297   3.718   6.980 -0.5538 -0.5605  1.5195
 1373SOL    HW215579   3.185   3.726   6.888  1.0677  0.9606  0.5583
 1374SOL     OW15580   0.434   4.264   8.049 -0.0337  0.0651 -0.0581
 1374SOL    HW115581   0.457   4.242   7.959 -0.3587 -0.2762 -0.0592
 1374SOL    HW215582   0.387   4.345   8.033  0.8346  0.3968 -0.8801
 1375SOL     OW15583   1.636   1.772   3.935 -0.2311  0.3105 -0.0847
 1375SOL    HW115584   1.699   1.843   3.923 -0.6686  0.4560 -1.4945
 1375SOL    HW215585   1.584   1.784   3.856  1.0430 -1.7533 -1.2420
 1376SOL     OW15586   3.285   3.480  11.684  0.2554 -0.3115 -0.2268
 1376SOL    HW115587   3.219   3.509  11.621 -0.9910 -1.7630  0.4319
 1376SOL    HW215588   3.233   3.424  11.741  1.1773  0.1147  1.0416
 1377SOL     OW15589   1.388   3.346   9.051 -0.3245 -0.3506  0.1550
 1377SOL    HW115590   1.373   3.269   8.995 -0.3673 -0.5053  0.3775
 1377SOL    HW215591   1.325   3.327   9.121 -1.5266 -0.7264 -1.0288
 1378SOL     OW15592   1.807   1.325  11.965 -0.3481 -0.7415  0.2840
 1378SOL    HW115593   1.839   1.312  11.875 -0.2908 -3.3663  0.6734
 1378SOL    HW215594   1.880   1.295  12.018 -0.4572  0.4091  1.0792
 1379SOL     OW15595   4.652   1.796  14.728 -0.1480 -0.2736  0.3542
 1379SOL    HW115596   0.010   1.766  14.771  1.1471  1.0759 -1.1490
 1379SOL    HW215597   4.639   1.725  14.665 -2.1470  1.3323 -1.0049
 1380SOL     OW15598   1.855   1.600   4.933 -0.0149 -0.1882  0.2605
 1380SOL    HW115599   1.887   1.544   5.005  1.6334 -2.5134 -2.2790
 1380SOL    HW215600   1.925   1.661   4.913 -0.6737  1.9279  4.3060
 1381SOL     OW15601   2.221   0.511  14.759  0.0656  0.3193  0.5570
 1381SOL    HW115602   2.302   0.470  14.789  1.2836  0.9490 -1.9278
 1381SOL    HW215603   2.248   0.602  14.768  2.2022  0.0049 -2.4719
 1382SOL     OW15604   4.164   1.456   2.353  0.6516  0.4777  0.3632
 1382SOL    HW115605   4.074   1.430   2.334  1.4919 -0.9850 -1.6049
 1382SOL    HW215606   4.169   1.494   2.440 -0.5012  0.6241  0.3666
 1383SOL     OW15607   2.736   0.827   8.517  0.7218  0.4247  0.0841
 1383SOL    HW115608   2.673   0.889   8.481 -0.9737 -1.4715 -0.2112
 1383SOL    HW215609   2.730   0.757   8.453  0.7449  0.3542  0.1587
 1384SOL     OW15610   0.787   2.588   0.606  0.4674 -0.2826  0.3039
 1384SOL    HW115611   0.716   2.597   0.670 -2.8424 -2.7918 -3.0420
 1384SOL    HW215612   0.829   2.674   0.606  0.7490 -0.4235 -0.3689
 1385SOL     OW15613   4.599   3.267  15.492 -0.3040  0.1146  0.6443
 1385SOL    HW115614   4.554   3.188  15.463  0.9138  1.1189 -4.0187
 1385SOL    HW215615   4.575   3.328  15.423  1.5445  0.7814  0.5717
 1386SOL     OW15616   3.491   2.669   5.605 -0.3611  1.1297  0.7297
 1386SOL    HW115617   3.539   2.730   5.549  0.7573 -0.5223 -0.1214
 1386SOL    HW215618   3.470   2.596   5.546  0.5770  0.6455  1.0036
 1387SOL     OW15619   1.655   1.415  10.857  0.0437 -0.1089 -0.3858
 1387SOL    HW115620   1.653   1.425  10.952  2.3183  0.9436 -0.4360
 1387SOL    HW215621   1.662   1.320  10.848  0.8651 -0.1188  0.2659
 1388SOL     OW15622   2.691   3.564   8.122 -0.5115 -0.1439 -0.1879
 1388SOL    HW115623   2.730   3.649   8.103 -2.6154  0.4641 -1.7238
 1388SOL    HW215624   2.736   3.545   8.205 -1.8516 -0.9354  0.3486
 1389SOL     OW15625   3.073   4.130  16.219  0.0497  0.2524 -0.2138
 1389SOL    HW115626   3.054   4.224  16.214  2.8134  0.6872 -2.2612
 1389SOL    HW215627   3.104   4.121  16.309 -1.7723 -2.7947  0.1170
 1390SOL     OW15628   3.647   1.016   1.103 -0.4761  0.5735 -0.7760
 1390SOL    HW115629   3.568   1.037   1.154 -0.1439 -0.3910  0.1351
 1390SOL    HW215630   3.619   0.977   1.020  0.3800 -1.8617  0.0954
 1391SOL     OW15631   2.281   0.575   3.762 -0.0715  0.0449 -0.6513
 1391SOL    HW115632   2.260   0.515   3.690 -2.2963 -1.3526  1.1661
 1391SOL    HW215633   2.362   0.614   3.731  1.5606 -1.1155  2.1471
 1392SOL     OW15634   2.285   4.226   3.579  0.2845  0.5988  0.0988
 1392SOL    HW115635   2.352   4.219   3.511 -0.0222  0.9021 -0.2367
 1392SOL    HW215636   2.312   4.309   3.620  1.5097  0.8187 -1.1436
 1393SOL     OW15637   1.814   2.203   2.016  0.2513  0.3247  0.9756
 1393SOL    HW115638   1.771   2.265   2.074 -2.7727 -0.9234  0.0346
 1393SOL    HW215639   1.740   2.174   1.963  1.3371 -1.3812  0.3944
 1394SOL     OW15640   1.546   1.491   8.494 -0.1732  0.3822  0.4859
 1394SOL    HW115641   1.510   1.517   8.409  0.7316  1.6678  0.4983
 1394SOL    HW215642   1.604   1.566   8.507  0.3523  0.4016 -1.8256
 1395SOL     OW15643   4.443   3.468   5.856  0.0020  0.1528 -0.4196
 1395SOL    HW115644   4.387   3.542   5.876 -0.3598 -0.4285  0.7498
 1395SOL    HW215645   4.484   3.454   5.942  1.7204 -1.0004 -1.4083
 1396SOL     OW15646   1.944   1.088   0.744  0.3719 -0.1278 -0.8283
 1396SOL    HW115647   1.894   1.076   0.825  2.9449  2.5252  1.1312
 1396SOL    HW215648   1.905   1.168   0.709  2.1440  0.5562 -1.2459
 1397SOL     OW15649   0.179   3.422  16.780 -0.3956  0.5508 -0.7506
 1397SOL    HW115650   0.191   3.443  16.873 -0.5464 -0.5290 -0.4882
 1397SOL    HW215651   0.090   3.449  16.761 -0.5099  1.4624  1.0538
 1398SOL     OW15652   3.880   3.373   3.308  0.1250 -0.2815 -0.1638
 1398SOL    HW115653   3.870   3.431   3.383 -1.7553 -1.7166  0.6846
 1398SOL    HW215654   3.971   3.348   3.294 -0.6153 -2.2808 -1.5562
 1399SOL     OW15655   2.893   4.339   6.823  0.2109  0.4092 -0.5733
 1399SOL    HW115656   2.852   4.300   6.900  0.8271  0.6730 -0.1023
 1399SOL    HW215657   2.926   4.261   6.780 -1.0847 -0.2527 -0.3656
 1400SOL     OW15658   4.134   1.922   5.428 -0.0247  0.0518 -0.7566
 1400SOL    HW115659   4.064   1.894   5.368 -1.5302 -0.9384  1.4556
 1400SOL    HW215660   4.197   1.959   5.366 -1.3653  2.7134 -0.5321
 1401SOL     OW15661   3.228   0.583   3.554 -0.5958  0.3668  0.8451
 1401SOL    HW115662   3.231   0.656   3.615  0.0411  0.0273  1.2098
 1401SOL    HW215663   3.219   0.631   3.471 -0.2235 -1.8894 -0.5226
 1402SOL     OW15664   3.811   2.497  16.954 -0.5582 -0.2254  0.0210
 1402SOL    HW115665   3.744   2.483  17.021 -0.2319  0.0445  0.3996
 1402SOL    HW215666   3.771   2.576  16.918  2.8434  1.8397  0.8358
 1403SOL     OW15667   1.599   3.735  17.644 -0.0786  0.3272  0.5627
 1403SOL    HW115668   1.646   3.663  17.601 -1.5433  0.3741 -1.1359
 1403SOL    HW215669   1.510   3.698  17.639 -0.6691  1.8668 -0.4950
 1404SOL     OW15670   2.222   3.145   8.854 -0.1353  0.1703  0.0532
 1404SOL    HW115671   2.150   3.187   8.900  0.8441  0.3046  1.4954
 1404SOL    HW215672   2.202   3.162   8.762 -2.0029 -1.2308  0.2031
 1405SOL     OW15673   1.623   2.696   9.479  0.3860  0.0394 -0.3052
 1405SOL    HW115674   1.628   2.664   9.569 -1.1417  1.9235  0.4518
 1405SOL    HW215675   1.693   2.761   9.479 -0.5513  1.0264  1.7824
 1406SOL     OW15676   0.581   3.079   4.353  0.1156 -0.3441  0.4164
 1406SOL    HW115677   0.613   3.166   4.375  0.3043 -0.0491 -1.0458
 1406SOL    HW215678   0.538   3.046   4.432  1.5217  0.3879  1.4776
 1407SOL     OW15679   3.009   3.692   9.647  0.4210 -0.3093  0.5503
 1407SOL    HW115680   2.947   3.764   9.647  0.8282  0.0476  1.6619
 1407SOL    HW215681   2.978   3.641   9.572  0.7640  1.9384 -1.1116
 1408SOL     OW15682   1.146   4.610   8.372  0.2827 -0.1189 -0.1653
 1408SOL    HW115683   1.150   4.635   8.464 -0.8118 -0.2514 -0.0796
 1408SOL    HW215684   1.173   4.518   8.370  1.0140  0.1033 -0.5353
 1409SOL     OW15685   1.282   4.192   7.618 -0.2215 -0.0808 -0.1904
 1409SOL    HW115686   1.263   4.266   7.676  0.6830  0.2210 -0.2789
 1409SOL    HW215687   1.355   4.156   7.668 -1.2327 -0.8691  0.7207
 1410SOL     OW15688   0.031   2.078  16.880 -0.0418 -0.1751  0.2814
 1410SOL    HW115689   4.707   2.158  16.906  1.0404  0.1362  1.2568
 1410SOL    HW215690   0.075   2.101  16.798 -0.7904 -1.6562 -0.5359
 1411SOL     OW15691   0.295   2.486   3.045 -0.2859 -0.2906 -0.1276
 1411SOL    HW115692   0.227   2.435   3.001 -2.0843  0.8003  1.3847
 1411SOL    HW215693   0.324   2.544   2.974 -0.8290  0.1672  0.0256
 1412SOL     OW15694   1.143   2.934   7.138  0.3996 -0.5823 -0.3283
 1412SOL    HW115695   1.139   2.971   7.226  2.0280 -0.2966 -0.3705
 1412SOL    HW215696   1.054   2.899   7.131  0.3062 -0.4006 -0.0469
 1413SOL     OW15697   2.221   4.367   4.398  0.2907 -0.9348  0.4096
 1413SOL    HW115698   2.310   4.403   4.403 -0.0211 -0.0983 -0.0888
 1413SOL    HW215699   2.233   4.275   4.373 -1.6265 -0.8726 -0.7316
 1414SOL     OW15700   0.789   4.028  17.061 -1.0263 -0.2886 -0.4573
 1414SOL    HW115701   0.708   4.053  17.106 -0.2090  0.0286  0.8126
 1414SOL    HW215702   0.855   4.029  17.130 -2.8679 -0.9790  1.3105
 1415SOL     OW15703   3.594   3.833  14.881  0.1333 -0.2099  0.0557
 1415SOL    HW115704   3.549   3.870  14.957 -1.6149  0.4272 -1.3005
 1415SOL    HW215705   3.568   3.894  14.812  1.0678  0.8929  0.6864
 1416SOL     OW15706   0.306   4.321   3.020  0.2279 -0.5259  0.4614
 1416SOL    HW115707   0.326   4.414   3.009 -0.3879 -0.7040 -2.1109
 1416SOL    HW215708   0.388   4.281   2.992 -0.2172 -1.8400  1.0179
 1417SOL     OW15709   3.637   1.437  10.212 -0.5408  0.0495 -0.2060
 1417SOL    HW115710   3.665   1.377  10.281  1.4031 -2.1353 -2.8497
 1417SOL    HW215711   3.575   1.495  10.255  0.4138  0.6979  0.2989
 1418SOL     OW15712   4.172   2.854   3.096  0.2277 -0.0080 -0.2612
 1418SOL    HW115713   4.169   2.841   3.001 -1.1931  3.2515 -0.6648
 1418SOL    HW215714   4.200   2.769   3.130 -0.2000  0.7284  1.9163
 1419SOL     OW15715   3.975   4.214   8.622  0.0962  0.2650 -0.7523
 1419SOL    HW115716   3.929   4.247   8.545 -1.8683  0.3195  0.4585
 1419SOL    HW215717   3.919   4.158   8.676  0.4762  0.3857 -0.2349
 1420SOL     OW15718   4.506   3.720   8.499 -0.1221  0.0665  0.3411
 1420SOL    HW115719   4.533   3.740   8.589  0.6197 -0.2022  0.1827
 1420SOL    HW215720   4.455   3.798   8.480  0.4970  0.7903  1.6279
 1421SOL     OW15721   1.198   1.186   2.766 -0.5227  0.0389  0.1941
 1421SOL    HW115722   1.238   1.239   2.835  0.7932 -0.8198  0.0938
 1421SOL    HW215723   1.185   1.247   2.694  2.0569 -0.3545 -0.5970
 1422SOL     OW15724   2.720   2.585   1.526  0.3127 -0.3746  0.3675
 1422SOL    HW115725   2.633   2.544   1.532  0.5192 -0.4533  2.8402
 1422SOL    HW215726   2.748   2.614   1.612 -1.3683 -0.0639  0.8078
 1423SOL     OW15727   0.624   2.875   1.603 -0.0160  0.2872  0.2104
 1423SOL    HW115728   0.529   2.866   1.616 -0.1250  0.1057 -0.6733
 1423SOL    HW215729   0.629   2.821   1.524  0.1126  1.2110 -0.4092
 1424SOL     OW15730   2.653   1.909   9.574  0.2216 -0.1613 -0.1491
 1424SOL    HW115731   2.583   1.872   9.521 -0.0647 -0.0105  0.1247
 1424SOL    HW215732   2.692   1.829   9.610 -1.3033  0.0303  1.9085
 1425SOL     OW15733   4.131   4.291  13.472  0.2268 -0.1774 -0.5962
 1425SOL    HW115734   4.140   4.242  13.390  0.2073  1.0581 -1.3357
 1425SOL    HW215735   4.065   4.238  13.516 -2.1362  2.6634 -0.7313
 1426SOL     OW15736   4.006   4.374   6.957 -0.1781 -0.1038 -0.0385
 1426SOL    HW115737   3.958   4.331   6.886  0.7708  4.0139 -3.1939
 1426SOL    HW215738   3.940   4.400   7.021  0.8917  1.5507  0.3841
 1427SOL     OW15739   2.475   0.843   5.557 -0.2317 -0.3344  0.0218
 1427SOL    HW115740   2.420   0.867   5.632  0.3105  0.4311  0.1683
 1427SOL    HW215741   2.411   0.855   5.487  0.1633 -0.9180 -0.4439
 1428SOL     OW15742   0.904   2.164   1.078  0.3514 -0.0352 -0.2397
 1428SOL    HW115743   0.845   2.238   1.090 -2.8759 -2.4381 -1.3507
 1428SOL    HW215744   0.870   2.114   1.004  3.2637 -1.4067 -0.6509
 1429SOL     OW15745   0.156   3.536   5.667 -0.3401 -0.1577 -0.1821
 1429SOL    HW115746   0.063   3.517   5.675 -0.2732  0.0762  1.1426
 1429SOL    HW215747   0.158   3.621   5.712 -1.1100 -0.2800  0.0769
 1430SOL     OW15748   2.451   0.946   3.721  0.2319 -0.1453 -0.4962
 1430SOL    HW115749   2.492   0.929   3.637 -0.1329 -1.6848 -0.3568
 1430SOL    HW215750   2.478   1.036   3.740  0.0948 -0.3376  0.6046
 1431SOL     OW15751   3.891   4.113   7.424 -0.2449  0.3469 -0.2945
 1431SOL    HW115752   3.986   4.114   7.436 -0.5629  2.0634  2.1652
 1431SOL    HW215753   3.881   4.090   7.332  2.0700 -2.9887  0.3109
 1432SOL     OW15754   1.813   3.709   6.992  0.5379  0.5220 -0.5621
 1432SOL    HW115755   1.801   3.802   6.973 -1.2453  0.3126 -0.4026
 1432SOL    HW215756   1.728   3.673   6.968 -0.5162 -0.9772  5.2582
 1433SOL     OW15757   2.318   0.113   5.222  0.4089 -1.0471  0.2220
 1433SOL    HW115758   2.232   0.148   5.246  1.0078 -0.2346  1.2019
 1433SOL    HW215759   2.318   0.124   5.127 -3.8050 -1.9892  0.1142
 1434SOL     OW15760   4.113   3.819   7.500 -0.4741  0.7000  0.2768
 1434SOL    HW115761   4.018   3.807   7.496 -0.3296  0.1333 -1.3759
 1434SOL    HW215762   4.119   3.869   7.418 -1.9767 -1.1989 -0.9725
 1435SOL     OW15763   2.983   1.214   7.682  0.6503  0.0392  0.7068
 1435SOL    HW115764   2.923   1.281   7.714 -0.6808 -1.6387  1.7163
 1435SOL    HW215765   2.924   1.140   7.696  1.3035 -0.5064  0.5819
 1436SOL     OW15766   1.678   4.606   9.133 -0.0204 -0.2222 -0.0387
 1436SOL    HW115767   1.718   4.691   9.116 -1.1495  0.3373  0.1416
 1436SOL    HW215768   1.694   4.592   9.226  2.2840 -1.2103 -0.5738
 1437SOL     OW15769   1.186   1.070   7.923 -0.2018  0.0682  0.3481
 1437SOL    HW115770   1.159   1.054   8.013 -3.4799  3.7163  0.0072
 1437SOL    HW215771   1.130   1.144   7.900  2.6305  2.6011  1.6397
 1438SOL     OW15772   2.530   4.157   5.449  0.3382  0.0155  0.1589
 1438SOL    HW115773   2.488   4.085   5.403  0.8224 -0.1436 -0.0396
 1438SOL    HW215774   2.620   4.125   5.438  0.7918  0.9485  1.1233
 1439SOL     OW15775   2.949   2.307   5.076  0.4478 -0.4342 -0.6960
 1439SOL    HW115776   2.908   2.285   4.993 -0.4578 -1.5352  0.0404
 1439SOL    HW215777   3.044   2.301   5.068  0.4387 -1.5828  0.0807
 1440SOL     OW15778   4.103   2.136   3.989  0.2194  0.4361 -0.5085
 1440SOL    HW115779   4.190   2.175   3.996  0.8591 -1.1184  0.3488
 1440SOL    HW215780   4.120   2.077   3.916 -0.8559 -2.1530  1.2795
 1441SOL     OW15781   3.779   0.593  15.054  0.4337 -0.1884 -0.0271
 1441SOL    HW115782   3.825   0.570  15.134 -0.3889 -2.2280 -0.1393
 1441SOL    HW215783   3.818   0.525  14.999  1.6588  0.4347  0.0569
 1442SOL     OW15784   3.528   3.815   4.638  0.5478 -0.0303 -0.0792
 1442SOL    HW115785   3.528   3.896   4.588  1.5613 -0.8172 -1.3534
 1442SOL    HW215786   3.523   3.740   4.578 -1.1922  0.2333 -0.2837
 1443SOL     OW15787   2.089   0.068   2.237  0.6727 -0.3251 -0.0095
 1443SOL    HW115788   2.000   0.066   2.200 -0.3587 -1.4605  2.5636
 1443SOL    HW215789   2.121   0.114   2.159 -0.6875  1.6089  0.5634
 1444SOL     OW15790   0.736   3.988   7.373 -0.1355  0.6243  0.3542
 1444SOL    HW115791   0.664   3.965   7.431  1.0362 -2.2048  0.6815
 1444SOL    HW215792   0.714   4.074   7.338  0.2896 -0.6478 -3.0306
 1445SOL     OW15793   1.558   0.633   7.469  0.0373  0.3623 -0.1777
 1445SOL    HW115794   1.497   0.700   7.501 -2.8072 -1.6518 -1.3241
 1445SOL    HW215795   1.497   0.561   7.451  0.9241 -1.2361  3.1292
 1446SOL     OW15796   1.487   4.192   3.705  0.0495  0.3456 -0.1664
 1446SOL    HW115797   1.552   4.211   3.638  0.0043  0.4248 -0.1876
 1446SOL    HW215798   1.404   4.178   3.659  0.0847  4.0741 -1.3430
 1447SOL     OW15799   0.185   3.295  15.094  0.0686 -0.1638  0.0104
 1447SOL    HW115800   0.224   3.303  15.007  1.2342 -1.8043  0.3812
 1447SOL    HW215801   0.260   3.331  15.141  0.1405 -0.3559  0.0423
 1448SOL     OW15802   3.467   4.472   1.800  0.0201  0.1573 -0.1707
 1448SOL    HW115803   3.444   4.413   1.872  2.0414  0.5859  0.8341
 1448SOL    HW215804   3.488   4.407   1.732 -0.1833 -2.0144  1.8294
 1449SOL     OW15805   0.871   2.884   7.508  0.3685  0.3453  0.5971
 1449SOL    HW115806   0.832   2.799   7.532  1.2941  0.2236  1.6847
 1449SOL    HW215807   0.873   2.939   7.586  1.6305 -0.6533  1.2685
 1450SOL     OW15808   2.458   4.432   1.845 -0.0380 -0.1785 -0.3162
 1450SOL    HW115809   2.485   4.510   1.796 -0.0616 -0.8678 -1.4459
 1450SOL    HW215810   2.483   4.454   1.934  1.9544 -2.2104 -0.3750
 1451SOL     OW15811   3.431   4.319   7.995 -0.3303 -0.0594 -0.5553
 1451SOL    HW115812   3.513   4.275   8.016 -1.6082 -1.6506  1.1063
 1451SOL    HW215813   3.421   4.385   8.064  2.4291  1.2898 -1.4457
 1452SOL     OW15814   0.442   3.268  13.898  0.1157 -0.2734 -0.0037
 1452SOL    HW115815   0.405   3.180  13.906 -0.4875 -0.2166 -2.0698
 1452SOL    HW215816   0.427   3.281  13.804 -1.7770  1.2999  0.5251
 1453SOL     OW15817   3.945   2.723   4.778  0.3122 -0.3092 -0.2509
 1453SOL    HW115818   3.871   2.727   4.839  0.0316 -1.4045 -0.5155
 1453SOL    HW215819   3.929   2.629   4.768  0.5460 -0.4086  0.3179
 1454SOL     OW15820   2.892   2.011   6.075 -0.2569  0.4340  0.1132
 1454SOL    HW115821   2.885   1.921   6.108 -0.2843 -0.7342 -3.0946
 1454SOL    HW215822   2.957   2.041   6.138 -0.2577  0.6516  0.0097
 1455SOL     OW15823   2.334   0.325   2.939  0.0686  0.1736 -0.1673
 1455SOL    HW115824   2.287   0.264   2.881  2.9666 -1.6184 -0.6059
 1455SOL    HW215825   2.295   0.408   2.910 -0.9235  0.5484  2.2111
 1456SOL     OW15826   1.314   1.691  13.199 -0.2077 -0.0089  0.6529
 1456SOL    HW115827   1.301   1.734  13.284  1.0582  0.8130  0.4261
 1456SOL    HW215828   1.232   1.715  13.156 -1.0107 -2.5752  0.7402
 1457SOL     OW15829   3.356   3.280   6.458 -0.1784  0.1998  0.5432
 1457SOL    HW115830   3.385   3.323   6.377  0.5251  2.0066  1.7438
 1457SOL    HW215831   3.364   3.355   6.516 -0.5265 -0.2174  1.1248
 1458SOL     OW15832   2.576   2.855   9.963  0.6522 -0.1018 -0.4347
 1458SOL    HW115833   2.515   2.780   9.963  0.4182  0.0832  1.1840
 1458SOL    HW215834   2.576   2.883  10.055  1.1172 -0.5444 -0.3062
 1459SOL     OW15835   3.062   0.098   6.437  0.4165  0.3488  0.0918
 1459SOL    HW115836   3.075   0.193   6.434  4.3320 -0.2030 -0.1234
 1459SOL    HW215837   3.022   0.091   6.524 -0.3842 -3.4274 -0.5878
 1460SOL     OW15838   1.209   0.569   5.897 -0.0085 -0.4512  0.1600
 1460SOL    HW115839   1.288   0.524   5.929  1.1540  0.2242 -1.7581
 1460SOL    HW215840   1.238   0.653   5.933 -0.1896 -1.4870  2.6851
 1461SOL     OW15841   4.633   0.312   6.393 -0.2856 -0.2673 -0.1192
 1461SOL    HW115842   4.577   0.235   6.396 -3.7141  2.1908 -0.8518
 1461SOL    HW215843   4.621   0.354   6.478  0.7339  0.8163 -0.5046
 1462SOL     OW15844   2.942   2.970   8.262  0.0818 -0.2355 -0.7802
 1462SOL    HW115845   2.970   2.985   8.172 -2.1437  0.0057 -1.4298
 1462SOL    HW215846   2.852   2.939   8.251  0.0871 -1.2048  2.0505
 1463SOL     OW15847   0.384   1.747   2.489 -0.4786  0.1582 -0.6432
 1463SOL    HW115848   0.291   1.770   2.482 -0.2502  0.9138 -1.1452
 1463SOL    HW215849   0.391   1.694   2.410  2.3457 -0.0225 -0.2652
 1464SOL     OW15850   3.634   2.285   4.820  0.2185  0.1194 -0.4584
 1464SOL    HW115851   3.577   2.361   4.806 -0.7739 -1.1058 -3.0608
 1464SOL    HW215852   3.674   2.306   4.904  1.5828 -0.3656 -0.9923
 1465SOL     OW15853   0.514   0.067  17.692 -0.1887 -0.3181  0.3915
 1465SOL    HW115854   0.520   4.702   0.039 -0.1399 -1.1691 -1.5155
 1465SOL    HW215855   0.605   0.068  17.663  0.8272  2.8995  3.7616
 1466SOL     OW15856   1.411   0.039  14.593  0.2629  0.7119 -0.5800
 1466SOL    HW115857   1.360   4.691  14.554  0.8917 -0.0384 -0.0313
 1466SOL    HW215858   1.374   0.038  14.682 -0.1091 -3.2926 -0.8086
 1467SOL     OW15859   2.171   4.224   9.859  0.1464 -0.0162 -0.2555
 1467SOL    HW115860   2.140   4.138   9.832  0.9184 -1.3455  3.0213
 1467SOL    HW215861   2.258   4.198   9.890 -0.3179 -0.1701  0.9177
 1468SOL     OW15862   3.777   1.025  17.596  0.4449 -0.0143 -0.2972
 1468SOL    HW115863   3.765   1.003  17.689 -0.8127 -1.1845 -0.7302
 1468SOL    HW215864   3.870   1.041  17.584  0.2650  2.4560  1.6071
 1469SOL     OW15865   0.746   1.302   4.778  0.1209  0.1724 -0.1898
 1469SOL    HW115866   0.792   1.384   4.758 -0.1684  0.4087  0.1285
 1469SOL    HW215867   0.716   1.306   4.868  0.3726 -2.0739 -0.0035
 1470SOL     OW15868   1.302   2.334   1.734 -0.1504  0.2343  0.2696
 1470SOL    HW115869   1.376   2.382   1.696 -1.9456  0.5060 -2.8775
 1470SOL    HW215870   1.287   2.393   1.808  0.2909 -0.5312  0.9710
 1471SOL     OW15871   2.727   2.091  11.605  0.3876  0.5876  0.3312
 1471SOL    HW115872   2.659   2.116  11.543  2.9926 -0.0764 -2.7727
 1471SOL    HW215873   2.784   2.168  11.606  1.8483 -0.5051  2.3313
 1472SOL     OW15874   1.536   3.050   6.366 -0.3145  0.3311 -0.0955
 1472SOL    HW115875   1.535   2.985   6.437  1.1841 -0.1591 -0.5273
 1472SOL    HW215876   1.539   3.127   6.422  0.8449  0.4295 -0.2952
 1473SOL     OW15877   3.242   2.917   7.661 -0.0971  0.1113  0.4345
 1473SOL    HW115878   3.297   2.991   7.688  1.0515 -0.1272 -1.2451
 1473SOL    HW215879   3.224   2.890   7.751  0.4372  0.4019  0.6282
 1474SOL     OW15880   1.485   3.988   4.027  0.1608 -0.3207  0.2761
 1474SOL    HW115881   1.457   3.998   3.936  0.2433 -0.0631  0.2779
 1474SOL    HW215882   1.510   3.896   4.024  0.6924 -0.1450 -0.5573
 1475SOL     OW15883   2.675   4.291  11.091 -0.4654 -0.2970  0.6182
 1475SOL    HW115884   2.631   4.206  11.087 -3.0703  0.8866  3.6760
 1475SOL    HW215885   2.609   4.350  11.055  1.0479  2.0573  1.6901
 1476SOL     OW15886   2.355   3.228   7.455  0.2918  0.6405 -0.1455
 1476SOL    HW115887   2.272   3.218   7.500  0.0755 -0.3494 -0.7603
 1476SOL    HW215888   2.356   3.162   7.386 -1.0143  1.5763 -1.0590
 1477SOL     OW15889   1.412   4.558   0.836 -0.4904 -0.3424 -0.5237
 1477SOL    HW115890   1.449   4.559   0.748  1.0043  0.3490  0.1217
 1477SOL    HW215891   1.330   4.517   0.807  0.3383 -0.2877 -2.8952
 1478SOL     OW15892   0.154   1.995   2.688  0.9451 -0.3442  0.1434
 1478SOL    HW115893   0.191   1.934   2.752  1.2601 -1.8245 -1.4541
 1478SOL    HW215894   0.152   1.951   2.602 -1.7347 -1.3573  0.7390
 1479SOL     OW15895   4.346   1.771   2.892 -0.2686  0.2300 -0.0517
 1479SOL    HW115896   4.383   1.787   2.805  0.6948 -0.1617  0.2937
 1479SOL    HW215897   4.325   1.861   2.917 -1.3632 -0.7298  2.4254
 1480SOL     OW15898   3.755   4.120   5.707 -0.2266 -0.1512 -0.4271
 1480SOL    HW115899   3.705   4.186   5.754 -0.4775  0.1936 -1.1733
 1480SOL    HW215900   3.732   4.148   5.618  0.4490  1.8134  0.0342
 1481SOL     OW15901   4.475   1.549   6.694  0.1457 -0.1148 -0.2236
 1481SOL    HW115902   4.557   1.506   6.719  0.6427  1.5652  0.9840
 1481SOL    HW215903   4.447   1.473   6.642  0.6882 -0.3591 -0.1680
 1482SOL     OW15904   3.938   2.869   5.118  0.0827 -0.0611 -0.4467
 1482SOL    HW115905   3.956   2.820   5.199  1.1474  0.7497 -0.1968
 1482SOL    HW215906   3.879   2.935   5.154  2.4862  0.9090  1.6844
 1483SOL     OW15907   4.003   0.273   8.646  0.7891  0.4703 -0.3223
 1483SOL    HW115908   3.907   0.272   8.654  0.7821  0.7125 -0.3779
 1483SOL    HW215909   4.011   0.294   8.553 -1.3852 -0.1555 -0.6521
 1484SOL     OW15910   0.028   0.606   7.425  0.2527 -0.7848  0.1898
 1484SOL    HW115911   0.086   0.637   7.495 -1.3347  0.0421  1.1315
 1484SOL    HW215912   0.038   0.512   7.440  1.6994 -0.7869 -0.7588
 1485SOL     OW15913   1.257   3.932   4.796  0.0872 -0.0856 -0.1958
 1485SOL    HW115914   1.250   3.839   4.774 -2.4324 -0.1909  1.0558
 1485SOL    HW215915   1.259   3.966   4.706  1.7533 -1.1519 -0.5611
 1486SOL     OW15916   1.597   2.322   5.299 -0.0324 -0.2918 -0.2502
 1486SOL    HW115917   1.547   2.263   5.355  1.2540  0.2595  1.4737
 1486SOL    HW215918   1.551   2.316   5.215 -0.0521 -2.2035 -0.0989
 1487SOL     OW15919   3.177   4.234  17.499 -0.5238  0.4033 -0.0038
 1487SOL    HW115920   3.196   4.141  17.491 -1.7335  0.1223  0.3110
 1487SOL    HW215921   3.225   4.254  17.580 -0.4018 -1.7014  0.4441
 1488SOL     OW15922   1.557   2.054  17.620  0.0780  0.1930 -0.2574
 1488SOL    HW115923   1.528   2.105  17.545  0.2960 -4.6882 -3.6695
 1488SOL    HW215924   1.503   1.975  17.614  0.1671  0.1408 -0.3640
 1489SOL     OW15925   3.421   4.393   5.493 -0.2251 -0.1085  0.3242
 1489SOL    HW115926   3.378   4.399   5.407 -1.4061  2.4372  1.1024
 1489SOL    HW215927   3.345   4.360   5.541  0.8038  1.9085  3.3344
 1490SOL     OW15928   2.605   0.108   3.953 -0.3926 -0.4415  0.5334
 1490SOL    HW115929   2.533   0.136   4.009  1.6870  2.4990  1.7749
 1490SOL    HW215930   2.677   0.144   4.005 -0.8901  2.2322 -0.6504
 1491SOL     OW15931   1.005   3.959   6.881 -0.1341  0.7584 -0.3374
 1491SOL    HW115932   0.935   3.994   6.825  0.6935 -0.2593 -2.0142
 1491SOL    HW215933   0.997   4.015   6.958  2.3759 -0.7401  0.9983
 1492SOL     OW15934   1.922   3.960   6.438  0.1639 -0.1349 -0.8377
 1492SOL    HW115935   1.876   4.039   6.469 -0.4200  0.0379 -2.1632
 1492SOL    HW215936   2.014   3.961   6.462 -0.2227  0.6163  0.6167
 1493SOL     OW15937   3.229   2.269   5.946 -0.0530  0.2498  0.2537
 1493SOL    HW115938   3.202   2.359   5.963  2.4137  0.5282  2.6718
 1493SOL    HW215939   3.315   2.277   5.907  1.0501 -1.8780  2.2474
 1494SOL     OW15940   2.075   2.010  11.916  0.1729  0.3559  0.8169
 1494SOL    HW115941   1.990   1.994  11.957 -0.0474  1.2111  0.6721
 1494SOL    HW215942   2.056   1.979  11.828  1.3161  1.1223  0.2994
 1495SOL     OW15943   1.443   0.408   5.007 -0.2161  0.0837  0.0669
 1495SOL    HW115944   1.394   0.487   4.988  0.6780  0.5345 -0.3467
 1495SOL    HW215945   1.506   0.453   5.064 -1.6806  0.6582  1.2168
 1496SOL     OW15946   1.276   3.401  12.578  0.3797  0.1863  0.3401
 1496SOL    HW115947   1.191   3.416  12.537  0.4645  0.7477  0.3632
 1496SOL    HW215948   1.317   3.488  12.574  1.5078 -0.3714  0.0488
 1497SOL     OW15949   3.580   2.044   8.812  0.3246 -0.0984 -0.2077
 1497SOL    HW115950   3.644   2.069   8.745 -0.0674  0.5016 -0.3587
 1497SOL    HW215951   3.582   2.125   8.864 -0.9737 -0.7494  0.8536
 1498SOL     OW15952   4.154   0.206  14.914  0.5429  0.3080 -0.2954
 1498SOL    HW115953   4.092   0.148  14.958  0.3385 -1.4022 -2.8389
 1498SOL    HW215954   4.100   0.256  14.853 -0.3909  0.6876  0.8523
 1499SOL     OW15955   2.900   1.640   4.427 -0.0989 -0.1527  0.4618
 1499SOL    HW115956   2.946   1.582   4.366  0.9666  0.3772  0.7612
 1499SOL    HW215957   2.810   1.630   4.396  1.0417 -3.2715 -1.7696
 1500SOL     OW15958   0.174   4.189   4.608  0.1369 -0.5601 -0.0627
 1500SOL    HW115959   0.154   4.280   4.633 -1.2324 -0.9617  0.3420
 1500SOL    HW215960   0.252   4.177   4.660  1.0765  1.2270 -1.0593
 1501SOL     OW15961   0.225   3.986   2.494 -0.3396 -0.5531 -0.4730
 1501SOL    HW115962   0.281   4.020   2.564  0.2277 -0.9100 -0.7489
 1501SOL    HW215963   0.271   3.913   2.453  0.1232 -0.3597 -0.2974
 1502SOL     OW15964   1.555   0.191   3.659 -0.8530  0.3331  0.0689
 1502SOL    HW115965   1.476   0.137   3.654 -0.8803  0.2368  1.5332
 1502SOL    HW215966   1.516   0.274   3.629  0.7958  1.0317 -0.1216
 1503SOL     OW15967   0.313   0.345   3.038 -0.1425  0.0566  0.1342
 1503SOL    HW115968   0.316   0.253   3.061 -0.5666 -0.6138 -2.4688
 1503SOL    HW215969   0.334   0.377   3.125 -0.2806 -1.9530  0.9004
 1504SOL     OW15970   4.241   0.734   3.395  0.0027  0.8663  0.2502
 1504SOL    HW115971   4.303   0.747   3.323 -0.0821  1.4701  0.2888
 1504SOL    HW215972   4.182   0.672   3.353  2.9323 -1.2629 -0.7633
 1505SOL     OW15973   1.979   0.625   7.705  0.7871 -0.4124  0.6380
 1505SOL    HW115974   1.883   0.618   7.703  0.7954 -0.2274 -0.3851
 1505SOL    HW215975   2.000   0.557   7.769 -0.1695  0.2269  1.6301
 1506SOL     OW15976   1.157   3.958   7.488 -0.6916  0.4717 -0.3450
 1506SOL    HW115977   1.162   4.033   7.547 -0.8520  0.7727 -0.7201
 1506SOL    HW215978   1.243   3.923   7.511 -1.0752  0.0342  0.4485
 1507SOL     OW15979   4.000   0.376  12.479 -0.1070 -0.1263  0.0316
 1507SOL    HW115980   3.991   0.288  12.442  0.4991  0.1920 -0.8870
 1507SOL    HW215981   3.916   0.387  12.523  1.3748  1.7749  2.3455
 1508SOL     OW15982   1.828   1.840   2.614 -0.3134  0.7397  0.1667
 1508SOL    HW115983   1.792   1.894   2.544 -1.3525 -1.5088 -1.0430
 1508SOL    HW215984   1.778   1.762   2.590 -1.4323  2.0250 -1.6497
 1509SOL     OW15985   0.986   2.174   4.296  0.4001 -0.0686  0.1488
 1509SOL    HW115986   0.893   2.151   4.292 -0.3075  2.4341  1.8648
 1509SOL    HW215987   1.034   2.093   4.313  2.6349  0.7141 -2.5753
 1510SOL     OW15988   2.964   4.303  13.501  0.0851 -0.5006 -0.3860
 1510SOL    HW115989   3.050   4.292  13.461 -2.0403 -2.2095 -4.4704
 1510SOL    HW215990   2.990   4.364  13.570 -2.0689 -0.4014  0.3130
 1511SOL     OW15991   2.808   1.573   0.016  0.4570  0.0896 -0.1266
 1511SOL    HW115992   2.854   1.494   0.044  0.2621  0.2283  0.6074
 1511SOL    HW215993   2.887   1.622  17.685  0.8631 -0.5637 -0.1098
 1512SOL     OW15994   1.853   3.597  10.843  0.0086 -0.0788 -0.0187
 1512SOL    HW115995   1.918   3.616  10.910 -1.4499  2.3567  0.7193
 1512SOL    HW215996   1.859   3.676  10.789 -0.7724  0.6649  0.9839
 1513SOL     OW15997   0.101   2.965   4.359  0.2875  0.0453 -0.4588
 1513SOL    HW115998   0.102   3.060   4.369 -0.7088  0.1307 -1.2258
 1513SOL    HW215999   0.086   2.946   4.452 -1.1459  2.5220 -0.1979
 1514SOL     OW16000   2.313   1.936   6.178 -0.0957 -0.2738  0.1433
 1514SOL    HW116001   2.338   2.010   6.234  0.8404  0.1993 -0.8788
 1514SOL    HW216002   2.397   1.908   6.140 -0.1581  1.2308 -1.1236
 1515SOL     OW16003   0.205   2.633   4.922 -0.3063 -0.4340  0.5442
 1515SOL    HW116004   0.285   2.581   4.916 -0.0583 -0.1002  0.9751
 1515SOL    HW216005   0.141   2.562   4.925 -1.5277  0.6040 -0.8993
 1516SOL     OW16006   0.913   3.930   2.758 -0.9438 -0.3716 -0.2879
 1516SOL    HW116007   0.840   3.907   2.699 -1.5727  0.9492 -0.0381
 1516SOL    HW216008   0.994   3.916   2.710 -0.5303  1.0171 -0.0151
 1517SOL     OW16009   3.277   4.692   7.441 -0.0151 -0.0175  0.0169
 1517SOL    HW116010   3.189   4.712   7.409 -0.5546 -0.9669  0.8749
 1517SOL    HW216011   3.313   0.057   7.426 -0.2750  0.4631  2.2811
 1518SOL     OW16012   1.087   0.848   8.087 -0.0518  0.1009  0.1518
 1518SOL    HW116013   1.058   0.838   7.997  0.4912 -0.3484  0.0300
 1518SOL    HW216014   1.038   0.782   8.136  0.7569  0.4455  1.4397
 1519SOL     OW16015   0.136   1.635   4.028 -0.1974  0.0839 -0.4945
 1519SOL    HW116016   0.107   1.704   3.968  0.5216 -0.0136 -0.9444
 1519SOL    HW216017   0.231   1.638   4.016  0.0289  3.5836  2.1801
 1520SOL     OW16018   2.213   0.527  12.502  0.8740 -0.1148  0.2837
 1520SOL    HW116019   2.208   0.537  12.598  3.5742  0.8600  0.3300
 1520SOL    HW216020   2.293   0.475  12.496  0.6604 -0.2972 -0.8395
 1521SOL     OW16021   3.792   2.969   2.681  0.6779  0.1710  0.1942
 1521SOL    HW116022   3.755   2.890   2.720  0.1186 -0.1109 -0.9062
 1521SOL    HW216023   3.729   2.984   2.610  2.0776  2.3296 -0.6104
 1522SOL     OW16024   2.592   3.264   2.176 -0.1095 -0.3997  0.2921
 1522SOL    HW116025   2.664   3.304   2.127  0.6828 -1.1118  0.8779
 1522SOL    HW216026   2.623   3.285   2.264  0.0023  1.0963 -0.1063
 1523SOL     OW16027   4.718   3.493   2.726  0.0439 -0.1542 -0.3853
 1523SOL    HW116028   4.716   3.574   2.674  1.5736  0.6098  0.7248
 1523SOL    HW216029   0.069   3.510   2.785 -0.9525  1.6852  0.3290
 1524SOL     OW16030   2.421   4.589   5.285  0.0917  0.4904 -0.6727
 1524SOL    HW116031   2.376   4.662   5.241  0.0234  0.4174 -0.7234
 1524SOL    HW216032   2.461   4.630   5.362 -2.1610 -1.4842  1.5256
 1525SOL     OW16033   2.603   1.561   6.667 -0.1625 -0.4517  0.2250
 1525SOL    HW116034   2.580   1.650   6.694 -1.0468  0.1637 -2.5190
 1525SOL    HW216035   2.605   1.522   6.755  0.3327 -1.7656 -0.3673
 1526SOL     OW16036   1.602   3.701   7.604 -0.2668  0.5669 -0.2162
 1526SOL    HW116037   1.632   3.682   7.692 -0.0519  1.1457 -0.1706
 1526SOL    HW216038   1.579   3.610   7.582  0.9927  0.1946  0.0187
 1527SOL     OW16039   2.649   3.140   7.948 -0.0201  0.2332 -0.3700
 1527SOL    HW116040   2.605   3.213   7.990  1.6849  2.3006 -2.1823
 1527SOL    HW216041   2.613   3.148   7.860  0.5850  0.8058 -0.5718
 1528SOL     OW16042   0.362   0.659  13.245  0.0442 -0.0861  0.5612
 1528SOL    HW116043   0.365   0.749  13.215  1.2569 -0.4260 -0.3014
 1528SOL    HW216044   0.441   0.654  13.299  0.0667  0.4753  0.5827
 1529SOL     OW16045   2.859   2.985   5.252  0.1990 -0.3222  0.3744
 1529SOL    HW116046   2.812   3.031   5.322 -1.8155 -1.3623 -0.2762
 1529SOL    HW216047   2.792   2.996   5.183 -1.3154  3.1772  2.4205
 1530SOL     OW16048   3.539   3.167  12.338 -1.0381 -0.3494 -0.4769
 1530SOL    HW116049   3.539   3.089  12.393  1.2630  0.0991  0.1489
 1530SOL    HW216050   3.494   3.232  12.392  2.3714  0.2692  1.5625
 1531SOL     OW16051   1.094   3.017   7.387  0.1475  0.2263  0.7005
 1531SOL    HW116052   1.184   3.008   7.420  0.2515  1.2831  0.7075
 1531SOL    HW216053   1.044   2.956   7.441  3.1150 -0.0979  3.0936
 1532SOL     OW16054   1.559   4.714   4.774 -0.5180 -0.4730 -0.2527
 1532SOL    HW116055   1.510   4.647   4.725  0.0572 -1.2099  0.1775
 1532SOL    HW216056   1.629   4.656   4.805  0.2968 -0.2943 -1.7628
 1533SOL     OW16057   0.371   1.471   3.010  0.5043 -0.1847  0.0455
 1533SOL    HW116058   0.338   1.552   3.047  0.9280  0.4427 -0.9513
 1533SOL    HW216059   0.434   1.437   3.075 -0.7294 -2.1637  0.2146
 1534SOL     OW16060   0.419   3.058  14.527  0.1446  0.4075  1.0362
 1534SOL    HW116061   0.332   3.021  14.512 -0.2693  1.3777  1.0146
 1534SOL    HW216062   0.461   3.016  14.452 -0.6807  1.5786 -0.0955
 1535SOL     OW16063   1.899   3.366  11.838  0.2385  0.4072 -0.2117
 1535SOL    HW116064   1.823   3.324  11.798  0.2904  1.6394 -1.5547
 1535SOL    HW216065   1.960   3.350  11.766  0.4668  4.0766 -0.7895
 1536SOL     OW16066   4.448   3.327   6.453 -0.5406 -0.0392 -1.4566
 1536SOL    HW116067   4.506   3.266   6.499 -0.5246  1.7884  0.9606
 1536SOL    HW216068   4.415   3.387   6.521 -2.2863 -1.1387 -1.3379
 1537SOL     OW16069   3.713   0.784  16.931  0.3623 -0.1355 -0.3840
 1537SOL    HW116070   3.771   0.858  16.947 -0.7039  0.3000  1.5536
 1537SOL    HW216071   3.702   0.800  16.837 -1.9460 -2.4181 -0.5101
 1538SOL     OW16072   2.974   0.592   5.322 -0.3927  0.0432  0.4814
 1538SOL    HW116073   3.018   0.664   5.276 -0.2282  1.0151  2.1574
 1538SOL    HW216074   2.903   0.567   5.263  1.6456  1.2818 -2.4564
 1539SOL     OW16075   0.087   0.553   8.432 -0.0862  0.3904 -0.3576
 1539SOL    HW116076   0.112   0.616   8.499  0.3150 -1.6937  1.4614
 1539SOL    HW216077   0.101   0.471   8.478 -2.5500  0.5953  0.7599
 1540SOL     OW16078   3.350   0.790   8.236 -0.0690 -0.0553  0.2707
 1540SOL    HW116079   3.407   0.853   8.280  2.0391 -1.7068 -0.1074
 1540SOL    HW216080   3.409   0.717   8.218 -0.3012 -0.3833  0.8149
 1541SOL     OW16081   1.091   2.336   4.499 -0.1488 -0.0695 -0.0814
 1541SOL    HW116082   1.047   2.267   4.448 -2.4010 -0.1913  2.0307
 1541SOL    HW216083   1.087   2.417   4.449  0.0970  0.3056  0.5225
 1542SOL     OW16084   4.702   4.078  10.166  0.2053  0.3185  0.1669
 1542SOL    HW116085   0.038   4.153  10.153 -0.7811  0.6717 -2.2085
 1542SOL    HW216086   0.035   4.018  10.216 -2.8299 -2.0311  0.7100
 1543SOL     OW16087   3.383   4.408   0.775  0.6306  0.0787  0.0419
 1543SOL    HW116088   3.463   4.459   0.764  1.0367 -0.7905 -0.9392
 1543SOL    HW216089   3.320   4.443   0.712  1.1138  1.6153  0.4036
 1544SOL     OW16090   0.109   3.401   5.177  0.2098  0.1977  0.5647
 1544SOL    HW116091   0.072   3.452   5.248 -1.0863 -0.1108  0.1013
 1544SOL    HW216092   0.080   3.448   5.098  0.0081  1.1778  1.2260
 1545SOL     OW16093   3.894   0.860   6.128 -0.1988  0.6318  0.0198
 1545SOL    HW116094   3.830   0.928   6.144 -1.1042  0.0411 -1.0955
 1545SOL    HW216095   3.932   0.899   6.049  2.2392 -0.1926  0.7591
 1546SOL     OW16096   0.799   0.749  14.864  0.5711  0.1573  0.2261
 1546SOL    HW116097   0.853   0.807  14.811 -1.0577  1.9228  0.4884
 1546SOL    HW216098   0.842   0.749  14.949 -1.3030  1.2712  1.1861
 1547SOL     OW16099   3.262   1.855   7.305 -0.1151  0.7988  0.0991
 1547SOL    HW116100   3.262   1.889   7.215  0.4278  1.2130  0.2601
 1547SOL    HW216101   3.264   1.929   7.365 -3.8816 -0.2677  1.5606
 1548SOL     OW16102   1.249   2.280   7.747 -0.1217  0.6579  0.1443
 1548SOL    HW116103   1.309   2.299   7.674  0.4358 -0.8312  0.2304
 1548SOL    HW216104   1.281   2.344   7.811 -0.4199  0.6951  0.2545
 1549SOL     OW16105   4.584   2.647  15.886 -0.0208  0.2043 -0.1229
 1549SOL    HW116106   4.540   2.571  15.924 -2.5459  1.6952 -0.1024
 1549SOL    HW216107   4.670   2.606  15.877 -0.6092 -1.3131  1.2515
 1550SOL     OW16108   4.256   3.753   4.838 -0.3520 -0.5712 -0.5238
 1550SOL    HW116109   4.292   3.752   4.927 -0.9002 -1.7036 -0.3177
 1550SOL    HW216110   4.183   3.810   4.865 -0.7070 -1.5405  0.5728
 1551SOL     OW16111   2.289   1.484   4.966  0.0377  0.2375  0.1819
 1551SOL    HW116112   2.333   1.412   5.012  1.0171  0.3640 -0.5601
 1551SOL    HW216113   2.333   1.484   4.881  0.3782 -0.6129  0.3582
 1552SOL     OW16114   2.064   1.886   6.082 -0.4215 -0.1574  0.2066
 1552SOL    HW116115   2.082   1.794   6.100 -0.6368 -0.4422 -1.0248
 1552SOL    HW216116   2.154   1.912   6.104  0.3963 -3.1143  0.4014
 1553SOL     OW16117   0.475   2.212   5.075 -0.8557 -0.1856 -0.5586
 1553SOL    HW116118   0.532   2.160   5.018  1.3153  1.6358 -0.0755
 1553SOL    HW216119   0.540   2.281   5.091 -0.2680 -0.8106 -0.2164
 1554SOL     OW16120   4.552   2.953   5.276  0.3262 -0.3337  0.5060
 1554SOL    HW116121   4.569   3.010   5.351 -1.0422  0.8344 -0.0639
 1554SOL    HW216122   4.631   2.969   5.225  0.0345  0.4602  0.2934
 1555SOL     OW16123   4.107   0.338  11.803 -0.1280 -0.2756  0.3272
 1555SOL    HW116124   4.031   0.281  11.798  1.1523 -1.9635 -0.0557
 1555SOL    HW216125   4.109   0.382  11.718 -2.1467  2.6158  1.7946
 1556SOL     OW16126   1.266   4.435  11.103 -0.0815 -0.3354 -0.0084
 1556SOL    HW116127   1.272   4.362  11.164 -1.7352  0.6474  1.3379
 1556SOL    HW216128   1.355   4.451  11.070  0.5614 -0.4237  1.6653
 1557SOL     OW16129   1.040   4.664   9.224 -0.1201 -0.1130  0.5014
 1557SOL    HW116130   1.101   4.692   9.292  0.3614 -0.6245  0.2727
 1557SOL    HW216131   1.082   4.579   9.214 -1.1766 -0.8408  2.1489
 1558SOL     OW16132   4.062   1.207   2.136  0.5492  0.3388  0.1409
 1558SOL    HW116133   4.069   1.131   2.077  1.1624 -0.3590  1.1133
 1558SOL    HW216134   4.068   1.167   2.223 -2.5352  2.3262  1.2597
 1559SOL     OW16135   2.548   2.872   1.019 -0.1515  0.1536 -0.4366
 1559SOL    HW116136   2.478   2.823   0.976 -1.6037  1.9508 -0.1202
 1559SOL    HW216137   2.588   2.800   1.068  0.2754  2.5999  2.7709
 1560SOL     OW16138   4.055   2.291  12.277 -0.5628  0.1909  0.1224
 1560SOL    HW116139   4.080   2.320  12.190  0.7900 -0.4787  0.2927
 1560SOL    HW216140   4.135   2.298  12.328 -1.7244  2.8218  1.5736
 1561SOL     OW16141   1.599   4.429  15.970 -0.3281 -0.2379  0.1324
 1561SOL    HW116142   1.663   4.460  16.034 -0.0059  2.5080 -1.5435
 1561SOL    HW216143   1.628   4.455  15.883  1.5344 -1.0814  0.5040
 1562SOL     OW16144   0.405   1.538   8.267  0.0199 -0.1101  0.3240
 1562SOL    HW116145   0.350   1.462   8.248 -0.3010  0.0601  0.5905
 1562SOL    HW216146   0.443   1.563   8.183 -0.1554  0.6715  0.4852
 1563SOL     OW16147   1.151   3.912   5.575 -0.1704  0.5235  0.0573
 1563SOL    HW116148   1.105   3.992   5.602 -0.5470  0.4432 -0.3546
 1563SOL    HW216149   1.147   3.920   5.479  0.0913 -1.3276 -0.1036
 1564SOL     OW16150   4.096   2.182   0.650 -0.2040  0.2404 -0.0465
 1564SOL    HW116151   4.149   2.179   0.730 -0.9818  1.1189  0.4994
 1564SOL    HW216152   4.158   2.225   0.591 -0.5183  0.2578 -0.3629
 1565SOL     OW16153   2.380   2.231  15.324  0.1297  0.9519  0.0012
 1565SOL    HW116154   2.422   2.195  15.246 -0.1809 -3.5539  1.9091
 1565SOL    HW216155   2.402   2.168  15.393  0.7832  0.0304 -1.0467
 1566SOL     OW16156   0.441   0.096   9.842 -0.4852 -0.0046  0.6408
 1566SOL    HW116157   0.497   0.143   9.780 -1.1395  0.9582  0.7797
 1566SOL    HW216158   0.479   0.135   9.920 -0.1777  1.0242 -0.0254
 1567SOL     OW16159   2.679   3.915   7.164  0.8404  0.0563 -0.4815
 1567SOL    HW116160   2.634   3.847   7.215  1.1217 -0.1153 -0.4651
 1567SOL    HW216161   2.687   3.991   7.221 -0.5796 -1.2092  1.4043
 1568SOL     OW16162   3.364   0.910   7.613  0.5443  0.2222 -0.4720
 1568SOL    HW116163   3.347   0.933   7.704 -1.2265 -0.7802 -0.5527
 1568SOL    HW216164   3.457   0.888   7.621  0.9893  1.0191 -3.5845
 1569SOL     OW16165   2.626   4.277  10.401  0.4919  0.2225  0.3225
 1569SOL    HW116166   2.573   4.197  10.406  2.4954 -1.2025 -1.3806
 1569SOL    HW216167   2.655   4.283  10.492 -0.4523 -1.9227  0.7586
 1570SOL     OW16168   0.501   2.866   9.232  0.4795  0.2307 -0.0379
 1570SOL    HW116169   0.425   2.841   9.285 -0.5813  2.6532 -0.4046
 1570SOL    HW216170   0.453   2.896   9.155  1.1211 -0.9657 -0.9155
 1571SOL     OW16171   3.274   3.686   4.278 -0.4538 -0.5926 -0.6011
 1571SOL    HW116172   3.296   3.773   4.244 -1.9652  0.8899  2.2764
 1571SOL    HW216173   3.228   3.646   4.204 -0.7255  2.8427 -2.3217
 1572SOL     OW16174   2.173   1.747   8.038 -0.3137 -0.1850  0.3353
 1572SOL    HW116175   2.149   1.655   8.041  0.6114 -0.4114  0.9262
 1572SOL    HW216176   2.228   1.761   8.115 -1.5189  2.1725  0.7656
 1573SOL     OW16177   4.508   0.872   6.116 -0.8620 -0.4168  0.2367
 1573SOL    HW116178   4.510   0.823   6.198 -0.2430  1.5491  1.4101
 1573SOL    HW216179   4.416   0.897   6.111 -1.0145 -0.5809  2.0792
 1574SOL     OW16180   1.390   0.678  11.296  0.4692  0.0441 -0.0623
 1574SOL    HW116181   1.461   0.636  11.247  0.3604  1.0935 -1.1406
 1574SOL    HW216182   1.314   0.634  11.260 -1.2064  0.8261  2.5071
 1575SOL     OW16183   2.477   0.169  12.605 -0.1724 -0.4225  0.3246
 1575SOL    HW116184   2.553   0.203  12.652 -1.2902  0.2676  1.6329
 1575SOL    HW216185   2.450   0.248  12.559  0.5339 -1.8221 -2.4922
 1576SOL     OW16186   3.390   0.828   4.990  0.6202 -0.5924  0.4069
 1576SOL    HW116187   3.444   0.800   4.916 -0.4080 -4.5093  1.1255
 1576SOL    HW216188   3.351   0.905   4.948 -0.8567 -0.8787  1.2643
 1577SOL     OW16189   3.461   3.896   1.855 -0.4927  0.0403 -0.1896
 1577SOL    HW116190   3.526   3.935   1.797 -0.5722 -1.2043 -1.1034
 1577SOL    HW216191   3.484   3.935   1.940  0.1243 -0.2094 -0.2457
 1578SOL     OW16192   4.324   3.367   6.185 -0.2170 -0.6847 -0.3578
 1578SOL    HW116193   4.349   3.319   6.264  0.6869  1.7204  0.7940
 1578SOL    HW216194   4.397   3.337   6.131 -0.3020  2.0008 -1.9515
 1579SOL     OW16195   2.880   1.251   9.901 -0.0676 -0.3533  0.0458
 1579SOL    HW116196   2.894   1.171   9.951 -0.6225  0.8647  2.1131
 1579SOL    HW216197   2.964   1.296   9.912  0.6859 -1.8270  0.3451
 1580SOL     OW16198   2.684   3.275   8.560  0.3644  0.3835 -0.5674
 1580SOL    HW116199   2.711   3.186   8.581 -0.1534  0.0616 -1.2514
 1580SOL    HW216200   2.641   3.305   8.639  2.0720 -0.8336  0.8240
 1581SOL     OW16201   0.363   2.379   3.295 -0.3282 -0.5108  0.2316
 1581SOL    HW116202   0.362   2.390   3.200  0.5206 -2.6573 -0.0408
 1581SOL    HW216203   0.402   2.292   3.301  0.8300 -0.0145 -0.1442
 1582SOL     OW16204   4.060   3.608   5.194 -0.6422 -0.0088  0.7231
 1582SOL    HW116205   4.119   3.629   5.122 -0.4566  2.0490  1.4492
 1582SOL    HW216206   3.984   3.645   5.149 -0.0108  1.5416  0.8997
 1583SOL     OW16207   0.369   3.301  11.833  0.0841 -0.1263  0.3333
 1583SOL    HW116208   0.365   3.394  11.853 -0.3167  0.0461 -0.5187
 1583SOL    HW216209   0.295   3.271  11.886  0.8739  0.2353  1.6447
 1584SOL     OW16210   2.129   3.634   3.586 -0.4217  0.2696 -0.1536
 1584SOL    HW116211   2.188   3.562   3.566 -1.4085 -0.0621 -1.8752
 1584SOL    HW216212   2.190   3.702   3.612  1.0779 -1.8897  1.9617
 1585SOL     OW16213   4.401   4.617   1.255 -0.4970  0.2683 -0.2777
 1585SOL    HW116214   4.474   4.577   1.208 -1.3061 -2.2807  0.6529
 1585SOL    HW216215   4.381   4.540   1.309  1.9366 -1.4836 -1.8495
 1586SOL     OW16216   0.227   4.447  13.509 -0.4161  0.4166  0.4610
 1586SOL    HW116217   0.175   4.393  13.448  2.6756  0.9504 -2.6513
 1586SOL    HW216218   0.152   4.491  13.549  0.7591 -0.1403  3.2289
 1587SOL     OW16219   4.606   3.138   8.951 -0.2989 -0.2966 -0.3225
 1587SOL    HW116220   4.609   3.213   8.891 -0.8494  1.3645  1.7166
 1587SOL    HW216221   4.683   3.155   9.006  0.1527 -0.3250 -0.9398
 1588SOL     OW16222   0.717   2.547   8.312 -0.5031  0.1044 -0.4762
 1588SOL    HW116223   0.793   2.506   8.354 -0.8527  0.4931  0.5361
 1588SOL    HW216224   0.645   2.509   8.363  0.3914 -2.7163 -1.3332
 1589SOL     OW16225   3.177   2.772   3.046 -0.0932 -0.2897  0.1329
 1589SOL    HW116226   3.247   2.803   2.988  0.6512  0.8324  1.6284
 1589SOL    HW216227   3.228   2.721   3.108 -1.6583 -1.0777  0.7637
 1590SOL     OW16228   2.903   3.894   4.773  0.2472  0.2798 -0.6919
 1590SOL    HW116229   2.846   3.955   4.819  1.1451 -0.8199  1.8473
 1590SOL    HW216230   2.959   3.862   4.843  1.2132 -0.9980 -2.0263
 1591SOL     OW16231   3.171   3.986  16.544 -0.3476  0.1392 -0.1837
 1591SOL    HW116232   3.115   3.950  16.614 -0.7857  3.0478  0.9513
 1591SOL    HW216233   3.225   3.910  16.524  0.6698  1.2641 -1.6180
 1592SOL     OW16234   2.230   4.646   4.159 -0.2716 -0.3393 -0.0871
 1592SOL    HW116235   2.154   4.610   4.205 -2.8484  0.8944 -3.4048
 1592SOL    HW216236   2.214   4.631   4.066  1.6969  1.2585 -0.6794
 1593SOL     OW16237   2.318   4.402   4.884 -0.3972 -0.0663 -0.1941
 1593SOL    HW116238   2.391   4.368   4.833  0.7594 -1.0090  2.1110
 1593SOL    HW216239   2.286   4.474   4.829  0.9872  0.2413 -0.5868
 1594SOL     OW16240   3.294   3.695   8.829  0.0243 -0.0678  0.0178
 1594SOL    HW116241   3.317   3.784   8.856  0.3717  0.2657 -1.4006
 1594SOL    HW216242   3.203   3.698   8.799  0.2329  1.9477 -0.4183
 1595SOL     OW16243   1.189   2.786   8.662  0.4987  0.4669  0.3422
 1595SOL    HW116244   1.107   2.763   8.618 -0.3857  0.6321  1.9016
 1595SOL    HW216245   1.150   2.784   8.750 -0.8221  0.2136 -0.2388
 1596SOL     OW16246   4.358   0.556   3.616  0.0382 -0.1319 -0.6061
 1596SOL    HW116247   4.293   0.529   3.552  1.4533 -0.8923 -1.7146
 1596SOL    HW216248   4.437   0.533   3.568  0.7072  0.5973  0.1455
 1597SOL     OW16249   3.728   1.494  11.431  0.0100 -0.0803 -0.2597
 1597SOL    HW116250   3.768   1.432  11.492 -0.7085  0.1801  0.4730
 1597SOL    HW216251   3.720   1.448  11.348 -2.7016 -0.6104  0.3035
 1598SOL     OW16252   1.976   1.356  17.487 -0.7320 -0.2836  0.1437
 1598SOL    HW116253   1.905   1.301  17.521  1.8257 -3.4654  0.2511
 1598SOL    HW216254   2.029   1.301  17.429 -1.0758 -2.3286  1.7846
 1599SOL     OW16255   3.285   2.729  13.918  0.7245 -0.4022 -0.0610
 1599SOL    HW116256   3.320   2.641  13.902  0.4155 -0.9599  2.2535
 1599SOL    HW216257   3.367   2.778  13.908 -0.0608  0.7948 -0.5495
 1600SOL     OW16258   3.802   3.116  13.681 -0.4376  0.6726  0.5687
 1600SOL    HW116259   3.894   3.095  13.693 -0.8393 -0.4517  1.7768
 1600SOL    HW216260   3.791   3.137  13.589 -1.0944  0.5536  0.6144
 1601SOL     OW16261   2.224   0.511   0.899 -0.7964  0.0626 -0.0240
 1601SOL    HW116262   2.222   0.491   0.992 -0.4290 -1.2758 -0.3014
 1601SOL    HW216263   2.149   0.455   0.880  0.7642 -1.5274 -1.5028
 1602SOL     OW16264   4.119   2.367   4.488 -0.0756  0.0866 -0.0563
 1602SOL    HW116265   4.036   2.392   4.448  0.9738  3.2862 -0.2759
 1602SOL    HW216266   4.099   2.338   4.577  4.1822  0.4477  1.0344
 1603SOL     OW16267   3.845   0.006   6.111 -0.2704 -0.1524  0.2332
 1603SOL    HW116268   3.785   4.676   6.058 -1.2744  2.1614 -0.9198
 1603SOL    HW216269   3.859   4.674   6.188 -0.5273 -0.1208  0.3018
 1604SOL     OW16270   0.467   3.439   3.392 -0.2011 -0.1376 -0.3842
 1604SOL    HW116271   0.453   3.534   3.387  0.4729 -0.0123  0.2082
 1604SOL    HW216272   0.451   3.412   3.482 -2.9245 -0.5787 -0.9928
 1605SOL     OW16273   2.048   1.382  15.982 -0.4911 -0.0487  0.2056
 1605SOL    HW116274   2.127   1.347  15.941 -1.0047  0.6293 -1.3841
 1605SOL    HW216275   2.043   1.310  16.045 -1.2410  0.7105  1.0196
 1606SOL     OW16276   4.482   1.077   6.918 -0.4638 -0.3391 -0.4713
 1606SOL    HW116277   4.430   1.063   6.998 -1.6584 -1.4243 -1.4369
 1606SOL    HW216278   4.422   1.053   6.848  0.1287 -0.0183 -1.0865
 1607SOL     OW16279   0.388   0.069   4.913 -0.3378  0.1554  0.3027
 1607SOL    HW116280   0.377   0.007   4.841  2.6189 -0.2470  0.1819
 1607SOL    HW216281   0.307   0.119   4.928 -0.3729  0.3724 -0.6110
 1608SOL     OW16282   3.582   1.637   2.591 -0.5517 -0.2586 -0.4172
 1608SOL    HW116283   3.526   1.561   2.573 -0.5167 -0.1358 -1.0335
 1608SOL    HW216284   3.663   1.599   2.625 -0.6640 -1.3267 -1.3489
 1609SOL     OW16285   0.051   4.393   9.142  0.6228  0.5590 -0.0663
 1609SOL    HW116286   0.094   4.389   9.056 -3.2850  1.2906 -2.0436
 1609SOL    HW216287   0.038   4.487   9.152  0.6767  0.5739 -0.1331
 1610SOL     OW16288   3.912   1.822  12.276  0.4564  0.2715 -0.1931
 1610SOL    HW116289   3.981   1.869  12.231  1.9485 -1.1382  0.6145
 1610SOL    HW216290   3.847   1.814  12.206  0.7519  0.1869 -0.4602
 1611SOL     OW16291   3.564   0.941   8.338  0.1522 -0.0130 -0.2773
 1611SOL    HW116292   3.630   0.987   8.389 -0.8906  0.2273  0.8542
 1611SOL    HW216293   3.579   0.850   8.365 -2.9686 -0.2722  0.5854
 1612SOL     OW16294   4.473   0.719   6.872  0.0318  0.1224 -0.5664
 1612SOL    HW116295   4.419   0.640   6.876 -2.5441  1.8992 -0.0010
 1612SOL    HW216296   4.427   0.790   6.917 -2.8810 -2.6559  0.7812
 1613SOL     OW16297   0.191   1.273   3.327  0.4725 -0.2543 -0.4188
 1613SOL    HW116298   0.243   1.350   3.305 -0.7761  0.4024 -1.0625
 1613SOL    HW216299   0.186   1.221   3.247 -2.5512  0.4186 -0.6570
 1614SOL     OW16300   3.807   1.810  11.101 -0.8154  0.5435  0.0687
 1614SOL    HW116301   3.880   1.748  11.106 -2.5279 -1.4234  0.7890
 1614SOL    HW216302   3.859   1.888  11.082  0.2817 -0.1313  0.2975
 1615SOL     OW16303   4.318   4.661   3.873 -0.0518  0.1683 -0.4379
 1615SOL    HW116304   4.341   4.592   3.811 -0.3788  0.0069 -0.3795
 1615SOL    HW216305   4.241   4.634   3.924 -1.0099  0.9063 -1.4747
 1616SOL     OW16306   3.264   1.461  13.292  0.1573 -0.0294  0.6162
 1616SOL    HW116307   3.327   1.454  13.364  1.2318 -0.1673 -0.3360
 1616SOL    HW216308   3.276   1.376  13.251  2.3511 -0.6154  2.4735
 1617SOL     OW16309   1.681   3.517   4.666 -0.4654 -0.3174 -0.7092
 1617SOL    HW116310   1.686   3.600   4.618 -0.9024 -0.8975 -1.7496
 1617SOL    HW216311   1.691   3.562   4.750  0.0688  1.2976 -1.6398
 1618SOL     OW16312   0.834   3.968   8.604  0.3682  0.2092  0.1122
 1618SOL    HW116313   0.875   3.949   8.688  0.1974  0.8193  0.3287
 1618SOL    HW216314   0.856   3.883   8.565 -0.6455 -0.8036  1.7079
 1619SOL     OW16315   0.184   2.667   3.962  0.7164  0.9698  0.5907
 1619SOL    HW116316   0.181   2.744   3.907  0.2088 -0.3163 -1.1764
 1619SOL    HW216317   0.166   2.705   4.048 -1.1532  0.1341  0.5720
 1620SOL     OW16318   1.770   3.798  13.068 -0.0538 -0.0789 -0.0525
 1620SOL    HW116319   1.708   3.871  13.065  0.1251 -0.0054 -1.5844
 1620SOL    HW216320   1.851   3.848  13.063 -0.2185  0.2559  0.5298
 1621SOL     OW16321   4.271   1.640  13.241 -0.2452  0.4256  0.2469
 1621SOL    HW116322   4.245   1.555  13.277 -0.4370  0.2308 -0.3519
 1621SOL    HW216323   4.363   1.626  13.215  0.3287  0.3689  2.3474
 1622SOL     OW16324   0.356   3.295  15.353  0.1238 -0.1549  0.3476
 1622SOL    HW116325   0.266   3.299  15.386  0.6044  1.0341  1.4864
 1622SOL    HW216326   0.408   3.343  15.418 -0.3414 -0.4998  0.9707
 1623SOL     OW16327   1.413   0.615   6.749  0.0533 -0.1364  0.0975
 1623SOL    HW116328   1.497   0.634   6.792 -0.5797 -1.5000  1.9280
 1623SOL    HW216329   1.400   0.695   6.697  0.6508 -1.0411 -1.4125
 1624SOL     OW16330   0.786   3.382   8.344  0.0074  0.0799  0.1606
 1624SOL    HW116331   0.770   3.448   8.277 -0.3447  1.5346  1.6865
 1624SOL    HW216332   0.839   3.322   8.291 -3.1986 -1.1824 -1.6222
 1625SOL     OW16333   3.253   1.551  15.698  0.1278 -0.0794  0.3858
 1625SOL    HW116334   3.312   1.627  15.698  1.8328 -1.4130  1.7960
 1625SOL    HW216335   3.196   1.574  15.772 -1.5709 -0.2704 -0.8702
 1626SOL     OW16336   3.038   4.058  12.716  0.6280 -0.4032 -0.0614
 1626SOL    HW116337   3.006   4.044  12.805 -0.3686  0.7674 -0.2402
 1626SOL    HW216338   3.098   4.133  12.719 -1.5803  1.3098  1.4324
 1627SOL     OW16339   1.363   3.391  16.936 -0.3023  0.2234  0.3226
 1627SOL    HW116340   1.322   3.448  17.001 -1.4971  0.4533 -0.6318
 1627SOL    HW216341   1.350   3.302  16.970  0.4280  0.3153  0.8491
 1628SOL     OW16342   4.355   4.210   7.948 -0.7086  0.1395  0.1101
 1628SOL    HW116343   4.362   4.135   7.889  1.0628 -0.9882  1.7279
 1628SOL    HW216344   4.264   4.214   7.976 -0.4331 -1.7895  1.2886
 1629SOL     OW16345   1.554   3.927  16.057  0.0048  0.2565 -0.3306
 1629SOL    HW116346   1.602   3.876  16.122 -1.2871 -0.0145  0.4257
 1629SOL    HW216347   1.619   3.997  16.049  0.3558  0.3504  3.4003
 1630SOL     OW16348   2.583   2.590   0.498 -0.1505 -0.1212  0.8526
 1630SOL    HW116349   2.618   2.625   0.580  0.2994  0.5450  0.3769
 1630SOL    HW216350   2.506   2.540   0.527 -1.0989  1.0333  0.3005
 1631SOL     OW16351   1.012   0.039   3.081  0.0930  0.7942  0.3236
 1631SOL    HW116352   0.964   0.120   3.099  0.4528  0.4666  2.8022
 1631SOL    HW216353   0.965   0.014   3.002  0.6555  0.3609  0.1247
 1632SOL     OW16354   4.251   3.143   5.443  0.3907 -0.0322 -0.0597
 1632SOL    HW116355   4.318   3.209   5.460  0.6787 -0.3180 -0.0907
 1632SOL    HW216356   4.238   3.157   5.349 -0.1311 -0.6793 -0.0873
 1633SOL     OW16357   2.901   2.712   2.732 -0.2952  0.3551  0.0957
 1633SOL    HW116358   2.879   2.784   2.792  0.1696  2.1076 -1.8278
 1633SOL    HW216359   2.855   2.633   2.761  0.2502 -0.2034 -0.5709
 1634SOL     OW16360   4.621   2.843   3.275  0.1124  0.1439 -0.5202
 1634SOL    HW116361   4.686   2.795   3.224  1.5526 -0.0371  1.5206
 1634SOL    HW216362   4.570   2.881   3.203  1.2006  0.0702 -1.3321
 1635SOL     OW16363   2.265   3.792   7.261  0.7528  0.3359 -0.2284
 1635SOL    HW116364   2.247   3.698   7.262  1.7852  0.1483  0.6886
 1635SOL    HW216365   2.343   3.795   7.316  0.8540 -0.7089 -0.3168
 1636SOL     OW16366   4.079   1.209   1.196 -0.2876  0.2249 -0.1548
 1636SOL    HW116367   4.044   1.125   1.226 -0.2670  1.4608  3.3215
 1636SOL    HW216368   4.006   1.222   1.136  0.8654  0.6634 -1.4615
 1637SOL     OW16369   3.190   1.337  12.962 -0.8126  0.4634 -0.1440
 1637SOL    HW116370   3.267   1.390  12.942 -0.1955 -1.1636 -2.0823
 1637SOL    HW216371   3.224   1.286  13.036 -1.1810 -0.6507 -0.7449
 1638SOL     OW16372   3.700   2.515   5.874 -0.1354  0.0910 -0.0859
 1638SOL    HW116373   3.734   2.597   5.839 -0.1224 -0.3234 -1.0521
 1638SOL    HW216374   3.705   2.526   5.969  0.7958  1.0620 -0.2466
 1639SOL     OW16375   4.654   1.171  16.372  0.5274 -0.0162 -0.3927
 1639SOL    HW116376   0.005   1.204  16.423  0.6404  0.9664 -1.1948
 1639SOL    HW216377   4.659   1.216  16.287  0.6165  0.1861 -0.2810
 1640SOL     OW16378   3.908   4.233  16.623  0.0936  0.2849 -0.1581
 1640SOL    HW116379   3.826   4.215  16.578 -0.3490  0.7825  0.4480
 1640SOL    HW216380   3.944   4.299  16.564 -1.1643  0.2042 -1.0273
 1641SOL     OW16381   3.081   2.674   6.588 -0.0917 -0.7774  0.2014
 1641SOL    HW116382   3.113   2.755   6.550 -3.3647  1.1374  1.5192
 1641SOL    HW216383   3.047   2.696   6.675  0.5263  0.2861  0.1690
 1642SOL     OW16384   2.540   1.020   6.300  0.3136 -0.1181 -0.3093
 1642SOL    HW116385   2.593   1.067   6.235  0.6321  0.0139  0.0432
 1642SOL    HW216386   2.574   0.930   6.300  0.3186 -0.1169 -0.6193
 1643SOL     OW16387   2.839   0.112   6.183  0.0070 -0.1745  0.2443
 1643SOL    HW116388   2.762   0.121   6.238 -0.4045 -2.1020  0.0044
 1643SOL    HW216389   2.911   0.110   6.247  0.2394 -0.3038 -0.0200
 1644SOL     OW16390   1.176   0.424   6.539 -0.0441 -0.4247  0.0265
 1644SOL    HW116391   1.087   0.401   6.513 -0.6023  2.3492 -0.4624
 1644SOL    HW216392   1.163   0.450   6.630  0.5019 -1.9001  0.5288
 1645SOL     OW16393   0.439   3.170   8.158  0.0225  0.0179  0.6254
 1645SOL    HW116394   0.526   3.154   8.120 -0.7434 -1.3092 -0.5734
 1645SOL    HW216395   0.397   3.086   8.138  0.9830 -0.0826 -1.0341
 1646SOL     OW16396   3.048   1.856   6.876  0.2875  0.0836 -0.1514
 1646SOL    HW116397   3.012   1.923   6.934  2.3111 -1.0963  2.4649
 1646SOL    HW216398   3.006   1.777   6.911  1.2701 -0.4068 -0.0704
 1647SOL     OW16399   2.251   0.096  14.220  0.3633  0.4065 -0.0695
 1647SOL    HW116400   2.316   0.033  14.188 -1.9474 -1.1505 -1.6288
 1647SOL    HW216401   2.214   0.046  14.293 -2.0826 -1.5208 -2.6634
 1648SOL     OW16402   4.056   4.269   9.719 -0.0185  0.1518 -0.7478
 1648SOL    HW116403   4.126   4.298   9.778 -1.1964  0.9561  0.2745
 1648SOL    HW216404   4.065   4.318   9.638 -2.6207  0.6340 -0.7530
 1649SOL     OW16405   4.556   0.546   5.013 -0.3433 -0.4509  0.2207
 1649SOL    HW116406   4.537   0.475   4.951 -2.2275  1.5272 -1.4680
 1649SOL    HW216407   4.499   0.525   5.086 -0.3198  1.1169  0.6852
 1650SOL     OW16408   1.616   3.534   6.524 -0.5622 -0.2949  0.0188
 1650SOL    HW116409   1.554   3.602   6.553 -1.2468 -0.3588 -1.3338
 1650SOL    HW216410   1.686   3.529   6.589  1.0189  2.5589 -1.4659
 1651SOL     OW16411   2.733   0.876   8.869 -0.6374 -0.0723  0.2061
 1651SOL    HW116412   2.774   0.953   8.910 -0.8104  0.5348 -0.7699
 1651SOL    HW216413   2.669   0.860   8.939  0.0104  0.8522  1.0230
 1652SOL     OW16414   2.262   0.039   0.219  0.1514  0.2255  0.6753
 1652SOL    HW116415   2.282   4.670   0.200 -0.3174  0.0393  1.0728
 1652SOL    HW216416   2.171   0.044   0.189 -0.0243  1.1081  1.3455
 1653SOL     OW16417   3.851   1.939   0.236  0.5306  0.3952  0.9047
 1653SOL    HW116418   3.907   1.861   0.235  0.0877  0.0874  0.5154
 1653SOL    HW216419   3.886   1.977   0.156  3.3321  0.1784  2.0379
 1654SOL     OW16420   3.215   2.878   4.358 -0.5703 -0.5343  0.2004
 1654SOL    HW116421   3.193   2.814   4.291 -1.0244  0.3144 -0.4666
 1654SOL    HW216422   3.210   2.955   4.301  1.1011 -0.9548 -0.5201
 1655SOL     OW16423   0.181   0.067  15.249  0.3609 -0.4614  0.1379
 1655SOL    HW116424   0.266   0.112  15.244  0.2311 -0.0517  1.5143
 1655SOL    HW216425   0.172   0.046  15.342 -2.1052  0.3364  0.0690
 1656SOL     OW16426   1.038   0.125   6.461 -0.3710  0.1789  0.1276
 1656SOL    HW116427   1.014   0.209   6.424  0.0377  0.9590  1.6424
 1656SOL    HW216428   0.957   0.080   6.435 -1.2643  2.5193 -1.1189
 1657SOL     OW16429   2.446   1.852   9.045  0.1874 -0.0738  0.4950
 1657SOL    HW116430   2.361   1.843   9.088 -0.1618  2.2001  0.2719
 1657SOL    HW216431   2.490   1.923   9.091  0.2472  0.0129  0.3020
 1658SOL     OW16432   4.120   0.062   6.685  0.4536  0.4750  0.3206
 1658SOL    HW116433   4.161   0.047   6.770 -1.4446 -2.1881  0.7584
 1658SOL    HW216434   4.039   0.091   6.725 -0.9031 -1.3325 -1.1206
 1659SOL     OW16435   2.499   4.359   9.059  0.0209  0.0546  0.6219
 1659SOL    HW116436   2.544   4.336   8.978  1.4656 -1.5600  1.8866
 1659SOL    HW216437   2.567   4.336   9.122  0.6283  2.2511  0.7816
 1660SOL     OW16438   3.410   1.124   7.191  0.2307  0.4966  0.6234
 1660SOL    HW116439   3.482   1.108   7.253  0.6939  0.6804  0.1376
 1660SOL    HW216440   3.418   1.218   7.180  0.2255  0.0816 -2.9348
 1661SOL     OW16441   1.312   1.791   9.365  0.5907 -0.2804 -0.0897
 1661SOL    HW116442   1.388   1.783   9.422  0.3662  1.1431  0.3897
 1661SOL    HW216443   1.269   1.705   9.376  2.6340 -1.5457 -1.9596
 1662SOL     OW16444   3.050   1.247  12.491 -0.2228  0.1061  0.7042
 1662SOL    HW116445   3.078   1.257  12.400 -0.0135  2.6637  1.0555
 1662SOL    HW216446   2.982   1.180  12.481 -0.7091  0.2875  2.7993
 1663SOL     OW16447   3.876   1.046   3.656  0.0107 -0.0595  0.1488
 1663SOL    HW116448   3.860   1.014   3.745  2.5312  1.1005  1.0141
 1663SOL    HW216449   3.961   1.012   3.630  0.3353 -0.2873  1.4875
 1664SOL     OW16450   3.871   0.768   6.817 -0.0856  0.1771  0.2932
 1664SOL    HW116451   3.819   0.728   6.886 -1.1972  1.3234  0.1216
 1664SOL    HW216452   3.865   0.861   6.842  0.1843  0.9077 -2.3725
 1665SOL     OW16453   0.980   2.092   5.431  0.1569 -0.0374 -0.5516
 1665SOL    HW116454   0.950   2.128   5.347 -1.0825  1.0588  0.3742
 1665SOL    HW216455   0.943   2.150   5.497  1.6631  0.0662  0.2016
 1666SOL     OW16456   4.445   1.988   5.837 -0.0771 -0.1731  0.7580
 1666SOL    HW116457   4.509   2.026   5.777 -0.2039  0.1421  0.8218
 1666SOL    HW216458   4.438   1.901   5.798 -1.4813  0.3568 -0.1414
 1667SOL     OW16459   2.519   0.418   3.141  0.4939 -0.0504  0.5436
 1667SOL    HW116460   2.468   0.385   3.067 -0.4292 -0.3826  1.3311
 1667SOL    HW216461   2.559   0.495   3.101  1.6178 -0.6911  0.4424
 1668SOL     OW16462   4.571   3.282   4.808  0.1598 -0.1908  0.2304
 1668SOL    HW116463   4.598   3.206   4.859 -1.6278  0.3190  1.9450
 1668SOL    HW216464   4.586   3.262   4.716  0.7443  0.2835  0.2266
 1669SOL     OW16465   1.786   1.572   0.954  0.0783  0.3795  0.0392
 1669SOL    HW116466   1.841   1.600   1.027 -2.2571  1.0488  1.5451
 1669SOL    HW216467   1.716   1.636   0.953 -0.6788 -0.4358  0.6753
 1670SOL     OW16468   1.205   3.107   2.796  0.3755 -0.3002  0.3233
 1670SOL    HW116469   1.299   3.104   2.777 -0.1425 -2.1805 -1.9593
 1670SOL    HW216470   1.207   3.144   2.884 -1.1796  1.5002 -0.3846
 1671SOL     OW16471   1.312   2.785   5.649  0.2917 -0.1235 -0.0619
 1671SOL    HW116472   1.243   2.828   5.599 -1.6511  0.5995  3.2582
 1671SOL    HW216473   1.307   2.846   5.723  2.3678 -0.7134  0.5873
 1672SOL     OW16474   2.499   4.430  12.487 -0.1273 -0.2396 -0.0850
 1672SOL    HW116475   2.538   4.516  12.475  0.4872 -0.7322 -1.6374
 1672SOL    HW216476   2.472   4.410  12.398 -0.0799  0.2415 -0.2042
 1673SOL     OW16477   1.591   1.080   2.579  0.1857  0.5484  0.4633
 1673SOL    HW116478   1.537   1.002   2.589 -0.3309  1.3314  3.7678
 1673SOL    HW216479   1.624   1.068   2.490  0.1386  0.3976  0.4661
 1674SOL     OW16480   4.579   2.512  16.731 -0.3578  0.3962 -0.1015
 1674SOL    HW116481   4.605   2.576  16.664  0.9959 -1.2564 -1.1494
 1674SOL    HW216482   4.510   2.555  16.782  0.8661  0.8643  1.1931
 1675SOL     OW16483   0.179   1.302   2.737  0.4509 -0.6262 -0.1521
 1675SOL    HW116484   0.156   1.361   2.810  1.3993 -2.7623  1.8805
 1675SOL    HW216485   0.098   1.312   2.688  1.2099  0.6886 -1.1195
 1676SOL     OW16486   2.567   3.611   2.666 -0.6621  0.4265  0.3518
 1676SOL    HW116487   2.649   3.657   2.646  0.1847 -0.8371  0.9452
 1676SOL    HW216488   2.582   3.559   2.745 -2.5303 -0.2600  0.2560
 1677SOL     OW16489   3.804   4.480   2.095  0.5090  0.0208  0.1034
 1677SOL    HW116490   3.879   4.517   2.142 -0.0878  0.5698  0.6303
 1677SOL    HW216491   3.755   4.439   2.166 -0.6718  1.5984  0.2090
 1678SOL     OW16492   1.381   0.961  11.269 -0.3306  0.4234  0.1132
 1678SOL    HW116493   1.368   0.867  11.257 -0.4691  0.5087 -0.4053
 1678SOL    HW216494   1.310   0.971  11.332 -2.4226  1.3087 -2.3711
 1679SOL     OW16495   0.371   1.024   2.906 -0.0296 -0.4443 -0.0871
 1679SOL    HW116496   0.298   1.053   2.961 -1.1513  1.3947 -2.5641
 1679SOL    HW216497   0.320   1.023   2.825  0.0049 -1.2040 -0.1048
 1680SOL     OW16498   2.709   2.439   7.049 -0.1532 -0.0948 -0.4423
 1680SOL    HW116499   2.649   2.513   7.055  0.8097  0.5403  1.4579
 1680SOL    HW216500   2.782   2.482   7.094 -1.8617 -0.1664  2.4285
 1681SOL     OW16501   4.394   0.676   9.398 -0.5468 -0.3969 -0.2208
 1681SOL    HW116502   4.408   0.620   9.321  0.2934 -2.2813  1.2884
 1681SOL    HW216503   4.370   0.611   9.465 -1.1340 -0.2697 -0.3053
 1682SOL     OW16504   1.326   1.689   9.961 -0.1274  0.0667 -0.3395
 1682SOL    HW116505   1.334   1.606   9.915  1.2894 -0.2855  0.5659
 1682SOL    HW216506   1.292   1.662  10.047  3.1964 -0.1501  0.8938
 1683SOL     OW16507   0.939   1.183   7.792  0.8971 -0.1562  0.6902
 1683SOL    HW116508   0.866   1.244   7.802  2.3596  1.7033  0.1639
 1683SOL    HW216509   0.899   1.097   7.803  1.5681 -0.0661  3.7362
 1684SOL     OW16510   0.303   3.246   8.754 -0.5642  0.7281  0.6849
 1684SOL    HW116511   0.343   3.171   8.710 -0.4852  0.7726  0.6815
 1684SOL    HW216512   0.242   3.281   8.689  1.5530  2.8461 -0.1964
 1685SOL     OW16513   2.292   0.943   0.207  0.3121 -0.4872  0.1310
 1685SOL    HW116514   2.307   1.033   0.237 -1.4256 -0.7398  1.7571
 1685SOL    HW216515   2.200   0.935   0.234  0.4489  0.1692  0.7885
 1686SOL     OW16516   3.260   3.608  12.238 -0.1474 -0.0314 -0.2503
 1686SOL    HW116517   3.336   3.662  12.217  0.2858  0.1584  1.8160
 1686SOL    HW216518   3.209   3.610  12.157  0.5479 -0.2093 -0.6897
 1687SOL     OW16519   0.542   0.025   4.097  0.5641  0.6020 -0.5695
 1687SOL    HW116520   0.511   0.115   4.102 -0.6185  0.2859 -1.9941
 1687SOL    HW216521   0.628   0.038   4.057  0.8134 -0.9041 -0.5429
 1688SOL     OW16522   2.507   3.261   8.814  0.4325  0.8605  0.0683
 1688SOL    HW116523   2.540   3.243   8.902 -0.2729 -2.8451 -0.4100
 1688SOL    HW216524   2.416   3.233   8.819  0.3840  0.5238 -2.2969
 1689SOL     OW16525   1.755   3.442  15.274  0.5855  0.1295  0.0203
 1689SOL    HW116526   1.745   3.361  15.324 -0.0617 -1.1018 -2.1248
 1689SOL    HW216527   1.659   3.444  15.274  0.5202 -2.2450  2.6310
 1690SOL     OW16528   0.282   3.209   9.392 -0.7335 -0.2149  0.3750
 1690SOL    HW116529   0.377   3.216   9.401 -0.4866  1.3562 -3.4509
 1690SOL    HW216530   0.257   3.183   9.481 -2.7779 -1.5905 -0.5875
 1691SOL     OW16531   0.813   0.070   4.002  0.5875  0.4000 -0.2408
 1691SOL    HW116532   0.881   0.108   4.057 -0.5919  1.6465  0.3591
 1691SOL    HW216533   0.867   0.042   3.928  0.3707  1.3760 -0.7641
 1692SOL     OW16534   4.029   4.359  11.153 -0.2705 -0.3448  0.9719
 1692SOL    HW116535   3.954   4.311  11.187 -1.2428  1.3931  1.2867
 1692SOL    HW216536   4.106   4.337  11.206  0.1450  0.4119  0.6900
 1693SOL     OW16537   4.203   1.219   4.860  0.1518  0.2379 -0.5339
 1693SOL    HW116538   4.204   1.139   4.809  0.9627  0.0623 -0.2429
 1693SOL    HW216539   4.233   1.279   4.792  0.7779 -0.4309 -0.8429
 1694SOL     OW16540   4.032   2.993   6.123 -0.0117 -0.2907  0.8651
 1694SOL    HW116541   4.118   2.995   6.080 -0.1673 -1.7247  0.4699
 1694SOL    HW216542   4.059   3.021   6.210 -0.9793  2.6270  0.2018
 1695SOL     OW16543   4.125   0.028  11.883 -0.2592 -0.2660 -0.3669
 1695SOL    HW116544   4.199   0.089  11.883 -1.3339  0.9883  4.4665
 1695SOL    HW216545   4.132   0.005  11.790 -2.5199  1.5366 -0.9896
 1696SOL     OW16546   1.341   1.599  13.686 -0.3589  0.0149 -0.0921
 1696SOL    HW116547   1.424   1.565  13.653 -0.2739  0.4882 -0.3798
 1696SOL    HW216548   1.327   1.513  13.723 -0.6376  0.7591  1.5156
 1697SOL     OW16549   1.346   1.571  15.025 -0.3613 -0.6529  0.0968
 1697SOL    HW116550   1.371   1.503  14.963  1.1770  0.0588 -0.0612
 1697SOL    HW216551   1.381   1.530  15.104 -1.3592 -1.9814 -0.1542
 1698SOL     OW16552   2.419   3.464   4.911 -0.3494 -0.6289  1.1716
 1698SOL    HW116553   2.416   3.557   4.932  0.2108  0.2796 -2.8009
 1698SOL    HW216554   2.330   3.444   4.939 -0.5356 -1.9775 -0.3672
 1699SOL     OW16555   2.479   0.460   0.809 -0.1631  0.2573 -0.4905
 1699SOL    HW116556   2.388   0.461   0.838  0.0885 -0.1958  0.3470
 1699SOL    HW216557   2.507   0.396   0.875 -0.8907  2.3102  1.8189
 1700SOL     OW16558   1.680   4.684   8.192 -0.1608  0.0223  0.4684
 1700SOL    HW116559   1.648   0.028   8.131 -3.8889 -1.6947  0.5593
 1700SOL    HW216560   1.768   4.713   8.217  1.1235 -1.2045 -2.6935
 1701SOL     OW16561   3.751   1.867   0.473 -0.0462  0.0083 -0.4567
 1701SOL    HW116562   3.776   1.900   0.386  0.0314 -3.2047 -1.6457
 1701SOL    HW216563   3.806   1.791   0.489 -2.8877 -1.8041  0.7591
 1702SOL     OW16564   2.046   0.211   6.319  0.2308 -0.1406  0.0724
 1702SOL    HW116565   2.112   0.151   6.355 -0.6685 -0.6905  0.8229
 1702SOL    HW216566   1.968   0.171   6.357 -0.6846  1.9072  0.3438
 1703SOL     OW16567   0.910   0.149  15.385 -0.0159 -0.2402  0.2833
 1703SOL    HW116568   0.834   0.170  15.332 -0.9603 -2.6820  0.6471
 1703SOL    HW216569   0.944   0.067  15.350 -0.1005  0.1145 -0.6305
 1704SOL     OW16570   3.327   1.144  13.194  0.2457  0.0975 -0.6833
 1704SOL    HW116571   3.370   1.080  13.251  0.4106  1.0993  0.3244
 1704SOL    HW216572   3.394   1.155  13.126  1.6465 -0.4792  0.5859
 1705SOL     OW16573   0.562   3.362   4.073  0.3954  0.1248  0.4274
 1705SOL    HW116574   0.491   3.408   4.030  0.2239 -1.2047 -0.7084
 1705SOL    HW216575   0.567   3.278   4.027  0.7241  1.0861 -1.2647
 1706SOL     OW16576   4.627   2.323   6.971  0.2452 -0.0016 -0.0913
 1706SOL    HW116577   4.612   2.416   6.958 -1.0740 -0.1217  0.5421
 1706SOL    HW216578   4.655   2.292   6.885 -0.1432  1.4548 -0.7311
 1707SOL     OW16579   1.252   3.783   0.752 -0.0096 -0.4141 -0.1227
 1707SOL    HW116580   1.200   3.705   0.773 -0.9272 -0.4291 -2.5162
 1707SOL    HW216581   1.243   3.833   0.833  1.1089  1.3786 -1.0993
 1708SOL     OW16582   3.714   3.031   4.142 -0.1422 -0.1148 -0.4542
 1708SOL    HW116583   3.746   2.972   4.074  0.1587 -0.4864  0.0065
 1708SOL    HW216584   3.730   2.980   4.221  1.3681 -0.7582 -1.1801
 1709SOL     OW16585   1.822   4.267   8.378 -0.2963 -0.0977 -0.0176
 1709SOL    HW116586   1.868   4.244   8.298 -0.3034 -0.9070  0.2060
 1709SOL    HW216587   1.827   4.362   8.387 -2.1011 -0.1304  1.4485
 1710SOL     OW16588   0.661   2.528   3.492 -0.1763 -0.0176  0.4571
 1710SOL    HW116589   0.715   2.452   3.468 -0.1714  0.6285 -1.5836
 1710SOL    HW216590   0.694   2.586   3.423 -0.8181 -0.6783 -0.4089
 1711SOL     OW16591   1.283   3.442   5.995 -0.1799 -0.0660  0.3268
 1711SOL    HW116592   1.301   3.349   6.013  0.7528 -0.3173 -1.7633
 1711SOL    HW216593   1.372   3.465   5.968 -0.2282 -1.2292 -0.8664
 1712SOL     OW16594   2.697   2.976   2.693 -0.1869  0.4015  0.1623
 1712SOL    HW116595   2.626   2.943   2.637 -0.9641  1.0131  0.7827
 1712SOL    HW216596   2.766   2.992   2.629 -0.8738  0.7476 -0.4959
 1713SOL     OW16597   1.877   0.567   2.080  0.2778 -0.3136  0.0319
 1713SOL    HW116598   1.802   0.624   2.095  0.3491  0.3492 -2.2033
 1713SOL    HW216599   1.835   0.503   2.023  3.0833 -1.3999 -0.8307
 1714SOL     OW16600   3.551   4.210   1.586 -0.7389  0.2570 -0.0705
 1714SOL    HW116601   3.605   4.149   1.637 -0.7270 -0.8661 -1.4215
 1714SOL    HW216602   3.607   4.287   1.576 -1.0853  0.3659 -1.1550
 1715SOL     OW16603   4.580   2.144   6.020 -0.4308  0.5731 -0.1660
 1715SOL    HW116604   4.583   2.101   6.106 -0.7584 -0.7660 -0.8168
 1715SOL    HW216605   4.534   2.077   5.969  1.2641  0.1629 -1.1513
 1716SOL     OW16606   1.122   1.474   6.498 -0.1865 -0.3862  0.0039
 1716SOL    HW116607   1.114   1.532   6.422  1.7799 -0.9657 -0.6526
 1716SOL    HW216608   1.099   1.393   6.452  1.5661  0.8415 -3.0581
 1717SOL     OW16609   2.777   1.082   8.629  0.1366  0.0278  0.4156
 1717SOL    HW116610   2.779   0.986   8.620  0.0640  0.2254 -1.6244
 1717SOL    HW216611   2.804   1.095   8.720 -0.3741 -0.4616  0.6412
 1718SOL     OW16612   0.169   2.027   8.181  0.2461 -0.1892 -0.1787
 1718SOL    HW116613   0.143   1.939   8.210 -0.2339  0.1716  0.4761
 1718SOL    HW216614   0.219   2.055   8.257 -0.0892  0.9237 -0.3659
 1719SOL     OW16615   1.471   1.403   2.397  0.6002  0.1909 -0.1820
 1719SOL    HW116616   1.562   1.390   2.373  0.3085 -1.2190 -0.5277
 1719SOL    HW216617   1.436   1.402   2.308 -2.3267 -0.1675  0.9691
 1720SOL     OW16618   1.286   3.416   6.974 -0.1232 -0.2669  0.2461
 1720SOL    HW116619   1.262   3.475   6.902 -0.0097  0.0501  0.4676
 1720SOL    HW216620   1.205   3.371   6.999  0.8908 -1.0790  2.0529
 1721SOL     OW16621   2.136   2.355   2.779 -0.2668  0.3116  0.2250
 1721SOL    HW116622   2.062   2.396   2.822 -1.7358 -1.7764 -0.3392
 1721SOL    HW216623   2.141   2.266   2.812 -1.7217 -0.3578 -1.3518
 1722SOL     OW16624   1.175   0.860  10.681 -0.5483 -0.3360  0.5336
 1722SOL    HW116625   1.199   0.797  10.612 -1.2591  1.4112 -1.2948
 1722SOL    HW216626   1.205   0.817  10.761  0.3015  2.1086  1.5005
 1723SOL     OW16627   4.469   3.057   8.457  0.3893  0.3790 -0.8027
 1723SOL    HW116628   4.412   3.045   8.533 -2.4901  0.0797 -3.0522
 1723SOL    HW216629   4.409   3.084   8.388 -1.2764  0.2649  0.6040
 1724SOL     OW16630   4.018   1.385   6.265 -0.4000 -0.2467 -0.0279
 1724SOL    HW116631   4.053   1.349   6.346  1.8504 -2.1593 -1.8894
 1724SOL    HW216632   3.944   1.436   6.299 -0.7831 -0.7411 -0.1213
 1725SOL     OW16633   3.043   1.453   7.141 -0.0619  0.4147  0.9529
 1725SOL    HW116634   3.081   1.416   7.061 -0.5014  2.2253 -0.1029
 1725SOL    HW216635   2.987   1.522   7.106 -0.1078  0.6723  1.5415
 1726SOL     OW16636   4.242   3.411  10.108 -0.0303 -0.3710 -1.2606
 1726SOL    HW116637   4.256   3.325  10.150 -1.4529 -0.1675 -0.3696
 1726SOL    HW216638   4.233   3.474  10.179 -0.7552  0.0483 -1.7227
 1727SOL     OW16639   3.427   2.971   0.293 -0.4087  0.3515 -0.3123
 1727SOL    HW116640   3.336   2.976   0.321 -0.3978  0.9706 -0.3832
 1727SOL    HW216641   3.426   2.881   0.260  2.0594  0.3222 -0.3004
 1728SOL     OW16642   0.213   4.514   2.140 -0.1262 -0.0875  0.2625
 1728SOL    HW116643   0.156   4.453   2.094  3.1323 -2.3313 -0.7373
 1728SOL    HW216644   0.187   4.597   2.099 -0.0698 -1.0429 -1.7071
 1729SOL     OW16645   4.044   0.207   6.112  0.3705 -0.1482 -0.2069
 1729SOL    HW116646   3.994   0.274   6.065 -0.0482 -1.5556 -1.7661
 1729SOL    HW216647   3.978   0.141   6.130 -0.5009  0.6155 -0.6217
 1730SOL     OW16648   0.551   0.770   6.928 -0.2643  0.2617 -0.2792
 1730SOL    HW116649   0.557   0.865   6.937  0.6146  0.1306  0.5497
 1730SOL    HW216650   0.548   0.769   6.832  0.0029 -2.1269 -0.2817
 1731SOL     OW16651   0.870   1.257   2.712  0.6786 -0.4713 -0.5039
 1731SOL    HW116652   0.798   1.231   2.654 -0.9583 -2.5277  2.4120
 1731SOL    HW216653   0.949   1.259   2.658  1.9376 -0.4013  1.3457
 1732SOL     OW16654   2.489   2.349   0.983 -0.3730  0.4628 -0.2682
 1732SOL    HW116655   2.525   2.261   0.974 -0.2052  0.4344  0.6636
 1732SOL    HW216656   2.411   2.336   1.036 -0.5183 -2.1328 -1.1567
 1733SOL     OW16657   0.020   3.668  12.822  0.0610  0.0058 -0.2507
 1733SOL    HW116658   4.663   3.717  12.842  1.1672  1.4136  0.6435
 1733SOL    HW216659   0.026   3.688  12.728  0.1740 -1.8772 -0.6491
 1734SOL     OW16660   0.119   2.461   4.199 -0.0704  0.1025 -0.1606
 1734SOL    HW116661   0.163   2.520   4.260 -0.3599  0.1197  0.0328
 1734SOL    HW216662   0.043   2.431   4.249 -0.1348  2.3564  1.0836
 1735SOL     OW16663   2.375   2.731   8.123 -0.0761 -0.8733 -0.4540
 1735SOL    HW116664   2.386   2.637   8.111  0.9869 -0.8552  0.3484
 1735SOL    HW216665   2.434   2.771   8.059  0.0853 -0.0553  0.2037
 1736SOL     OW16666   1.254   0.905   9.256  0.0106  0.3099  0.0501
 1736SOL    HW116667   1.207   0.871   9.180  1.0067  0.9549 -0.8424
 1736SOL    HW216668   1.278   0.822   9.296 -0.1018 -0.8485 -2.2943
 1737SOL     OW16669   2.743   3.525   9.173  0.4403  0.7454 -0.0183
 1737SOL    HW116670   2.749   3.448   9.229 -1.6071  2.1740  2.1700
 1737SOL    HW216671   2.822   3.516   9.119 -0.3817 -2.4795 -0.6634
 1738SOL     OW16672   3.440   4.553   1.358  0.2731 -0.6191 -0.4540
 1738SOL    HW116673   3.485   4.594   1.284  0.5418  0.4474  0.3043
 1738SOL    HW216674   3.463   4.616   1.425 -2.3049 -1.0691  0.8332
 1739SOL     OW16675   1.371   4.561  15.403  0.2022  0.9228  0.0236
 1739SOL    HW116676   1.314   4.532  15.331  1.6624  0.9662 -1.1642
 1739SOL    HW216677   1.431   4.486  15.411 -0.8193 -0.0099 -0.9564
 1740SOL     OW16678   4.631   0.990  14.377 -0.5655  0.5532  0.5626
 1740SOL    HW116679   4.708   0.940  14.351 -0.7798 -1.5457  3.9172
 1740SOL    HW216680   4.560   0.925  14.377 -0.2559  0.2213 -0.2541
 1741SOL     OW16681   2.763   0.921   6.058  0.4238 -0.1337  0.1657
 1741SOL    HW116682   2.714   0.889   5.983  1.7460  1.1080 -1.2405
 1741SOL    HW216683   2.852   0.900   6.029  0.4335 -0.1919  0.2373
 1742SOL     OW16684   3.546   1.564   6.192  0.3799 -0.2892 -0.1093
 1742SOL    HW116685   3.635   1.587   6.165 -0.5508  3.0486 -0.3315
 1742SOL    HW216686   3.567   1.483   6.239  1.2058  0.6439  1.1330
 1743SOL     OW16687   3.977   2.675   7.217 -0.2695 -0.0155 -0.0532
 1743SOL    HW116688   3.948   2.729   7.143 -0.4092 -2.7696 -2.0128
 1743SOL    HW216689   4.014   2.744   7.272 -0.1900  0.0393 -0.1743
 1744SOL     OW16690   2.004   0.401  12.206  0.0316 -0.3969 -0.2676
 1744SOL    HW116691   2.080   0.375  12.155  0.1877 -0.5334  0.0303
 1744SOL    HW216692   2.013   0.496  12.199 -0.2754 -0.2673  1.0872
 1745SOL     OW16693   2.016   1.385   5.076 -0.2646 -0.1806  0.0323
 1745SOL    HW116694   2.018   1.307   5.131  2.0891 -1.8535 -2.4004
 1745SOL    HW216695   2.105   1.387   5.040 -0.9805  0.9774 -1.6739
 1746SOL     OW16696   1.310   2.587   2.413  0.1897  1.3069 -0.4994
 1746SOL    HW116697   1.381   2.620   2.359  0.0602 -1.2407 -2.2250
 1746SOL    HW216698   1.318   2.495   2.387  1.1988  1.3901 -0.4844
 1747SOL     OW16699   2.220   0.597   6.640  0.2852  0.3942 -0.4410
 1747SOL    HW116700   2.215   0.532   6.569  1.7882  1.8467 -1.8506
 1747SOL    HW216701   2.286   0.563   6.700 -1.6460 -0.3170  1.2934
 1748SOL     OW16702   4.148   2.822  15.876 -0.3859  0.8495 -0.0858
 1748SOL    HW116703   4.156   2.863  15.962 -2.2786  1.2364 -0.1031
 1748SOL    HW216704   4.215   2.754  15.879  0.3206  1.6374  1.7455
 1749SOL     OW16705   2.896   2.146   8.330 -0.2745 -0.3299  0.1926
 1749SOL    HW116706   2.932   2.205   8.264 -0.7463 -0.3974 -0.1259
 1749SOL    HW216707   2.804   2.163   8.307  0.3717  2.4667 -0.3155
 1750SOL     OW16708   2.966   3.264   4.352  0.2316  0.0412 -0.4230
 1750SOL    HW116709   3.052   3.223   4.358  1.4192  2.4137 -1.4485
 1750SOL    HW216710   2.906   3.198   4.318  0.2840 -0.7204  0.9405
 1751SOL     OW16711   1.428   3.416   9.363 -0.1555 -0.7007  0.5655
 1751SOL    HW116712   1.400   3.501   9.395  1.3683  0.4763 -1.2545
 1751SOL    HW216713   1.523   3.426   9.355 -0.3443  0.8064  0.2288
 1752SOL     OW16714   4.331   4.635   6.078  0.1526 -0.0426  0.5232
 1752SOL    HW116715   4.291   4.686   6.007 -0.1945 -1.8751 -0.6074
 1752SOL    HW216716   4.257   4.592   6.120 -0.5084 -0.4243 -1.0162
 1753SOL     OW16717   4.373   0.501   5.935 -0.3097 -0.2455  0.2554
 1753SOL    HW116718   4.389   0.407   5.928  0.3899 -0.3061  2.5811
 1753SOL    HW216719   4.379   0.514   6.029  0.2381 -0.2367  0.2183
 1754SOL     OW16720   1.436   4.449  15.125  0.2113  0.2665  0.7799
 1754SOL    HW116721   1.514   4.483  15.080  0.6420 -2.3312 -0.3815
 1754SOL    HW216722   1.356   4.460  15.073  1.2756 -0.6609 -1.0348
 1755SOL     OW16723   2.526   3.766   4.714 -0.3322  0.0589  0.4514
 1755SOL    HW116724   2.474   3.778   4.793 -0.1599 -1.0197  0.7368
 1755SOL    HW216725   2.548   3.856   4.691 -0.8929  0.3168  0.9253
 1756SOL     OW16726   0.974   4.419  13.701 -0.0430 -0.3736  0.4114
 1756SOL    HW116727   0.889   4.458  13.683  1.3047  1.7341 -1.3339
 1756SOL    HW216728   1.036   4.488  13.677  2.4362 -2.3155  1.1427
 1757SOL     OW16729   1.798   1.413   7.001  0.0289  0.5377  0.3232
 1757SOL    HW116730   1.752   1.352   6.943  0.0242  0.0018  0.8890
 1757SOL    HW216731   1.816   1.373   7.086 -0.0734  0.4655  0.3120
 1758SOL     OW16732   3.283   2.298  16.675  0.1572  0.4245  0.0772
 1758SOL    HW116733   3.220   2.364  16.649 -2.9340 -2.3886  0.4035
 1758SOL    HW216734   3.260   2.266  16.763 -0.2829  0.6786  0.0490
 1759SOL     OW16735   2.768   1.170   2.416  0.7331 -0.5191 -0.0313
 1759SOL    HW116736   2.734   1.227   2.348 -1.8979 -0.4794  1.3347
 1759SOL    HW216737   2.803   1.230   2.482 -0.9516  1.7254 -1.1832
 1760SOL     OW16738   2.456   3.924   1.803 -0.2670  0.0569 -0.3535
 1760SOL    HW116739   2.484   3.862   1.870 -0.9807 -1.0503 -1.0687
 1760SOL    HW216740   2.417   3.997   1.853  0.9312  1.1534 -1.0264
 1761SOL     OW16741   3.593   3.458   4.216 -0.6102 -0.0774  0.6253
 1761SOL    HW116742   3.652   3.416   4.153 -1.4035 -1.3771  0.7393
 1761SOL    HW216743   3.559   3.524   4.156 -0.4261 -1.4979 -1.0615
 1762SOL     OW16744   1.482   1.141   5.359  0.4045  0.2840 -0.0456
 1762SOL    HW116745   1.538   1.187   5.420  0.6556  1.2149 -0.9801
 1762SOL    HW216746   1.553   1.106   5.304 -1.2104 -0.5842 -1.5965
 1763SOL     OW16747   4.049   4.621  15.263  0.6868 -0.7387  0.3517
 1763SOL    HW116748   4.056   4.626  15.168  1.2164 -1.6779  0.3417
 1763SOL    HW216749   4.007   4.705  15.283  1.0677 -0.9068  1.8462
 1764SOL     OW16750   3.458   3.765   8.188 -0.2556 -0.0824  1.0157
 1764SOL    HW116751   3.493   3.853   8.206  0.1566 -0.2846  1.1975
 1764SOL    HW216752   3.537   3.712   8.196 -0.0808 -0.0660 -0.5973
 1765SOL     OW16753   1.919   4.471  12.932 -0.1198  0.3712 -0.3644
 1765SOL    HW116754   1.837   4.471  12.882 -0.5713  1.0334  0.3789
 1765SOL    HW216755   1.905   4.390  12.980  2.8056 -0.0979 -0.2979
 1766SOL     OW16756   3.079   3.868   6.825 -0.1355 -0.0434  0.9405
 1766SOL    HW116757   3.004   3.901   6.874 -1.8561 -1.0589 -1.0231
 1766SOL    HW216758   3.045   3.781   6.806 -0.9222  0.4941 -0.1364
 1767SOL     OW16759   2.929   1.542  16.299  0.1887 -0.6362  0.1638
 1767SOL    HW116760   3.014   1.498  16.300  1.0218  1.0005  2.2795
 1767SOL    HW216761   2.869   1.481  16.341 -0.0309 -1.2983 -1.1103
 1768SOL     OW16762   3.534   1.028  11.143  0.2657 -0.5525  0.1366
 1768SOL    HW116763   3.579   1.052  11.062  4.5184 -1.6305  2.1706
 1768SOL    HW216764   3.469   1.098  11.138  0.2782 -0.4475  1.4551
 1769SOL     OW16765   0.548   0.913   8.527  0.6287  0.2194  0.6965
 1769SOL    HW116766   0.531   0.882   8.616  3.1035 -0.3500  0.9569
 1769SOL    HW216767   0.569   1.005   8.546  1.4336  0.4808 -1.5185
 1770SOL     OW16768   4.401   3.309  14.925  0.0774 -0.4109 -0.3842
 1770SOL    HW116769   4.342   3.235  14.943  2.2750 -2.1409 -0.3292
 1770SOL    HW216770   4.489   3.281  14.949  0.2662  1.5400  1.2749
 1771SOL     OW16771   2.348   0.536   0.358  0.6167  0.1085 -1.1303
 1771SOL    HW116772   2.265   0.543   0.406  0.7203 -1.6864 -0.7118
 1771SOL    HW216773   2.405   0.517   0.432  2.1206  1.4932 -1.9239
 1772SOL     OW16774   0.798   1.360   0.485  0.1839  0.0131 -0.4463
 1772SOL    HW116775   0.784   1.356   0.390  0.4463 -1.7974 -0.4025
 1772SOL    HW216776   0.714   1.331   0.520 -0.0588  2.9102  1.3890
 1773SOL     OW16777   4.230   0.250   8.825 -0.4810 -0.1155 -0.4709
 1773SOL    HW116778   4.139   0.278   8.816  0.2764  2.1940 -1.1114
 1773SOL    HW216779   4.273   0.330   8.855 -0.8139  0.2625 -0.9866
 1774SOL     OW16780   4.381   1.386  13.527 -0.3186  0.0955  0.6725
 1774SOL    HW116781   4.398   1.302  13.570 -0.2294  0.6097  1.6285
 1774SOL    HW216782   4.452   1.435  13.569 -0.1620  1.9913 -1.7577
 1775SOL     OW16783   0.932   1.139  16.291 -0.0718  0.3288 -0.1206
 1775SOL    HW116784   0.994   1.107  16.224  0.7280  2.3676 -0.3752
 1775SOL    HW216785   0.987   1.134  16.369 -0.0177 -0.5061 -0.2140
 1776SOL     OW16786   4.401   0.318   3.863  0.2104 -0.3515 -0.1639
 1776SOL    HW116787   4.331   0.257   3.838  2.7410 -2.8739 -1.1045
 1776SOL    HW216788   4.356   0.402   3.870 -0.8405 -1.0038  1.0331
 1777SOL     OW16789   1.600   3.654   1.443  0.0082 -0.1060 -0.3582
 1777SOL    HW116790   1.508   3.648   1.417  0.0305 -2.3537  0.0687
 1777SOL    HW216791   1.629   3.578   1.394  1.2948 -0.3474  0.7798
 1778SOL     OW16792   3.933   0.703  15.986  0.1848 -0.8646  0.3508
 1778SOL    HW116793   3.963   0.794  15.984  0.9629 -1.1445 -0.7089
 1778SOL    HW216794   3.936   0.677  16.078  0.0966  2.7509  1.3584
 1779SOL     OW16795   1.853   3.255  13.161 -0.2125  0.0964 -0.5621
 1779SOL    HW116796   1.891   3.314  13.096 -2.3572  2.1487  0.0684
 1779SOL    HW216797   1.932   3.244  13.215  0.3221  1.4322 -1.0825
 1780SOL     OW16798   1.764   3.496   1.304 -0.2153 -0.2526  0.2863
 1780SOL    HW116799   1.842   3.471   1.353  0.6327  0.4242 -0.7190
 1780SOL    HW216800   1.792   3.502   1.212 -0.8927 -0.0168  0.0921
 1781SOL     OW16801   1.361   0.172   7.243  0.1146 -0.2683  0.4494
 1781SOL    HW116802   1.356   0.223   7.324  0.1904 -2.2923  1.7540
 1781SOL    HW216803   1.456   0.177   7.234 -0.0170  1.5258  0.1299
 1782SOL     OW16804   4.410   0.466  15.083 -0.2164 -0.0223 -0.0356
 1782SOL    HW116805   4.445   0.458  14.994 -0.3502  2.3824 -0.3034
 1782SOL    HW216806   4.396   0.377  15.114 -0.9149 -0.2923 -1.0833
 1783SOL     OW16807   1.442   2.994   0.787 -0.1704  0.2395  0.1893
 1783SOL    HW116808   1.400   3.058   0.729 -0.9246 -1.6388 -1.3480
 1783SOL    HW216809   1.500   3.053   0.835 -0.4263  0.8736 -0.2855
 1784SOL     OW16810   1.804   4.425   7.145  0.5382 -0.0089  0.1599
 1784SOL    HW116811   1.799   4.450   7.237 -1.4939 -3.0740  0.8675
 1784SOL    HW216812   1.714   4.405   7.120  0.6727  0.5484 -0.8048
 1785SOL     OW16813   2.309   1.268   9.182  0.1129 -0.4200  0.1446
 1785SOL    HW116814   2.338   1.262   9.091 -0.8159  0.6068 -0.2167
 1785SOL    HW216815   2.296   1.362   9.191 -0.1132 -0.5503  1.1891
 1786SOL     OW16816   4.706   3.452   1.778 -0.2680  0.3634 -0.0569
 1786SOL    HW116817   4.698   3.359   1.798  0.3129  0.5179  0.8686
 1786SOL    HW216818   4.646   3.490   1.842 -0.3387 -2.5482  1.5891
 1787SOL     OW16819   4.685   3.232   2.152  0.0824 -0.3603 -0.0290
 1787SOL    HW116820   4.644   3.317   2.168 -0.6359 -0.4547 -1.3718
 1787SOL    HW216821   4.617   3.180   2.194 -2.1655  0.8662 -2.1149
 1788SOL     OW16822   1.433   1.750   3.729 -0.8206 -0.9718 -0.1428
 1788SOL    HW116823   1.457   1.807   3.656 -0.7793  2.0487  2.2478
 1788SOL    HW216824   1.338   1.759   3.738 -0.5980  0.8270  0.3850
 1789SOL     OW16825   0.646   2.565   6.462 -0.0786  0.3231 -0.0937
 1789SOL    HW116826   0.578   2.564   6.395 -0.4080 -0.6637  0.2561
 1789SOL    HW216827   0.713   2.613   6.414  0.4370 -1.7348 -1.4394
 1790SOL     OW16828   0.560   2.477  10.453 -0.3977 -0.0202  0.6060
 1790SOL    HW116829   0.591   2.480  10.363  0.3188  2.7179  0.9275
 1790SOL    HW216830   0.477   2.523  10.439  0.1212  1.0235  0.9478
 1791SOL     OW16831   4.016   0.204   2.492 -0.2827 -0.4321 -0.1412
 1791SOL    HW116832   4.096   0.176   2.447  1.1825  2.4039  0.6452
 1791SOL    HW216833   4.025   0.147   2.569 -2.0627  1.9495  1.8284
 1792SOL     OW16834   0.344   3.449  15.937  0.3779  0.3134 -0.4139
 1792SOL    HW116835   0.248   3.448  15.932  0.3582 -2.2598  0.3376
 1792SOL    HW216836   0.350   3.361  15.899  2.1783  0.3168 -0.1244
 1793SOL     OW16837   2.609   1.187   7.102  0.1057 -0.2525  0.3747
 1793SOL    HW116838   2.609   1.164   7.009  0.4686  0.2669  0.2504
 1793SOL    HW216839   2.545   1.258   7.102  2.1541  1.5961 -2.0656
 1794SOL     OW16840   3.150   3.406  17.233  0.3711 -0.5654 -0.3665
 1794SOL    HW116841   3.115   3.325  17.269 -0.8196  0.1690  0.1581
 1794SOL    HW216842   3.190   3.451  17.308 -0.2729 -1.1459  0.3331
 1795SOL     OW16843   2.820   0.447   1.666  0.4212 -0.1039 -0.3699
 1795SOL    HW116844   2.876   0.514   1.626 -0.0589  0.3106 -0.3416
 1795SOL    HW216845   2.874   0.424   1.741 -1.9231  2.7732  2.1624
 1796SOL     OW16846   0.691   2.281   0.556  0.7004 -0.3826  0.2001
 1796SOL    HW116847   0.618   2.323   0.510  0.9578  0.9029  0.9746
 1796SOL    HW216848   0.643   2.265   0.637  0.8406  0.2348  0.4007
 1797SOL     OW16849   0.480   4.608  13.266  0.8163 -0.0199  0.1458
 1797SOL    HW116850   0.462   4.641  13.354  1.7847 -0.1893  0.4117
 1797SOL    HW216851   0.549   4.672  13.244  2.1133 -1.3182  0.4862
 1798SOL     OW16852   4.324   2.515   7.506 -0.5511  0.5435 -0.3044
 1798SOL    HW116853   4.369   2.430   7.508  1.9930  1.8817 -0.9585
 1798SOL    HW216854   4.333   2.547   7.416 -0.1979  0.9662 -0.1188
 1799SOL     OW16855   1.382   2.493   6.910 -0.3038  0.7570 -0.2905
 1799SOL    HW116856   1.308   2.554   6.909 -1.5213 -0.6920 -1.5595
 1799SOL    HW216857   1.424   2.537   6.983 -0.9493 -2.0111  1.7612
 1800SOL     OW16858   1.975   2.377   8.564  0.4045  0.0642 -0.3790
 1800SOL    HW116859   1.963   2.287   8.534  0.6744  0.1243 -0.6674
 1800SOL    HW216860   1.986   2.370   8.659  2.5869  0.4255 -0.5942
 1801SOL     OW16861   3.734   4.271   9.572  0.1242  0.2862 -0.2383
 1801SOL    HW116862   3.707   4.237   9.657  2.2858 -0.7902  0.0322
 1801SOL    HW216863   3.772   4.192   9.533  0.5323  0.7354 -0.7609
 1802SOL     OW16864   1.237   0.773  13.723  0.0858 -0.2740 -0.0846
 1802SOL    HW116865   1.308   0.713  13.702  1.6497  1.2866  0.6989
 1802SOL    HW216866   1.255   0.804  13.812  0.3437 -0.7047  0.0095
 1803SOL     OW16867   1.663   2.369   5.934  0.4127  0.1877 -0.1196
 1803SOL    HW116868   1.683   2.431   5.864 -0.7738  1.5143  0.7078
 1803SOL    HW216869   1.722   2.388   6.007 -1.7183 -0.9712  1.8779
 1804SOL     OW16870   1.370   1.883  14.742 -0.0881 -0.0855  0.0803
 1804SOL    HW116871   1.367   1.974  14.712 -1.4860 -0.4717 -0.9200
 1804SOL    HW216872   1.418   1.886  14.825  1.7941  0.3533 -1.0426
 1805SOL     OW16873   3.080   3.024   7.059 -0.5068 -0.0572 -0.2120
 1805SOL    HW116874   3.026   3.103   7.058 -0.2579  0.1074 -0.7383
 1805SOL    HW216875   3.127   3.044   6.979 -2.0478 -1.6710 -1.5383
 1806SOL     OW16876   4.129   0.781  17.297  0.3143  0.0988 -0.8042
 1806SOL    HW116877   4.199   0.846  17.290 -0.0740  0.7548  1.2502
 1806SOL    HW216878   4.077   0.806  17.374 -0.9988 -0.6138 -1.4458
 1807SOL     OW16879   4.703   3.501  14.066  0.0489 -0.1539  0.6352
 1807SOL    HW116880   0.033   3.421  14.067  0.7852  0.2772 -1.7032
 1807SOL    HW216881   0.015   3.546  13.988 -1.8988 -2.8085 -1.7669
 1808SOL     OW16882   3.266   2.199  11.050  0.6553  0.2698  0.0885
 1808SOL    HW116883   3.332   2.171  10.986  0.6277  2.0042 -0.6978
 1808SOL    HW216884   3.291   2.157  11.133  1.4694  1.2866  0.3549
 1809SOL     OW16885   0.199   0.994   7.886 -0.5838  0.5456 -0.0124
 1809SOL    HW116886   0.107   1.010   7.870 -0.9797 -2.5760 -0.8796
 1809SOL    HW216887   0.228   0.932   7.819 -1.7434  1.8314 -1.6883
 1810SOL     OW16888   0.424   2.801   5.001 -0.6118  0.0724  0.8167
 1810SOL    HW116889   0.407   2.879   4.949  2.8752 -0.4320 -1.0868
 1810SOL    HW216890   0.339   2.760   5.014  0.3084 -1.5230  1.8044
 1811SOL     OW16891   1.769   1.944  12.628 -0.1101  0.0784  0.0009
 1811SOL    HW116892   1.783   1.907  12.541 -0.2299 -0.0749  0.0467
 1811SOL    HW216893   1.721   1.870  12.665 -0.4800  1.0396  1.4282
 1812SOL     OW16894   1.106   0.221   7.120 -0.3600 -0.0210 -0.7452
 1812SOL    HW116895   1.197   0.206   7.145  0.1150 -0.3895 -2.7329
 1812SOL    HW216896   1.100   0.193   7.029 -0.9581 -0.6267 -0.5211
 1813SOL     OW16897   1.587   4.445   5.878  0.0147  0.3393 -0.6636
 1813SOL    HW116898   1.611   4.519   5.824  2.4428 -0.8947 -1.2623
 1813SOL    HW216899   1.663   4.387   5.877 -0.2467  0.0150 -1.5312
 1814SOL     OW16900   0.394   2.749   1.697 -0.1223 -0.3479 -0.7522
 1814SOL    HW116901   0.438   2.664   1.699 -0.8531 -0.6985  0.4302
 1814SOL    HW216902   0.309   2.714   1.671 -1.3459  0.0387  2.7092
 1815SOL     OW16903   1.095   4.522  16.045 -0.5394  0.0203  0.2534
 1815SOL    HW116904   1.157   4.469  16.095 -1.0289 -0.3494  0.4651
 1815SOL    HW216905   1.033   4.553  16.111 -0.7737  0.4349 -0.1615
 1816SOL     OW16906   3.062   3.729  11.773  0.0624 -0.3492  0.0799
 1816SOL    HW116907   3.014   3.663  11.723  3.0662 -2.1918 -0.3785
 1816SOL    HW216908   2.985   3.764  11.818  1.1865  3.4125 -0.9425
 1817SOL     OW16909   0.501   0.182   6.662 -0.2701  0.0803  0.4453
 1817SOL    HW116910   0.504   0.115   6.730  0.4558  0.3264  0.6615
 1817SOL    HW216911   0.595   0.180   6.645  0.0055 -0.7293  2.1012
 1818SOL     OW16912   3.176   1.375   3.662 -0.0721  0.3787  0.2035
 1818SOL    HW116913   3.267   1.344   3.659 -0.7611 -1.4077 -3.6837
 1818SOL    HW216914   3.119   1.298   3.674 -3.4086  3.1196  1.8007
 1819SOL     OW16915   2.316   0.863   7.851  0.5354  0.4655  0.2148
 1819SOL    HW116916   2.298   0.819   7.934 -0.4227 -0.6627 -0.5975
 1819SOL    HW216917   2.250   0.826   7.792  2.5643 -0.3818 -1.5190
 1820SOL     OW16918   2.994   1.404   4.849  0.4790 -0.0829 -0.0340
 1820SOL    HW116919   2.923   1.381   4.789 -0.1597  0.9166  0.3360
 1820SOL    HW216920   3.053   1.445   4.786  3.1524 -0.3614  2.2896
 1821SOL     OW16921   3.322   1.953   8.818 -0.1535 -0.5311 -0.0020
 1821SOL    HW116922   3.417   1.959   8.827 -0.1271 -0.3909 -0.3715
 1821SOL    HW216923   3.306   2.046   8.804  0.2206 -0.4046  0.3757
 1822SOL     OW16924   1.356   3.440   7.430  0.0130 -0.3365  0.2452
 1822SOL    HW116925   1.301   3.385   7.375  0.6846 -0.1525 -0.6027
 1822SOL    HW216926   1.284   3.485   7.475  0.0421 -0.3758  0.3302
 1823SOL     OW16927   1.515   3.403   1.692  0.4314 -0.0790 -0.2920
 1823SOL    HW116928   1.431   3.382   1.733  1.2452 -0.1888  1.3171
 1823SOL    HW216929   1.557   3.455   1.761 -0.3404  0.8107 -0.5032
 1824SOL     OW16930   3.433   2.914   6.633 -0.7157  0.2202 -0.4397
 1824SOL    HW116931   3.431   2.960   6.550  3.3900  0.9449 -0.1643
 1824SOL    HW216932   3.414   2.826   6.601 -1.4998  0.2352 -0.0071
 1825SOL     OW16933   2.602   0.826   2.253  0.1940 -0.0302  1.0531
 1825SOL    HW116934   2.564   0.899   2.302  0.4243  0.9809 -0.3074
 1825SOL    HW216935   2.526   0.768   2.257 -1.8718  2.6308 -0.5951
 1826SOL     OW16936   2.113   4.021   2.219  0.3360  0.1988 -0.2601
 1826SOL    HW116937   2.193   4.073   2.227 -0.4403  1.4946 -0.8044
 1826SOL    HW216938   2.136   3.966   2.144 -0.9640 -0.6986 -0.0064
 1827SOL     OW16939   3.138   3.278  16.033 -0.2537  0.5588  0.7531
 1827SOL    HW116940   3.160   3.334  16.108 -1.8704  0.8219  1.0395
 1827SOL    HW216941   3.122   3.347  15.968  1.1828  1.8587  1.7787
 1828SOL     OW16942   3.909   0.186  11.739  0.0903  0.0123 -0.5037
 1828SOL    HW116943   3.972   0.117  11.721  1.6348  1.9720 -2.6792
 1828SOL    HW216944   3.825   0.150  11.711 -0.8782  1.4282  0.5455
 1829SOL     OW16945   1.618   0.142   0.625 -0.5023 -0.1250  0.1787
 1829SOL    HW116946   1.649   0.153   0.535 -0.5792 -1.2661  0.0107
 1829SOL    HW216947   1.689   0.185   0.673  0.3895  0.4089 -1.6204
 1830SOL     OW16948   1.393   1.649   2.094 -0.2054 -0.3213 -0.0191
 1830SOL    HW116949   1.342   1.615   2.020 -0.8365  0.7165 -0.0531
 1830SOL    HW216950   1.421   1.564   2.128 -0.1696 -0.3829 -0.2027
 1831SOL     OW16951   3.367   0.869   7.066  0.4881  0.0193  0.1031
 1831SOL    HW116952   3.393   0.956   7.096 -1.0886  0.7442 -0.5898
 1831SOL    HW216953   3.273   0.883   7.057  0.8671  2.1119 -0.7133
 1832SOL     OW16954   4.062   3.692   1.930  0.2911 -0.2214 -0.5321
 1832SOL    HW116955   4.123   3.651   1.991  0.3780  0.8384  0.0952
 1832SOL    HW216956   4.120   3.703   1.855  0.4831  1.8663 -0.0946
 1833SOL     OW16957   1.653   0.945   8.823  0.2479  0.2054  0.1481
 1833SOL    HW116958   1.606   0.878   8.773  1.8713 -1.9644  1.5098
 1833SOL    HW216959   1.742   0.913   8.812  0.4223  1.0343 -0.8635
 1834SOL     OW16960   2.178   4.040   5.499  0.7592 -0.4672  0.3028
 1834SOL    HW116961   2.140   4.019   5.584  2.3516 -0.2118  1.0853
 1834SOL    HW216962   2.216   3.953   5.484 -1.1578 -1.3203  0.3200
 1835SOL     OW16963   3.416   0.459   8.168 -0.0074  0.1610 -1.6623
 1835SOL    HW116964   3.464   0.405   8.231  0.7058 -1.0680 -3.2556
 1835SOL    HW216965   3.329   0.464   8.207  0.9080  1.0617  0.2504
 1836SOL     OW16966   1.092   1.625  13.798 -0.0573  0.3860 -0.1133
 1836SOL    HW116967   1.071   1.710  13.762 -0.8112  1.2148  2.2761
 1836SOL    HW216968   1.177   1.593  13.766  0.2905 -1.2623  2.4242
 1837SOL     OW16969   0.406   2.991   8.683 -0.1334 -0.0457  0.4128
 1837SOL    HW116970   0.385   3.023   8.596 -4.6895 -0.6213  1.3124
 1837SOL    HW216971   0.499   2.976   8.667  0.0208  1.9717 -0.6464
 1838SOL     OW16972   1.780   2.753   5.219 -0.9217  0.1093  0.7961
 1838SOL    HW116973   1.773   2.702   5.139  1.7188  0.2488  0.4602
 1838SOL    HW216974   1.864   2.797   5.204 -1.1265  0.3274  0.2838
 1839SOL     OW16975   4.442   3.995   5.010 -0.5591  0.3475  0.3272
 1839SOL    HW116976   4.442   4.013   4.916  1.3305  0.6425  0.3782
 1839SOL    HW216977   4.349   4.007   5.028 -1.4143 -0.5160 -3.4401
 1840SOL     OW16978   1.010   0.102   3.776 -0.2391 -0.1349  0.6760
 1840SOL    HW116979   0.928   0.087   3.728 -1.1705 -1.8331  2.8100
 1840SOL    HW216980   1.004   0.194   3.802  0.8912  0.3346 -0.7181
 1841SOL     OW16981   2.151   2.020   7.302 -0.2029  0.4680  0.0086
 1841SOL    HW116982   2.100   1.947   7.336 -1.2826  1.1630 -0.0973
 1841SOL    HW216983   2.236   1.977   7.294 -0.7251 -0.5373 -0.0454
 1842SOL     OW16984   1.343   0.667   8.054  0.1833  0.1785  0.0990
 1842SOL    HW116985   1.273   0.605   8.034  0.4031 -1.3213  3.9697
 1842SOL    HW216986   1.304   0.753   8.038 -0.5503 -0.3961 -1.1826
 1843SOL     OW16987   0.947   4.635   2.829 -0.3497  0.2829 -0.3559
 1843SOL    HW116988   1.011   4.651   2.760 -0.9743 -2.2258 -1.5204
 1843SOL    HW216989   0.879   4.594   2.775 -0.9472 -2.5681  2.6286
 1844SOL     OW16990   4.532   1.557   6.070  0.0969  0.2398 -0.0538
 1844SOL    HW116991   4.625   1.582   6.070  0.1748 -0.0548  0.4707
 1844SOL    HW216992   4.503   1.584   5.983 -2.9268  0.6428  1.0900
 1845SOL     OW16993   2.133   1.428   3.149 -0.3857  0.5329  0.3464
 1845SOL    HW116994   2.096   1.510   3.116 -0.5660 -0.1258 -1.1001
 1845SOL    HW216995   2.139   1.372   3.072  1.4943 -1.7108  2.1204
 1846SOL     OW16996   3.804   2.996   3.652  0.1566  0.2729 -0.3052
 1846SOL    HW116997   3.845   3.081   3.638 -0.7352  0.7007 -0.3009
 1846SOL    HW216998   3.878   2.957   3.697 -2.1734 -3.7793  0.0266
 1847SOL     OW16999   2.630   3.453   0.846 -0.0540  0.2321  0.0082
 1847SOL    HW117000   2.600   3.543   0.863  0.8762  0.5315  0.1001
 1847SOL    HW217001   2.552   3.422   0.800  0.6570  0.5939 -1.4520
 1848SOL     OW17002   0.179   0.020   7.658  0.1290 -0.2201  0.1951
 1848SOL    HW117003   0.239   4.674   7.628 -1.2323 -1.0462 -0.6507
 1848SOL    HW217004   0.150   0.068   7.580 -2.3866 -1.5903  0.2671
 1849SOL     OW17005   0.382   0.323   8.347 -0.3354  0.3500  0.0432
 1849SOL    HW117006   0.398   0.230   8.364  0.1659  0.4619  0.2172
 1849SOL    HW217007   0.377   0.350   8.439  0.2927 -0.4107  0.3028
 1850SOL     OW17008   1.163   3.378   2.027  0.3481  0.1655 -0.4049
 1850SOL    HW117009   1.140   3.374   2.120 -0.2277  0.9945 -0.5162
 1850SOL    HW217010   1.233   3.313   2.023  1.0927  0.8458  1.2796
 1851SOL     OW17011   4.574   3.200  15.881  0.6381 -0.5858  0.1317
 1851SOL    HW117012   4.493   3.176  15.927 -0.7417  0.4502 -1.7397
 1851SOL    HW217013   4.593   3.115  15.840  0.5192  0.0394 -1.2243
 1852SOL     OW17014   0.980   3.313   3.215 -0.2566  0.0445  0.4403
 1852SOL    HW117015   1.042   3.341   3.283  0.1174  1.6398 -0.5659
 1852SOL    HW217016   0.892   3.318   3.252 -0.1607 -3.0204  1.1003
 1853SOL     OW17017   3.283   2.268   7.010 -0.2676 -0.0516  0.5095
 1853SOL    HW117018   3.258   2.339   6.952 -2.0141  0.7942  2.2982
 1853SOL    HW217019   3.249   2.299   7.094 -1.4227 -0.5144  0.2037
 1854SOL     OW17020   4.229   4.415   6.653  0.6922  0.4940 -0.1744
 1854SOL    HW117021   4.234   4.346   6.586 -2.1263  1.1805 -1.1288
 1854SOL    HW217022   4.136   4.435   6.636  0.5261  0.3428  0.5794
 1855SOL     OW17023   3.470   4.154   7.486  0.0635 -0.0812  0.3817
 1855SOL    HW117024   3.432   4.220   7.429 -0.8277 -1.7409 -0.9508
 1855SOL    HW217025   3.498   4.204   7.563  0.5877  1.3996 -0.7790
 1856SOL     OW17026   2.467   3.835   8.283 -0.1681 -0.2583 -0.4338
 1856SOL    HW117027   2.438   3.764   8.342 -0.0605  1.4165  1.6507
 1856SOL    HW217028   2.480   3.905   8.347 -1.1382 -1.3672  0.9952
 1857SOL     OW17029   2.651   3.590   6.403  0.1023  0.0499  0.1348
 1857SOL    HW117030   2.585   3.645   6.444 -0.3957 -0.1454 -0.3997
 1857SOL    HW217031   2.732   3.636   6.422  0.5382 -1.3669  1.7639
 1858SOL     OW17032   2.408   3.855  16.988  0.6174 -0.6314  0.3307
 1858SOL    HW117033   2.346   3.916  16.948  0.7631 -0.2214  0.7297
 1858SOL    HW217034   2.388   3.870  17.080  1.0897 -0.6849  0.4439
 1859SOL     OW17035   3.048   1.892   4.486 -0.3817  0.2964 -0.7207
 1859SOL    HW117036   3.095   1.810   4.468  1.1103  1.0332 -0.1815
 1859SOL    HW217037   3.113   1.952   4.449  0.7757  0.2144  1.1573
 1860SOL     OW17038   1.161   0.932  12.443 -0.2536  0.7233 -0.5316
 1860SOL    HW117039   1.177   0.842  12.471  0.9169  0.9929 -0.3406
 1860SOL    HW217040   1.242   0.982  12.457 -1.5119  2.9068 -1.0592
 1861SOL     OW17041   4.065   3.686  15.575 -0.2774 -0.0266 -0.0327
 1861SOL    HW117042   4.117   3.758  15.611 -0.3841  0.7199 -1.3785
 1861SOL    HW217043   4.102   3.667  15.489 -0.0147 -2.3358  0.5781
 1862SOL     OW17044   0.515   0.372  12.793  0.3374  0.0514 -0.5929
 1862SOL    HW117045   0.560   0.448  12.758  0.5765  1.2115  2.1838
 1862SOL    HW217046   0.433   0.412  12.820 -0.8084 -3.0016  0.5257
 1863SOL     OW17047   1.039   1.481   3.617 -0.6895 -0.2103  0.3115
 1863SOL    HW117048   0.970   1.467   3.553 -1.0495  0.7003  0.5070
 1863SOL    HW217049   1.110   1.431   3.575 -1.6478 -0.3367 -1.1351
 1864SOL     OW17050   1.551   0.507   7.110  0.0426  0.3829 -0.5786
 1864SOL    HW117051   1.555   0.599   7.135  0.2967 -0.0730  1.0682
 1864SOL    HW217052   1.549   0.516   7.015 -2.5672 -2.2921 -0.7630
 1865SOL     OW17053   3.683   4.686   3.480 -0.2621  0.7247 -0.1480
 1865SOL    HW117054   3.627   0.001   3.412  2.2868  1.3430 -1.9091
 1865SOL    HW217055   3.625   4.618   3.513 -1.4077  2.0771  0.6190
 1866SOL     OW17056   1.783   3.409   6.003  0.7580  0.4339  0.3021
 1866SOL    HW117057   1.749   3.413   6.092  2.4673 -1.0358  1.0272
 1866SOL    HW217058   1.795   3.316   5.985 -1.6696  0.3289 -0.6792
 1867SOL     OW17059   0.461   1.760   6.009  0.2513 -0.1412  1.4215
 1867SOL    HW117060   0.552   1.730   6.001  0.2494  0.0788  0.5559
 1867SOL    HW217061   0.439   1.768   5.916 -1.1955 -2.3103  1.5801
 1868SOL     OW17062   2.338   2.733   5.060 -0.1826 -0.1575  0.0434
 1868SOL    HW117063   2.376   2.799   5.002  0.6624 -0.6913 -0.0184
 1868SOL    HW217064   2.398   2.736   5.134 -0.3092  0.9869  0.0983
 1869SOL     OW17065   1.286   0.118   7.759  0.0368  0.0381 -0.2860
 1869SOL    HW117066   1.259   0.178   7.690 -0.1146 -0.0199 -0.2770
 1869SOL    HW217067   1.266   0.153   7.846  0.7365  1.7392 -0.8038
 1870SOL     OW17068   0.446   1.554   3.294 -0.0860  0.1120  0.0280
 1870SOL    HW117069   0.512   1.502   3.248 -0.1700 -1.2051  1.4052
 1870SOL    HW217070   0.434   1.492   3.366  0.9826 -0.7417 -0.5157
 1871SOL     OW17071   1.408   0.913   6.952  0.0249  0.6962 -0.1604
 1871SOL    HW117072   1.447   0.926   6.865 -0.2528  2.1956 -0.0560
 1871SOL    HW217073   1.389   1.000   6.986 -0.9864  0.5191 -0.2805
 1872SOL     OW17074   3.646   1.009   6.101 -0.0269 -0.5256 -0.1339
 1872SOL    HW117075   3.567   1.033   6.149 -0.4331  0.2563 -1.1765
 1872SOL    HW217076   3.605   0.962   6.028 -2.8421  1.5249  0.1256
 1873SOL     OW17077   3.607   1.523   7.213 -0.3233  0.2618 -0.4044
 1873SOL    HW117078   3.548   1.482   7.150  1.1357  0.1073 -1.6896
 1873SOL    HW217079   3.549   1.578   7.265  0.3891  0.8582 -0.2347
 1874SOL     OW17080   4.450   2.529   8.438 -0.1026  0.0037  0.2612
 1874SOL    HW117081   4.398   2.589   8.491 -0.6641 -0.0403 -0.2402
 1874SOL    HW217082   4.458   2.579   8.356  1.4705 -2.1685 -0.9265
 1875SOL     OW17083   3.052   2.478  11.541  0.6560 -0.0124 -0.0893
 1875SOL    HW117084   3.030   2.462  11.449  0.2241 -1.0554  0.1954
 1875SOL    HW217085   3.037   2.572  11.550 -0.3253 -0.1349 -0.4046
 1876SOL     OW17086   3.383   2.636   2.896  0.1981 -0.3285  0.3736
 1876SOL    HW117087   3.349   2.625   2.807  0.7870  0.4857  0.0528
 1876SOL    HW217088   3.438   2.714   2.885  0.7196 -0.7535 -0.0638
 1877SOL     OW17089   1.165   1.921  16.221  0.2900 -0.3920 -0.0148
 1877SOL    HW117090   1.112   1.934  16.142  1.2152 -2.3939 -0.9759
 1877SOL    HW217091   1.102   1.937  16.291  1.2044  3.1470 -0.0128
 1878SOL     OW17092   0.914   0.454   6.448 -0.3600 -0.2881  0.1335
 1878SOL    HW117093   0.891   0.497   6.531 -0.0017  0.8241 -0.3440
 1878SOL    HW217094   0.838   0.480   6.396 -0.6562  0.4370  0.9049
 1879SOL     OW17095   3.015   0.595   0.522  0.2775  0.3206  0.2150
 1879SOL    HW117096   2.983   0.682   0.546 -0.8752 -0.1881  0.4970
 1879SOL    HW217097   3.025   0.557   0.609  0.1916  0.1892  0.1672
 1880SOL     OW17098   1.365   2.903   9.601  0.2855  1.2247 -0.3202
 1880SOL    HW117099   1.444   2.891   9.653  0.5357  1.9072 -0.5385
 1880SOL    HW217100   1.408   2.933   9.521  2.1699 -0.0058  0.2243
 1881SOL     OW17101   0.365   4.586   6.588  0.5635 -0.0575 -0.3407
 1881SOL    HW117102   0.449   4.542   6.597  0.1061 -0.9055 -0.1990
 1881SOL    HW217103   0.371   4.617   6.497 -0.7536  0.2344 -0.3262
 1882SOL     OW17104   3.909   4.613  12.002  0.6611  0.2367 -0.2961
 1882SOL    HW117105   3.969   4.672  11.956 -1.2699  1.2436 -1.5713
 1882SOL    HW217106   3.961   4.534  12.011 -0.1214 -0.2162  0.2951
 1883SOL     OW17107   4.135   3.152   2.465 -0.0990 -0.4033 -0.5962
 1883SOL    HW117108   4.183   3.069   2.455  0.1359 -0.0610 -2.3125
 1883SOL    HW217109   4.049   3.133   2.428 -1.2612  1.1525  1.3260
 1884SOL     OW17110   4.513   1.803   2.624  0.3067  0.3722  0.1799
 1884SOL    HW117111   4.557   1.886   2.642  1.2119 -0.1250  0.2589
 1884SOL    HW217112   4.549   1.764   2.545 -0.3395 -0.2358  0.1873
 1885SOL     OW17113   2.997   2.399  10.249 -0.4195 -0.3107 -0.0711
 1885SOL    HW117114   2.944   2.383  10.327 -1.8062 -0.5875 -1.0737
 1885SOL    HW217115   3.067   2.457  10.278 -1.2892  2.4722 -3.5796
 1886SOL     OW17116   0.697   1.520   9.707 -0.0004  0.0343  0.0502
 1886SOL    HW117117   0.626   1.584   9.698  1.2722  1.7996  2.3214
 1886SOL    HW217118   0.726   1.515   9.617  1.2290 -0.5918  0.4877
 1887SOL     OW17119   3.563   1.505   8.337  0.1476  0.2588 -0.2436
 1887SOL    HW117120   3.486   1.561   8.321 -0.6656 -0.4849  1.1049
 1887SOL    HW217121   3.591   1.530   8.425  0.3106  1.4260 -0.6234
 1888SOL     OW17122   3.123   0.175   9.439  0.2588 -0.1042 -0.1006
 1888SOL    HW117123   3.091   0.264   9.454  0.0433  0.4123 -3.4609
 1888SOL    HW217124   3.081   0.119   9.504 -0.7795 -0.5511 -1.1599
 1889SOL     OW17125   0.713   0.263   4.495 -0.4475  0.3699  0.1538
 1889SOL    HW117126   0.656   0.259   4.572 -0.7652 -0.5898 -0.1310
 1889SOL    HW217127   0.764   0.344   4.497  1.0912 -0.5789 -0.2203
 1890SOL     OW17128   2.766   2.894   4.869 -0.0363  0.1375  0.7520
 1890SOL    HW117129   2.743   2.802   4.853  0.2912  0.0870  0.5532
 1890SOL    HW217130   2.698   2.938   4.918 -1.1876  0.0228 -0.7206
 1891SOL     OW17131   3.874   3.757   1.715  0.0284 -0.1128  0.0763
 1891SOL    HW117132   3.811   3.686   1.714 -0.7382  0.5548  0.9926
 1891SOL    HW217133   3.932   3.732   1.787  0.2335 -1.3402 -0.5205
 1892SOL     OW17134   2.563   0.238   7.886 -0.3718 -0.3527  0.1972
 1892SOL    HW117135   2.476   0.278   7.884 -0.2367 -0.0884 -0.6165
 1892SOL    HW217136   2.626   0.308   7.871 -0.4938 -0.2159  0.3263
 1893SOL     OW17137   4.595   0.087   5.744  0.0604 -0.8278  0.5994
 1893SOL    HW117138   4.640   0.003   5.740 -1.1773 -1.4593 -0.4583
 1893SOL    HW217139   4.647   0.137   5.681 -0.5211  1.4916  1.9654
 1894SOL     OW17140   1.168   0.045   1.601  0.6331 -0.1383 -0.1027
 1894SOL    HW117141   1.262   0.044   1.617  0.5818 -0.5331  0.1461
 1894SOL    HW217142   1.156   4.701   1.533  1.1051 -0.7094  0.3782
 1895SOL     OW17143   3.927   2.696   6.195 -0.5378 -0.5744  0.2666
 1895SOL    HW117144   3.971   2.772   6.158 -1.3103  0.1697  0.8797
 1895SOL    HW217145   3.986   2.683   6.269 -0.9045 -0.7684  0.5257
 1896SOL     OW17146   3.620   2.762   2.777 -0.0524  0.0492 -0.5167
 1896SOL    HW117147   3.578   2.764   2.691  0.9425 -0.9532 -1.0198
 1896SOL    HW217148   3.692   2.700   2.764  0.1766 -0.1993  1.8619
 1897SOL     OW17149   2.229   3.564  10.045  0.3759 -0.2999 -0.4796
 1897SOL    HW117150   2.244   3.483  10.093  0.7197  1.1470  1.8379
 1897SOL    HW217151   2.236   3.616  10.125 -0.2436  0.2552 -0.7890
 1898SOL     OW17152   3.289   0.409   3.769  0.2527 -0.1259 -0.1048
 1898SOL    HW117153   3.297   0.471   3.697 -0.4754  1.2630  1.0073
 1898SOL    HW217154   3.301   0.466   3.845  1.9869  1.8541 -1.8743
 1899SOL     OW17155   4.448   0.651  13.073 -0.2052 -0.1787 -0.2439
 1899SOL    HW117156   4.533   0.627  13.109  0.0610  0.8842 -0.1598
 1899SOL    HW217157   4.397   0.583  13.117  0.4090  0.0678  0.8511
 1900SOL     OW17158   1.505   1.162   5.777 -0.0551  0.2812  0.2511
 1900SOL    HW117159   1.425   1.215   5.777  0.1592  0.5905 -1.3017
 1900SOL    HW217160   1.497   1.124   5.865 -0.9807  1.8534  0.8534
 1901SOL     OW17161   3.463   3.424   2.272 -0.0786 -0.1210  0.5816
 1901SOL    HW117162   3.477   3.476   2.193  0.5090 -0.4995  0.4403
 1901SOL    HW217163   3.469   3.337   2.232  0.4026 -0.1940  0.8157
 1902SOL     OW17164   1.519   0.718   3.487 -0.0408  0.0683  0.0925
 1902SOL    HW117165   1.551   0.796   3.531 -2.2331  1.3076 -0.5235
 1902SOL    HW217166   1.571   0.705   3.408 -0.1403  1.1745 -0.1464
 1903SOL     OW17167   1.858   2.360   6.252 -0.5437 -0.2025 -0.3864
 1903SOL    HW117168   1.850   2.297   6.180  0.2078 -1.1916  0.3997
 1903SOL    HW217169   1.923   2.423   6.218 -0.2459 -0.1567  0.2618
 1904SOL     OW17170   2.856   0.773   7.736 -0.0207 -0.2977  0.2348
 1904SOL    HW117171   2.798   0.755   7.810  0.4038  0.8624  0.8502
 1904SOL    HW217172   2.835   0.866   7.731 -1.0242 -0.4920  0.8567
 1905SOL     OW17173   1.087   2.522   0.692  0.2679  0.0715  0.5643
 1905SOL    HW117174   1.160   2.473   0.730  0.0108 -0.9920 -0.3193
 1905SOL    HW217175   1.121   2.611   0.701  0.7403 -0.2609  2.1225
 1906SOL     OW17176   0.941   1.101  12.381  0.1174 -0.1028  0.0737
 1906SOL    HW117177   0.970   1.165  12.447 -0.8155  1.2681 -0.8397
 1906SOL    HW217178   1.024   1.052  12.376 -0.8898 -2.0287  2.4069
 1907SOL     OW17179   0.694   3.833  12.041  0.1553 -0.0829  0.0700
 1907SOL    HW117180   0.763   3.783  12.085 -1.3406  0.0867  2.6091
 1907SOL    HW217181   0.705   3.805  11.950 -0.3834 -0.1047  0.0130
 1908SOL     OW17182   2.127   4.045   5.233 -0.0053  0.0962  0.6538
 1908SOL    HW117183   2.115   4.060   5.327 -1.6456  0.7304  0.3347
 1908SOL    HW217184   2.166   4.129   5.210  1.2874 -0.8576 -0.6573
 1909SOL     OW17185   1.627   3.122  13.087  0.0098  0.3538 -0.1503
 1909SOL    HW117186   1.649   3.117  12.994  1.4583  1.0108  0.1560
 1909SOL    HW217187   1.708   3.161  13.121 -1.1681  0.6569  2.3182
 1910SOL     OW17188   1.559   2.503   1.960  0.4054 -0.6735 -0.5193
 1910SOL    HW117189   1.466   2.506   1.985  0.2297 -0.7050 -1.1833
 1910SOL    HW217190   1.549   2.560   1.884  0.8685 -1.5118 -1.2121
 1911SOL     OW17191   3.768   2.190   3.386  0.0437  0.4402  0.2546
 1911SOL    HW117192   3.839   2.254   3.381  2.2110 -1.9807 -0.3239
 1911SOL    HW217193   3.721   2.218   3.308  0.0377 -0.2516  0.0053
 1912SOL     OW17194   1.420   4.564   7.389  0.0952 -0.4802 -0.1296
 1912SOL    HW117195   1.358   4.492   7.403 -0.7486  0.4575  0.9867
 1912SOL    HW217196   1.389   4.601   7.306 -0.6054 -0.6373  0.0637
 1913SOL     OW17197   0.501   0.875   0.046 -0.1979 -0.2370  0.4708
 1913SOL    HW117198   0.486   0.785   0.075 -1.7315 -0.4421 -0.8876
 1913SOL    HW217199   0.596   0.881   0.052 -0.2063 -0.4936  0.8556
 1914SOL     OW17200   3.431   1.571   4.597 -0.6381 -0.4933  0.5264
 1914SOL    HW117201   3.428   1.582   4.692  1.9820  0.1809  0.5161
 1914SOL    HW217202   3.393   1.483   4.603 -2.2347  0.3136  2.4084
 1915SOL     OW17203   2.004   1.645  16.036 -0.1423 -0.1173  0.7650
 1915SOL    HW117204   2.017   1.550  16.027  1.4072  0.3458 -1.7275
 1915SOL    HW217205   1.929   1.651  16.096 -0.0151 -2.3051  1.1536
 1916SOL     OW17206   3.888   3.633  16.668 -0.3727  0.0559  0.0313
 1916SOL    HW117207   3.931   3.680  16.596  1.7084 -1.3806  0.3731
 1916SOL    HW217208   3.899   3.695  16.740  1.6795  0.8315 -0.9513
 1917SOL     OW17209   4.319   0.238   6.215  0.5100 -0.0739  0.5882
 1917SOL    HW117210   4.334   0.172   6.282 -1.0247 -1.3267 -0.3106
 1917SOL    HW217211   4.226   0.219   6.206  0.3152  0.3340  1.6825
 1918SOL     OW17212   2.288   0.399   3.338  0.1475 -0.2048  0.6104
 1918SOL    HW117213   2.238   0.479   3.320  0.1537 -0.5169 -0.8173
 1918SOL    HW217214   2.360   0.395   3.275 -1.1949  3.8848 -1.1385
 1919SOL     OW17215   4.489   2.657  13.441 -0.4298  0.3563 -0.2723
 1919SOL    HW117216   4.546   2.589  13.476 -0.0957 -0.7734 -3.0288
 1919SOL    HW217217   4.452   2.677  13.527  0.3485 -0.8324  0.3300
 1920SOL     OW17218   3.441   2.795  17.280 -0.2860  0.3196 -0.3041
 1920SOL    HW117219   3.472   2.846  17.206 -0.2948  1.8464  0.7419
 1920SOL    HW217220   3.347   2.786  17.260 -0.2734  0.5867 -0.4722
 1921SOL     OW17221   2.373   0.694   2.429 -0.0475 -0.4636  0.6642
 1921SOL    HW117222   2.445   0.634   2.452  1.5099  1.1205 -0.0575
 1921SOL    HW217223   2.328   0.630   2.375 -1.1097 -0.1335  1.1703
 1922SOL     OW17224   1.121   1.610   7.456  0.1069 -0.6661  0.1217
 1922SOL    HW117225   1.170   1.665   7.395  1.4159 -0.5337  1.3085
 1922SOL    HW217226   1.064   1.562   7.396 -1.4235  0.5945  0.5485
 1923SOL     OW17227   1.120   3.065   3.379 -0.4883 -0.7078  0.8413
 1923SOL    HW117228   1.118   3.159   3.395 -1.0875 -0.8994  1.9130
 1923SOL    HW217229   1.199   3.057   3.326 -0.6608 -0.5324  0.5606
 1924SOL     OW17230   3.854   3.489   6.577  0.4100 -0.1252  0.0082
 1924SOL    HW117231   3.808   3.567   6.609  0.6464  0.8335 -1.9757
 1924SOL    HW217232   3.938   3.496   6.623  0.1637 -0.8519  0.5808
 1925SOL     OW17233   3.149   3.557   4.087  0.6379  0.3528  0.7563
 1925SOL    HW117234   3.089   3.598   4.025  0.5254 -0.3169  0.4167
 1925SOL    HW217235   3.079   3.539   4.150  1.6944 -1.2957  1.4570
 1926SOL     OW17236   4.576   0.721   4.721  0.2412  0.8974 -0.2759
 1926SOL    HW117237   4.580   0.760   4.809 -2.4287 -1.3646  0.8518
 1926SOL    HW217238   4.613   0.635   4.738 -0.2621  0.6913 -0.2163
 1927SOL     OW17239   1.066   3.350   4.867  0.4990  0.4626 -0.4072
 1927SOL    HW117240   0.988   3.371   4.918  0.1404 -0.8642 -0.4216
 1927SOL    HW217241   1.059   3.412   4.794 -2.4177 -0.8467 -1.2483
 1928SOL     OW17242   4.384   2.146  16.679 -0.0222  0.1812  0.1677
 1928SOL    HW117243   4.469   2.168  16.640  0.3438 -0.6068  0.4996
 1928SOL    HW217244   4.382   2.052  16.701  4.4430  0.0263 -0.0549
 1929SOL     OW17245   0.117   3.689   6.680  0.1368  0.2332  0.1513
 1929SOL    HW117246   0.135   3.767   6.733 -2.2334 -0.0577  1.3693
 1929SOL    HW217247   0.190   3.633   6.708  0.3456  0.8069  0.7681
 1930SOL     OW17248   0.708   3.282  13.787 -0.2092 -0.6305 -0.0370
 1930SOL    HW117249   0.747   3.263  13.872  1.3456 -1.7626 -1.0129
 1930SOL    HW217250   0.615   3.277  13.808 -0.1889  1.5308  0.6347
 1931SOL     OW17251   1.524   2.014   3.021  0.2682  0.3522 -0.5799
 1931SOL    HW117252   1.564   1.970   2.945  0.6957 -0.7510  0.2836
 1931SOL    HW217253   1.464   2.081   2.989  0.0607  0.6571  0.4482
 1932SOL     OW17254   1.070   3.438   4.607 -0.2834 -0.7107  0.6543
 1932SOL    HW117255   0.980   3.405   4.618 -0.1133 -2.6689 -3.6107
 1932SOL    HW217256   1.092   3.417   4.516 -2.7588  2.2481 -0.6440
 1933SOL     OW17257   4.145   3.269  14.652 -0.1100  0.1828  0.2745
 1933SOL    HW117258   4.149   3.187  14.700 -2.4997 -0.7116 -1.0145
 1933SOL    HW217259   4.051   3.286  14.646  0.4672  2.9990 -0.7774
 1934SOL     OW17260   0.457   2.184   6.477 -0.7513  0.0556  0.0525
 1934SOL    HW117261   0.488   2.183   6.386 -0.0060 -0.5953  0.3170
 1934SOL    HW217262   0.527   2.239   6.511  0.9550 -1.1772 -1.4669
 1935SOL     OW17263   1.028   2.984   9.865  0.7704  0.0132  0.0763
 1935SOL    HW117264   1.121   3.004   9.858  0.8170  1.1736  3.9577
 1935SOL    HW217265   1.009   3.013   9.954 -0.2007  1.1565 -0.4949
 1936SOL     OW17266   2.810   2.445   6.290  0.5656 -0.1897  0.0771
 1936SOL    HW117267   2.831   2.396   6.210  0.0665 -0.5759  0.1812
 1936SOL    HW217268   2.885   2.428   6.347  0.1957  1.2196  0.9732
 1937SOL     OW17269   2.294   2.723   3.071 -0.1287 -0.0077  0.6206
 1937SOL    HW117270   2.273   2.670   2.994 -1.8089  0.3727  0.8170
 1937SOL    HW217271   2.360   2.780   3.032  0.4963 -1.6484 -0.7212
 1938SOL     OW17272   3.289   1.450   5.508  0.0361  0.0030 -0.3384
 1938SOL    HW117273   3.303   1.358   5.488  1.6274  0.9517 -3.7073
 1938SOL    HW217274   3.373   1.476   5.547 -0.0998 -0.5503  0.3196
 1939SOL     OW17275   3.007   3.336   4.823 -0.8090  0.1850  0.1408
 1939SOL    HW117276   2.950   3.372   4.891  1.1742 -0.1001  1.9511
 1939SOL    HW217277   3.068   3.409   4.811 -0.7412  0.4516  2.0764
 1940SOL     OW17278   3.702   3.964   5.202 -0.4804  0.0748 -0.5865
 1940SOL    HW117279   3.748   3.895   5.250  1.5542  1.6262 -0.3158
 1940SOL    HW217280   3.649   3.900   5.153 -0.3408 -0.9852  0.6423
 1941SOL     OW17281   4.100   1.992  12.398 -0.3589 -0.2415  0.4570
 1941SOL    HW117282   4.104   2.054  12.471  2.2058 -1.7709  1.6278
 1941SOL    HW217283   4.049   1.921  12.437 -2.0572  0.4435 -0.4981
 1942SOL     OW17284   2.937   0.395   6.244  0.2743  0.4999  0.5675
 1942SOL    HW117285   2.856   0.353   6.213  0.8301 -1.2737  1.5547
 1942SOL    HW217286   2.972   0.421   6.159  1.2660 -0.2678  0.7461
 1943SOL     OW17287   3.721   4.719   8.965  0.2612  0.3895  0.5323
 1943SOL    HW117288   3.760   4.667   9.035 -1.5366 -3.0057 -0.9831
 1943SOL    HW217289   3.720   4.658   8.892  1.3266 -0.4428  1.2174
 1944SOL     OW17290   2.564   2.059  12.796 -0.4213  0.1667 -0.2934
 1944SOL    HW117291   2.563   1.966  12.821  2.8168  0.5714  1.3779
 1944SOL    HW217292   2.653   2.084  12.820 -1.1495  0.7948  1.7298
 1945SOL     OW17293   4.188   1.154   8.095 -0.7011 -0.0062 -0.3471
 1945SOL    HW117294   4.113   1.100   8.121 -0.2166 -1.1165 -1.2286
 1945SOL    HW217295   4.143   1.218   8.041 -0.0468  2.0227  1.4916
 1946SOL     OW17296   3.757   3.320  12.211  0.3152  0.6528  0.3558
 1946SOL    HW117297   3.712   3.404  12.223  0.2049  0.8047 -1.1346
 1946SOL    HW217298   3.694   3.261  12.254  0.7562 -0.6007 -0.7374
 1947SOL     OW17299   0.154   2.934   4.653  0.1427 -0.5311 -0.1828
 1947SOL    HW117300   0.149   3.012   4.708  2.2009 -0.5076 -0.0424
 1947SOL    HW217301   0.103   2.874   4.707  3.2389 -1.8707  1.2649
 1948SOL     OW17302   1.282   3.393  13.646  0.9701 -0.6667 -0.2447
 1948SOL    HW117303   1.226   3.354  13.712 -1.3087  1.5638 -0.8721
 1948SOL    HW217304   1.242   3.479  13.634  1.3293 -0.6704 -1.4774
 1949SOL     OW17305   1.857   2.721  15.358  0.4552 -0.0025 -0.2881
 1949SOL    HW117306   1.902   2.764  15.430  0.1224  0.7526 -0.5311
 1949SOL    HW217307   1.887   2.764  15.278  1.1184  0.0031 -0.0316
 1950SOL     OW17308   1.450   3.938   2.545 -0.7351  0.1920 -0.3634
 1950SOL    HW117309   1.529   3.992   2.558 -2.2276  2.0634  0.9609
 1950SOL    HW217310   1.428   3.958   2.454 -1.0652 -2.0498 -0.7656
 1951SOL     OW17311   4.137   2.117   4.276  0.0241  0.8054 -0.3419
 1951SOL    HW117312   4.126   2.119   4.181 -1.0614 -2.7491 -0.2837
 1951SOL    HW217313   4.208   2.180   4.284 -0.5663  1.5367 -0.8604
 1952SOL     OW17314   3.285   0.476   6.622  0.7014 -0.0689  0.2045
 1952SOL    HW117315   3.206   0.438   6.584  1.1986  0.9502 -1.8344
 1952SOL    HW217316   3.258   0.478   6.713  1.9352  1.0059  0.5454
 1953SOL     OW17317   1.965   1.483   1.704 -0.4682 -0.1139  0.1621
 1953SOL    HW117318   1.896   1.450   1.762 -0.9650  0.3582 -0.1547
 1953SOL    HW217319   2.003   1.398   1.680 -0.4945  0.4973 -2.0443
 1954SOL     OW17320   3.793   1.093   2.813  0.4491 -0.1573  0.0911
 1954SOL    HW117321   3.839   1.009   2.825  0.8022 -0.0948 -0.8222
 1954SOL    HW217322   3.832   1.144   2.884  0.5332  1.3296 -1.0190
 1955SOL     OW17323   3.916   3.629   7.807 -0.1054  0.2605  0.0462
 1955SOL    HW117324   3.915   3.615   7.902 -0.3762  0.5020  0.0790
 1955SOL    HW217325   4.012   3.629   7.806 -0.1295  0.1562 -1.4674
 1956SOL     OW17326   4.301   3.377   2.476  0.3916 -0.5245  0.2355
 1956SOL    HW117327   4.227   3.322   2.451  0.8055 -1.8778  2.0071
 1956SOL    HW217328   4.279   3.457   2.428  1.5440  0.7172  1.7628
 1957SOL     OW17329   3.350   1.822  13.331 -0.9176 -0.2003 -0.4027
 1957SOL    HW117330   3.281   1.838  13.267 -1.4860 -1.8264 -0.1965
 1957SOL    HW217331   3.411   1.896  13.323  0.4735 -1.4650 -1.3243
 1958SOL     OW17332   0.446   0.126   8.857  0.4449  0.2682 -0.1299
 1958SOL    HW117333   0.363   0.110   8.903  0.7140  2.4900  1.0893
 1958SOL    HW217334   0.447   0.043   8.808 -2.5075  1.2735 -1.9316
 1959SOL     OW17335   4.635   3.528   9.289 -0.0072  0.1308 -0.2249
 1959SOL    HW117336   4.686   3.451   9.265 -2.8297 -1.9195  0.3795
 1959SOL    HW217337   4.567   3.487   9.342 -1.2520  0.7656 -1.3098
 1960SOL     OW17338   3.377   0.704   6.828  0.1238  0.0882  0.3578
 1960SOL    HW117339   3.392   0.756   6.907  0.2454 -0.7187  0.8740
 1960SOL    HW217340   3.345   0.622   6.867 -3.7450  0.6149 -1.6454
 1961SOL     OW17341   4.147   2.892   8.717 -0.7520 -0.5558 -0.5326
 1961SOL    HW117342   4.127   2.916   8.807 -0.6940 -0.5600 -0.5188
 1961SOL    HW217343   4.064   2.916   8.675  0.0256 -3.1760 -3.5805
 1962SOL     OW17344   3.256   3.351   5.634  0.0900  0.5795  0.0186
 1962SOL    HW117345   3.281   3.368   5.725  0.2832 -0.4951  0.1633
 1962SOL    HW217346   3.207   3.272   5.657 -0.6553  1.2578  0.7520
 1963SOL     OW17347   3.838   2.830   8.873 -0.2835  0.0911  0.2206
 1963SOL    HW117348   3.911   2.767   8.867 -0.4735 -0.2296  1.4078
 1963SOL    HW217349   3.834   2.820   8.968 -1.0238 -0.5975  0.1188
 1964SOL     OW17350   4.016   2.205   3.727  0.8254 -0.1271 -0.1511
 1964SOL    HW117351   4.058   2.221   3.642  0.1010 -0.1475 -0.5100
 1964SOL    HW217352   4.090   2.180   3.783  0.9093  2.2753  0.8127
 1965SOL     OW17353   1.903   1.266   5.502 -0.0532  0.2206 -0.4217
 1965SOL    HW117354   1.923   1.214   5.580 -0.0326  0.5381 -0.2173
 1965SOL    HW217355   1.808   1.267   5.495 -0.0672 -2.1875 -0.4472
 1966SOL     OW17356   2.405   3.167   0.976 -0.1877 -0.2249  0.0703
 1966SOL    HW117357   2.418   3.261   0.963  0.6814 -0.0197  2.4673
 1966SOL    HW217358   2.487   3.134   1.013 -0.5289 -0.0489  0.9738
 1967SOL     OW17359   0.911   2.420   8.466 -0.6471 -0.0857 -0.0352
 1967SOL    HW117360   0.939   2.371   8.543  0.8369  1.0735  0.1458
 1967SOL    HW217361   0.987   2.476   8.454 -1.6382  1.4057  0.6756
 1968SOL     OW17362   3.944   0.701  11.191  0.4162  0.1599  0.3571
 1968SOL    HW117363   3.914   0.781  11.147  0.7291 -1.0867 -2.1705
 1968SOL    HW217364   3.868   0.684  11.247  0.0069 -0.6033 -0.4215
 1969SOL     OW17365   3.176   1.727  12.124  0.4330  0.3086 -0.0192
 1969SOL    HW117366   3.222   1.765  12.199  0.3526  0.3364  0.0158
 1969SOL    HW217367   3.089   1.757  12.150 -0.0885  0.5859 -2.0768
 1970SOL     OW17368   1.639   3.107   3.305  0.1308 -0.4029  0.0619
 1970SOL    HW117369   1.586   3.062   3.371  0.4758  0.2275  0.7721
 1970SOL    HW217370   1.574   3.122   3.236 -0.5054 -2.7997  0.1350
 1971SOL     OW17371   1.257   3.525  13.284  0.1342  0.5690 -0.1497
 1971SOL    HW117372   1.165   3.509  13.263  0.1388  1.8315 -1.1046
 1971SOL    HW217373   1.298   3.441  13.262 -0.0108  0.7060 -0.9328
 1972SOL     OW17374   1.224   0.119   3.473  0.4059  0.0832  0.0990
 1972SOL    HW117375   1.182   0.056   3.414  1.0971  0.4512 -0.8050
 1972SOL    HW217376   1.232   0.075   3.557 -0.5493  0.3250  0.3102
 1973SOL     OW17377   0.391   4.400   1.435  0.1212 -0.8302 -0.1427
 1973SOL    HW117378   0.324   4.375   1.499 -0.9485  1.7985 -0.2193
 1973SOL    HW217379   0.465   4.373   1.490  1.0915 -2.8319 -2.4690
 1974SOL     OW17380   4.016   1.911   4.779  0.2488  0.0210  0.1762
 1974SOL    HW117381   3.951   1.979   4.757  0.5087 -0.0080 -0.6755
 1974SOL    HW217382   4.085   1.969   4.811 -0.5016 -0.0993  2.0389
 1975SOL     OW17383   0.672   4.143   2.739  0.4288  0.4245 -0.2885
 1975SOL    HW117384   0.758   4.136   2.780  0.2928 -0.1383 -0.0887
 1975SOL    HW217385   0.664   4.058   2.695 -0.1471  1.0247 -1.3438
 1976SOL     OW17386   0.929   2.551   9.348  0.7371 -0.4113 -0.1568
 1976SOL    HW117387   0.951   2.468   9.308 -0.8527 -0.4618 -0.9439
 1976SOL    HW217388   0.986   2.603   9.292 -2.6233  1.6346 -1.6912
 1977SOL     OW17389   1.006   2.201   7.673  0.0667 -0.2813 -0.1965
 1977SOL    HW117390   1.085   2.252   7.690  0.8059 -1.0237 -1.4017
 1977SOL    HW217391   1.011   2.127   7.734 -0.9488  0.2323  0.5082
 1978SOL     OW17392   0.953   3.510   5.399  0.0546 -0.2079 -0.3980
 1978SOL    HW117393   1.024   3.574   5.396  0.2297 -0.3435  0.7694
 1978SOL    HW217394   0.884   3.560   5.355  0.0893 -0.7832 -1.0980
 1979SOL     OW17395   2.380   1.576   5.650 -0.4591  0.0725  0.2720
 1979SOL    HW117396   2.377   1.613   5.562 -0.1347 -3.4149 -1.1847
 1979SOL    HW217397   2.474   1.564   5.661 -0.2906 -1.1443 -2.4451
 1980SOL     OW17398   0.651   4.058   3.240 -0.3667 -0.5281 -0.2094
 1980SOL    HW117399   0.587   4.106   3.291 -2.2326 -1.1118 -2.0133
 1980SOL    HW217400   0.619   4.085   3.154 -1.5284  0.9503  0.6908
 1981SOL     OW17401   3.015   2.201   9.882  0.1045 -0.6276  0.2623
 1981SOL    HW117402   3.031   2.187   9.789  2.6855 -2.1982  0.9132
 1981SOL    HW217403   3.060   2.283   9.904 -1.9967  1.1634 -2.2157
 1982SOL     OW17404   0.975   0.315   6.783 -0.1486  0.3982  0.6267
 1982SOL    HW117405   1.040   0.377   6.817  0.5103 -0.2960  0.6233
 1982SOL    HW217406   0.901   0.328   6.843 -0.9681  2.4145 -0.8024
 1983SOL     OW17407   2.478   2.779   6.857  0.1397  0.2234  0.2153
 1983SOL    HW117408   2.430   2.697   6.848  1.7612 -0.7469  0.4245
 1983SOL    HW217409   2.412   2.848   6.856  1.1801  1.2268  0.6967
 1984SOL     OW17410   3.096   3.028   3.350 -0.1809  0.1696 -0.1401
 1984SOL    HW117411   3.018   3.050   3.401  1.5606 -1.2140  3.0913
 1984SOL    HW217412   3.148   3.108   3.363 -1.8514  1.1671  0.3968
 1985SOL     OW17413   3.904   3.526   3.527 -0.2055  0.4659  0.3268
 1985SOL    HW117414   3.929   3.548   3.617  1.6070  2.6218 -0.7054
 1985SOL    HW217415   3.878   3.615   3.503  2.5179  2.0397  3.1447
 1986SOL     OW17416   1.980   1.853  12.313  0.0984 -0.3287 -0.1681
 1986SOL    HW117417   2.068   1.821  12.295  0.6654  1.7171 -1.0646
 1986SOL    HW217418   1.999   1.936  12.357 -0.7533 -0.0582 -0.3065
 1987SOL     OW17419   0.883   0.929   8.356  0.0582  0.0372 -0.4722
 1987SOL    HW117420   0.803   0.946   8.307  0.8849  3.4862 -0.6032
 1987SOL    HW217421   0.923   0.851   8.316 -1.0370 -0.0019 -1.4749
 1988SOL     OW17422   1.401   0.263   8.620  0.3083 -0.1873 -0.6498
 1988SOL    HW117423   1.415   0.193   8.556 -1.4841 -0.0063 -1.2169
 1988SOL    HW217424   1.379   0.217   8.701  2.8887 -1.2522 -0.5491
 1989SOL     OW17425   1.589   4.211   5.146  0.7827 -0.5653  0.2913
 1989SOL    HW117426   1.587   4.215   5.051  2.2968 -0.3748  0.2626
 1989SOL    HW217427   1.521   4.145   5.161 -0.6341  0.7300 -0.5301
 1990SOL     OW17428   1.872   2.975   9.078 -0.0987  0.4971  0.1136
 1990SOL    HW117429   1.797   2.979   9.138  0.4545 -0.1636  0.8511
 1990SOL    HW217430   1.938   3.006   9.139  1.1231  0.0286 -0.9674
 1991SOL     OW17431   0.192   2.459   6.149  0.1690 -0.4500 -0.3844
 1991SOL    HW117432   0.131   2.385   6.146 -1.4372  0.7634  2.3920
 1991SOL    HW217433   0.154   2.527   6.094 -2.2095  0.7390  2.7052
 1992SOL     OW17434   2.003   1.184   5.246 -0.0524 -0.1616  0.1613
 1992SOL    HW117435   2.007   1.093   5.274 -1.3595  0.2342  1.7098
 1992SOL    HW217436   1.972   1.226   5.327  1.0108 -0.7275  0.8544
 1993SOL     OW17437   4.514   1.607  13.110 -0.0887  0.2271  0.2386
 1993SOL    HW117438   4.458   1.672  13.066  2.0784  2.3526  0.6061
 1993SOL    HW217439   4.551   1.561  13.035 -2.0159 -1.3926  0.2822
 1994SOL     OW17440   0.363   2.974  11.192  0.0016  0.1274 -0.2116
 1994SOL    HW117441   0.326   2.993  11.106  0.0592 -0.3192 -0.3343
 1994SOL    HW217442   0.420   3.050  11.198 -0.5809  0.4604  1.1305
 1995SOL     OW17443   1.390   1.086   0.047 -0.6666  0.3224  0.2663
 1995SOL    HW117444   1.308   1.125   0.018 -0.6678 -0.4659 -0.8040
 1995SOL    HW217445   1.449   1.144  17.691  1.9479 -2.7330 -0.2319
 1996SOL     OW17446   1.495   3.302  12.404 -0.0221 -0.2267  1.0301
 1996SOL    HW117447   1.441   3.305  12.483 -2.5975 -0.5873 -0.6836
 1996SOL    HW217448   1.581   3.286  12.443  1.3630 -1.5555 -2.5583
 1997SOL     OW17449   4.179   0.893   8.558 -0.1225  0.7406 -0.6352
 1997SOL    HW117450   4.248   0.874   8.494 -0.3639  0.5577 -0.8395
 1997SOL    HW217451   4.131   0.811   8.551 -3.0629  2.3532  0.5249
 1998SOL     OW17452   4.644   1.850  13.389 -0.2189 -0.4026  0.2982
 1998SOL    HW117453   4.720   1.839  13.446  0.0207 -0.0394  0.0531
 1998SOL    HW217454   4.583   1.796  13.439 -0.9691 -0.0171 -0.2022
 1999SOL     OW17455   2.094   4.548   8.263  0.6643  0.2777 -0.0039
 1999SOL    HW117456   2.037   4.611   8.306 -1.7464 -0.4405 -2.1742
 1999SOL    HW217457   2.120   4.595   8.184  3.7620 -4.7156 -1.9712
 2000SOL     OW17458   0.268   3.339   2.318  0.3119  0.2078 -0.7209
 2000SOL    HW117459   0.269   3.244   2.307  0.2737  0.2537 -1.1433
 2000SOL    HW217460   0.300   3.359   2.230 -0.1113  2.3158 -0.3964
 2001SOL     OW17461   2.922   2.328   1.662  0.3695 -0.4363  1.1220
 2001SOL    HW117462   2.975   2.327   1.742  1.1927 -0.8434  0.5661
 2001SOL    HW217463   2.834   2.349   1.692  0.0842 -0.6627  0.4190
 2002SOL     OW17464   3.584   0.350   8.371 -0.3234  0.4234  0.2570
 2002SOL    HW117465   3.645   0.391   8.433 -0.5486 -0.5675  1.1314
 2002SOL    HW217466   3.509   0.328   8.427  1.1654  1.6188  2.6887
 2003SOL     OW17467   3.742   0.243  12.673 -0.4645  0.2527  0.1983
 2003SOL    HW117468   3.831   0.219  12.699 -0.4035  2.4273  1.8920
 2003SOL    HW217469   3.735   0.337  12.686 -0.3642  0.2338  0.3890
 2004SOL     OW17470   3.807   1.061   5.194  0.0900 -0.3044  0.0192
 2004SOL    HW117471   3.886   1.013   5.221  1.5391  2.1687  0.1255
 2004SOL    HW217472   3.773   0.988   5.142 -1.4943 -0.3485  1.0852
 2005SOL     OW17473   1.397   2.910   1.998 -0.4731  0.2414 -0.1881
 2005SOL    HW117474   1.404   2.841   2.064  3.5860  0.0624 -0.7981
 2005SOL    HW217475   1.489   2.936   2.000 -0.5794  0.5266  1.0555
 2006SOL     OW17476   0.619   0.541   7.495  0.2816  0.5669 -0.2035
 2006SOL    HW117477   0.648   0.582   7.414 -0.6826 -1.9086 -1.8028
 2006SOL    HW217478   0.543   0.484   7.479  0.0919  1.3263 -1.9443
 2007SOL     OW17479   3.865   4.337   8.953  0.2392  0.2519  0.3372
 2007SOL    HW117480   3.863   4.273   8.882  3.0775  0.1588  0.3076
 2007SOL    HW217481   3.888   4.416   8.904  1.2586 -0.9096 -1.1009
 2008SOL     OW17482   3.775   3.748  12.078 -0.0880  0.1322 -0.1957
 2008SOL    HW117483   3.739   3.755  11.990  0.5264  0.0469 -0.4491
 2008SOL    HW217484   3.837   3.676  12.075 -2.4371 -1.7993 -2.0665
 2009SOL     OW17485   1.150   3.108   0.411 -0.0352 -0.2725  0.0657
 2009SOL    HW117486   1.101   3.047   0.466  0.8074 -0.0722  1.0375
 2009SOL    HW217487   1.141   3.190   0.459  0.4875  1.7628 -3.2653
 2010SOL     OW17488   2.337   2.966  12.650 -0.5375  0.1530 -0.5962
 2010SOL    HW117489   2.333   2.917  12.569  0.2037 -0.5127 -0.2274
 2010SOL    HW217490   2.294   2.900  12.704 -0.1224 -0.2107 -0.7155
 2011SOL     OW17491   2.340   3.873   5.150  0.3579 -0.1175  0.3443
 2011SOL    HW117492   2.270   3.902   5.209  0.1721 -0.5386  0.3262
 2011SOL    HW217493   2.410   3.875   5.215  0.8844  1.9853 -0.2735
 2012SOL     OW17494   4.053   3.953   3.403 -0.3625 -0.2982 -0.0039
 2012SOL    HW117495   4.076   4.042   3.376 -0.6640  0.1195  1.0947
 2012SOL    HW217496   4.037   3.970   3.496 -1.2990  0.3116 -0.2850
 2013SOL     OW17497   1.914   0.573  15.044  0.1974  0.1548  0.8205
 2013SOL    HW117498   1.983   0.629  15.081 -0.6056  1.6635  0.0091
 2013SOL    HW217499   1.912   0.495  15.100 -3.1892 -0.9297 -0.8198
 2014SOL     OW17500   4.020   2.664  12.859 -0.2742 -0.1755  0.9695
 2014SOL    HW117501   3.939   2.655  12.809 -0.5432  1.6142  1.0949
 2014SOL    HW217502   4.000   2.738  12.916 -0.0361  2.5817 -2.5181
 2015SOL     OW17503   4.163   1.362   5.130 -0.0060 -0.0666 -0.0793
 2015SOL    HW117504   4.177   1.299   5.201  0.3967  2.1133  1.8029
 2015SOL    HW217505   4.186   1.298   5.063 -0.2304  0.4060 -0.6124
 2016SOL     OW17506   0.486   1.645   8.621 -0.3640  0.2712  0.3798
 2016SOL    HW117507   0.471   1.664   8.714 -0.0898  0.3587  0.4064
 2016SOL    HW217508   0.545   1.717   8.599  1.7620 -1.7027 -0.4256
 2017SOL     OW17509   2.853   1.226   9.203  0.2001 -0.3993  0.6089
 2017SOL    HW117510   2.883   1.313   9.230 -0.2624 -0.1354  0.2560
 2017SOL    HW217511   2.770   1.243   9.160  0.3235 -2.5650 -0.4703
 2018SOL     OW17512   2.403   0.245   6.550  0.1003  0.4846 -0.3321
 2018SOL    HW117513   2.433   0.334   6.531 -2.1961  1.1615 -0.7725
 2018SOL    HW217514   2.353   0.260   6.630 -1.5671  0.4326 -1.3535
 2019SOL     OW17515   3.627   4.471   3.243  0.1391 -0.2130  0.3167
 2019SOL    HW117516   3.585   4.387   3.223  1.8430 -1.9287  3.7980
 2019SOL    HW217517   3.547   4.520   3.225  0.7443  0.3203 -0.8956
 2020SOL     OW17518   4.178   1.411   9.465 -0.0463 -0.1373 -0.2054
 2020SOL    HW117519   4.178   1.438   9.373 -1.9194  0.6088  0.0107
 2020SOL    HW217520   4.088   1.424   9.496  0.1826 -3.6732  1.9658
 2021SOL     OW17521   2.366   4.173   1.899 -0.0322  0.4164 -0.0172
 2021SOL    HW117522   2.348   4.190   1.991 -2.2478 -3.1875  0.2263
 2021SOL    HW217523   2.410   4.254   1.872 -0.7608  1.4958  2.0488
 2022SOL     OW17524   2.710   3.338   9.348 -0.6646 -0.3723 -0.0579
 2022SOL    HW117525   2.771   3.317   9.419  1.2945 -1.0903 -1.9121
 2022SOL    HW217526   2.649   3.268   9.370 -0.6224 -0.7810 -1.2147
 2023SOL     OW17527   2.992   1.163   1.584 -0.4214  0.0951  0.3307
 2023SOL    HW117528   2.976   1.252   1.616  0.5791  1.2792 -2.5492
 2023SOL    HW217529   3.084   1.146   1.601 -0.3968  0.3439  0.4469
 2024SOL     OW17530   3.060   2.164   3.181 -0.2156  0.0596  0.3790
 2024SOL    HW117531   3.044   2.086   3.128  3.0717 -0.0165 -0.5052
 2024SOL    HW217532   2.994   2.218   3.137 -2.5270 -2.9796  0.1020
 2025SOL     OW17533   4.584   4.253   0.133  0.2070 -0.2050  0.4022
 2025SOL    HW117534   4.664   4.262   0.080  1.0369 -1.8076  1.3768
 2025SOL    HW217535   4.598   4.163   0.162 -1.1469 -0.7209 -0.5515
 2026SOL     OW17536   4.168   1.921   7.439  0.0023 -0.1534 -0.4053
 2026SOL    HW117537   4.089   1.874   7.411  1.8022 -2.0005 -2.3207
 2026SOL    HW217538   4.178   1.987   7.370 -1.5979  3.2707  2.6292
 2027SOL     OW17539   3.045   0.592  12.522 -0.2016 -0.0995 -0.2826
 2027SOL    HW117540   3.136   0.611  12.546  0.1894 -0.3462 -1.5970
 2027SOL    HW217541   2.998   0.587  12.605 -1.1097 -1.3923 -0.8854
 2028SOL     OW17542   4.287   1.797   5.650 -0.8704  0.4513 -0.2709
 2028SOL    HW117543   4.310   1.727   5.590 -3.2260  0.2863 -0.9511
 2028SOL    HW217544   4.263   1.861   5.583 -0.3709  0.7898 -0.1300
 2029SOL     OW17545   4.465   1.540   2.677  0.2715  0.5275 -0.0173
 2029SOL    HW117546   4.537   1.498   2.630 -0.1296 -1.0861  0.8069
 2029SOL    HW217547   4.466   1.632   2.649 -0.0033  1.0278  1.6091
 2030SOL     OW17548   2.967   1.943   7.721  0.1986  0.2585  0.1077
 2030SOL    HW117549   3.015   1.974   7.798 -0.9309 -0.0247  0.9352
 2030SOL    HW217550   2.916   1.875   7.764  0.3410  0.1943  0.1758
 2031SOL     OW17551   3.952   4.118   1.033 -0.4345  0.2175  0.1034
 2031SOL    HW117552   3.976   4.042   0.980 -1.2335  0.2268 -0.2678
 2031SOL    HW217553   3.907   4.173   0.969  1.1441  2.5060  0.9422
 2032SOL     OW17554   3.822   4.025   7.158 -0.0646 -0.5674  0.0585
 2032SOL    HW117555   3.751   3.973   7.119  0.4881 -0.9144 -0.4870
 2032SOL    HW217556   3.894   4.025   7.094  0.8980  2.7547  1.1383
 2033SOL     OW17557   1.995   1.296   4.432 -0.0749 -0.2517 -0.0790
 2033SOL    HW117558   2.085   1.309   4.400 -0.6223  3.3448 -0.1239
 2033SOL    HW217559   1.991   1.382   4.472  1.2603 -0.9200  1.4852
 2034SOL     OW17560   0.243   3.319   3.555  0.1085 -0.7600 -0.1288
 2034SOL    HW117561   0.203   3.273   3.630 -1.2282  0.6229  0.0024
 2034SOL    HW217562   0.277   3.247   3.501  0.6118 -0.4758 -0.1933
 2035SOL     OW17563   2.495   2.698   8.402  0.1355  0.2109 -0.9519
 2035SOL    HW117564   2.436   2.771   8.421 -3.2939 -2.8130 -0.0609
 2035SOL    HW217565   2.437   2.622   8.404  1.6558 -0.9097  0.2609
 2036SOL     OW17566   3.349   0.531  16.804  0.0213 -0.0661  0.1421
 2036SOL    HW117567   3.439   0.525  16.772 -0.0143 -1.9235  0.3660
 2036SOL    HW217568   3.344   0.622  16.834 -0.1722  0.7362 -2.3207
 2037SOL     OW17569   4.485   0.495   7.320  0.1324  0.0496 -0.4230
 2037SOL    HW117570   4.521   0.560   7.259  0.4811  1.0341  0.8256
 2037SOL    HW217571   4.530   0.509   7.403 -1.2521 -0.3012  0.3716
 2038SOL     OW17572   3.422   1.703   6.809  0.1245  0.0228 -0.5272
 2038SOL    HW117573   3.435   1.797   6.794  2.5359  0.2682  3.2049
 2038SOL    HW217574   3.457   1.666   6.728  2.8573 -0.7761  1.0098
 2039SOL     OW17575   3.076   1.709   8.375 -0.5879 -0.5708  0.4466
 2039SOL    HW117576   3.041   1.797   8.386  1.8249  0.5769 -1.0808
 2039SOL    HW217577   3.087   1.673   8.463  0.1973  0.3029  0.6980
 2040SOL     OW17578   2.239   3.335  11.399  0.3602 -0.2768 -0.6158
 2040SOL    HW117579   2.154   3.379  11.398  1.0756  1.1097 -0.5247
 2040SOL    HW217580   2.266   3.355  11.488 -2.0817 -0.6786  0.2083
 2041SOL     OW17581   1.966   0.089   7.823  0.3696 -0.3557  0.4462
 2041SOL    HW117582   1.957   0.184   7.831 -2.7416 -0.2777 -4.1195
 2041SOL    HW217583   2.057   0.080   7.796  0.0902 -1.8314  0.0095
 2042SOL     OW17584   4.423   3.001  15.188 -0.2673 -0.0755  0.2152
 2042SOL    HW117585   4.431   2.920  15.139  0.1297  1.0791 -1.6325
 2042SOL    HW217586   4.475   2.982  15.266  1.2465 -0.1147 -0.8070
 2043SOL     OW17587   4.006   2.920  14.323  0.0030  0.2462 -0.1605
 2043SOL    HW117588   4.021   2.827  14.341 -1.3560 -0.1271 -0.9806
 2043SOL    HW217589   4.008   2.953  14.413  1.6514  0.9317 -0.4448
 2044SOL     OW17590   0.290   1.843  13.253 -0.1246 -0.4374 -0.3289
 2044SOL    HW117591   0.222   1.906  13.232  0.3526  0.1316 -0.1659
 2044SOL    HW217592   0.355   1.896  13.299  1.2139 -2.2862 -0.0933
 2045SOL     OW17593   4.110   3.050   6.381 -0.1962 -0.2212  0.3916
 2045SOL    HW117594   4.069   3.097   6.454 -0.5279 -1.2527  0.8725
 2045SOL    HW217595   4.199   3.037   6.414 -0.1524  0.4740  0.5615
 2046SOL     OW17596   2.229   1.396   4.348 -0.0582  0.3064 -0.1549
 2046SOL    HW117597   2.308   1.342   4.343  0.4838  1.2715 -1.8997
 2046SOL    HW217598   2.256   1.482   4.379  1.3152 -0.2420  0.1842
 2047SOL     OW17599   3.081   3.883   2.511  0.1548 -0.6041 -0.0025
 2047SOL    HW117600   3.021   3.851   2.578 -1.3793 -0.9923 -1.5616
 2047SOL    HW217601   3.094   3.970   2.549  1.4620 -1.0780  0.6477
 2048SOL     OW17602   0.203   1.544   3.498 -0.2590 -0.4647 -0.0950
 2048SOL    HW117603   0.234   1.508   3.581 -3.3705  1.9979  2.1624
 2048SOL    HW217604   0.152   1.469   3.468  0.1080  0.4965 -3.0770
 2049SOL     OW17605   3.471   3.091   7.650  0.0439 -0.5477 -0.3470
 2049SOL    HW117606   3.510   3.034   7.584  1.5969  0.6054 -0.4503
 2049SOL    HW217607   3.487   3.175   7.606 -2.7163 -0.5564 -1.3254
 2050SOL     OW17608   3.756   0.480   1.376  0.4771  0.4767  0.3233
 2050SOL    HW117609   3.696   0.513   1.309  0.2124  0.7947  0.7182
 2050SOL    HW217610   3.751   0.385   1.365  0.5853  0.3107  1.6410
 2051SOL     OW17611   3.062   3.790  15.473  0.6391 -0.5830  0.6287
 2051SOL    HW117612   3.072   3.727  15.544 -0.7455 -0.8019  0.6234
 2051SOL    HW217613   2.969   3.780  15.455  0.5956  0.8013  0.0963
 2052SOL     OW17614   4.042   0.903  17.575  0.2300 -0.2174 -0.5702
 2052SOL    HW117615   4.032   0.967  17.505 -0.4363 -0.0826 -0.3500
 2052SOL    HW217616   4.119   0.936  17.621  0.2356 -2.0961  0.7666
 2053SOL     OW17617   2.201   2.122  10.022  0.1442 -0.0195  0.1180
 2053SOL    HW117618   2.168   2.067   9.951 -0.0986  1.2858 -0.7781
 2053SOL    HW217619   2.194   2.056  10.091 -3.5488 -0.9331 -1.1006
 2054SOL     OW17620   3.459   3.643   1.015  0.0320  0.1593 -0.3744
 2054SOL    HW117621   3.398   3.621   1.085  0.9182 -0.2651  0.2583
 2054SOL    HW217622   3.424   3.610   0.932 -1.9815 -0.1707  0.6177
 2055SOL     OW17623   2.070   1.252  14.043  0.3627 -0.1844 -0.1514
 2055SOL    HW117624   2.034   1.201  13.970 -2.9323  0.6849  0.9022
 2055SOL    HW217625   2.059   1.189  14.115 -2.7875  2.5205  1.6910
 2056SOL     OW17626   0.937   2.473  12.065 -0.1583  0.1553  0.1495
 2056SOL    HW117627   0.910   2.527  11.991 -2.5724 -0.8379  0.2930
 2056SOL    HW217628   0.987   2.549  12.095  0.5562 -0.4727  0.5589
 2057SOL     OW17629   3.249   2.393   8.827  0.1437 -0.0270 -0.7123
 2057SOL    HW117630   3.262   2.484   8.852  0.0168 -0.6825  1.7312
 2057SOL    HW217631   3.260   2.349   8.911  0.6489  1.2912 -0.0899
 2058SOL     OW17632   0.779   3.246   7.628 -0.3966 -0.1385  0.7046
 2058SOL    HW117633   0.835   3.182   7.674  1.7506  1.2864  0.0853
 2058SOL    HW217634   0.728   3.187   7.573 -1.0676  1.9752 -0.9506
 2059SOL     OW17635   3.335   2.110   0.742 -0.0130  0.3099 -0.1848
 2059SOL    HW117636   3.287   2.192   0.754 -0.5396  0.2862 -2.0605
 2059SOL    HW217637   3.426   2.136   0.726 -0.0583  0.5344 -0.0780
 2060SOL     OW17638   1.702   4.621   0.473 -0.4749  0.3230 -0.3095
 2060SOL    HW117639   1.674   4.568   0.398 -0.4225  1.5063 -1.1707
 2060SOL    HW217640   1.797   4.622   0.459 -0.3435 -1.7075  0.5039
 2061SOL     OW17641   0.305   4.536   7.496  0.2329  0.1925  0.7199
 2061SOL    HW117642   0.242   4.541   7.425 -0.1161  1.6438  1.1170
 2061SOL    HW217643   0.277   4.475   7.565 -1.2941 -0.0727 -0.1398
 2062SOL     OW17644   3.741   2.503  14.757 -0.3784 -0.2731 -0.4114
 2062SOL    HW117645   3.760   2.422  14.804 -0.7990 -0.8715 -1.2948
 2062SOL    HW217646   3.741   2.476  14.665  0.2106  1.2646 -0.8706
 2063SOL     OW17647   3.991   1.263   7.462 -0.1689  0.4632 -0.1465
 2063SOL    HW117648   4.053   1.328   7.495 -0.2799  0.4443  0.0982
 2063SOL    HW217649   3.995   1.283   7.368  0.5168  1.4486  0.0966
 2064SOL     OW17650   3.816   2.059   5.744 -0.2765 -0.2919 -0.2910
 2064SOL    HW117651   3.771   1.982   5.710  0.0042 -0.3779 -0.4626
 2064SOL    HW217652   3.902   2.021   5.728 -0.9571 -2.1558  0.4889
 2065SOL     OW17653   4.082   1.866   0.450  0.0359 -0.1374 -0.6364
 2065SOL    HW117654   4.044   1.811   0.381 -0.6980  1.8102 -1.8100
 2065SOL    HW217655   4.098   1.790   0.505  0.8499  0.0287 -0.6379
 2066SOL     OW17656   2.126   2.318   1.853 -0.2422  0.6922  0.3964
 2066SOL    HW117657   2.156   2.242   1.903 -0.0060  1.5811  1.6026
 2066SOL    HW217658   2.179   2.300   1.776 -2.4612 -1.1007 -0.7142
 2067SOL     OW17659   0.743   2.577  17.635  0.3417 -0.1038  0.6504
 2067SOL    HW117660   0.731   2.571  17.541  0.2529 -1.3052  0.7415
 2067SOL    HW217661   0.651   2.584  17.661  0.5396 -1.4544  1.7180
 2068SOL     OW17662   2.669   3.669   9.571 -0.5931  0.7470 -0.0076
 2068SOL    HW117663   2.644   3.657   9.479  1.6527 -1.3794 -0.3397
 2068SOL    HW217664   2.629   3.592   9.611  1.4690 -0.7348 -0.7595
 2069SOL     OW17665   4.615   1.948  17.117 -0.5753 -0.5395 -0.0616
 2069SOL    HW117666   4.611   1.917  17.208  1.7268  2.6210  1.1402
 2069SOL    HW217667   4.708   1.954  17.096 -0.5967  1.1110  0.2778
 2070SOL     OW17668   0.090   0.127   6.763  0.5924  0.5500  0.6431
 2070SOL    HW117669   0.074   0.150   6.854  2.5889  3.7025  0.2067
 2070SOL    HW217670   0.002   0.150   6.732  0.6208  0.6991  0.6719
 2071SOL     OW17671   4.318   0.454   5.171 -0.6550 -0.5331  0.0288
 2071SOL    HW117672   4.270   0.406   5.105  0.6712  1.1913 -2.1950
 2071SOL    HW217673   4.328   0.388   5.240 -3.6045  0.1244  1.0807
 2072SOL     OW17674   2.858   3.456  16.941 -0.3425  0.0781  0.5781
 2072SOL    HW117675   2.782   3.451  16.883 -1.0617  2.6432  1.2859
 2072SOL    HW217676   2.828   3.393  17.006  0.2632  0.4018  1.1660
 2073SOL     OW17677   2.628   1.664   0.190  1.1729  0.4599  0.2484
 2073SOL    HW117678   2.551   1.633   0.143  0.0469 -1.1917  3.2085
 2073SOL    HW217679   2.688   1.643   0.119  0.2896  1.4855 -0.8104
 2074SOL     OW17680   3.455   0.955   3.604 -0.1502  0.6173  0.6158
 2074SOL    HW117681   3.435   1.043   3.572 -0.5430  1.1660  2.3765
 2074SOL    HW217682   3.375   0.920   3.644 -1.2921  0.9243 -1.4251
 2075SOL     OW17683   3.374   1.294   4.639  0.3360  0.6270 -0.2965
 2075SOL    HW117684   3.414   1.240   4.707 -1.6421 -2.1182 -1.3211
 2075SOL    HW217685   3.296   1.248   4.608  1.6144 -1.1132 -0.9309
 2076SOL     OW17686   3.409   1.898   0.928  0.3499  0.0390 -1.2445
 2076SOL    HW117687   3.504   1.892   0.923  0.6185  2.4426  1.2024
 2076SOL    HW217688   3.391   1.968   0.865  0.2475  2.5178  1.5541
 2077SOL     OW17689   4.612   3.918   5.597 -0.5192  0.1478 -0.3606
 2077SOL    HW117690   4.586   3.834   5.635  0.5581 -0.1712 -0.3214
 2077SOL    HW217691   4.554   3.977   5.644 -0.8701  1.3058 -2.2675
 2078SOL     OW17692   0.632   4.044   5.938  0.0162 -0.2300 -0.9588
 2078SOL    HW117693   0.613   3.970   5.882 -2.0911 -0.8467  0.5568
 2078SOL    HW217694   0.604   4.114   5.879  1.6061  0.1449 -1.2526
 2079SOL     OW17695   1.239   2.129   4.613 -0.1319 -0.0874 -0.0739
 2079SOL    HW117696   1.196   2.192   4.555  0.0975  0.6775  0.5904
 2079SOL    HW217697   1.179   2.054   4.621  1.2254 -1.1607 -0.0707
 2080SOL     OW17698   4.397   3.262   8.212  0.0930  0.4393 -0.5298
 2080SOL    HW117699   4.427   3.268   8.122 -0.6338  0.7464 -0.7525
 2080SOL    HW217700   4.309   3.229   8.196 -0.2622 -0.2390  2.7234
 2081SOL     OW17701   1.492   0.726   8.686 -0.0412  0.0718 -0.0347
 2081SOL    HW117702   1.435   0.679   8.627  0.2533 -1.9981  1.3219
 2081SOL    HW217703   1.429   0.781   8.733 -2.1202 -1.0865 -1.4919
 2082SOL     OW17704   3.199   3.876   7.503  0.0449  0.5955  0.3752
 2082SOL    HW117705   3.135   3.810   7.530 -0.4106  0.3800 -1.2626
 2082SOL    HW217706   3.168   3.958   7.540 -1.1479  0.1925  0.2617
 2083SOL     OW17707   3.581   2.726   0.548 -0.4769  0.3980  0.1324
 2083SOL    HW117708   3.487   2.742   0.554 -0.3001  1.9117 -1.1164
 2083SOL    HW217709   3.623   2.780   0.480  0.7495 -1.0476 -0.2676
 2084SOL     OW17710   2.166   0.629   4.170 -0.2769  0.6128 -0.6555
 2084SOL    HW117711   2.147   0.651   4.079  0.3080  0.5641 -0.7908
 2084SOL    HW217712   2.125   0.710   4.201  3.4673  2.9086 -1.7146
 2085SOL     OW17713   0.257   1.578   0.131 -0.3553 -0.0486 -0.4374
 2085SOL    HW117714   0.278   1.668   0.107 -1.8838  0.3520 -0.2920
 2085SOL    HW217715   0.204   1.605   0.206  1.4220 -2.5381  1.6873
 2086SOL     OW17716   0.613   2.603   3.790  0.0007  0.5761  0.0388
 2086SOL    HW117717   0.640   2.568   3.705 -1.0259  1.2238 -0.5517
 2086SOL    HW217718   0.683   2.661   3.821  1.7563 -2.4233  1.6997
 2087SOL     OW17719   3.801   2.026   7.353  0.0565 -0.4074 -0.0515
 2087SOL    HW117720   3.756   1.947   7.383 -1.4848  0.5651  0.1943
 2087SOL    HW217721   3.815   1.990   7.266 -0.7555  0.7399 -0.6517
 2088SOL     OW17722   0.159   1.346   5.695  1.0179 -0.0800  0.1471
 2088SOL    HW117723   0.188   1.395   5.772  3.0729  0.2384 -0.8406
 2088SOL    HW217724   0.240   1.332   5.646  1.5160  2.6582  0.1656
 2089SOL     OW17725   2.597   4.156   1.686 -0.6125 -0.2017 -0.6989
 2089SOL    HW117726   2.600   4.220   1.757  0.9336  0.6800 -1.5594
 2089SOL    HW217727   2.584   4.074   1.732  1.4669 -0.6624 -0.9214
 2090SOL     OW17728   2.511   2.664   9.214 -0.2346 -0.0079  0.0058
 2090SOL    HW117729   2.458   2.605   9.161 -0.5969  0.1724  0.1705
 2090SOL    HW217730   2.554   2.596   9.266  2.4442  2.4629  1.0848
 2091SOL     OW17731   2.612   3.236   1.529 -0.0569  0.2734  0.1707
 2091SOL    HW117732   2.610   3.332   1.525 -0.5717  0.3025  1.1764
 2091SOL    HW217733   2.623   3.218   1.623 -0.3666  1.0181  0.3440
 2092SOL     OW17734   1.946   3.314   6.328 -0.0558 -0.1322 -0.1811
 2092SOL    HW117735   2.004   3.388   6.349 -0.0804 -0.7163  1.9344
 2092SOL    HW217736   1.868   3.361   6.299  1.3376  1.7555 -0.8720
 2093SOL     OW17737   0.349   4.157   2.703  0.4179 -0.1783 -0.5145
 2093SOL    HW117738   0.355   4.087   2.768  1.7930 -2.9603 -3.5819
 2093SOL    HW217739   0.434   4.200   2.712  0.0230  0.6010 -0.5395
 2094SOL     OW17740   1.621   1.260   5.560  0.3812 -0.0964  0.2348
 2094SOL    HW117741   1.664   1.344   5.579 -1.2260  0.6485  0.5444
 2094SOL    HW217742   1.590   1.235   5.647 -0.8578 -0.8515 -0.4297
 2095SOL     OW17743   3.613   0.830   2.845 -0.4990 -0.5186 -0.1797
 2095SOL    HW117744   3.683   0.863   2.789 -2.2034 -0.7943 -2.4577
 2095SOL    HW217745   3.534   0.825   2.792 -1.0887  1.0771  0.5310
 2096SOL     OW17746   4.122   4.553   2.259  0.2906 -0.4037 -0.2577
 2096SOL    HW117747   4.057   4.623   2.251  0.0373 -0.6825 -0.6668
 2096SOL    HW217748   4.150   4.564   2.350  3.4846  2.0028 -1.5429
 2097SOL     OW17749   1.535   1.274  11.986  0.3715  0.2582 -0.1047
 2097SOL    HW117750   1.630   1.278  11.974  0.4538  0.3378  0.5452
 2097SOL    HW217751   1.515   1.366  12.007  0.6558  1.0916 -3.5867
 2098SOL     OW17752   1.457   1.558  17.559  0.5117  0.0535  0.9169
 2098SOL    HW117753   1.551   1.546  17.571  0.3787 -0.4447  1.4762
 2098SOL    HW217754   1.433   1.498  17.630  1.7457 -1.0441  0.4095
 2099SOL     OW17755   0.784   1.656   6.573 -0.3320 -0.1830  0.7630
 2099SOL    HW117756   0.710   1.597   6.560 -2.1098  2.1005  0.3700
 2099SOL    HW217757   0.752   1.730   6.521  0.9329 -1.2523 -1.5274
 2100SOL     OW17758   1.614   1.741  10.368 -0.0654  0.1669 -0.1036
 2100SOL    HW117759   1.616   1.766  10.276  0.1498 -0.2935 -0.2269
 2100SOL    HW217760   1.675   1.667  10.377  1.8524  1.3022 -3.7318
 2101SOL     OW17761   2.088   0.366   4.207  0.0829  0.3290 -0.7404
 2101SOL    HW117762   2.061   0.336   4.120 -1.1276 -1.3622  0.2210
 2101SOL    HW217763   2.112   0.458   4.193 -1.1515  0.7056 -0.4478
 2102SOL     OW17764   3.747   0.844   3.444  0.1406  0.1546 -0.1418
 2102SOL    HW117765   3.786   0.905   3.507 -1.3407  1.2877 -0.3263
 2102SOL    HW217766   3.678   0.892   3.400  0.1500 -0.6692 -1.0568
 2103SOL     OW17767   4.017   0.451   7.106 -0.1141  0.1306  0.2865
 2103SOL    HW117768   4.059   0.537   7.105 -1.9666  1.0567  2.1870
 2103SOL    HW217769   4.099   0.410   7.078 -0.3725  0.6932 -1.3179
 2104SOL     OW17770   0.040   2.844   8.530 -0.8230  0.2649  0.1254
 2104SOL    HW117771   0.078   2.792   8.459  1.2991  0.0795  1.3794
 2104SOL    HW217772   0.029   2.929   8.488 -0.6107  1.4189  2.3907
 2105SOL     OW17773   1.442   4.328   8.335 -0.2976  0.4134  0.2811
 2105SOL    HW117774   1.463   4.236   8.322  0.2608  0.2756  2.0838
 2105SOL    HW217775   1.348   4.340   8.327 -0.2750 -0.6859 -1.4125
 2106SOL     OW17776   3.437   4.667  17.497 -0.1571  0.2249 -0.1480
 2106SOL    HW117777   3.512   0.003  17.513  0.0288  0.7395 -2.9568
 2106SOL    HW217778   3.468   4.577  17.485  0.1834  0.0330  2.2254
 2107SOL     OW17779   4.181   4.562   4.498  0.0288 -0.5199 -0.1288
 2107SOL    HW117780   4.268   4.599   4.517 -0.7088  1.8699 -1.4572
 2107SOL    HW217781   4.153   4.598   4.414 -0.7965  0.7478  0.6984
 2108SOL     OW17782   3.563   2.756   3.189  0.1037 -0.2491  0.3797
 2108SOL    HW117783   3.501   2.796   3.250  0.9144  0.0079  1.0321
 2108SOL    HW217784   3.623   2.820   3.150 -0.1020 -0.5724 -0.4615
 2109SOL     OW17785   0.110   2.465   5.409 -0.0441 -0.3469 -0.0428
 2109SOL    HW117786   0.194   2.482   5.365  0.1668 -1.6053 -0.1192
 2109SOL    HW217787   0.099   2.558   5.431  3.8260  0.2239 -0.4496
 2110SOL     OW17788   0.001   1.979   1.692 -0.4679 -0.5085 -1.0474
 2110SOL    HW117789   4.722   1.899   1.745 -0.7474 -0.1976 -0.5824
 2110SOL    HW217790   0.068   2.041   1.723 -0.5320 -0.5624 -0.7979
 2111SOL     OW17791   1.658   3.860   8.187 -0.5578 -0.4457 -0.1261
 2111SOL    HW117792   1.668   3.846   8.281  3.4821  1.0083 -0.3385
 2111SOL    HW217793   1.747   3.855   8.153 -0.8614  0.3729 -1.0490
 2112SOL     OW17794   0.916   0.807   8.828  0.4896 -0.0603 -0.0826
 2112SOL    HW117795   0.825   0.777   8.827  0.3960  0.1859  0.8500
 2112SOL    HW217796   0.956   0.763   8.753 -5.0365 -0.9154 -2.4898
 2113SOL     OW17797   1.260   4.626   8.966 -0.6383  0.1142  0.0282
 2113SOL    HW117798   1.344   4.581   8.978 -0.4726  0.0482 -1.3959
 2113SOL    HW217799   1.196   4.573   9.013 -0.1721 -2.5949 -2.3782
 2114SOL     OW17800   3.615   1.388  10.522  0.1216  0.2665  0.2446
 2114SOL    HW117801   3.613   1.296  10.495 -0.3025  0.0784  0.9040
 2114SOL    HW217802   3.673   1.394  10.598  1.4773 -1.4736 -0.6650
 2115SOL     OW17803   0.235   3.019  15.236  0.3172 -0.2322 -0.0097
 2115SOL    HW117804   0.290   3.001  15.159 -0.5890  2.0037 -1.1789
 2115SOL    HW217805   0.207   3.108  15.215 -0.4080 -0.7370 -1.1454
 2116SOL     OW17806   4.143   1.557   0.462 -0.4631 -0.3721  0.3138
 2116SOL    HW117807   4.111   1.508   0.386 -2.2061  0.5604  0.4663
 2116SOL    HW217808   4.221   1.505   0.482 -0.7805 -0.4521  1.3421
 2117SOL     OW17809   4.084   4.272   2.581  0.0041 -0.0497  0.0868
 2117SOL    HW117810   4.174   4.300   2.601  0.7204 -2.3098  0.1025
 2117SOL    HW217811   4.050   4.223   2.656  1.0616 -2.4295 -0.9660
 2118SOL     OW17812   0.091   3.060   7.283  0.0773  0.6793 -0.4593
 2118SOL    HW117813   0.133   3.067   7.197 -0.3111  1.4789 -0.5840
 2118SOL    HW217814   0.015   3.116   7.268 -0.4708  0.4752  1.4995
 2119SOL     OW17815   0.195   0.182   0.265  0.1649 -0.2662 -0.4655
 2119SOL    HW117816   0.123   0.243   0.252  2.1609  2.1372 -0.1028
 2119SOL    HW217817   0.180   0.120   0.194 -0.9926 -0.4467 -0.0641
 2120SOL     OW17818   4.154   4.351   9.461 -0.1158  0.6625 -0.1624
 2120SOL    HW117819   4.124   4.432   9.420 -3.6778 -0.6518 -0.0589
 2120SOL    HW217820   4.187   4.313   9.380 -0.7397  0.9319 -0.5363
 2121SOL     OW17821   1.383   1.496   3.418 -0.3471  0.0234 -0.3052
 2121SOL    HW117822   1.340   1.580   3.406 -1.0303 -0.1830  0.6664
 2121SOL    HW217823   1.319   1.443   3.372  2.2897 -0.8875 -2.9486
 2122SOL     OW17824   4.670   0.377   3.211  0.2431 -0.1276  0.1263
 2122SOL    HW117825   4.682   0.322   3.133  0.7556 -0.9180  0.7700
 2122SOL    HW217826   4.714   0.455   3.176 -1.5063  1.8715  2.4957
 2123SOL     OW17827   4.171   0.194   3.716  0.2492  0.2684  0.8132
 2123SOL    HW117828   4.189   0.102   3.699  2.8110  0.4884  2.3869
 2123SOL    HW217829   4.095   0.194   3.774 -1.1973  0.3666 -1.0520
 2124SOL     OW17830   0.579   0.666   1.936 -0.8364 -0.4179 -0.2868
 2124SOL    HW117831   0.551   0.575   1.935 -0.4918 -0.5287 -0.0066
 2124SOL    HW217832   0.634   0.670   2.014 -2.1075  2.5943  0.4398
 2125SOL     OW17833   0.314   1.658   2.201  0.0350 -0.1444 -0.6674
 2125SOL    HW117834   0.221   1.667   2.222  0.6697  1.1628  1.5642
 2125SOL    HW217835   0.339   1.569   2.226  0.3691 -0.0668 -0.7184
 2126SOL     OW17836   2.606   1.207   3.902  0.2621 -0.4850  0.5305
 2126SOL    HW117837   2.627   1.204   3.808  2.0548 -0.9083  0.9395
 2126SOL    HW217838   2.536   1.271   3.900 -0.8057 -1.6990 -0.8219
 2127SOL     OW17839   1.203   3.356   6.384  0.1557 -0.2185 -0.7600
 2127SOL    HW117840   1.215   3.269   6.345 -1.0531 -0.2411 -1.0820
 2127SOL    HW217841   1.257   3.412   6.327 -1.2829  1.7508 -0.1699
 2128SOL     OW17842   0.917   3.656   1.027 -0.1779  0.0874  0.4301
 2128SOL    HW117843   0.918   3.729   1.088 -1.3065  0.7377 -0.3308
 2128SOL    HW217844   0.883   3.582   1.077 -1.0862 -1.7333 -2.8362
 2129SOL     OW17845   2.011   4.321   6.991 -0.0434  0.3901 -0.4984
 2129SOL    HW117846   2.031   4.235   7.028 -2.4596 -0.3093 -0.8360
 2129SOL    HW217847   1.935   4.356   7.038 -1.0957 -1.4815 -0.8232
 2130SOL     OW17848   1.061   2.210  10.332  0.2809  0.2769 -0.5514
 2130SOL    HW117849   1.130   2.220  10.398  0.1379  0.5895 -0.4465
 2130SOL    HW217850   1.090   2.128  10.294  1.2422  0.4512 -0.1960
 2131SOL     OW17851   2.840   2.053  13.713 -0.2392  0.3460 -0.0351
 2131SOL    HW117852   2.866   1.986  13.650 -0.6372  0.8420 -0.7286
 2131SOL    HW217853   2.787   2.114  13.661 -2.0108 -1.2974 -0.1572
 2132SOL     OW17854   2.643   2.317   8.229  0.0188  0.2227 -0.5810
 2132SOL    HW117855   2.622   2.404   8.194  0.3826  0.0849 -1.1402
 2132SOL    HW217856   2.648   2.268   8.147 -0.9897 -0.3294 -0.3071
 2133SOL     OW17857   0.103   0.350   4.725  0.4301  0.3495  0.4470
 2133SOL    HW117858   0.190   0.366   4.764 -0.1628  2.4423  0.9087
 2133SOL    HW217859   0.110   0.398   4.642 -0.7048  0.9106  0.6849
 2134SOL     OW17860   4.289   1.006   7.870 -0.2933  0.0896  0.1752
 2134SOL    HW117861   4.360   0.960   7.915  0.2805 -0.1671 -1.0133
 2134SOL    HW217862   4.283   1.082   7.929 -0.3171  0.7079 -0.6228
 2135SOL     OW17863   1.919   3.609   5.874 -0.2260 -0.7334  0.0371
 2135SOL    HW117864   1.995   3.618   5.931 -1.0877  0.4075  1.0013
 2135SOL    HW217865   1.887   3.532   5.922 -1.4726  0.7344  1.5677
 2136SOL     OW17866   4.528   0.232   8.658  0.7856  0.3041  0.2787
 2136SOL    HW117867   4.590   0.161   8.642 -0.2800 -0.7149  0.6483
 2136SOL    HW217868   4.577   0.295   8.711 -1.0969  1.9338  0.0807
 2137SOL     OW17869   0.063   4.508  11.845  0.7633  0.4654 -0.2786
 2137SOL    HW117870   0.068   4.576  11.778  1.1901 -1.9226 -2.6585
 2137SOL    HW217871   4.697   4.528  11.877  0.7011 -0.4079  0.0854
 2138SOL     OW17872   2.583   0.030   0.723 -0.1130  0.2718 -0.1049
 2138SOL    HW117873   2.600   4.688   0.654  1.3054  1.0197 -0.4546
 2138SOL    HW217874   2.519   0.090   0.683  0.1322  1.0210  0.6194
 2139SOL     OW17875   4.023   1.903  13.304 -0.8272 -0.0861 -0.4728
 2139SOL    HW117876   4.035   1.940  13.217 -0.3186  1.0833  0.0965
 2139SOL    HW217877   3.929   1.913  13.314 -0.8684 -0.3949 -0.5643
 2140SOL     OW17878   3.354   1.823  11.411  0.0520 -0.3534 -0.4215
 2140SOL    HW117879   3.355   1.729  11.426 -1.6973 -0.6083 -1.8721
 2140SOL    HW217880   3.263   1.846  11.430  0.3386  0.9474 -0.6070
 2141SOL     OW17881   1.756   0.901   3.272 -0.6567  0.1101 -0.1351
 2141SOL    HW117882   1.829   0.864   3.320 -2.2003 -1.2843  1.1155
 2141SOL    HW217883   1.750   0.842   3.197  2.5883 -0.8905  0.4055
 2142SOL     OW17884   3.709   3.315   0.249 -0.1029 -0.1460  0.2073
 2142SOL    HW117885   3.759   3.379   0.197 -0.2539  0.9322  1.3725
 2142SOL    HW217886   3.770   3.243   0.238 -1.3162 -1.2542  0.7895
 2143SOL     OW17887   0.277   4.284   0.558 -0.8004 -0.1938 -0.2056
 2143SOL    HW117888   0.188   4.282   0.524 -0.5353 -2.7000 -0.7491
 2143SOL    HW217889   0.329   4.296   0.479 -2.5165 -0.1307 -1.3099
 2144SOL     OW17890   1.252   3.708  13.617  0.4233 -0.6469 -0.8728
 2144SOL    HW117891   1.248   3.763  13.696 -2.5352 -0.8410 -0.8933
 2144SOL    HW217892   1.188   3.741  13.554 -1.2268 -1.4154  0.3955
 2145SOL     OW17893   3.274   4.092   6.354 -0.1510 -0.3468 -0.2737
 2145SOL    HW117894   3.277   4.186   6.373 -0.7625  0.0286 -2.0523
 2145SOL    HW217895   3.337   4.089   6.283  0.6529  1.0181  0.3752
 2146SOL     OW17896   4.158   2.436  12.780 -0.3964  0.4383  0.6080
 2146SOL    HW117897   4.117   2.497  12.841  0.4931  0.4495  1.1893
 2146SOL    HW217898   4.143   2.352  12.825  0.3060  0.0074  0.0286
 2147SOL     OW17899   4.260   0.796   4.952 -0.2951 -0.8156  0.7953
 2147SOL    HW117900   4.352   0.796   4.926 -0.0639 -1.7573  1.5838
 2147SOL    HW217901   4.260   0.797   5.048  0.4613 -0.9735  0.7933
 2148SOL     OW17902   3.858   2.399   7.260  0.4795  0.0133  0.1360
 2148SOL    HW117903   3.909   2.479   7.275 -0.0904  0.7554 -1.9533
 2148SOL    HW217904   3.900   2.368   7.180  1.5308 -1.1768  1.1491
 2149SOL     OW17905   3.833   4.449   3.054  0.1688  0.5880 -0.1147
 2149SOL    HW117906   3.762   4.445   3.118  0.9599  1.0060  0.7865
 2149SOL    HW217907   3.891   4.376   3.077  0.0599 -0.3703 -2.7865
 2150SOL     OW17908   2.164   2.890   7.783  0.0211  0.7878  0.0407
 2150SOL    HW117909   2.245   2.862   7.741 -0.6322  1.0008 -1.3767
 2150SOL    HW217910   2.148   2.804   7.823  0.2090  0.1474 -1.2673
 2151SOL     OW17911   1.463   1.774   5.150  0.0962 -0.4083  0.3584
 2151SOL    HW117912   1.417   1.858   5.148 -3.1209 -2.2171 -1.9423
 2151SOL    HW217913   1.462   1.751   5.243 -1.2984 -0.3271  0.3566
 2152SOL     OW17914   1.879   3.694   5.165  0.3955  0.3967  0.2156
 2152SOL    HW117915   1.872   3.770   5.106 -2.0753  0.4922  0.6651
 2152SOL    HW217916   1.788   3.667   5.157  0.8103 -0.2459 -2.5099
 2153SOL     OW17917   4.474   2.910   5.642 -0.5101  0.4435  0.4491
 2153SOL    HW117918   4.519   2.828   5.622 -0.5715  0.7811 -1.1163
 2153SOL    HW217919   4.395   2.910   5.588  0.4237  2.4034 -0.9107
 2154SOL     OW17920   0.917   0.565   7.933 -0.0102 -0.0025  0.2002
 2154SOL    HW117921   0.881   0.576   7.845 -0.9297  0.7457  0.6736
 2154SOL    HW217922   0.835   0.543   7.978  0.3736  0.2372  1.0146
 2155SOL     OW17923   3.591   4.175  17.143 -0.3581 -0.0935  0.4581
 2155SOL    HW117924   3.562   4.184  17.234 -0.4839 -2.4987  0.6450
 2155SOL    HW217925   3.554   4.257  17.108 -0.8837  0.7519  2.9423
 2156SOL     OW17926   3.201   1.222   3.984  0.3805  0.2442 -0.0284
 2156SOL    HW117927   3.203   1.283   4.058  1.1778  0.6891 -0.4119
 2156SOL    HW217928   3.280   1.173   4.003 -0.7677 -1.5580  0.0377
 2157SOL     OW17929   2.953   2.896   9.118 -0.7635 -0.0328  0.1795
 2157SOL    HW117930   2.979   2.870   9.207  0.0595  1.9723  0.5300
 2157SOL    HW217931   2.858   2.884   9.118 -0.9831  1.8055  0.7697
 2158SOL     OW17932   1.663   1.410  11.146  0.5278  0.2476  0.3150
 2158SOL    HW117933   1.634   1.436  11.233  1.6930  3.5753 -0.2531
 2158SOL    HW217934   1.621   1.326  11.132  2.2497 -0.3556 -1.2970
 2159SOL     OW17935   2.832   0.270   4.793  0.0284 -0.5076  0.1281
 2159SOL    HW117936   2.759   0.229   4.840  0.3073 -2.0121 -0.7558
 2159SOL    HW217937   2.849   0.349   4.844 -1.7823 -1.0985  1.6633
 2160SOL     OW17938   2.916   0.714   1.069 -0.1971 -0.0014  0.4805
 2160SOL    HW117939   2.976   0.704   1.143  1.4270 -2.0029 -1.0886
 2160SOL    HW217940   2.903   0.620   1.058  2.6767 -0.3368 -0.1410
 2161SOL     OW17941   0.627   2.750   8.855  0.2078 -0.1315 -0.5199
 2161SOL    HW117942   0.543   2.715   8.884 -0.3299  2.0264  0.5062
 2161SOL    HW217943   0.691   2.729   8.923  0.3507  1.7041 -0.0974
 2162SOL     OW17944   3.870   3.235   7.197 -0.1457 -0.1946  0.4344
 2162SOL    HW117945   3.784   3.216   7.161 -1.5734  1.0958  3.1291
 2162SOL    HW217946   3.846   3.211   7.287  0.2248 -0.2454  0.5196
 2163SOL     OW17947   3.188   3.144   3.789 -0.0861 -0.2172 -0.3151
 2163SOL    HW117948   3.228   3.219   3.834  2.2314 -0.7413 -1.4780
 2163SOL    HW217949   3.112   3.124   3.842 -0.3338 -0.5831 -0.8084
 2164SOL     OW17950   2.471   2.463   1.595  0.2701  0.2507 -0.2770
 2164SOL    HW117951   2.436   2.525   1.659  1.9601 -0.5475  1.4411
 2164SOL    HW217952   2.419   2.386   1.617  0.7461  0.0174  0.0369
 2165SOL     OW17953   0.010   0.151   3.014  0.2130  0.1140  0.3252
 2165SOL    HW117954   0.056   0.071   2.989  0.2735  0.2126  0.1175
 2165SOL    HW217955   0.040   0.210   2.945  0.4484  1.0872  1.2823
 2166SOL     OW17956   4.458   0.259  11.557 -0.1038  0.5422  0.1593
 2166SOL    HW117957   4.365   0.258  11.537 -0.0629  0.4174 -0.0244
 2166SOL    HW217958   4.449   0.251  11.652  1.9256  0.8754  0.3879
 2167SOL     OW17959   3.607   3.957   3.839 -0.3582 -0.1672  0.4157
 2167SOL    HW117960   3.611   3.956   3.934  0.0230 -0.9966  0.3968
 2167SOL    HW217961   3.604   3.864   3.815  0.4427 -0.0865  0.0011
 2168SOL     OW17962   4.175   1.524   2.634 -0.5567 -0.7516 -0.9867
 2168SOL    HW117963   4.261   1.534   2.675 -1.5963  0.4573  0.9083
 2168SOL    HW217964   4.143   1.614   2.646  2.8909  0.2779  0.6100
 2169SOL     OW17965   0.360   2.281   5.976  0.1818 -0.0043  0.5559
 2169SOL    HW117966   0.275   2.259   5.939  0.4334 -0.9898  0.5768
 2169SOL    HW217967   0.335   2.301   6.066 -2.4738  1.4203 -0.5077
 2170SOL     OW17968   3.117   3.271   1.095  0.1485  0.2310 -0.8909
 2170SOL    HW117969   3.080   3.190   1.132  0.0372  0.1066 -1.2786
 2170SOL    HW217970   3.036   3.299   1.053  0.3382  0.9739 -0.7532
 2171SOL     OW17971   1.585   1.533   5.297 -0.1424  0.0622 -0.8283
 2171SOL    HW117972   1.618   1.464   5.240  0.5507  1.0586 -1.6575
 2171SOL    HW217973   1.664   1.582   5.319 -1.1799  1.0860  0.6054
 2172SOL     OW17974   1.125   1.342   4.557 -0.1960 -0.7150 -0.0168
 2172SOL    HW117975   1.106   1.353   4.650  3.2689 -1.7649  0.8428
 2172SOL    HW217976   1.195   1.276   4.562  0.3926 -0.0785  0.2307
 2173SOL     OW17977   2.901   1.055   8.315 -0.0470 -0.0893 -0.0942
 2173SOL    HW117978   2.847   1.044   8.394 -1.5966 -0.7942 -1.2626
 2173SOL    HW217979   2.989   1.080   8.345  0.0575  0.0007 -0.4754
 2174SOL     OW17980   3.317   2.039  13.572  0.0216 -0.5371 -0.1789
 2174SOL    HW117981   3.249   2.045  13.505  0.5299  2.1969 -0.4617
 2174SOL    HW217982   3.397   2.037  13.520  0.6563  4.3156  0.6536
 2175SOL     OW17983   0.188   3.741   5.823 -0.1700  0.8222  0.0064
 2175SOL    HW117984   0.182   3.779   5.911 -1.6821  0.9408 -0.1561
 2175SOL    HW217985   0.191   3.823   5.773  0.5786 -0.0538 -1.3854
 2176SOL     OW17986   0.858   0.666   5.598  0.0719 -0.2050  0.2295
 2176SOL    HW117987   0.821   0.600   5.538 -0.6810  0.2249  0.2157
 2176SOL    HW217988   0.917   0.608   5.646 -0.1023 -0.9127 -0.4069
 2177SOL     OW17989   3.559   1.548  12.204  0.4702 -0.4615  0.1078
 2177SOL    HW117990   3.519   1.517  12.123  2.0182 -0.6668 -0.5641
 2177SOL    HW217991   3.599   1.631  12.181  1.7626 -0.7216  1.4545
 2178SOL     OW17992   0.189   2.883   2.927  0.5785 -0.8508  0.3428
 2178SOL    HW117993   0.134   2.830   2.869 -1.9158 -0.2819  2.1606
 2178SOL    HW217994   0.188   2.836   3.011 -1.7668  1.6333  1.7334
 2179SOL     OW17995   0.182   2.083   8.631 -0.1221 -0.1069  0.0328
 2179SOL    HW117996   0.184   2.002   8.682 -1.0123 -0.8622 -1.1521
 2179SOL    HW217997   0.170   2.140   8.707  2.1681  1.0901 -0.4782
 2180SOL     OW17998   4.611   1.132   5.917  0.3182  0.2637  1.0229
 2180SOL    HW117999   4.525   1.168   5.941 -0.4613  0.7248 -2.4926
 2180SOL    HW218000   4.571   1.049   5.891  0.3605  0.3756  0.6011
 2181SOL     OW18001   3.890   0.258   3.067 -0.2870 -0.2481 -0.2536
 2181SOL    HW118002   3.892   0.307   2.985 -0.2491 -0.2163 -0.2340
 2181SOL    HW218003   3.913   0.172   3.033  0.0821 -0.6792  1.0579
 2182SOL     OW18004   4.307   4.303   0.162 -0.0194 -0.3075  0.3585
 2182SOL    HW118005   4.395   4.303   0.122  0.7331 -3.0040  2.0463
 2182SOL    HW218006   4.301   4.217   0.202 -1.5144 -0.1802  0.3969
 2183SOL     OW18007   4.715   3.441   6.800  0.3294  0.4380 -0.0492
 2183SOL    HW118008   0.037   3.452   6.716  1.1407 -2.5594  0.0047
 2183SOL    HW218009   0.005   3.348   6.817  3.3215  0.5179 -1.7628
 2184SOL     OW18010   0.930   2.224   3.879  0.0687 -0.2135 -0.7359
 2184SOL    HW118011   0.848   2.242   3.925  1.0894  3.3537 -0.2746
 2184SOL    HW218012   0.988   2.285   3.925 -1.3793  2.8633 -2.9846
 2185SOL     OW18013   3.468   1.230  11.551 -0.7338  0.1548  1.2603
 2185SOL    HW118014   3.552   1.194  11.520 -1.5014 -0.1406 -0.4858
 2185SOL    HW218015   3.427   1.249  11.466  1.3877 -0.0689  0.1790
 2186SOL     OW18016   3.519   0.659   1.243  0.3073 -0.3723 -0.0440
 2186SOL    HW118017   3.470   0.617   1.172 -0.2015  1.1245 -0.5748
 2186SOL    HW218018   3.460   0.650   1.317  0.6241  0.2557  0.2868
 2187SOL     OW18019   2.561   2.793  11.302 -0.1591  0.2046 -0.6075
 2187SOL    HW118020   2.618   2.716  11.291 -0.6136 -0.1815 -0.3041
 2187SOL    HW218021   2.481   2.747  11.275  0.6878 -2.7075  1.7008
 2188SOL     OW18022   1.029   0.976   3.567 -0.7792  0.4911 -0.0794
 2188SOL    HW118023   1.064   0.907   3.624  0.1651  0.6323 -0.4978
 2188SOL    HW218024   1.010   0.928   3.486 -0.3480  0.3365 -0.0863
 2189SOL     OW18025   4.310   1.607   3.505  0.5167  0.3206 -0.2272
 2189SOL    HW118026   4.399   1.581   3.480 -0.6876 -3.0065 -0.9214
 2189SOL    HW218027   4.270   1.637   3.423  0.5599 -0.0714 -0.3929
 2190SOL     OW18028   1.059   4.218   3.831  0.2138 -0.9822 -0.5972
 2190SOL    HW118029   1.037   4.294   3.884 -0.7272 -0.4551 -1.7538
 2190SOL    HW218030   1.106   4.264   3.762 -1.5915  0.7032 -0.6792
 2191SOL     OW18031   2.288   2.082   8.124 -0.3596 -0.3697 -0.3393
 2191SOL    HW118032   2.366   2.070   8.070 -0.1978  1.9146 -0.5876
 2191SOL    HW218033   2.313   2.013   8.186  1.2421 -0.3552 -0.9706
 2192SOL     OW18034   0.988   4.400   7.339 -0.4736 -0.1168 -0.5514
 2192SOL    HW118035   0.921   4.442   7.392  1.6157  1.3191  0.9532
 2192SOL    HW218036   1.029   4.476   7.299 -0.6338  0.1533 -0.2012
 2193SOL     OW18037   2.609   4.180   6.171 -0.5702 -0.1174 -0.5109
 2193SOL    HW118038   2.571   4.267   6.170  0.3006  0.2630 -0.3632
 2193SOL    HW218039   2.600   4.162   6.265  1.4570  1.5398  0.0124
 2194SOL     OW18040   2.020   1.461   8.446  0.0046 -0.0242 -0.2117
 2194SOL    HW118041   2.040   1.553   8.465  1.6601 -0.4546  0.0641
 2194SOL    HW218042   1.983   1.435   8.531 -1.4007 -1.2891 -1.1983
 2195SOL     OW18043   0.567   2.222   6.869 -0.6005 -0.4128 -0.7883
 2195SOL    HW118044   0.510   2.293   6.899  2.3537  2.0439 -0.9701
 2195SOL    HW218045   0.638   2.270   6.827 -0.2898 -0.1618  0.0262
 2196SOL     OW18046   1.017   4.528   6.008  0.0706 -0.1040 -0.0783
 2196SOL    HW118047   0.948   4.486   5.955  0.0849 -0.2173 -0.0074
 2196SOL    HW218048   1.069   4.454   6.040 -0.7227 -1.1853 -1.2420
 2197SOL     OW18049   0.184   3.741   8.544  0.0912 -0.0661  0.3776
 2197SOL    HW118050   0.171   3.832   8.517 -0.8787 -1.2251 -3.1040
 2197SOL    HW218051   0.154   3.748   8.635  2.5071 -0.3707  1.1916
 2198SOL     OW18052   3.452   4.063   8.619 -0.3978  0.1503  0.1704
 2198SOL    HW118053   3.434   3.970   8.603 -0.2805 -0.2143  2.2375
 2198SOL    HW218054   3.484   4.096   8.535 -0.9562 -1.4040 -0.6696
 2199SOL     OW18055   1.689   3.337  12.602  0.0119  0.0992  0.4782
 2199SOL    HW118056   1.779   3.346  12.570  0.7021 -2.2826  1.7485
 2199SOL    HW218057   1.671   3.430  12.586  1.5190  0.4463  0.7799
 2200SOL     OW18058   3.245   3.432   6.132  0.1101 -0.4886  0.3832
 2200SOL    HW118059   3.214   3.520   6.152 -1.6206 -1.6815  2.9641
 2200SOL    HW218060   3.328   3.420   6.179  0.0928  0.0263  0.5497
 2201SOL     OW18061   4.644   3.870   8.980 -0.0121  0.4314  0.1472
 2201SOL    HW118062   4.556   3.871   9.017  0.5403  0.5591  1.4479
 2201SOL    HW218063   4.688   3.891   9.062 -1.1406 -0.5731  1.0167
 2202SOL     OW18064   2.718   1.608   7.619 -0.5570  0.1751  0.2182
 2202SOL    HW118065   2.644   1.548   7.625  1.6283 -2.5850 -0.3860
 2202SOL    HW218066   2.763   1.589   7.536 -0.3482 -0.1666  0.4089
 2203SOL     OW18067   0.760   1.568   5.272 -0.3523 -0.6302 -0.7413
 2203SOL    HW118068   0.765   1.617   5.190  0.9087  0.6105  0.0711
 2203SOL    HW218069   0.766   1.481   5.234  1.0010 -0.8812  0.0282
 2204SOL     OW18070   3.850   3.155   2.404 -0.9214  0.7367  0.2173
 2204SOL    HW118071   3.826   3.207   2.327  2.7997  3.5016  0.9332
 2204SOL    HW218072   3.868   3.223   2.469  0.2492  1.0087 -0.3999
 2205SOL     OW18073   1.408   1.460   4.916 -0.1440  0.4985  0.0128
 2205SOL    HW118074   1.471   1.531   4.901 -0.9442  1.4514  1.2637
 2205SOL    HW218075   1.342   1.516   4.956  1.8725  2.6112  0.4463
 2206SOL     OW18076   1.806   2.365  12.894 -0.2199 -0.3592  0.1628
 2206SOL    HW118077   1.776   2.277  12.869  0.3537 -0.3045 -0.7015
 2206SOL    HW218078   1.771   2.415  12.820  1.3121  1.2078  0.5016
 2207SOL     OW18079   0.456   0.173   0.322 -0.5803 -0.0772 -0.1429
 2207SOL    HW118080   0.456   0.126   0.405 -1.6582  2.4494  1.2790
 2207SOL    HW218081   0.369   0.162   0.284 -0.4462  0.4313 -0.5955
 2208SOL     OW18082   0.764   4.477   4.993 -0.0611 -0.2493 -0.1865
 2208SOL    HW118083   0.858   4.493   4.984  0.0879 -0.0324  1.7459
 2208SOL    HW218084   0.717   4.521   4.922 -1.3644 -0.3368  0.6269
 2209SOL     OW18085   1.238   3.747   7.808  0.2453  0.7692  0.2699
 2209SOL    HW118086   1.272   3.788   7.729 -0.8190 -0.4229 -0.8067
 2209SOL    HW218087   1.313   3.759   7.866  0.0206 -0.9473  0.9190
 2210SOL     OW18088   4.390   4.432   3.752 -0.0739 -0.2167 -1.0408
 2210SOL    HW118089   4.463   4.396   3.803 -0.3941  0.7963  0.1518
 2210SOL    HW218090   4.423   4.413   3.664  2.7347 -0.7975  0.1164
 2211SOL     OW18091   3.665   1.629   5.146  0.4753  0.9865 -0.3281
 2211SOL    HW118092   3.716   1.566   5.197 -0.7638  0.3084  0.0569
 2211SOL    HW218093   3.687   1.588   5.063 -1.6606 -0.2719 -0.2617
 2212SOL     OW18094   2.564   0.482   1.418 -0.0268  0.0249  0.0809
 2212SOL    HW118095   2.510   0.518   1.488  0.9736 -0.5496  1.1432
 2212SOL    HW218096   2.554   0.389   1.439  0.7424 -0.0951 -0.0592
 2213SOL     OW18097   3.485   2.415   5.475  0.0276 -0.2005  0.5403
 2213SOL    HW118098   3.569   2.370   5.478 -0.4163 -1.2344 -2.4719
 2213SOL    HW218099   3.455   2.401   5.385  1.7976 -2.4835  0.3049
 2214SOL     OW18100   2.046   0.661  12.171  0.0070  0.3999  0.4727
 2214SOL    HW118101   2.005   0.744  12.195 -1.0490  0.1235 -0.3560
 2214SOL    HW218102   2.139   0.668  12.152 -0.2134 -0.3509 -0.8750
 2215SOL     OW18103   2.119   2.110   2.042 -0.0170  0.0474  0.3402
 2215SOL    HW118104   2.093   2.048   1.974 -2.4539 -0.1015  1.4029
 2215SOL    HW218105   2.034   2.114   2.086  0.1999 -2.7869  1.0083
 2216SOL     OW18106   4.394   2.287   8.066  0.0508  0.2799  0.8201
 2216SOL    HW118107   4.329   2.220   8.088  1.0462 -1.3594 -1.3495
 2216SOL    HW218108   4.443   2.286   8.148  1.1597 -0.7452  0.1311
 2217SOL     OW18109   1.325   2.663   7.788 -0.2110  1.1700 -0.0888
 2217SOL    HW118110   1.382   2.586   7.796 -0.2988  0.9524 -1.6454
 2217SOL    HW218111   1.249   2.635   7.737 -0.0598  1.1544 -0.3050
 2218SOL     OW18112   2.608   0.122   6.317  0.4150 -0.2613  0.7715
 2218SOL    HW118113   2.571   0.206   6.343 -1.6334 -1.2018  0.8497
 2218SOL    HW218114   2.610   0.066   6.395 -0.6673  2.0697  2.4545
 2219SOL     OW18115   3.413   4.664   6.425 -0.0506  0.4063 -0.0373
 2219SOL    HW118116   3.369   0.012   6.377  1.2210  0.8885 -0.4822
 2219SOL    HW218117   3.336   4.624   6.465  0.1756 -0.9830 -1.0185
 2220SOL     OW18118   4.710   0.653  16.956  0.4967  0.1911  0.9933
 2220SOL    HW118119   4.648   0.696  17.016 -1.5724  1.0648 -1.7530
 2220SOL    HW218120   4.655   0.636  16.880 -0.7893  0.7390  1.7989
 2221SOL     OW18121   3.049   0.088  11.823  0.0210 -0.0147 -0.0626
 2221SOL    HW118122   2.975   0.149  11.820  0.7005  0.8007 -0.1733
 2221SOL    HW218123   3.050   0.059  11.915 -0.6691  0.7651  0.1910
 2222SOL     OW18124   1.477   0.973   4.471  0.4538 -0.4147 -0.0643
 2222SOL    HW118125   1.456   0.887   4.508  0.9002 -1.1042 -1.4242
 2222SOL    HW218126   1.571   0.972   4.489  0.4588 -0.6283 -0.1008
 2223SOL     OW18127   1.716   1.711   9.611 -0.4507  0.2893  0.2029
 2223SOL    HW118128   1.747   1.662   9.687  0.5202 -0.9690 -0.9908
 2223SOL    HW218129   1.788   1.774   9.599 -0.0355 -0.4513 -1.1981
 2224SOL     OW18130   4.310   2.663   8.658 -0.9364  0.2901  0.2558
 2224SOL    HW118131   4.307   2.624   8.746  0.2251 -1.6557 -0.5740
 2224SOL    HW218132   4.270   2.750   8.668 -2.7618 -0.4162 -1.0118
 2225SOL     OW18133   1.998   2.704   3.127  0.2916 -0.1050 -0.3030
 2225SOL    HW118134   2.073   2.758   3.103  0.1813 -0.4627 -1.4699
 2225SOL    HW218135   2.042   2.653   3.195 -1.0546 -0.3667  0.3736
 2226SOL     OW18136   4.132   3.605  12.330 -0.5967  0.2227  0.5252
 2226SOL    HW118137   4.146   3.573  12.419  1.2492 -0.7026 -0.1119
 2226SOL    HW218138   4.081   3.685  12.345  2.6544  2.2144  0.9404
 2227SOL     OW18139   3.498   4.097   1.265 -0.1499  0.4199 -0.3801
 2227SOL    HW118140   3.529   4.034   1.331  1.0909  0.5281 -0.8517
 2227SOL    HW218141   3.513   4.184   1.302  1.2235  0.6133 -1.3811
 2228SOL     OW18142   3.771   2.887  12.737  1.0804 -0.3868 -0.4013
 2228SOL    HW118143   3.824   2.882  12.816 -0.2390 -2.4635  0.3284
 2228SOL    HW218144   3.684   2.878  12.775  0.6212  1.7944 -0.9040
 2229SOL     OW18145   1.280   2.500   4.865 -0.1016  0.1815 -0.4035
 2229SOL    HW118146   1.241   2.509   4.952 -0.9325 -4.9370 -0.2574
 2229SOL    HW218147   1.296   2.593   4.851 -1.1960  0.3159 -0.7119
 2230SOL     OW18148   4.158   1.469   7.579  0.2346 -0.5794  0.2911
 2230SOL    HW118149   4.109   1.539   7.622 -1.2143 -2.1838  1.2208
 2230SOL    HW218150   4.231   1.508   7.530 -0.4099 -1.0211 -1.0122
 2231SOL     OW18151   3.156   2.216   4.458 -0.1224  0.5128 -0.2037
 2231SOL    HW118152   3.184   2.150   4.393  0.3367  2.4134 -1.9443
 2231SOL    HW218153   3.097   2.272   4.408  0.7059 -0.0183 -1.7830
 2232SOL     OW18154   4.402   4.178   6.818 -0.3834  0.4542  0.2862
 2232SOL    HW118155   4.411   4.194   6.724 -0.0505 -0.7675  0.1089
 2232SOL    HW218156   4.403   4.267   6.852  4.2360 -0.6241  3.0178
 2233SOL     OW18157   4.384   3.750   5.953  0.5006 -0.1987  0.5390
 2233SOL    HW118158   4.290   3.736   5.940  1.1433 -2.8436 -1.1755
 2233SOL    HW218159   4.388   3.745   6.049 -0.4720  1.3214  0.6572
 2234SOL     OW18160   2.601   4.210   8.076 -0.3563  0.5034 -0.5373
 2234SOL    HW118161   2.508   4.194   8.065  0.0860 -2.4071 -0.0609
 2234SOL    HW218162   2.628   4.131   8.123 -0.3092  0.7070 -0.2204
 2235SOL     OW18163   0.611   1.222   5.800  0.2254  0.1288  0.5979
 2235SOL    HW118164   0.635   1.176   5.880 -0.3580 -1.3870 -0.1028
 2235SOL    HW218165   0.520   1.196   5.786  0.2175 -1.2763  3.3974
 2236SOL     OW18166   2.598   3.495   1.810  0.6394 -0.4083 -0.0600
 2236SOL    HW118167   2.569   3.495   1.719 -0.5114  0.9796  0.3074
 2236SOL    HW218168   2.543   3.424   1.843 -0.1052  1.2192  2.2325
 2237SOL     OW18169   1.163   1.454  13.313 -0.2345 -0.1466 -0.4577
 2237SOL    HW118170   1.249   1.480  13.278 -0.1955  0.3280 -0.0018
 2237SOL    HW218171   1.126   1.536  13.344 -3.5088 -1.7193 -0.2585
 2238SOL     OW18172   1.470   1.352   7.320 -0.1058  0.0793 -0.7621
 2238SOL    HW118173   1.457   1.330   7.413  0.4993 -1.4656 -1.0483
 2238SOL    HW218174   1.564   1.369   7.317  0.0408 -0.3299  1.5750
 2239SOL     OW18175   2.701   4.160   4.132  0.2267 -0.2998  0.1269
 2239SOL    HW118176   2.673   4.198   4.048 -0.8969 -3.1464 -0.7971
 2239SOL    HW218177   2.745   4.237   4.167  0.1504  0.6045 -1.7254
 2240SOL     OW18178   2.624   1.875  13.181 -0.3052 -0.5963  0.0973
 2240SOL    HW118179   2.713   1.848  13.207 -0.0326 -1.2325 -1.4932
 2240SOL    HW218180   2.624   1.968  13.160  0.6312 -0.6356 -0.0813
 2241SOL     OW18181   2.757   2.462   1.844  0.1551 -0.3186 -0.6812
 2241SOL    HW118182   2.775   2.555   1.862  0.3920 -0.2246 -1.4122
 2241SOL    HW218183   2.734   2.428   1.931 -2.1667 -0.9410 -1.5386
 2242SOL     OW18184   1.357   1.372  10.146  0.4857 -0.4835  0.4128
 2242SOL    HW118185   1.287   1.329  10.195 -0.4970  0.9075  0.2107
 2242SOL    HW218186   1.372   1.436  10.215  0.7497 -0.4988  0.3681
 2243SOL     OW18187   3.244   1.166   6.760 -0.3382  0.2274 -0.4694
 2243SOL    HW118188   3.309   1.096   6.751  0.4455  0.8178  0.5858
 2243SOL    HW218189   3.232   1.212   6.677 -1.1026 -0.4409 -0.7360
 2244SOL     OW18190   3.439   1.621   0.675 -0.2513 -0.4850 -0.2906
 2244SOL    HW118191   3.355   1.638   0.719  0.8966  2.4105  0.7549
 2244SOL    HW218192   3.470   1.704   0.641 -0.0310 -0.3815  0.1642
 2245SOL     OW18193   1.427   2.691  15.219  0.4519 -0.1654  0.2015
 2245SOL    HW118194   1.489   2.629  15.180 -0.9470 -0.0502 -2.1673
 2245SOL    HW218195   1.484   2.734  15.283  0.5043  2.3230 -1.5469
 2246SOL     OW18196   4.195   4.522   1.483  0.1540  0.3824  0.0244
 2246SOL    HW118197   4.261   4.466   1.442  0.0902  0.2169  0.1474
 2246SOL    HW218198   4.173   4.597   1.427 -2.1016 -0.9506 -0.9238
 2247SOL     OW18199   0.450   2.629   4.572 -0.3882 -0.2062 -0.0427
 2247SOL    HW118200   0.436   2.720   4.548  0.9351 -0.1364 -0.5466
 2247SOL    HW218201   0.515   2.657   4.636 -1.1302 -0.1348  0.6648
 2248SOL     OW18202   0.345   3.507   2.627  0.2212 -0.1528  0.2555
 2248SOL    HW118203   0.366   3.448   2.699  1.6081  1.1964  0.9571
 2248SOL    HW218204   0.331   3.444   2.556  1.6988 -0.4674  0.2395
 2249SOL     OW18205   0.374   2.507   5.215 -0.5560 -0.6479  0.1087
 2249SOL    HW118206   0.416   2.450   5.280 -2.1878 -2.0727 -0.0913
 2249SOL    HW218207   0.434   2.505   5.141  1.1341 -0.1469  1.4676
 2250SOL     OW18208   2.852   2.204   2.739 -0.0844 -0.9607 -0.1606
 2250SOL    HW118209   2.825   2.234   2.652  1.3362 -2.5123 -1.1429
 2250SOL    HW218210   2.925   2.145   2.720  1.1268 -0.2674  2.2649
 2251SOL     OW18211   1.976   0.599   2.474  0.4255 -0.2338 -0.1773
 2251SOL    HW118212   1.890   0.639   2.460  0.2241 -0.0533  1.5638
 2251SOL    HW218213   2.017   0.672   2.520  0.8634 -0.2116 -0.5983
 2252SOL     OW18214   3.938   0.682   4.059 -0.0320 -0.5208 -0.4529
 2252SOL    HW118215   3.903   0.725   4.137 -1.6735 -1.0659 -0.8770
 2252SOL    HW218216   3.886   0.734   3.997 -0.0311 -1.4569 -1.2314
 2253SOL     OW18217   3.694   4.007  13.197 -0.0532 -0.0252  0.2887
 2253SOL    HW118218   3.627   3.948  13.161  0.7871 -0.2570 -0.8973
 2253SOL    HW218219   3.671   4.003  13.289  0.7890 -1.2829  0.4526
 2254SOL     OW18220   4.425   3.817   7.292  0.3357 -0.5078 -0.8101
 2254SOL    HW118221   4.464   3.873   7.225  0.4019  2.9457  2.1294
 2254SOL    HW218222   4.373   3.880   7.342  1.1254 -0.4998 -0.0148
 2255SOL     OW18223   3.709   4.541   5.928  0.1562 -0.1552  0.5843
 2255SOL    HW118224   3.723   4.570   5.838 -2.6677  1.4385  0.6854
 2255SOL    HW218225   3.692   4.447   5.928  1.0567 -0.3240  1.0790
 2256SOL     OW18226   3.319   3.269  15.537 -0.0560  0.6122  0.8601
 2256SOL    HW118227   3.409   3.272  15.504 -0.5718  0.1194 -0.5945
 2256SOL    HW218228   3.264   3.261  15.459  1.0825 -1.6325  0.2935
 2257SOL     OW18229   3.493   3.397   6.216  0.1391 -0.2379  0.4185
 2257SOL    HW118230   3.575   3.367   6.257  0.0628 -1.4196 -0.2805
 2257SOL    HW218231   3.524   3.479   6.179 -2.2209  0.6914  0.5278
 2258SOL     OW18232   0.121   3.329   1.564 -0.4430  0.1236 -0.1644
 2258SOL    HW118233   0.089   3.392   1.628 -1.9311 -2.0833  1.2519
 2258SOL    HW218234   0.043   3.282   1.534 -1.1918  0.9838  0.4361
 2259SOL     OW18235   3.837   4.265   1.916  0.4912 -0.2342  0.3474
 2259SOL    HW118236   3.810   4.202   1.982  1.8614 -1.3551 -0.1542
 2259SOL    HW218237   3.848   4.340   1.974 -0.1181 -0.0482  0.2329
 2260SOL     OW18238   2.330   2.077   5.734  0.2331 -0.2380  0.5929
 2260SOL    HW118239   2.357   2.007   5.674 -0.4058  1.1470 -1.3244
 2260SOL    HW218240   2.244   2.037   5.752  1.1482 -1.8166  1.4032
 2261SOL     OW18241   3.010   2.840   4.152 -0.3687  0.0488 -0.4128
 2261SOL    HW118242   2.946   2.769   4.162 -3.5793  3.1897  1.6357
 2261SOL    HW218243   2.996   2.896   4.228  0.0975  0.1488 -0.4023
 2262SOL     OW18244   4.692   0.484   6.931  0.3914  0.1337  0.6354
 2262SOL    HW118245   0.026   0.503   7.006 -1.2021 -1.0080  2.1081
 2262SOL    HW218246   4.631   0.556   6.943  1.7364  1.4851 -0.6185
 2263SOL     OW18247   0.030   4.591   4.945 -0.4872 -0.1335  0.2931
 2263SOL    HW118248   0.102   4.533   4.919 -0.3597 -0.4531  1.3814
 2263SOL    HW218249   0.071   4.653   5.005 -1.0610  0.9036 -0.3840
 2264SOL     OW18250   0.699   2.444  12.219 -0.0811  0.1243  0.2329
 2264SOL    HW118251   0.724   2.519  12.273  1.1019  0.8636 -1.3339
 2264SOL    HW218252   0.779   2.424  12.170  1.0044 -0.7701  2.3561
 2265SOL     OW18253   2.111   3.194   4.063 -0.4048  0.0437 -0.3397
 2265SOL    HW118254   2.180   3.258   4.084  0.1831 -0.9300  0.7486
 2265SOL    HW218255   2.170   3.119   4.056  0.2090  0.4543  0.3474
 2266SOL     OW18256   2.972   3.494   9.049  0.0420 -0.2065  0.0762
 2266SOL    HW118257   2.962   3.463   8.959 -0.7545  1.7410 -0.4984
 2266SOL    HW218258   3.068   3.501   9.046 -0.1349  2.7119  1.6664
 2267SOL     OW18259   3.364   2.360   2.782 -0.3782 -0.4410  0.2952
 2267SOL    HW118260   3.288   2.414   2.804  0.8205  1.2619  0.2752
 2267SOL    HW218261   3.315   2.291   2.738 -2.9188  1.2178  0.5320
 2268SOL     OW18262   0.264   3.426  11.125  0.1059 -0.1290  0.1277
 2268SOL    HW118263   0.330   3.491  11.100 -0.1967 -0.0860 -0.5654
 2268SOL    HW218264   0.197   3.474  11.172  0.4613 -1.7706  2.2842
 2269SOL     OW18265   3.882   3.298   2.938 -0.3154  0.4609 -0.3100
 2269SOL    HW118266   3.913   3.336   2.856 -2.1883  1.3069 -0.6181
 2269SOL    HW218267   3.904   3.205   2.933  0.7703  0.5810  1.8376
 2270SOL     OW18268   3.334   4.330   1.482  0.3501 -0.6761  0.1703
 2270SOL    HW118269   3.357   4.412   1.440  0.3952  0.0140  1.5317
 2270SOL    HW218270   3.418   4.295   1.512  0.5208  1.0321  1.6680
 2271SOL     OW18271   1.342   3.391   8.151  0.4051  0.3802  0.1395
 2271SOL    HW118272   1.300   3.400   8.237  0.7239 -0.2248  0.3606
 2271SOL    HW218273   1.321   3.301   8.125  2.5317 -0.1693  0.2611
 2272SOL     OW18274   1.752   3.581   0.777  0.2408 -0.2640 -0.0187
 2272SOL    HW118275   1.674   3.637   0.784  2.1163  2.4941 -0.8396
 2272SOL    HW218276   1.768   3.571   0.871 -1.3588 -1.6697  0.1089
 2273SOL     OW18277   1.354   3.753   3.458 -0.5284 -0.3185  0.6790
 2273SOL    HW118278   1.373   3.845   3.439  1.2749 -1.0129 -0.8933
 2273SOL    HW218279   1.362   3.715   3.371 -1.5490 -1.8785  1.2576
 2274SOL     OW18280   0.672   4.709   5.209 -0.0063  0.0085  0.2093
 2274SOL    HW118281   0.583   4.679   5.230 -0.9442  0.0841 -3.6658
 2274SOL    HW218282   0.711   4.632   5.167 -0.9815  0.0879 -0.8361
 2275SOL     OW18283   1.245   4.233   8.979 -0.1816  0.4397 -0.0742
 2275SOL    HW118284   1.316   4.194   8.927  0.1921  1.6120 -0.4311
 2275SOL    HW218285   1.171   4.175   8.960 -1.7018  2.5560 -0.5514
 2276SOL     OW18286   3.790   1.127  17.182 -0.9628 -0.4366  0.2919
 2276SOL    HW118287   3.716   1.118  17.242 -0.8375 -1.9090  0.2224
 2276SOL    HW218288   3.861   1.171  17.228 -0.4397  0.1173 -1.0859
 2277SOL     OW18289   1.568   1.545  15.528  0.0534 -0.7516  0.0284
 2277SOL    HW118290   1.634   1.500  15.581  1.2842  0.1454 -0.7484
 2277SOL    HW218291   1.490   1.550  15.584 -0.2737  2.7549 -0.7247
 2278SOL     OW18292   2.925   4.696   3.343 -0.2423  0.1487  0.2129
 2278SOL    HW118293   2.943   4.617   3.394  0.8906  0.6630  0.6001
 2278SOL    HW218294   2.831   4.699   3.361 -0.4046  0.0085 -0.6374
 2279SOL     OW18295   0.649   4.317   6.336 -0.6199 -0.1526 -0.5425
 2279SOL    HW118296   0.709   4.350   6.403 -1.2009 -0.9850  0.3783
 2279SOL    HW218297   0.578   4.273   6.383 -0.2515  0.0452  0.1988
 2280SOL     OW18298   3.809   0.759  15.717  0.1959  0.4981  0.6202
 2280SOL    HW118299   3.723   0.801  15.726 -0.3451 -0.1260 -1.5389
 2280SOL    HW218300   3.852   0.735  15.799 -0.1544 -2.3066 -0.0358
 2281SOL     OW18301   0.420   3.905   2.804 -0.0205  0.0676 -0.3683
 2281SOL    HW118302   0.350   3.852   2.767 -2.1206  0.7515  2.6189
 2281SOL    HW218303   0.489   3.840   2.810  0.4404  0.4908 -1.0748
 2282SOL     OW18304   1.910   4.112   2.950  0.1679 -0.1104  0.2147
 2282SOL    HW118305   1.913   4.110   2.855  1.8445 -0.4273  0.2821
 2282SOL    HW218306   1.815   4.124   2.962  0.2781 -0.4786  1.4639
 2283SOL     OW18307   4.547   0.253  13.050 -0.6239  0.2548 -0.3307
 2283SOL    HW118308   4.485   0.306  13.100  0.8278  0.4106  1.2873
 2283SOL    HW218309   4.622   0.253  13.110 -0.6983 -1.2384 -0.2342
 2284SOL     OW18310   3.873   1.962   3.848  0.1224  0.3030 -0.2619
 2284SOL    HW118311   3.914   2.047   3.833 -0.8138  0.9844  1.0375
 2284SOL    HW218312   3.947   1.903   3.861 -0.4299 -0.7293 -1.8410
 2285SOL     OW18313   4.656   1.106   7.489 -0.1005 -1.0908  0.1955
 2285SOL    HW118314   4.678   1.184   7.540 -1.2945 -1.4655  1.3134
 2285SOL    HW218315   4.561   1.104   7.504  0.1907  1.5913  2.4215
 2286SOL     OW18316   1.031   4.616   7.165 -0.0779  0.4665  0.4301
 2286SOL    HW118317   0.952   4.666   7.186 -0.0929  0.9285 -0.7444
 2286SOL    HW218318   1.098   4.685   7.167 -0.3284  0.7036  0.6961
 2287SOL     OW18319   0.173   4.659   2.941 -0.2217  0.2872 -0.0924
 2287SOL    HW118320   0.194   4.635   2.851 -2.0599 -1.5234 -0.0355
 2287SOL    HW218321   0.260   4.643   2.979  0.0925 -1.0838 -1.3671
 2288SOL     OW18322   0.420   0.274   3.799 -0.1132  0.3202  0.0681
 2288SOL    HW118323   0.446   0.347   3.743  2.0977 -0.7276 -0.2974
 2288SOL    HW218324   0.381   0.218   3.732  0.0419  0.4954 -0.1700
 2289SOL     OW18325   0.083   2.980   5.205  0.1312  0.2549  0.3171
 2289SOL    HW118326   0.144   2.919   5.162 -0.5538  0.7673 -1.3734
 2289SOL    HW218327   0.132   3.024   5.274 -0.4522  2.2201 -0.5372
 2290SOL     OW18328   4.097   1.923   8.865 -0.8412 -0.4084  0.1325
 2290SOL    HW118329   4.130   1.851   8.919  1.9502  0.7635 -0.0365
 2290SOL    HW218330   4.070   1.989   8.929 -3.4561 -1.5828  0.2620
 2291SOL     OW18331   2.324   0.405   4.800 -0.1498  0.4300 -0.6581
 2291SOL    HW118332   2.246   0.362   4.764 -0.6218  3.1471 -2.9576
 2291SOL    HW218333   2.382   0.400   4.724  0.2644  1.1291 -0.3871
 2292SOL     OW18334   3.788   2.383   5.437 -0.3085  0.3119 -0.1525
 2292SOL    HW118335   3.814   2.379   5.529  0.8820 -0.3917 -0.5123
 2292SOL    HW218336   3.759   2.474   5.430 -0.8632  0.1326 -0.1283
 2293SOL     OW18337   2.127   2.555   9.932 -0.0856  0.2391 -0.0220
 2293SOL    HW118338   2.142   2.468   9.896 -0.0011 -0.1357  0.9479
 2293SOL    HW218339   2.099   2.593   9.848  0.8303 -0.2029 -0.5153
 2294SOL     OW18340   1.310   4.332   1.361  0.1447 -0.3945  0.0284
 2294SOL    HW118341   1.400   4.322   1.331  0.1310  1.1691 -0.5384
 2294SOL    HW218342   1.311   4.297   1.450  1.0933  1.6169  0.8078
 2295SOL     OW18343   3.054   4.629   7.733  0.3363 -0.0493  0.2954
 2295SOL    HW118344   3.068   4.559   7.669  0.8525 -1.5164  1.9981
 2295SOL    HW218345   2.971   4.661   7.698  0.5545 -1.8102 -1.8349
 2296SOL     OW18346   4.058   0.652   3.178  0.3393 -0.1880 -0.1398
 2296SOL    HW118347   4.018   0.738   3.162 -1.3011 -0.9263  0.0124
 2296SOL    HW218348   3.982   0.595   3.184  0.7856 -0.8432 -0.7962
 2297SOL     OW18349   1.870   0.176   7.405 -0.3594 -0.5094  0.4495
 2297SOL    HW118350   1.903   0.239   7.468  2.4449 -0.1600 -1.4024
 2297SOL    HW218351   1.852   0.100   7.461  2.2087 -0.4154  1.3772
 2298SOL     OW18352   3.575   2.502   2.583 -0.0377  0.1696  0.0925
 2298SOL    HW118353   3.492   2.491   2.536 -0.4192  1.0112  0.5711
 2298SOL    HW218354   3.559   2.444   2.658 -2.0859  0.2948 -0.2297
 2299SOL     OW18355   4.242   3.791   8.048  0.0801  0.2651 -0.9896
 2299SOL    HW118356   4.305   3.735   8.094  1.7098  1.6071 -1.5533
 2299SOL    HW218357   4.225   3.852   8.119 -1.3632 -0.1435 -0.9867
 2300SOL     OW18358   2.600   4.046   6.706  0.2441 -0.1677  0.2656
 2300SOL    HW118359   2.594   4.044   6.801  0.9971 -0.1900  0.3093
 2300SOL    HW218360   2.571   4.136   6.692 -1.3823 -0.7440 -0.1949
 2301SOL     OW18361   0.470   0.422   5.270 -0.7139 -0.0321  0.4754
 2301SOL    HW118362   0.543   0.479   5.292 -0.5368 -1.4334  3.5470
 2301SOL    HW218363   0.514   0.356   5.217 -0.2004  0.2673  0.5340
 2302SOL     OW18364   4.360   2.831   4.839 -0.5534 -0.3594 -0.3608
 2302SOL    HW118365   4.302   2.896   4.879  0.4187 -0.8460  1.8018
 2302SOL    HW218366   4.388   2.795   4.922 -1.7369 -1.0109 -0.2453
 2303SOL     OW18367   3.183   1.131   7.340  0.0116 -0.3092 -0.2627
 2303SOL    HW118368   3.101   1.132   7.290  0.3837  0.0662 -0.8610
 2303SOL    HW218369   3.251   1.147   7.275 -1.4600 -1.3845 -2.0496
 2304SOL     OW18370   3.792   4.593   9.924  0.4177 -0.2944  0.1069
 2304SOL    HW118371   3.821   4.684   9.937 -0.7852  0.3402 -1.6689
 2304SOL    HW218372   3.721   4.578   9.986 -1.1328  1.5122 -1.2078
 2305SOL     OW18373   1.745   3.888   4.984  0.2371 -0.3798 -0.1484
 2305SOL    HW118374   1.791   3.935   5.054  0.8727 -0.2035 -0.6931
 2305SOL    HW218375   1.758   3.949   4.911 -0.5810  3.7476  3.1021
 2306SOL     OW18376   1.485   1.900  14.991  0.0373 -0.0083  0.5557
 2306SOL    HW118377   1.438   1.955  15.053  2.6898  1.7655  0.9540
 2306SOL    HW218378   1.551   1.860  15.047  0.0091  0.6801  1.0686
 2307SOL     OW18379   0.141   1.256   3.600  0.3918  0.5011  0.5416
 2307SOL    HW118380   0.114   1.169   3.631 -2.7048  1.2498 -0.0670
 2307SOL    HW218381   0.174   1.236   3.513 -0.2106  1.6425  0.0558
 2308SOL     OW18382   1.072   2.581   7.609 -0.1632  0.0944  0.2946
 2308SOL    HW118383   1.041   2.555   7.696  0.6745 -0.0707  0.5380
 2308SOL    HW218384   0.996   2.635   7.585 -0.8197 -1.1051 -0.2995
 2309SOL     OW18385   0.363   0.775   7.232  0.5877  0.9919 -0.0159
 2309SOL    HW118386   0.349   0.845   7.169 -2.6672  0.3048 -0.0299
 2309SOL    HW218387   0.288   0.783   7.291 -0.0217 -0.5792 -0.5665
 2310SOL     OW18388   4.616   0.840   5.505 -0.0688 -0.0527 -0.6523
 2310SOL    HW118389   4.705   0.842   5.541 -0.1049 -1.2083 -0.5077
 2310SOL    HW218390   4.564   0.885   5.572  1.7738  1.9446 -0.5665
 2311SOL     OW18391   2.723   3.992   8.708  0.2659 -0.0972 -0.1340
 2311SOL    HW118392   2.712   3.969   8.800 -0.3863  2.7940  0.5290
 2311SOL    HW218393   2.802   4.047   8.705  1.1805 -1.3829  0.5168
 2312SOL     OW18394   0.957   3.925  16.851  0.6871  0.2599 -0.0129
 2312SOL    HW118395   0.885   3.880  16.806  0.4003 -0.4791  1.1970
 2312SOL    HW218396   0.908   3.962  16.925  0.5100 -1.1814  0.5828
 2313SOL     OW18397   3.588   0.210   0.975  0.0851 -0.3221 -0.0276
 2313SOL    HW118398   3.627   0.173   0.895  1.9516 -1.8516  1.6052
 2313SOL    HW218399   3.598   0.304   0.960 -0.6129 -0.4785 -1.5148
 2314SOL     OW18400   4.683   4.665  15.177  0.6628 -0.4204  0.1293
 2314SOL    HW118401   4.698   4.572  15.160 -1.0408 -0.4114 -1.5039
 2314SOL    HW218402   0.049   4.702  15.182  0.0450  0.9599  1.1083
 2315SOL     OW18403   4.228   4.301   5.212  0.0745  0.2303 -0.1634
 2315SOL    HW118404   4.159   4.253   5.165 -0.2473  1.2490 -0.7443
 2315SOL    HW218405   4.210   4.288   5.305 -1.8230  0.2462 -0.5159
 2316SOL     OW18406   2.054   1.471  11.728  0.2060 -0.0631 -0.4665
 2316SOL    HW118407   2.098   1.437  11.805 -0.2781 -0.4189 -0.3476
 2316SOL    HW218408   2.009   1.391  11.701  0.9054 -0.5193 -0.2657
 2317SOL     OW18409   0.124   4.302   6.844 -0.2247 -0.0306 -0.5720
 2317SOL    HW118410   0.121   4.396   6.822  1.4367 -0.0639 -0.9475
 2317SOL    HW218411   0.089   4.312   6.933  0.1979 -0.2518 -0.3771
 2318SOL     OW18412   2.440   1.533  11.819 -0.5218  0.8244 -0.6479
 2318SOL    HW118413   2.389   1.611  11.841 -4.1507 -1.4050 -1.1418
 2318SOL    HW218414   2.410   1.517  11.730 -2.0457  0.4466 -0.0590
 2319SOL     OW18415   0.445   0.408  17.218 -0.1869 -0.2176 -0.3544
 2319SOL    HW118416   0.463   0.474  17.284  1.4279 -0.6959 -0.3260
 2319SOL    HW218417   0.361   0.445  17.188 -0.0634  0.9347  0.7238
 2320SOL     OW18418   1.979   1.084   6.773  0.0823  0.0967 -0.4915
 2320SOL    HW118419   2.055   1.083   6.831 -0.2252  1.1549 -0.0636
 2320SOL    HW218420   1.967   1.179   6.765  2.8681  0.5175  0.1838
 2321SOL     OW18421   2.821   4.206   3.547  0.1672  0.4801  0.3950
 2321SOL    HW118422   2.773   4.288   3.557  1.2728  1.3981 -1.7803
 2321SOL    HW218423   2.817   4.179   3.455  2.0462  0.6430  0.2600
 2322SOL     OW18424   1.465   4.598   1.116  0.4163  0.6179 -0.2510
 2322SOL    HW118425   1.421   4.653   1.181  0.4105 -0.9034  1.0570
 2322SOL    HW218426   1.413   4.613   1.038  0.1237 -0.5443 -0.2799
 2323SOL     OW18427   4.033   0.667   3.680 -0.2390  0.3570 -0.0012
 2323SOL    HW118428   4.062   0.584   3.643 -1.2445  0.0728 -0.1697
 2323SOL    HW218429   4.038   0.723   3.603 -1.2978 -0.1630 -0.4506
 2324SOL     OW18430   2.947   2.301  16.484 -0.1768 -0.3183 -0.0395
 2324SOL    HW118431   3.010   2.369  16.506  0.0110 -0.1150 -1.2221
 2324SOL    HW218432   2.865   2.349  16.469 -0.8482 -1.6827 -0.7095
 2325SOL     OW18433   0.083   4.680   3.677 -0.0077 -0.4767  0.7009
 2325SOL    HW118434   0.021   4.679   3.605  1.0989  2.9195 -0.2919
 2325SOL    HW218435   0.035   4.644   3.751 -1.2290  0.8182  0.5398
 2326SOL     OW18436   2.084   4.712  12.597 -0.2112 -0.1884  0.4850
 2326SOL    HW118437   2.146   0.053  12.562 -0.4785  0.0954  0.5273
 2326SOL    HW218438   2.008   0.042  12.620  0.0402  0.8898 -1.1445
 2327SOL     OW18439   3.243   3.859  12.669 -0.7983 -0.1841 -0.2175
 2327SOL    HW118440   3.163   3.906  12.693  1.1278  4.1293 -2.3961
 2327SOL    HW218441   3.281   3.842  12.755  0.5263  0.4549 -0.6773
 2328SOL     OW18442   0.236   4.336   8.368  0.4613  0.4553 -0.1716
 2328SOL    HW118443   0.294   4.399   8.411  0.9247  1.2878 -2.0294
 2328SOL    HW218444   0.266   4.253   8.406 -0.3230 -0.6162 -1.9095
 2329SOL     OW18445   2.986   1.185   3.807 -0.3516 -0.0642  0.0883
 2329SOL    HW118446   2.957   1.108   3.856  0.7189 -0.0460  0.7551
 2329SOL    HW218447   3.052   1.224   3.864  2.1184  1.3823 -3.7438
 2330SOL     OW18448   1.786   3.169   2.325  0.1169 -0.3681 -0.0612
 2330SOL    HW118449   1.817   3.259   2.313 -0.9240  0.4144  2.9790
 2330SOL    HW218450   1.866   3.129   2.360  0.7804  1.6624  0.7892
 2331SOL     OW18451   2.783   2.272   2.470 -0.3985 -0.5134  0.3515
 2331SOL    HW118452   2.794   2.363   2.497 -2.5191  0.1059 -0.8837
 2331SOL    HW218453   2.699   2.269   2.426 -0.1106  0.5996 -0.2788
 2332SOL     OW18454   4.437   2.517   9.384  0.1898 -0.2085 -0.2188
 2332SOL    HW118455   4.410   2.521   9.476 -0.0105  1.1309 -0.3324
 2332SOL    HW218456   4.456   2.610   9.387 -3.0528  0.4656 -0.1343
 2333SOL     OW18457   4.379   0.450   6.759  0.0440  0.1697 -0.0591
 2333SOL    HW118458   4.317   0.404   6.702  0.1574 -1.2626  0.9570
 2333SOL    HW218459   4.360   0.401   6.839  1.2692  0.3250  0.3186
 2334SOL     OW18460   2.411   0.866   6.572  0.4640  0.5771 -0.1015
 2334SOL    HW118461   2.344   0.932   6.556  0.1266  0.4006  0.5912
 2334SOL    HW218462   2.364   0.783   6.564  1.0101  0.2127  0.4975
 2335SOL     OW18463   4.202   1.722   4.069 -0.2912  0.1710 -0.1270
 2335SOL    HW118464   4.282   1.670   4.071 -0.7183 -0.4525  0.4401
 2335SOL    HW218465   4.233   1.811   4.084 -1.2934  0.9598 -2.6125
 2336SOL     OW18466   0.758   3.314   4.412  0.0456  0.6672  0.1389
 2336SOL    HW118467   0.750   3.381   4.481  2.1161  1.6916 -0.6126
 2336SOL    HW218468   0.790   3.362   4.336  1.7864 -0.2048  0.3212
 2337SOL     OW18469   1.706   1.458  17.518  0.9865 -0.5565  0.1245
 2337SOL    HW118470   1.784   1.490  17.563  0.7909  0.4548 -0.2538
 2337SOL    HW218471   1.731   1.480  17.429  2.1226 -0.4587  0.4747
 2338SOL     OW18472   3.366   0.765   2.720  0.4794  0.2597 -0.1206
 2338SOL    HW118473   3.339   0.689   2.771 -1.3553  0.7842 -0.3117
 2338SOL    HW218474   3.287   0.819   2.724  2.2907  3.0086 -1.5651
 2339SOL     OW18475   2.400   0.910   2.586 -0.1151  0.6189 -0.1137
 2339SOL    HW118476   2.373   0.858   2.510 -1.3249  1.3679 -0.1941
 2339SOL    HW218477   2.376   1.001   2.568 -1.8958  0.3015  0.6522
 2340SOL     OW18478   0.877   2.721   4.960 -0.4612 -0.3751 -0.3767
 2340SOL    HW118479   0.948   2.664   4.932  0.4835  1.0502 -0.8540
 2340SOL    HW218480   0.919   2.781   5.021  1.8592  1.2632 -3.6279
 2341SOL     OW18481   3.723   2.258   7.802  0.3346 -0.1288  0.1205
 2341SOL    HW118482   3.735   2.257   7.707 -1.1496 -2.5634 -0.0371
 2341SOL    HW218483   3.758   2.173   7.827  1.3133  0.4944  0.8828
 2342SOL     OW18484   4.273   4.105   5.622  0.1722 -0.2637 -0.2244
 2342SOL    HW118485   4.340   4.153   5.574 -0.5253  1.9621  0.9806
 2342SOL    HW218486   4.331   4.050   5.675 -0.9135 -1.4095 -0.2163
 2343SOL     OW18487   2.864   2.800   3.526  0.3189  0.2607 -0.2565
 2343SOL    HW118488   2.830   2.845   3.448 -1.9196  0.2333  0.6953
 2343SOL    HW218489   2.882   2.712   3.493  1.4500  0.4962 -0.2803
 2344SOL     OW18490   1.559   2.770   1.699  0.0670 -0.8585  0.2353
 2344SOL    HW118491   1.487   2.776   1.637  0.0798  1.2395  0.4114
 2344SOL    HW218492   1.614   2.694   1.682 -0.0879 -0.8218 -0.4255
 2345SOL     OW18493   1.387   4.672   7.118 -0.5333 -0.3447  0.1078
 2345SOL    HW118494   1.419   4.706   7.034  1.8348 -1.1001  0.7035
 2345SOL    HW218495   1.369   0.031   7.164  0.0167  0.4141 -1.0246
 2346SOL     OW18496   3.355   2.036  17.534  0.2183 -0.2718 -0.4347
 2346SOL    HW118497   3.411   2.092  17.588  2.9170 -2.1791 -1.2196
 2346SOL    HW218498   3.344   2.098  17.463  0.4605 -1.3361 -1.4027
 2347SOL     OW18499   4.144   3.269   3.236 -0.1826  0.0488  0.0348
 2347SOL    HW118500   4.237   3.253   3.221 -0.5222 -0.3772 -1.5912
 2347SOL    HW218501   4.133   3.364   3.236 -1.2437 -0.0853  3.8262
 2348SOL     OW18502   1.678   0.754   3.065 -0.0492  0.1620 -0.0221
 2348SOL    HW118503   1.680   0.664   3.033 -1.0697 -0.1445  0.7719
 2348SOL    HW218504   1.610   0.790   3.008  0.1642  0.4794 -0.0782
 2349SOL     OW18505   2.606   0.542   5.807  0.0635  0.0810 -0.6855
 2349SOL    HW118506   2.527   0.492   5.785  1.2440 -1.5690 -1.1418
 2349SOL    HW218507   2.662   0.465   5.795  0.0754 -0.1022  0.5828
 2350SOL     OW18508   2.701   0.148   3.699 -0.6933 -0.0014  0.1341
 2350SOL    HW118509   2.667   0.109   3.780  0.1109 -1.6503 -0.3219
 2350SOL    HW218510   2.674   0.239   3.715  1.8122  0.6516  0.6776
 2351SOL     OW18511   0.555   2.855   3.445  0.2295  0.1836  0.1015
 2351SOL    HW118512   0.572   2.860   3.351 -0.8580 -1.8286 -0.2066
 2351SOL    HW218513   0.485   2.790   3.457  0.1880  0.0067 -1.1757
 2352SOL     OW18514   3.227   0.463   6.896  0.4318 -0.0002 -0.4755
 2352SOL    HW118515   3.254   0.405   6.968 -0.4255  1.3142  0.9063
 2352SOL    HW218516   3.133   0.474   6.910  0.8688 -0.1892  2.5709
 2353SOL     OW18517   0.688   0.043  13.485 -0.0781  0.4933  0.3578
 2353SOL    HW118518   0.658   0.102  13.416 -0.3995 -1.2607 -1.0093
 2353SOL    HW218519   0.612   4.720  13.523 -1.8615  1.1985 -2.3862
 2354SOL     OW18520   3.659   2.218  15.590  0.0791 -0.0892  0.6101
 2354SOL    HW118521   3.686   2.304  15.559 -1.5638  0.4145  0.5662
 2354SOL    HW218522   3.588   2.188  15.533 -0.1503 -0.5104  1.1107
 2355SOL     OW18523   1.803   4.710   7.599  0.5059 -0.2297  0.3150
 2355SOL    HW118524   1.709   4.712   7.618  1.0728  0.4123  3.0455
 2355SOL    HW218525   1.829   4.686   7.688  0.6733  0.3320  0.4215
 2356SOL     OW18526   2.346   0.738   0.808 -0.3809 -0.3538  0.1528
 2356SOL    HW118527   2.293   0.803   0.854  1.6702  1.2833  0.1721
 2356SOL    HW218528   2.295   0.661   0.832 -1.4538  0.2715 -0.1328
 2357SOL     OW18529   3.277   1.614  12.634 -0.1560  0.5404 -0.1273
 2357SOL    HW118530   3.200   1.573  12.595 -0.2922 -0.8066  1.5578
 2357SOL    HW218531   3.341   1.563  12.586 -2.4896 -1.6943 -0.8869
 2358SOL     OW18532   3.436   3.617  11.953  0.0918 -0.1885  0.7332
 2358SOL    HW118533   3.444   3.674  12.029  0.6646  1.3132 -0.4514
 2358SOL    HW218534   3.459   3.531  11.988 -0.3138 -0.0090  1.4436
 2359SOL     OW18535   1.536   1.882   8.933  0.4566  0.3332  0.5708
 2359SOL    HW118536   1.523   1.906   9.025  0.6945  1.9379  0.1792
 2359SOL    HW218537   1.607   1.942   8.913 -0.8536  1.2304 -1.3736
 2360SOL     OW18538   3.041   0.568   4.384 -0.0942 -0.9165  0.0173
 2360SOL    HW118539   3.123   0.611   4.363  0.1726 -2.6721 -2.5703
 2360SOL    HW218540   3.052   0.550   4.477  1.1439 -1.5001 -0.2462
 2361SOL     OW18541   1.594   4.296   2.441 -0.0438 -0.0312 -0.2886
 2361SOL    HW118542   1.516   4.267   2.394  0.0483 -0.4046 -0.2105
 2361SOL    HW218543   1.626   4.363   2.381  0.6390 -1.6781 -1.7854
 2362SOL     OW18544   0.590   2.383   8.638 -0.4272 -0.3341 -0.0535
 2362SOL    HW118545   0.656   2.446   8.666 -0.6992  0.5692 -1.5101
 2362SOL    HW218546   0.614   2.305   8.689  0.5601  0.9714  1.5077
 2363SOL     OW18547   2.283   0.134  12.803  0.2117 -0.0124  0.1200
 2363SOL    HW118548   2.210   0.192  12.783  1.9048  2.1740  0.3125
 2363SOL    HW218549   2.356   0.173  12.756  0.4826 -1.5610 -0.7561
 2364SOL     OW18550   0.923   2.194   3.020 -0.0206 -0.0030 -0.6177
 2364SOL    HW118551   0.841   2.184   2.970  0.0344 -0.3809 -0.6314
 2364SOL    HW218552   0.981   2.174   2.947 -0.5473  1.4669 -1.4369
 2365SOL     OW18553   0.376   2.747   1.354 -0.1779  0.6658  0.4596
 2365SOL    HW118554   0.470   2.735   1.364 -0.2083 -0.5941 -0.8497
 2365SOL    HW218555   0.370   2.730   1.260  0.1028  0.8527  0.4068
 2366SOL     OW18556   2.205   1.678   3.349 -0.0682 -0.1665  0.9207
 2366SOL    HW118557   2.204   1.747   3.283  0.4260 -0.3129  0.7666
 2366SOL    HW218558   2.155   1.717   3.421 -2.6025 -1.5176 -0.0788
 2367SOL     OW18559   0.812   1.692   3.700 -0.0745  0.2899 -0.0732
 2367SOL    HW118560   0.888   1.670   3.646  0.0739 -0.3054  0.3869
 2367SOL    HW218561   0.839   1.691   3.792 -0.9942  3.0677  0.2385
 2368SOL     OW18562   2.283   3.006  13.535 -0.6802 -0.1540 -0.1416
 2368SOL    HW118563   2.213   3.047  13.484  0.9915  1.0875 -1.4421
 2368SOL    HW218564   2.237   2.952  13.600  1.9602 -1.9351  0.2458
 2369SOL     OW18565   1.505   2.905   8.360 -0.1341  0.1409 -0.1553
 2369SOL    HW118566   1.564   2.977   8.383  1.4356 -1.6193  1.2928
 2369SOL    HW218567   1.419   2.944   8.377 -0.2724  0.0014 -0.5389
 2370SOL     OW18568   2.428   4.548   8.476  0.1536 -0.7319 -0.0216
 2370SOL    HW118569   2.357   4.603   8.509  0.9636 -0.8811  2.0140
 2370SOL    HW218570   2.409   4.460   8.508 -1.8613 -0.1051  0.4762
 2371SOL     OW18571   1.911   2.399   7.064  0.1385  0.1453 -0.1980
 2371SOL    HW118572   1.830   2.394   7.114 -0.0034  1.3290 -0.3261
 2371SOL    HW218573   1.962   2.329   7.106  0.0166  0.3959  0.3645
 2372SOL     OW18574   3.519   4.058  13.865 -0.1965  0.1353 -0.4873
 2372SOL    HW118575   3.552   4.063  13.775 -1.9046 -0.7300 -1.1705
 2372SOL    HW218576   3.437   4.106  13.861  0.5684  1.3396 -1.5903
 2373SOL     OW18577   3.335   2.417   3.937  0.6933  0.4569  0.1776
 2373SOL    HW118578   3.301   2.333   3.906  0.5255  1.5366 -2.5673
 2373SOL    HW218579   3.428   2.406   3.920  0.9084  0.3389  1.4106
 2374SOL     OW18580   4.408   3.125  12.989  0.3587  0.0580  0.8106
 2374SOL    HW118581   4.431   3.217  12.975  0.0246 -0.0341 -0.3524
 2374SOL    HW218582   4.324   3.128  12.943  2.4107 -2.2389 -3.1327
 2375SOL     OW18583   3.596   3.792   6.319  0.1619  0.0379  0.3188
 2375SOL    HW118584   3.638   3.878   6.314 -0.6734  0.4424  0.1125
 2375SOL    HW218585   3.594   3.782   6.414  2.1200  0.0608  0.3608
 2376SOL     OW18586   0.889   0.602   7.303  0.4843  0.4135 -0.1039
 2376SOL    HW118587   0.850   0.523   7.268 -0.0225  1.7651 -2.5984
 2376SOL    HW218588   0.818   0.660   7.275  1.8713  2.6208  0.9108
 2377SOL     OW18589   4.327   0.722   4.646  0.6953 -0.0543  0.1747
 2377SOL    HW118590   4.423   0.723   4.651  0.7410 -0.0053 -0.7428
 2377SOL    HW218591   4.320   0.655   4.578 -1.6899  0.8269 -0.4751
 2378SOL     OW18592   3.911   1.414   6.891 -0.1378  0.1612 -0.0727
 2378SOL    HW118593   3.894   1.478   6.960 -2.1780 -1.0424  0.5390
 2378SOL    HW218594   4.005   1.400   6.905 -0.4513 -0.4460  1.4627
 2379SOL     OW18595   1.287   1.340   5.792 -0.1310 -0.3633  0.2532
 2379SOL    HW118596   1.284   1.434   5.779  3.0470 -0.0514  1.5790
 2379SOL    HW218597   1.261   1.310   5.705 -1.7860  1.2865  0.1917
 2380SOL     OW18598   0.851   3.843   3.980  0.4410  0.2361  0.1544
 2380SOL    HW118599   0.870   3.914   4.041  1.2251  1.6727 -1.7595
 2380SOL    HW218600   0.790   3.796   4.037  0.1184 -1.1485 -1.3394
 2381SOL     OW18601   0.120   2.243   5.861 -0.2887 -0.5052 -0.2913
 2381SOL    HW118602   0.059   2.169   5.857  0.2602 -1.0152  0.6816
 2381SOL    HW218603   0.073   2.305   5.805  0.1700  0.2017  0.1102
 2382SOL     OW18604   4.703   2.943  17.010 -0.0830 -0.2134 -0.4682
 2382SOL    HW118605   4.697   2.985  16.924  1.1162  2.2008  0.6314
 2382SOL    HW218606   0.013   3.014  17.065  2.3698 -1.0657 -0.8110
 2383SOL     OW18607   4.463   1.413  12.849  0.6346 -0.3670 -0.9839
 2383SOL    HW118608   4.421   1.348  12.794 -0.3063  0.6533 -1.4525
 2383SOL    HW218609   4.547   1.372  12.871  1.6827  1.6161 -1.2893
 2384SOL     OW18610   1.134   2.259   1.537 -0.5164  1.3309 -0.4583
 2384SOL    HW118611   1.197   2.280   1.605 -1.0159  2.3670 -0.3064
 2384SOL    HW218612   1.198   2.231   1.471 -2.1818  1.2792 -2.0766
 2385SOL     OW18613   1.274   4.624  16.432  0.0053 -0.2969  0.1731
 2385SOL    HW118614   1.223   4.560  16.382  0.7404 -1.5589  1.0751
 2385SOL    HW218615   1.210   4.695  16.428  1.4396  1.0979  2.1690
 2386SOL     OW18616   0.021   4.121   6.313  0.2207 -0.5087  0.4475
 2386SOL    HW118617   4.681   4.120   6.240  0.9231 -0.1641 -0.1434
 2386SOL    HW218618   0.057   4.032   6.308 -0.2835 -0.6978  0.0813
 2387SOL     OW18619   1.727   1.309   4.021  0.3635 -0.1245 -0.3610
 2387SOL    HW118620   1.775   1.339   3.944 -0.2545 -0.0285 -0.7136
 2387SOL    HW218621   1.794   1.251   4.056  1.6529  1.4573 -0.1887
 2388SOL     OW18622   0.406   4.142  10.408 -0.2451  0.0333  0.5603
 2388SOL    HW118623   0.493   4.117  10.379  0.2331  0.6356  1.4897
 2388SOL    HW218624   0.360   4.065  10.443  0.4379 -0.5115  0.2512
 2389SOL     OW18625   3.387   1.372   9.645  0.1410 -0.4660  0.0599
 2389SOL    HW118626   3.449   1.382   9.717 -0.2135  2.1416  0.0116
 2389SOL    HW218627   3.433   1.404   9.567  2.1810 -2.2002  0.5482
 2390SOL     OW18628   2.094   0.274  11.603 -0.4912  0.5848 -0.2122
 2390SOL    HW118629   2.020   0.262  11.662 -1.0145 -2.6712 -1.5675
 2390SOL    HW218630   2.138   0.189  11.610  0.2845  1.0815  1.1305
 2391SOL     OW18631   2.982   1.847  13.584  0.3617 -0.5423  0.6314
 2391SOL    HW118632   2.975   1.761  13.542  1.3850  0.2128 -1.1244
 2391SOL    HW218633   3.056   1.825  13.641  1.0284 -1.1872 -0.4734
 2392SOL     OW18634   4.687   0.089   9.915 -0.0283  0.8613 -0.6154
 2392SOL    HW118635   0.052   0.110   9.950 -0.7973  0.5873  1.4348
 2392SOL    HW218636   4.634   0.161   9.947 -0.1619  0.0761  0.9559
 2393SOL     OW18637   3.693   1.824   8.282 -0.1080 -0.5594 -0.1728
 2393SOL    HW118638   3.731   1.836   8.369 -2.2911 -1.0968  0.8665
 2393SOL    HW218639   3.648   1.741   8.296  0.9896 -0.9958  0.7341
 2394SOL     OW18640   0.404   3.546   1.177 -0.3933 -0.6833 -0.2607
 2394SOL    HW118641   0.481   3.505   1.217  0.1691  0.3097 -0.3328
 2394SOL    HW218642   0.430   3.576   1.090  1.5012 -2.0109 -0.1511
 2395SOL     OW18643   4.086   2.992   4.249 -0.2480  0.0668  0.3698
 2395SOL    HW118644   4.144   2.933   4.202 -1.1953 -0.7078  0.1650
 2395SOL    HW218645   4.093   2.958   4.338 -2.4010 -0.3306  0.4000
 2396SOL     OW18646   0.546   1.337   1.067 -0.1075  0.0190 -0.7791
 2396SOL    HW118647   0.554   1.243   1.082 -0.5056  0.4608  2.3019
 2396SOL    HW218648   0.554   1.364   1.159  1.5427  1.5904 -1.3733
 2397SOL     OW18649   0.197   0.484  13.110  0.4407  0.1704 -0.3730
 2397SOL    HW118650   0.238   0.549  13.166 -2.5083  1.9566 -0.3390
 2397SOL    HW218651   0.248   0.497  13.030  0.8474 -1.5986 -0.4053
 2398SOL     OW18652   0.896   3.111   3.794 -0.1906  0.7281  0.2302
 2398SOL    HW118653   0.875   3.109   3.700  2.4950  0.9969 -0.3858
 2398SOL    HW218654   0.988   3.136   3.782  0.4725 -3.4420 -3.9063
 2399SOL     OW18655   2.913   3.819   7.374  0.3409 -0.3784  0.3568
 2399SOL    HW118656   2.876   3.751   7.318 -0.8059  0.7885 -0.2963
 2399SOL    HW218657   2.968   3.880   7.325  0.8263 -0.5247  0.7213
 2400SOL     OW18658   3.064   1.628  13.420  0.7690  0.0803 -0.1508
 2400SOL    HW118659   3.027   1.540  13.419  1.0305 -0.0316 -0.2218
 2400SOL    HW218660   3.145   1.610  13.372 -0.0960  1.7285 -2.2230
 2401SOL     OW18661   1.666   3.383   3.595 -0.3203 -1.1528 -0.1597
 2401SOL    HW118662   1.700   3.316   3.536 -1.1122 -1.6849 -0.0099
 2401SOL    HW218663   1.748   3.421   3.628  0.1454  0.2877 -2.9236
 2402SOL     OW18664   4.170   1.262   3.642  0.1168 -0.3151 -0.7644
 2402SOL    HW118665   4.121   1.266   3.724 -0.1531 -0.1750 -0.9303
 2402SOL    HW218666   4.212   1.177   3.652 -0.9053 -1.0519 -2.7221
 2403SOL     OW18667   0.350   3.722   4.634 -0.0021  0.2112 -0.1508
 2403SOL    HW118668   0.322   3.745   4.723  2.4962  1.6161  0.2862
 2403SOL    HW218669   0.336   3.810   4.600 -0.6802 -0.1196 -0.7126
 2404SOL     OW18670   3.202   0.125   0.944 -0.5345 -0.0519  0.1895
 2404SOL    HW118671   3.109   0.109   0.962 -0.4473  0.5305  1.1033
 2404SOL    HW218672   3.200   0.217   0.919 -1.0760 -0.4534 -1.2816
 2405SOL     OW18673   3.916   4.391   4.017 -0.1006  0.1224  0.3612
 2405SOL    HW118674   3.834   4.405   4.065 -2.2490 -2.6755 -2.4331
 2405SOL    HW218675   3.878   4.399   3.929 -1.4791  0.3814  0.9665
 2406SOL     OW18676   4.573   2.561   0.863 -0.1634  0.2088  0.0444
 2406SOL    HW118677   4.627   2.502   0.916 -1.4549 -0.7505  0.2957
 2406SOL    HW218678   4.612   2.553   0.776 -2.0760  0.6304 -0.8541
 2407SOL     OW18679   2.125   4.604   3.394  0.1642  0.1280 -0.3373
 2407SOL    HW118680   2.105   4.542   3.465 -0.4079  0.0115 -0.6077
 2407SOL    HW218681   2.112   4.687   3.440  1.6568  0.5642 -0.6866
 2408SOL     OW18682   3.240   0.043   2.611 -0.6501 -0.1670 -0.0945
 2408SOL    HW118683   3.165   0.040   2.670 -0.0533 -0.8326  0.6340
 2408SOL    HW218684   3.205   0.023   2.524 -0.2551 -0.0087 -0.2904
 2409SOL     OW18685   4.640   3.862   6.626 -0.1936 -0.3501 -0.1714
 2409SOL    HW118686   4.686   3.934   6.669 -0.0471 -2.7289  3.5861
 2409SOL    HW218687   4.699   3.788   6.638 -0.9080 -0.7665  0.6987
 2410SOL     OW18688   3.452   1.547  14.621  0.0050  0.8147  0.5791
 2410SOL    HW118689   3.474   1.459  14.649  1.4985  1.2036  0.6478
 2410SOL    HW218690   3.480   1.545  14.529  0.1339  0.9971  0.6146
 2411SOL     OW18691   2.263   3.973   7.051  0.0477 -0.1594 -0.4992
 2411SOL    HW118692   2.267   3.902   7.115 -0.2739  0.6366  0.3994
 2411SOL    HW218693   2.175   4.005   7.073  0.3582  0.5074 -0.2265
 2412SOL     OW18694   1.323   2.749   0.801 -0.2739  0.1668  0.3170
 2412SOL    HW118695   1.349   2.839   0.781 -1.8451  0.5881  0.1620
 2412SOL    HW218696   1.288   2.755   0.890  3.1760  3.2250  1.5215
 2413SOL     OW18697   3.534   2.608   7.396  0.7257 -0.5910 -0.1555
 2413SOL    HW118698   3.546   2.536   7.334  1.6584 -0.7108  0.1718
 2413SOL    HW218699   3.513   2.682   7.339 -0.4676 -0.1756  0.8150
 2414SOL     OW18700   2.375   2.584  15.008 -0.3686  0.1787  0.2973
 2414SOL    HW118701   2.411   2.506  15.049  0.9936  0.8373  0.3431
 2414SOL    HW218702   2.402   2.648  15.074  2.5263 -0.5710 -0.1864
 2415SOL     OW18703   0.189   0.554  17.203 -0.3381 -0.2497 -0.0913
 2415SOL    HW118704   0.164   0.588  17.117 -0.9652  1.1629  0.6461
 2415SOL    HW218705   0.196   0.639  17.246  0.6810  0.3223 -1.3676
 2416SOL     OW18706   2.959   3.402   6.095 -0.2804 -0.2613  0.0872
 2416SOL    HW118707   2.933   3.310   6.108 -0.8405  0.0676  1.3150
 2416SOL    HW218708   3.052   3.385   6.110 -0.1496 -0.5553 -1.0077
 2417SOL     OW18709   2.859   2.333   6.829 -0.1620 -0.1249 -0.2628
 2417SOL    HW118710   2.845   2.384   6.908 -1.0963  1.1930 -1.2844
 2417SOL    HW218711   2.783   2.362   6.780 -0.2981  0.8884  0.5536
 2418SOL     OW18712   3.250   1.482   5.801 -0.2511 -0.0233  0.0822
 2418SOL    HW118713   3.224   1.530   5.722 -1.7188  1.1566  1.2769
 2418SOL    HW218714   3.343   1.499   5.790  0.1645 -1.9997  0.6020
 2419SOL     OW18715   1.658   2.738   7.515  0.3622  0.3466 -0.5384
 2419SOL    HW118716   1.648   2.647   7.485 -2.3839  1.2489 -2.3460
 2419SOL    HW218717   1.645   2.793   7.438 -0.7571 -1.3207 -1.5419
 2420SOL     OW18718   0.744   0.188   1.274  0.6292  0.9887  0.7093
 2420SOL    HW118719   0.742   0.206   1.180 -0.6794 -3.0810 -0.0811
 2420SOL    HW218720   0.749   0.092   1.281 -1.9005  0.9599  2.1529
 2421SOL     OW18721   3.345   1.775  10.293 -1.1037 -0.4814  0.0268
 2421SOL    HW118722   3.334   1.692  10.340 -2.2670  1.8138  3.7657
 2421SOL    HW218723   3.377   1.753  10.205  0.7395 -0.2101  0.6370
 2422SOL     OW18724   4.322   1.422   7.837 -0.3767 -0.2356 -0.7342
 2422SOL    HW118725   4.231   1.403   7.859  0.0029 -0.0651  0.9308
 2422SOL    HW218726   4.354   1.366   7.908  3.0188  1.3094 -1.0556
 2423SOL     OW18727   3.215   2.769   7.421 -0.0919 -0.2000  0.4918
 2423SOL    HW118728   3.297   2.799   7.384 -0.2905 -0.5507 -0.2340
 2423SOL    HW218729   3.217   2.789   7.515  0.0662  0.9177  0.2522
 2424SOL     OW18730   3.212   3.646  12.513  0.1117 -0.0682  0.0490
 2424SOL    HW118731   3.233   3.727  12.561  1.6355 -0.8795  0.7558
 2424SOL    HW218732   3.243   3.653  12.423  0.9241 -0.7058  0.2815
 2425SOL     OW18733   0.145   4.428   3.858  0.0251  0.1047 -0.2526
 2425SOL    HW118734   0.193   4.398   3.781 -0.1327  0.7138 -0.5877
 2425SOL    HW218735   0.199   4.501   3.890  1.6035 -1.6174  1.0154
 2426SOL     OW18736   4.362   2.536   2.007  0.3637 -0.8488 -0.0434
 2426SOL    HW118737   4.424   2.487   2.062  0.1545 -0.6942  0.3294
 2426SOL    HW218738   4.313   2.461   1.974  0.1874 -1.0931  0.7670
 2427SOL     OW18739   3.570   3.498  13.231 -0.5175  0.0528 -0.2152
 2427SOL    HW118740   3.596   3.541  13.313  1.3783  2.1040 -1.8596
 2427SOL    HW218741   3.636   3.429  13.222  0.2991  0.9724 -1.3717
 2428SOL     OW18742   2.778   0.134  12.486 -0.3038 -0.0039 -0.1549
 2428SOL    HW118743   2.843   0.198  12.458  0.3902  0.9294  3.6467
 2428SOL    HW218744   2.759   0.166  12.574 -0.5034 -1.2852  0.2688
 2429SOL     OW18745   2.831   4.154  10.199 -0.0297 -0.0930  0.4850
 2429SOL    HW118746   2.893   4.227  10.203 -0.1572  0.0361 -0.0199
 2429SOL    HW218747   2.766   4.170  10.268 -0.0216 -1.0523  0.7233
 2430SOL     OW18748   1.472   1.924   0.706  0.0623  0.4567  0.2389
 2430SOL    HW118749   1.565   1.912   0.688 -0.6794 -2.2861 -1.7132
 2430SOL    HW218750   1.452   1.869   0.781  1.3279 -0.8124 -0.3502
 2431SOL     OW18751   1.646   3.802   3.548 -0.9674 -0.3319 -0.1882
 2431SOL    HW118752   1.616   3.875   3.495 -0.3553  0.5207  0.6543
 2431SOL    HW218753   1.652   3.728   3.486 -0.6678 -0.6109  0.1734
 2432SOL     OW18754   0.368   0.668   9.389 -0.0832 -0.5550  0.1108
 2432SOL    HW118755   0.345   0.579   9.415  1.1854 -1.5112 -2.1042
 2432SOL    HW218756   0.282   0.710   9.380  1.5782  2.8064 -0.2243
 2433SOL     OW18757   2.530   2.834   6.163  0.5268  0.6174  0.3581
 2433SOL    HW118758   2.495   2.902   6.220 -0.0105  0.6702 -0.0382
 2433SOL    HW218759   2.593   2.787   6.219  0.4968  0.7715  0.5209
 2434SOL     OW18760   1.456   4.100   7.850 -0.4489  0.6804  0.1530
 2434SOL    HW118761   1.438   4.010   7.874 -2.2142  1.2126  0.8269
 2434SOL    HW218762   1.394   4.153   7.900 -1.6375 -1.4661  0.9253
 2435SOL     OW18763   3.725   1.785  16.652  0.2071 -0.3992 -0.1763
 2435SOL    HW118764   3.753   1.791  16.743 -3.2500 -2.2663  1.0243
 2435SOL    HW218765   3.632   1.804  16.659  0.4179  0.1565  1.0390
 2436SOL     OW18766   3.517   4.146  17.413  0.0723  0.2167  0.2442
 2436SOL    HW118767   3.448   4.106  17.359 -1.9384  2.0538  1.4366
 2436SOL    HW218768   3.516   4.090  17.490 -0.3801  0.0211  0.0989
 2437SOL     OW18769   0.573   3.591   6.505  0.0804  0.4894  0.1058
 2437SOL    HW118770   0.595   3.498   6.509 -1.2215  0.1979  0.3930
 2437SOL    HW218771   0.661   3.628   6.502  0.3414 -0.1919 -0.5906
 2438SOL     OW18772   1.815   0.685   1.054  0.0041 -0.5431  0.1780
 2438SOL    HW118773   1.826   0.776   1.029  1.2731 -0.1018  2.3607
 2438SOL    HW218774   1.792   0.655   0.966 -0.8081  2.0520 -0.4944
 2439SOL     OW18775   2.634   3.763   1.283  0.1477 -0.7972  0.1463
 2439SOL    HW118776   2.641   3.847   1.329 -0.7576 -0.5132 -0.2415
 2439SOL    HW218777   2.721   3.759   1.242  0.1840  2.4612 -0.1033
 2440SOL     OW18778   3.608   0.085   2.973 -0.2641  0.2116 -0.6681
 2440SOL    HW118779   3.702   0.065   2.966 -0.7845 -2.8739  1.2719
 2440SOL    HW218780   3.617   0.169   3.018  2.0712  0.3467 -1.3683
 2441SOL     OW18781   3.592   4.017   2.090 -0.4758 -0.0223 -0.5123
 2441SOL    HW118782   3.579   4.008   2.185  2.0346 -1.2604 -0.2879
 2441SOL    HW218783   3.687   4.025   2.091 -0.6309  1.6619  1.5474
 2442SOL     OW18784   3.240   4.530   7.893 -0.3286 -0.2162  0.2467
 2442SOL    HW118785   3.229   4.583   7.972 -0.8760 -0.1813  0.1454
 2442SOL    HW218786   3.152   4.529   7.854 -0.3071  0.0972  0.1863
 2443SOL     OW18787   0.918   0.054  16.642 -0.2596 -0.5676  0.2927
 2443SOL    HW118788   0.934   4.715  16.571 -4.7745  1.9021 -2.8561
 2443SOL    HW218789   0.997   0.108  16.636 -0.4503 -0.3844 -0.6457
 2444SOL     OW18790   3.028   1.824  14.181 -0.2619  0.3193  0.0708
 2444SOL    HW118791   2.970   1.900  14.180 -0.0100  0.5277  3.0303
 2444SOL    HW218792   3.019   1.793  14.271 -4.6803  1.3510  0.0035
 2445SOL     OW18793   1.049   0.083  12.574 -0.4813  0.2896 -0.5703
 2445SOL    HW118794   0.965   0.044  12.601 -0.4259 -0.5088 -1.5729
 2445SOL    HW218795   1.012   0.159  12.530  0.0453 -0.6680 -2.6573
 2446SOL     OW18796   0.359   1.148   9.547 -0.0906 -0.6796  0.1324
 2446SOL    HW118797   0.377   1.198   9.626 -1.3491 -0.5183  0.3228
 2446SOL    HW218798   0.445   1.134   9.508 -0.4372 -0.5367 -0.6796
 2447SOL     OW18799   2.550   4.513   6.512 -0.1743  0.3181 -0.3404
 2447SOL    HW118800   2.598   4.580   6.561 -1.0407  0.5824  0.1558
 2447SOL    HW218801   2.506   4.463   6.581 -0.0938  0.0913 -0.4537
 2448SOL     OW18802   3.427   3.221   4.846  0.4048 -0.1516 -0.2015
 2448SOL    HW118803   3.405   3.307   4.809  1.0724  0.1137  0.0142
 2448SOL    HW218804   3.376   3.168   4.786 -0.0117 -1.2801  1.1512
 2449SOL     OW18805   2.822   2.628   4.175  0.5721  0.0204 -0.2526
 2449SOL    HW118806   2.771   2.552   4.204  2.2387 -1.3270 -0.8859
 2449SOL    HW218807   2.876   2.587   4.108  1.0377  0.4458 -0.1324
 2450SOL     OW18808   3.347   1.149   2.058  0.3249  0.0381  0.0148
 2450SOL    HW118809   3.275   1.185   2.111  0.5550 -0.0141  0.3642
 2450SOL    HW218810   3.396   1.104   2.127 -0.9428 -1.0064  0.2270
 2451SOL     OW18811   3.927   2.710   4.297 -0.5826  0.0862 -0.0216
 2451SOL    HW118812   3.921   2.623   4.335  0.8052 -0.5119 -1.1692
 2451SOL    HW218813   4.003   2.702   4.240 -1.1934  2.1753 -1.1402
 2452SOL     OW18814   1.291   1.924   6.418  0.5962  0.0240 -0.7137
 2452SOL    HW118815   1.230   1.908   6.346 -0.1953 -0.4797  0.0654
 2452SOL    HW218816   1.273   1.853   6.479 -4.2437  0.2312 -1.8860
 2453SOL     OW18817   1.087   0.896   8.527 -0.2035 -0.3387 -0.0775
 2453SOL    HW118818   1.045   0.812   8.550  0.4376 -0.4404  0.7386
 2453SOL    HW218819   1.017   0.935   8.475 -1.4213 -0.6368  1.3240
 2454SOL     OW18820   1.732   4.461   4.654  0.8490  0.2461 -0.3617
 2454SOL    HW118821   1.719   4.521   4.581 -0.4404  1.7508  1.1165
 2454SOL    HW218822   1.815   4.429   4.619  2.3265  2.3294  1.2554
 2455SOL     OW18823   4.690   3.972   2.475  0.1192  0.6795  0.2456
 2455SOL    HW118824   4.692   4.009   2.386 -2.0000  0.3226  0.0518
 2455SOL    HW218825   0.057   3.979   2.508  0.2835  0.8620 -0.2338
 2456SOL     OW18826   4.232   0.511   4.336 -0.4167 -0.1936 -0.2501
 2456SOL    HW118827   4.288   0.434   4.346  0.5142  0.6075  0.8515
 2456SOL    HW218828   4.214   0.508   4.242  1.1163 -0.4185 -0.5346
 2457SOL     OW18829   2.174   4.312  12.391  0.8615  0.3119  0.4118
 2457SOL    HW118830   2.156   4.224  12.356  0.5959  0.6949 -0.4303
 2457SOL    HW218831   2.219   4.354  12.318  0.2341 -0.6577 -0.5577
 2458SOL     OW18832   1.058   4.366   1.529 -0.4120  0.0615 -0.2893
 2458SOL    HW118833   1.084   4.285   1.486 -2.7325 -0.0383 -1.5053
 2458SOL    HW218834   1.107   4.361   1.612  0.3470  0.6041 -0.7118
 2459SOL     OW18835   2.108   2.619  10.729  0.1206 -0.4828 -0.1771
 2459SOL    HW118836   2.028   2.598  10.681 -0.5946 -0.0235  0.8133
 2459SOL    HW218837   2.102   2.714  10.740  1.3748 -0.5917  1.3512
 2460SOL     OW18838   3.674   3.147   4.518  0.0468  0.2041  0.2254
 2460SOL    HW118839   3.658   3.095   4.596  1.0800 -1.8330 -0.9349
 2460SOL    HW218840   3.704   3.076   4.462  0.0126  2.1933 -2.3884
 2461SOL     OW18841   1.331   0.696  12.860 -0.0573 -0.4676 -0.2588
 2461SOL    HW118842   1.309   0.701  12.953 -1.3479  1.0070 -0.6462
 2461SOL    HW218843   1.292   0.612  12.837 -0.7287 -0.0603 -0.6147
 2462SOL     OW18844   2.094   2.259   5.351  0.2228  0.2396 -0.4866
 2462SOL    HW118845   2.179   2.300   5.369 -0.0940  0.9439 -0.5617
 2462SOL    HW218846   2.100   2.176   5.398 -0.9552 -1.0191 -2.5640
 2463SOL     OW18847   3.843   2.260   6.976  0.1139  0.3871 -0.0643
 2463SOL    HW118848   3.834   2.165   6.976 -1.3527  0.5348 -0.0966
 2463SOL    HW218849   3.749   2.277   6.971 -0.2062 -1.2198  0.3788
 2464SOL     OW18850   4.169   4.559  10.688  0.6211  0.2261 -0.0860
 2464SOL    HW118851   4.153   4.484  10.631 -1.5858  0.8088 -0.2429
 2464SOL    HW218852   4.194   4.511  10.767  0.1755 -1.9007 -1.2417
 2465SOL     OW18853   2.258   4.156  10.872 -0.3781  0.1745 -0.8491
 2465SOL    HW118854   2.266   4.233  10.816  0.9632 -0.6997 -1.8649
 2465SOL    HW218855   2.333   4.101  10.849 -0.6024 -0.2816 -0.4866
 2466SOL     OW18856   3.095   2.305   8.469 -0.4406  0.9055  0.2832
 2466SOL    HW118857   3.063   2.367   8.535 -1.4095  0.4668  0.2294
 2466SOL    HW218858   3.007   2.275   8.446 -0.5076 -0.1898  1.9410
 2467SOL     OW18859   4.260   2.816   0.180 -0.0359 -0.8225 -0.4991
 2467SOL    HW118860   4.230   2.732   0.214 -1.8976 -0.1752 -0.5503
 2467SOL    HW218861   4.278   2.845   0.269  0.8178 -0.9312 -0.6393
 2468SOL     OW18862   3.473   0.439   8.962  0.1003  0.0415  0.0546
 2468SOL    HW118863   3.384   0.408   8.949 -0.3393  0.8001  1.2815
 2468SOL    HW218864   3.516   0.373   9.017  0.9479  0.9789  0.5263
 2469SOL     OW18865   4.186   0.987   2.482 -0.0859 -1.0667  0.5882
 2469SOL    HW118866   4.236   1.003   2.402 -1.2109 -2.6043 -0.4306
 2469SOL    HW218867   4.109   0.942   2.448 -0.5994 -0.2743  0.6899
 2470SOL     OW18868   2.113   2.470   4.252 -0.1139 -0.1067 -0.0667
 2470SOL    HW118869   2.024   2.498   4.233  0.2724  0.3419 -1.2075
 2470SOL    HW218870   2.115   2.503   4.342  0.9388 -0.1798 -0.0658
 2471SOL     OW18871   1.098   1.679  13.431 -0.4540  0.2221 -0.2316
 2471SOL    HW118872   1.056   1.763  13.451  2.3671  2.1047 -2.2387
 2471SOL    HW218873   1.141   1.662  13.515 -1.2594 -0.0526  0.1251
 2472SOL     OW18874   0.420   0.598  16.063 -0.0647  0.3979  0.0734
 2472SOL    HW118875   0.376   0.631  15.985 -1.4782  0.8807  1.0655
 2472SOL    HW218876   0.462   0.523  16.022 -0.4826  0.3619 -0.2836
 2473SOL     OW18877   3.498   0.409  17.515 -0.6185 -0.3455 -0.1607
 2473SOL    HW118878   3.507   0.488  17.568  2.1519 -0.5956 -0.2852
 2473SOL    HW218879   3.518   0.452  17.432  1.2263 -0.3301  0.3059
 2474SOL     OW18880   0.625   3.008   9.484  0.3456  0.1860 -0.0528
 2474SOL    HW118881   0.607   2.969   9.399 -0.5837  0.1513  0.1667
 2474SOL    HW218882   0.703   2.966   9.521 -0.4332  0.2894  1.6983
 2475SOL     OW18883   0.416   4.411   0.344 -0.4546  0.0756  0.4741
 2475SOL    HW118884   0.407   4.324   0.304  2.3887  0.5600 -1.1749
 2475SOL    HW218885   0.421   4.466   0.266  1.1269  0.9522  1.1947
 2476SOL     OW18886   4.003   0.124   0.782  0.4429  0.4710 -0.1455
 2476SOL    HW118887   4.012   0.029   0.774  1.3230  0.6625 -1.5862
 2476SOL    HW218888   3.995   0.146   0.689  0.0086 -1.3297 -0.5319
 2477SOL     OW18889   4.081   3.337  10.586 -0.2105  0.5593  0.6063
 2477SOL    HW118890   4.011   3.369  10.644 -0.0982  1.5248  0.2128
 2477SOL    HW218891   4.147   3.407  10.589  0.0750  0.3026  0.2862
 2478SOL     OW18892   3.803   3.548   7.583  0.2564  0.1431 -0.0246
 2478SOL    HW118893   3.857   3.580   7.656  3.5504 -1.1108 -1.9001
 2478SOL    HW218894   3.875   3.507   7.535 -0.1108  2.2470 -2.3097
 2479SOL     OW18895   0.825   1.889   2.748  0.1749  0.4070 -0.8289
 2479SOL    HW118896   0.752   1.857   2.800  0.3632  0.6536 -0.4136
 2479SOL    HW218897   0.779   1.902   2.665 -0.7953 -0.4133 -0.4127
 2480SOL     OW18898   0.105   3.023   1.641  0.5537 -0.5750 -0.1641
 2480SOL    HW118899   0.119   3.114   1.666  1.2896 -1.2117  1.7533
 2480SOL    HW218900   0.053   2.992   1.715  0.4736  0.0084  0.0241
 2481SOL     OW18901   3.305   0.106   8.863  0.0293 -0.5011  0.0678
 2481SOL    HW118902   3.335   0.059   8.940 -1.5576  0.4062  1.2433
 2481SOL    HW218903   3.258   0.177   8.907  0.2252 -1.1210  1.2774
 2482SOL     OW18904   4.075   2.010   5.689  0.4392  0.6510  0.8329
 2482SOL    HW118905   4.079   2.105   5.680 -2.5655  0.6254 -0.6169
 2482SOL    HW218906   4.088   1.980   5.599  1.2375 -2.3739  1.9641
 2483SOL     OW18907   4.481   1.135   2.856 -0.0127 -0.4820 -0.3395
 2483SOL    HW118908   4.541   1.095   2.793 -2.2433 -1.8190 -1.6226
 2483SOL    HW218909   4.409   1.147   2.794  0.6603  0.1692 -0.9880
 2484SOL     OW18910   1.509   2.436   9.153  0.2871 -0.0823  0.5023
 2484SOL    HW118911   1.462   2.506   9.199  0.8742 -0.0670  1.0821
 2484SOL    HW218912   1.575   2.417   9.219  0.5948 -0.0303  0.2060
 2485SOL     OW18913   0.632   4.156   1.101  0.6497 -0.0178 -1.2463
 2485SOL    HW118914   0.600   4.070   1.072  2.5070 -1.1649  0.1309
 2485SOL    HW218915   0.553   4.185   1.146  1.3221 -0.3489  0.1215
 2486SOL     OW18916   2.393   3.507   6.094  0.3075  0.3879 -0.6603
 2486SOL    HW118917   2.474   3.520   6.045  0.2761  1.6378 -0.3723
 2486SOL    HW218918   2.417   3.461   6.174  0.6519  1.8952  0.1109
 2487SOL     OW18919   1.850   2.507   3.828 -0.3587 -0.0645 -0.0736
 2487SOL    HW118920   1.879   2.513   3.737 -2.5470 -2.1111 -0.9137
 2487SOL    HW218921   1.769   2.458   3.813 -0.6208  0.3293  0.0720
 2488SOL     OW18922   1.583   1.792  12.212  0.1825  0.4443  0.3295
 2488SOL    HW118923   1.630   1.759  12.135  2.0409  3.1502  0.3009
 2488SOL    HW218924   1.596   1.712  12.262  1.0814  0.3246 -0.1093
 2489SOL     OW18925   1.837   3.154   4.708  0.5623 -0.0086  0.0973
 2489SOL    HW118926   1.756   3.187   4.746  1.0322  0.7899  0.4088
 2489SOL    HW218927   1.839   3.190   4.619  1.4924  1.1955  0.6080
 2490SOL     OW18928   4.611   2.724   4.333 -0.0527  0.8026 -0.0123
 2490SOL    HW118929   4.542   2.672   4.375  1.2154 -1.0559 -0.2404
 2490SOL    HW218930   4.688   2.725   4.390 -0.3617 -0.7092  0.4294
 2491SOL     OW18931   2.205   1.409   5.349  0.1621  0.2475  0.5424
 2491SOL    HW118932   2.236   1.356   5.275 -1.4355 -1.4634  1.0837
 2491SOL    HW218933   2.215   1.355   5.428  2.2895  0.3680  0.3355
 2492SOL     OW18934   3.737   1.300  12.141  0.4963 -0.2241 -0.0752
 2492SOL    HW118935   3.647   1.332  12.145  0.4685 -0.0281 -2.0286
 2492SOL    HW218936   3.725   1.222  12.086  1.3658  0.1172 -0.7523
 2493SOL     OW18937   0.925   3.964  15.826 -0.4124 -0.3701 -0.3198
 2493SOL    HW118938   0.949   3.875  15.799  1.4367 -0.2409  0.8575
 2493SOL    HW218939   0.835   3.953  15.855 -0.2778  0.0587  0.2563
 2494SOL     OW18940   3.330   2.458   2.473  0.1627 -0.5789  0.7068
 2494SOL    HW118941   3.282   2.387   2.516 -0.3515  0.1143  1.2780
 2494SOL    HW218942   3.328   2.428   2.382  2.0224  1.5219 -0.0299
 2495SOL     OW18943   1.464   2.726   3.254 -0.2409  0.0173 -0.2480
 2495SOL    HW118944   1.556   2.751   3.260 -0.1485 -0.0481 -1.4065
 2495SOL    HW218945   1.447   2.751   3.163  1.5959  0.7447 -0.3931
 2496SOL     OW18946   0.280   4.251   9.432  0.2923 -0.4468 -0.9979
 2496SOL    HW118947   0.319   4.284   9.513 -0.3738 -1.5178 -0.2388
 2496SOL    HW218948   0.303   4.310   9.360  0.6395  1.5907  0.8001
 2497SOL     OW18949   0.569   4.032   5.488  0.2989  0.1622  0.7951
 2497SOL    HW118950   0.560   4.060   5.397  0.9852 -0.6412  0.4770
 2497SOL    HW218951   0.620   4.104   5.525 -1.2684  0.8462  1.6089
 2498SOL     OW18952   4.459   1.465   2.946  0.3429  0.6826  0.7977
 2498SOL    HW118953   4.377   1.504   2.978  0.9438  1.4536  1.3943
 2498SOL    HW218954   4.467   1.506   2.860 -0.7865  1.1717  0.9188
 2499SOL     OW18955   2.269   3.504  16.354  0.7309 -0.0668  0.2128
 2499SOL    HW118956   2.261   3.546  16.268  0.8013  1.0038  0.7200
 2499SOL    HW218957   2.200   3.439  16.342  0.1950  0.2332  1.7125
 2500SOL     OW18958   2.931   1.322   8.576  0.0281 -0.3024 -0.4362
 2500SOL    HW118959   3.022   1.295   8.590  0.4468  0.2809 -2.0496
 2500SOL    HW218960   2.883   1.247   8.610  0.1173 -1.0155 -1.8832
 2501SOL     OW18961   0.101   2.342   0.688 -0.8620  0.4225  0.1835
 2501SOL    HW118962   0.135   2.334   0.598 -0.6744  0.2770  0.2668
 2501SOL    HW218963   0.048   2.421   0.676 -1.8257 -0.0812  1.1924
 2502SOL     OW18964   3.651   0.876   7.359 -0.0350  0.4132 -0.1013
 2502SOL    HW118965   3.567   0.830   7.354  0.2592  0.0173 -1.3766
 2502SOL    HW218966   3.619   0.959   7.394  0.6376  2.0235 -3.2899
 2503SOL     OW18967   2.452   1.866  16.095 -0.2280  0.0682  0.7596
 2503SOL    HW118968   2.384   1.831  16.152 -0.5051 -1.4404 -0.5159
 2503SOL    HW218969   2.425   1.819  16.017  1.7820 -1.2165  0.8327
 2504SOL     OW18970   1.874   1.571  12.907  0.1757 -0.1771  0.0350
 2504SOL    HW118971   1.961   1.536  12.889 -0.5659 -1.8065 -0.3779
 2504SOL    HW218972   1.874   1.546  12.999 -0.6034  0.9463  0.3390
 2505SOL     OW18973   1.365   1.565   7.609 -0.6111 -0.0134 -0.2716
 2505SOL    HW118974   1.371   1.643   7.664  0.7307 -0.2604 -0.0802
 2505SOL    HW218975   1.277   1.580   7.575 -0.1707 -1.7545 -2.2275
 2506SOL     OW18976   3.669   2.595   0.983  0.5797 -0.9625 -0.4995
 2506SOL    HW118977   3.665   2.499   0.988  2.9349 -0.9947  0.7183
 2506SOL    HW218978   3.595   2.612   0.924 -0.9229  0.3209  1.7825
 2507SOL     OW18979   1.875   1.167   6.423 -0.4494  0.0130 -0.1923
 2507SOL    HW118980   1.944   1.232   6.429  0.4211 -0.7492 -1.8566
 2507SOL    HW218981   1.799   1.205   6.467 -0.9544 -1.5098  0.2593
 2508SOL     OW18982   4.125   4.220   8.069  0.0826 -0.0465  0.2452
 2508SOL    HW118983   4.108   4.270   8.149  0.7400 -0.0276  0.3695
 2508SOL    HW218984   4.054   4.156   8.069  1.4979 -1.6195 -1.0939
 2509SOL     OW18985   2.041   2.563   5.293  0.5128 -0.6506  0.8091
 2509SOL    HW118986   1.987   2.496   5.252 -1.0757  2.4306 -2.1845
 2509SOL    HW218987   2.128   2.524   5.304  0.7117 -0.2392  0.7259
 2510SOL     OW18988   4.109   2.912  16.571  0.2637  0.2178  0.2965
 2510SOL    HW118989   4.141   2.998  16.599 -0.1899  0.2191  0.7999
 2510SOL    HW218990   4.190   2.869  16.543 -0.3475 -0.2538 -0.7614
 2511SOL     OW18991   4.080   4.611   4.006 -0.0222  0.2914 -0.2751
 2511SOL    HW118992   4.002   4.661   3.981 -1.5263 -1.6371  0.5568
 2511SOL    HW218993   4.041   4.526   4.024 -0.1894  0.6032  0.8470
 2512SOL     OW18994   0.286   4.117   1.708 -0.5344 -0.0262 -0.0467
 2512SOL    HW118995   0.381   4.122   1.699 -0.5391 -0.8509 -0.5520
 2512SOL    HW218996   0.256   4.198   1.666 -0.1927  0.9488  1.5716
 2513SOL     OW18997   3.341   1.672  13.549  0.3223  0.4337  0.2616
 2513SOL    HW118998   3.337   1.732  13.474 -0.9388  0.0633  0.0346
 2513SOL    HW218999   3.297   1.723  13.618  1.3169  1.9146 -0.1938
 2514SOL     OW19000   2.486   2.000   8.340 -0.0886 -0.2418 -0.1808
 2514SOL    HW119001   2.519   2.089   8.352  1.0165 -0.5641 -0.8342
 2514SOL    HW219002   2.561   1.948   8.370 -0.2506 -0.6094 -0.4092
 2515SOL     OW19003   2.285   2.976   2.127 -0.0188 -0.2409 -0.1065
 2515SOL    HW119004   2.341   2.951   2.053 -2.8677 -3.1907 -1.2622
 2515SOL    HW219005   2.198   2.947   2.102 -0.2580 -0.7292  1.3098
 2516SOL     OW19006   0.785   3.740   6.460 -0.3544 -0.1770  0.2169
 2516SOL    HW119007   0.766   3.824   6.418  1.7732 -0.5777 -1.5144
 2516SOL    HW219008   0.878   3.730   6.440 -0.0610 -0.3541  1.7149
 2517SOL     OW19009   3.235   0.751   4.310  0.0216  0.8002 -0.2525
 2517SOL    HW119010   3.254   0.821   4.247 -1.3740  0.7124 -0.7582
 2517SOL    HW219011   3.277   0.780   4.391 -1.6145  3.3362 -0.3235
 2518SOL     OW19012   4.243   0.342   7.257  0.0126  0.0259 -0.2430
 2518SOL    HW119013   4.178   0.390   7.309 -2.0419 -1.5690 -1.3689
 2518SOL    HW219014   4.327   0.378   7.285  0.3443 -1.0351  0.1260
 2519SOL     OW19015   1.563   0.119  10.517  0.3301  0.0056 -0.3505
 2519SOL    HW119016   1.545   0.162  10.601 -0.7344  0.4297 -0.7888
 2519SOL    HW219017   1.529   0.030  10.527 -0.1314  0.4561  2.2202
 2520SOL     OW19018   0.665   1.653   7.864 -0.3839  0.0626  0.2134
 2520SOL    HW119019   0.738   1.685   7.917  1.2808  0.2938 -2.2209
 2520SOL    HW219020   0.657   1.558   7.878  2.2800 -0.2186 -0.1039
 2521SOL     OW19021   3.913   2.894   7.045 -0.3734 -0.4905 -0.2383
 2521SOL    HW119022   3.832   2.930   7.081 -0.1454  0.1698 -0.3784
 2521SOL    HW219023   3.956   2.978   7.030  0.2722 -1.2022 -2.4057
 2522SOL     OW19024   3.334   2.432  11.464  0.2009 -0.3251  0.5739
 2522SOL    HW119025   3.254   2.478  11.490  1.2437  2.1720 -0.5908
 2522SOL    HW219026   3.351   2.364  11.528  1.3230  0.5199  1.1802
 2523SOL     OW19027   0.651   0.012   7.759 -0.5938  0.2325  0.3065
 2523SOL    HW119028   0.633   4.645   7.731  0.0528 -0.2863  1.5470
 2523SOL    HW219029   0.616   0.066   7.688 -0.1950  1.3512  0.9558
 2524SOL     OW19030   0.967   0.997   3.057  0.1733 -0.2387 -0.5232
 2524SOL    HW119031   0.958   0.960   2.969 -0.3553 -0.0028 -0.5702
 2524SOL    HW219032   0.879   0.993   3.094 -1.4562 -0.0007 -4.3592
 2525SOL     OW19033   2.906   0.072   8.622 -0.1334 -0.0986  0.1686
 2525SOL    HW119034   2.819   0.050   8.587  0.1965 -1.7272  0.4168
 2525SOL    HW219035   2.888   0.045   8.712 -1.5061  0.8554  0.1937
 2526SOL     OW19036   2.376   4.651   3.258 -0.7176 -0.3217  0.2155
 2526SOL    HW119037   2.438   4.663   3.330  0.1452 -2.1297 -0.2339
 2526SOL    HW219038   2.298   4.679   3.306 -0.1338  0.5940  0.6304
 2527SOL     OW19039   1.978   2.993   1.577  0.0472 -0.1948 -0.4159
 2527SOL    HW119040   1.896   2.997   1.626 -0.6442 -1.6038 -1.4671
 2527SOL    HW219041   1.965   2.922   1.515  0.5904 -0.7560  0.1142
 2528SOL     OW19042   1.723   3.177  12.836 -0.2732 -0.0799  0.2441
 2528SOL    HW119043   1.808   3.221  12.835 -0.8875  1.0759  0.1036
 2528SOL    HW219044   1.684   3.203  12.752 -0.8776  0.2677  0.6403
 2529SOL     OW19045   2.663   3.531   3.491 -0.3655  0.3437 -0.4347
 2529SOL    HW119046   2.680   3.437   3.484 -3.2879 -0.1031 -1.5495
 2529SOL    HW219047   2.573   3.536   3.460 -1.1973 -1.3109  1.6755
 2530SOL     OW19048   2.783   1.572  15.683 -0.9316 -0.3091  0.3868
 2530SOL    HW119049   2.797   1.617  15.766 -1.0821 -0.7328  0.6405
 2530SOL    HW219050   2.863   1.586  15.633  0.0482  3.1980  2.9542
 2531SOL     OW19051   2.652   1.497   4.300  0.6547 -0.6258 -0.5142
 2531SOL    HW119052   2.688   1.464   4.218  3.0872 -1.5547  0.9414
 2531SOL    HW219053   2.568   1.536   4.274  1.8976  1.6491 -1.1388
 2532SOL     OW19054   2.191   2.235  16.078  0.2446 -0.2125  0.0289
 2532SOL    HW119055   2.248   2.203  16.008  1.1506  2.4062 -0.4560
 2532SOL    HW219056   2.221   2.326  16.077 -1.0769  0.2131 -1.1856
 2533SOL     OW19057   0.569   3.665   3.594 -0.4173  0.6525  0.0815
 2533SOL    HW119058   0.524   3.591   3.634 -0.8092  0.9083  0.1226
 2533SOL    HW219059   0.507   3.687   3.525  0.9158 -0.2317 -1.3763
 2534SOL     OW19060   2.059   2.094   7.022 -0.5708 -0.4198  0.3690
 2534SOL    HW119061   2.077   2.117   7.113 -0.0276  0.8375 -0.0540
 2534SOL    HW219062   2.103   2.163   6.972 -0.3207  0.6794  2.0997
 2535SOL     OW19063   4.031   2.197   8.699  0.3705  0.1193 -0.0753
 2535SOL    HW119064   4.062   2.140   8.769  1.8217  0.7038 -0.2436
 2535SOL    HW219065   4.098   2.265   8.692 -0.4319  0.9024 -0.0446
 2536SOL     OW19066   4.367   4.649  15.290 -0.1850 -0.5468  0.2391
 2536SOL    HW119067   4.273   4.652  15.274 -0.1040  1.7143  0.2691
 2536SOL    HW219068   4.383   4.554  15.294  0.1833 -0.4934  0.0266
 2537SOL     OW19069   2.542   3.183   0.096 -0.5828 -0.0614  0.1034
 2537SOL    HW119070   2.515   3.175   0.004 -0.5457  1.0454 -0.0020
 2537SOL    HW219071   2.518   3.096   0.129 -2.1088  0.3513  0.1073
 2538SOL     OW19072   3.884   4.444  13.711  0.1249  0.1126 -0.3057
 2538SOL    HW119073   3.905   4.403  13.794  0.4193  1.6327  0.3819
 2538SOL    HW219074   3.790   4.425  13.707  0.4008 -1.1619 -0.7425
 2539SOL     OW19075   3.731   2.193   2.361  0.3264 -0.3658 -0.2721
 2539SOL    HW119076   3.771   2.261   2.307 -0.5371  1.0607  0.8872
 2539SOL    HW219077   3.710   2.121   2.302  0.2977 -1.4098  1.0125
 2540SOL     OW19078   0.962   4.420   3.012 -0.3808 -0.1745  0.1137
 2540SOL    HW119079   1.038   4.370   3.040 -1.0383 -0.8783  0.6415
 2540SOL    HW219080   1.001   4.496   2.969  1.6500 -0.6327  1.1185
 2541SOL     OW19081   1.170   1.209   6.751 -0.4737 -0.4976  0.3778
 2541SOL    HW119082   1.212   1.239   6.671 -0.9909  1.8994  1.0065
 2541SOL    HW219083   1.124   1.132   6.718  2.1127 -0.7592 -2.5618
 2542SOL     OW19084   3.245   4.260  15.370  0.3504 -0.0919  0.2941
 2542SOL    HW119085   3.177   4.284  15.307 -0.0964  0.3382  0.9389
 2542SOL    HW219086   3.318   4.321  15.356  0.4966 -0.9723 -2.7412
 2543SOL     OW19087   4.337   1.153   4.155  0.0768 -0.2165 -0.3806
 2543SOL    HW119088   4.265   1.215   4.142  1.0267  0.7485 -1.0626
 2543SOL    HW219089   4.295   1.068   4.139 -0.8852  0.3386 -0.7670
 2544SOL     OW19090   3.913   2.416   2.238 -0.0245  0.1775 -0.0190
 2544SOL    HW119091   3.966   2.336   2.235 -0.7385 -0.4493  3.4239
 2544SOL    HW219092   3.934   2.456   2.154  2.2108 -2.3705 -0.6848
 2545SOL     OW19093   4.229   0.026   6.943  0.4201 -0.0100  0.0973
 2545SOL    HW119094   4.231   4.654   6.959  0.4353 -0.4520 -2.5317
 2545SOL    HW219095   4.228   0.059   7.033 -0.3933  1.0590 -0.3094
 2546SOL     OW19096   4.144   3.830  10.718 -0.8754  0.3756  0.4609
 2546SOL    HW119097   4.138   3.758  10.781 -0.8113  0.7632  0.9111
 2546SOL    HW219098   4.088   3.803  10.645 -0.5834 -1.0794  0.7726
 2547SOL     OW19099   2.763   0.922   4.738 -0.1817 -0.1976 -0.5507
 2547SOL    HW119100   2.741   0.992   4.677 -1.6651 -0.5128 -0.3642
 2547SOL    HW219101   2.791   0.863   4.668  0.4706 -0.7089  0.1435
 2548SOL     OW19102   0.653   2.666   0.859  0.5145 -0.1135 -0.0660
 2548SOL    HW119103   0.649   2.754   0.897  0.0036  0.9518 -2.5944
 2548SOL    HW219104   0.568   2.635   0.889  0.8095 -1.6035 -0.8148
 2549SOL     OW19105   4.492   0.046   2.786  0.1405 -0.0286 -0.3221
 2549SOL    HW119106   4.448   0.095   2.717  1.7025 -0.3080 -1.5311
 2549SOL    HW219107   4.524   4.691   2.740 -1.9790  0.1314 -2.0481
 2550SOL     OW19108   3.499   0.550  14.071  0.3166 -0.0979 -0.6216
 2550SOL    HW119109   3.479   0.459  14.049 -0.1928  0.1738 -1.3295
 2550SOL    HW219110   3.582   0.564  14.026  0.7917  3.7861  1.4449
 2551SOL     OW19111   0.577   3.576  16.017 -0.4907 -0.2480 -0.1943
 2551SOL    HW119112   0.489   3.550  15.989 -1.0538  1.2126  0.1791
 2551SOL    HW219113   0.613   3.498  16.060  1.1728  0.3744 -0.4615
 2552SOL     OW19114   2.262   0.206   8.547 -0.3029 -0.4542  0.3483
 2552SOL    HW119115   2.269   0.114   8.572  1.1478 -0.1838  0.9406
 2552SOL    HW219116   2.264   0.191   8.453 -1.1228 -2.0388  0.5956
 2553SOL     OW19117   0.874   1.438   1.450 -0.3198 -0.4891 -0.0906
 2553SOL    HW119118   0.802   1.393   1.492  0.0602  0.7530  1.9211
 2553SOL    HW219119   0.820   1.509   1.416  0.4480 -0.2789 -0.8747
 2554SOL     OW19120   2.060   2.765   5.656  0.5241 -0.5846 -0.0421
 2554SOL    HW119121   2.002   2.810   5.594 -0.3007 -0.9063  0.4967
 2554SOL    HW219122   2.053   2.827   5.728  1.1701  1.6063 -1.8570
 2555SOL     OW19123   2.456   0.196   2.127  1.2047 -0.2808  0.0204
 2555SOL    HW119124   2.420   0.271   2.079  0.8355 -0.1510  0.4975
 2555SOL    HW219125   2.461   0.229   2.216  2.2284 -1.7138  0.4760
 2556SOL     OW19126   4.566   1.547  11.836 -0.6100  0.6011 -0.4530
 2556SOL    HW119127   4.504   1.619  11.846  0.0402  1.2944 -1.3659
 2556SOL    HW219128   4.545   1.497  11.915 -0.2118  1.1479  0.0065
 2557SOL     OW19129   3.615   2.323   2.874 -0.8962 -0.0228  0.5075
 2557SOL    HW119130   3.522   2.329   2.855 -0.6541 -0.0380 -0.6514
 2557SOL    HW219131   3.614   2.394   2.938 -0.6444 -0.2791  0.7983
 2558SOL     OW19132   4.285   1.591  11.348 -1.0226 -0.4774  0.5043
 2558SOL    HW119133   4.245   1.515  11.390 -0.0281  0.3997  3.0537
 2558SOL    HW219134   4.251   1.590  11.258 -0.0939 -2.0309  0.1753
 2559SOL     OW19135   0.710   2.147   7.410  0.0544 -0.3430 -0.5406
 2559SOL    HW119136   0.757   2.066   7.429  0.5527 -0.2105 -1.2103
 2559SOL    HW219137   0.622   2.126   7.380 -0.6336  0.4885  0.9063
 2560SOL     OW19138   1.729   1.008   4.602  0.3171 -0.6018  0.1098
 2560SOL    HW119139   1.788   0.935   4.584  0.8174 -0.1771  0.0198
 2560SOL    HW219140   1.744   1.072   4.533 -2.0017  0.9797  1.0837
 2561SOL     OW19141   4.555   2.192   0.913  0.5383 -0.4006 -0.5987
 2561SOL    HW119142   4.508   2.159   0.990  0.0150  3.4511  0.7392
 2561SOL    HW219143   4.510   2.276   0.908 -1.2225 -1.2529  0.8950
 2562SOL     OW19144   4.581   1.402   5.440  0.2406 -0.4632 -0.1053
 2562SOL    HW119145   4.612   1.317   5.410 -1.5943 -1.3295  0.4918
 2562SOL    HW219146   4.569   1.446   5.355  0.9061 -2.2018 -1.1086
 2563SOL     OW19147   3.027   2.449   4.019 -0.4105 -0.2084  0.0880
 2563SOL    HW119148   3.059   2.469   3.931  1.5606  0.7897  1.0193
 2563SOL    HW219149   3.037   2.354   4.010  1.5649 -0.0032  0.0494
 2564SOL     OW19150   1.709   0.969   4.297  0.2667 -0.0813 -0.1117
 2564SOL    HW119151   1.707   1.051   4.346 -1.0262 -1.0402  1.4619
 2564SOL    HW219152   1.728   1.006   4.211 -1.4124  0.2108 -0.3669
 2565SOL     OW19153   1.630   2.706   4.661  0.1632  0.0125 -0.2560
 2565SOL    HW119154   1.608   2.661   4.742 -3.4353  2.6155  0.2104
 2565SOL    HW219155   1.637   2.796   4.692  1.3540 -0.1760  0.0321
 2566SOL     OW19156   1.979   2.504   5.569 -0.2923  0.1533  0.0295
 2566SOL    HW119157   1.998   2.525   5.477  0.8624  2.4603  0.8165
 2566SOL    HW219158   2.008   2.585   5.610  1.1273  0.0143 -0.6996
 2567SOL     OW19159   2.076   2.350  11.362  0.2300  0.3354 -0.1451
 2567SOL    HW119160   2.104   2.410  11.431  1.4932 -0.5205  0.0934
 2567SOL    HW219161   2.086   2.400  11.281  2.4875 -0.3843 -0.3294
 2568SOL     OW19162   4.414   0.860   8.379 -0.2310  0.1684  0.4913
 2568SOL    HW119163   4.478   0.930   8.393  2.3465 -2.4309  1.5726
 2568SOL    HW219164   4.475   0.787   8.389 -0.9492 -0.3598  0.9797
 2569SOL     OW19165   0.370   4.672   0.813  0.0851 -0.6333  0.5254
 2569SOL    HW119166   0.455   4.674   0.856 -0.2927  3.1104  1.1682
 2569SOL    HW219167   0.355   4.580   0.793 -1.7058 -0.5639  1.5339
 2570SOL     OW19168   3.932   3.342   7.722 -0.1034 -0.4132  0.1717
 2570SOL    HW119169   4.004   3.405   7.719 -1.0574  0.6433 -0.4604
 2570SOL    HW219170   3.899   3.368   7.808 -0.1649 -1.3864  0.4414
 2571SOL     OW19171   4.661   0.497  13.214 -0.0546  0.7941 -0.0244
 2571SOL    HW119172   0.019   0.471  13.169  1.1461  0.1373  2.5046
 2571SOL    HW219173   4.695   0.555  13.281  0.7664  1.2260 -0.8140
 2572SOL     OW19174   2.498   4.518   0.362 -0.5139  0.3695  0.0411
 2572SOL    HW119175   2.423   4.522   0.302 -0.0504 -0.8480 -0.6066
 2572SOL    HW219176   2.561   4.565   0.307 -0.0986  0.8760  0.9568
 2573SOL     OW19177   0.918   2.767   3.441  0.1920  0.1958  0.5146
 2573SOL    HW119178   0.855   2.707   3.400 -0.8525  2.1012 -0.6927
 2573SOL    HW219179   0.953   2.815   3.366 -1.8676 -1.3240 -1.4205
 2574SOL     OW19180   2.517   2.597   1.096 -0.2010  0.2835 -0.8766
 2574SOL    HW119181   2.511   2.529   1.029  1.1915  1.4203 -2.1468
 2574SOL    HW219182   2.610   2.601   1.115 -0.7003  0.7107  1.5472
 2575SOL     OW19183   0.624   1.007   6.529 -0.1833 -0.0526 -0.4147
 2575SOL    HW119184   0.699   1.055   6.564 -0.1706  0.3250 -0.9725
 2575SOL    HW219185   0.642   0.983   6.438 -0.5581 -0.4297 -0.3925
 2576SOL     OW19186   0.963   0.398   3.377  0.2068  0.0691  0.6397
 2576SOL    HW119187   0.953   0.477   3.323 -0.0655 -1.4087 -1.4734
 2576SOL    HW219188   0.949   0.337   3.305 -0.0555 -0.2284  0.9390
 2577SOL     OW19189   1.825   4.662   3.908 -1.0767  0.1373  0.2207
 2577SOL    HW119190   1.806   4.587   3.851  2.4015 -0.1419 -0.5743
 2577SOL    HW219191   1.823   0.009   3.842  0.2181 -0.3989 -0.3782
 2578SOL     OW19192   4.721   2.930   7.773 -0.3189  0.3021  0.1776
 2578SOL    HW119193   0.041   2.855   7.732 -2.1734 -0.1154 -1.0121
 2578SOL    HW219194   0.015   2.991   7.701  3.1232 -1.5267 -0.5911
 2579SOL     OW19195   0.310   0.531   2.834  0.5897  0.4077  0.4044
 2579SOL    HW119196   0.309   0.452   2.888  0.8621  0.0710 -0.0812
 2579SOL    HW219197   0.234   0.582   2.863  1.0840  2.2135 -1.4926
 2580SOL     OW19198   0.633   2.207  15.739 -0.3927  0.3135  0.8601
 2580SOL    HW119199   0.646   2.191  15.832  0.9571 -0.0723  0.6046
 2580SOL    HW219200   0.706   2.265  15.718 -0.8850  1.0943  1.2978
 2581SOL     OW19201   0.966   3.814   7.352  0.4905  0.3543 -0.2606
 2581SOL    HW119202   1.021   3.886   7.382  0.9575  0.2658 -0.8908
 2581SOL    HW219203   0.885   3.864   7.362  0.6489  0.7933 -1.2085
 2582SOL     OW19204   0.225   3.302   4.922  0.3770  0.6033 -0.2251
 2582SOL    HW119205   0.312   3.341   4.928 -0.0646  1.3130  1.5148
 2582SOL    HW219206   0.204   3.308   5.015  0.8156 -1.3848  0.0060
 2583SOL     OW19207   4.178   4.549   7.325  0.2384  0.3564 -0.1459
 2583SOL    HW119208   4.194   4.468   7.373 -1.0057  0.0303 -0.2836
 2583SOL    HW219209   4.159   4.594   7.407 -0.1869 -2.6899  1.4301
 2584SOL     OW19210   1.636   2.971   2.366 -0.6168  0.6259 -0.1769
 2584SOL    HW119211   1.689   3.049   2.357  0.0709  0.1157 -0.5226
 2584SOL    HW219212   1.618   2.982   2.460  0.0627 -0.1626  0.0452
 2585SOL     OW19213   2.514   1.337   8.131  0.3829 -0.1209 -0.2718
 2585SOL    HW119214   2.447   1.268   8.139  0.6001 -0.3064 -0.0556
 2585SOL    HW219215   2.587   1.279   8.107 -0.5570 -1.7990  0.9247
 2586SOL     OW19216   2.690   0.325  12.703 -0.3259 -0.5660  0.4452
 2586SOL    HW119217   2.770   0.308  12.753  0.1913  0.8174  0.0970
 2586SOL    HW219218   2.710   0.394  12.640 -3.0415  1.1269  1.4230
 2587SOL     OW19219   0.971   2.534   7.898  0.3358 -0.5215 -0.0057
 2587SOL    HW119220   0.984   2.470   7.967  1.6335  1.7274  1.8458
 2587SOL    HW219221   1.030   2.600   7.936  0.6300  0.3364 -1.9224
 2588SOL     OW19222   1.233   1.285   3.240 -0.0392  0.7334  0.2053
 2588SOL    HW119223   1.300   1.238   3.290 -1.0206 -0.1404  0.6728
 2588SOL    HW219224   1.265   1.268   3.151  0.8483  2.5809  0.1535
 2589SOL     OW19225   4.287   1.236  13.049 -0.5387 -0.4027 -0.6236
 2589SOL    HW119226   4.359   1.288  13.015 -0.3137  0.2284  0.8167
 2589SOL    HW219227   4.298   1.256  13.142 -0.2099 -2.3196 -0.2379
 2590SOL     OW19228   4.266   0.578  16.040 -0.4743  0.2344 -0.0609
 2590SOL    HW119229   4.288   0.492  16.076 -0.3154 -0.9420 -2.9714
 2590SOL    HW219230   4.198   0.612  16.098 -0.1211  3.6997 -1.6736
 2591SOL     OW19231   3.046   0.170   5.023  0.0050  0.6491  0.2853
 2591SOL    HW119232   3.056   0.264   5.039 -1.5224  0.8910 -0.1912
 2591SOL    HW219233   3.130   0.127   5.035 -0.8727 -0.5342  2.2238
 2592SOL     OW19234   3.327   3.358   3.935 -0.8389 -0.4910 -0.2872
 2592SOL    HW119235   3.393   3.427   3.935  0.1535 -1.4370 -0.5975
 2592SOL    HW219236   3.271   3.386   4.008 -0.7730  0.1054 -0.4677
 2593SOL     OW19237   0.901   1.677   8.539  0.4698  0.1619  0.5740
 2593SOL    HW119238   0.926   1.672   8.447 -0.4863 -0.1819  0.3442
 2593SOL    HW219239   0.813   1.641   8.537  0.1070  1.3601 -3.8955
 2594SOL     OW19240   3.824   0.246   4.476  0.1434 -0.0234 -0.3892
 2594SOL    HW119241   3.839   0.162   4.432 -1.0751 -1.7463  2.5172
 2594SOL    HW219242   3.765   0.231   4.550  0.6188 -2.8267 -0.5901
 2595SOL     OW19243   1.470   2.841  14.973  0.3523  0.3228  0.0489
 2595SOL    HW119244   1.453   2.767  15.032 -2.5942  1.8948  1.1281
 2595SOL    HW219245   1.392   2.853  14.920  0.4184  1.6220  0.2440
 2596SOL     OW19246   0.892   0.700   0.105 -0.0106  0.7286 -0.0397
 2596SOL    HW119247   0.868   0.793   0.104  0.6695  0.9042  0.4717
 2596SOL    HW219248   0.853   0.671   0.187 -1.2158  3.1876  0.2520
 2597SOL     OW19249   4.147   4.561   6.271  0.2768  0.3278  0.2570
 2597SOL    HW119250   4.080   4.492   6.265  1.0135 -0.3586 -0.1708
 2597SOL    HW219251   4.108   4.626   6.329 -0.0563  0.5874 -0.2685
 2598SOL     OW19252   1.228   2.969   8.426  0.0855  0.9493 -0.5151
 2598SOL    HW119253   1.138   2.997   8.408  0.2562  0.8433 -1.5452
 2598SOL    HW219254   1.215   2.887   8.473  0.9702  0.5487 -0.9967
 2599SOL     OW19255   3.862   4.120   9.850  0.0184 -0.4184  0.1988
 2599SOL    HW119256   3.897   4.127   9.939  1.1564 -0.3637 -0.2641
 2599SOL    HW219257   3.925   4.169   9.798  0.1058  2.2015  2.7182
 2600SOL     OW19258   3.093   4.151   0.896 -0.0685 -0.1369  0.4211
 2600SOL    HW119259   3.162   4.179   0.955  0.4363 -0.3556 -0.0632
 2600SOL    HW219260   3.014   4.169   0.947 -1.5782 -1.2258 -1.5652
 2601SOL     OW19261   3.825   1.238  15.731  0.0105 -0.4956 -0.1948
 2601SOL    HW119262   3.757   1.301  15.704 -0.5228 -1.4125 -0.9976
 2601SOL    HW219263   3.806   1.205  15.819 -0.7196  1.6868  0.4694
 2602SOL     OW19264   2.820   2.201  10.738  0.3939 -0.2190 -0.6335
 2602SOL    HW119265   2.898   2.186  10.792  0.2400  0.5925 -0.1755
 2602SOL    HW219266   2.770   2.259  10.797  1.0027 -1.2755  0.9297
 2603SOL     OW19267   0.429   2.132  16.533 -0.3501 -0.0721  0.1650
 2603SOL    HW119268   0.404   2.042  16.516  1.4773 -0.5486  0.0069
 2603SOL    HW219269   0.499   2.123  16.597 -0.4500 -1.1004  0.1279
 2604SOL     OW19270   3.726   4.043  10.546 -0.1468 -0.2943  0.2673
 2604SOL    HW119271   3.732   4.135  10.572  0.9283  0.6140 -3.0717
 2604SOL    HW219272   3.775   4.000  10.616 -0.3127  0.2127  0.6928
 2605SOL     OW19273   3.684   0.828   5.061  0.2681  0.3419  0.3620
 2605SOL    HW119274   3.693   0.734   5.050  2.9371  0.7613 -1.1301
 2605SOL    HW219275   3.593   0.832   5.032  0.2664  1.8554  0.5635
 2606SOL     OW19276   3.117   1.823   4.929 -0.0189  0.1115 -0.1731
 2606SOL    HW119277   3.211   1.838   4.935 -0.0535  0.6913 -1.0702
 2606SOL    HW219278   3.094   1.900   4.878 -3.6966 -0.0500  1.2637
 2607SOL     OW19279   3.334   2.891  13.254  0.3113  0.4013  0.2780
 2607SOL    HW119280   3.255   2.842  13.232 -0.7505  1.8838  0.7398
 2607SOL    HW219281   3.293   2.956  13.311 -2.0767  0.4153 -1.4648
 2608SOL     OW19282   3.888   0.108   7.309  0.1109  0.4449 -0.0264
 2608SOL    HW119283   3.962   0.055   7.337 -0.0801 -0.2308 -0.8059
 2608SOL    HW219284   3.824   0.095   7.379 -0.2831  2.3326 -0.0277
 2609SOL     OW19285   3.938   2.671   8.519 -0.6642 -0.1945 -0.1086
 2609SOL    HW119286   3.990   2.751   8.510 -0.1828 -0.7190 -2.0550
 2609SOL    HW219287   3.852   2.697   8.551 -0.0499  1.7060 -0.0042
 2610SOL     OW19288   4.194   2.642   6.848 -0.6618  0.3079 -0.1817
 2610SOL    HW119289   4.226   2.730   6.866  0.7126 -0.1718 -0.2703
 2610SOL    HW219290   4.102   2.653   6.868 -0.1428  0.1436  2.2198
 2611SOL     OW19291   2.508   3.756   6.627  0.2201 -0.5444  0.0654
 2611SOL    HW119292   2.527   3.847   6.651 -3.7045 -0.1106  1.5177
 2611SOL    HW219293   2.419   3.748   6.662  0.9415 -2.9580  1.3410
 2612SOL     OW19294   2.022   0.364   2.764 -0.1075 -0.4191 -0.4589
 2612SOL    HW119295   1.975   0.354   2.681 -0.7095 -0.6793 -0.0871
 2612SOL    HW219296   1.959   0.316   2.817 -1.1671  0.3216 -1.0467
 2613SOL     OW19297   4.444   1.896  14.412  0.6473 -0.0777  0.1852
 2613SOL    HW119298   4.391   1.844  14.351  0.5716  2.2692 -1.7333
 2613SOL    HW219299   4.503   1.827  14.442  0.4063 -0.4185 -0.1254
 2614SOL     OW19300   1.964   2.461   9.494  0.2743 -0.1623 -0.2806
 2614SOL    HW119301   1.953   2.508   9.576  2.1779 -1.0624  0.4911
 2614SOL    HW219302   2.019   2.517   9.439 -0.1756  0.5277 -0.0214
 2615SOL     OW19303   3.957   4.052  14.912  0.1129  0.6005  0.0826
 2615SOL    HW119304   4.036   4.042  14.859  0.6039 -2.1055  1.3276
 2615SOL    HW219305   3.911   4.125  14.870 -2.9182 -2.2128 -1.4695
 2616SOL     OW19306   4.092   0.665   1.815  0.3591 -0.1398  0.5182
 2616SOL    HW119307   4.021   0.616   1.773  1.0947  0.8558 -1.8873
 2616SOL    HW219308   4.112   0.730   1.748  1.0117  0.9496  1.7744
 2617SOL     OW19309   4.024   2.867  15.316  0.4276  0.7102  0.3331
 2617SOL    HW119310   4.099   2.907  15.360  0.3646 -0.8498  1.8727
 2617SOL    HW219311   3.992   2.796  15.372  1.9840 -2.2080 -2.5027
 2618SOL     OW19312   0.639   3.293   5.177 -0.0757 -0.3094  0.4686
 2618SOL    HW119313   0.733   3.294   5.194 -0.1677  2.2704  0.9398
 2618SOL    HW219314   0.613   3.210   5.215  0.6827 -0.9992 -0.5250
 2619SOL     OW19315   0.426   4.160   4.342  0.2210 -0.2633  0.0338
 2619SOL    HW119316   0.460   4.197   4.261 -0.7180 -0.4838 -0.4686
 2619SOL    HW219317   0.432   4.233   4.404  0.8307  1.0286 -1.5624
 2620SOL     OW19318   0.166   4.592   3.303  0.1438 -0.1791  0.1241
 2620SOL    HW119319   0.168   4.529   3.375 -1.1927 -0.6153 -0.2043
 2620SOL    HW219320   0.198   4.533   3.234 -1.4565 -0.9594  0.0435
 2621SOL     OW19321   1.893   2.885   5.483 -0.3507 -0.1680 -0.3641
 2621SOL    HW119322   1.879   2.885   5.389 -0.5184  0.9921 -0.3328
 2621SOL    HW219323   1.809   2.926   5.505 -0.7338  0.3774 -2.9303
 2622SOL     OW19324   1.452   2.511   8.187 -0.1835 -0.6893 -0.0231
 2622SOL    HW119325   1.526   2.473   8.233  0.6020  1.1098  0.1938
 2622SOL    HW219326   1.489   2.599   8.179 -0.7232 -0.2212  2.4640
 2623SOL     OW19327   0.213   0.486   5.372  0.0813 -0.0584  0.1319
 2623SOL    HW119328   0.298   0.467   5.332  0.7592 -1.1215  2.0800
 2623SOL    HW219329   0.216   0.580   5.353  1.3819 -0.2929 -0.8210
 2624SOL     OW19330   0.187   4.426   5.951  0.4559  0.5155 -0.3500
 2624SOL    HW119331   0.256   4.408   6.015 -0.3268 -0.9094  0.1042
 2624SOL    HW219332   0.115   4.455   6.009 -0.1618 -0.8267 -0.4411
 2625SOL     OW19333   3.315   2.658   8.856 -0.0597 -0.0141 -0.7033
 2625SOL    HW119334   3.257   2.731   8.831 -1.0019 -0.4609  0.1836
 2625SOL    HW219335   3.323   2.679   8.949 -0.3882  1.4274 -0.9882
 2626SOL     OW19336   4.142   4.696   7.535  0.5232  0.2630 -0.2173
 2626SOL    HW119337   4.104   0.049   7.581 -0.6844 -0.6309  0.2608
 2626SOL    HW219338   4.236   4.703   7.553  0.9125 -3.8632 -0.6836
 2627SOL     OW19339   3.796   4.381   2.466  0.1835  0.4792 -0.6816
 2627SOL    HW119340   3.785   4.326   2.543 -1.0961  1.1766 -0.3649
 2627SOL    HW219341   3.757   4.459   2.505 -0.3698 -0.2036  0.1150
 2628SOL     OW19342   1.072   2.327   8.097  0.3779  0.1723 -0.2270
 2628SOL    HW119343   1.135   2.263   8.065 -0.6309  0.4666 -2.8515
 2628SOL    HW219344   1.120   2.374   8.165  0.2368 -1.3882  0.9445
 2629SOL     OW19345   2.805   1.614   5.267 -0.4274  0.0868 -0.1920
 2629SOL    HW119346   2.855   1.609   5.186 -0.4337  0.2724 -0.2075
 2629SOL    HW219347   2.869   1.568   5.321 -0.6961  1.8825  1.6606
 2630SOL     OW19348   3.170   3.934   1.850 -0.2437 -0.6912 -0.0488
 2630SOL    HW119349   3.128   3.850   1.828  0.5762 -0.7017 -1.5891
 2630SOL    HW219350   3.257   3.899   1.834  0.3900  0.7004  0.3813
 2631SOL     OW19351   0.496   0.379  16.604 -0.3997  0.4204 -0.1558
 2631SOL    HW119352   0.514   0.397  16.696 -2.0735 -0.1387  0.2890
 2631SOL    HW219353   0.484   0.463  16.558 -0.3564 -1.6662 -3.9717
 2632SOL     OW19354   2.825   3.439   0.659 -0.4502  0.0005  0.3464
 2632SOL    HW119355   2.803   3.348   0.642 -1.3035  0.3576 -0.4405
 2632SOL    HW219356   2.759   3.455   0.726 -1.8212 -2.2500 -0.5007
 2633SOL     OW19357   3.724   1.519  15.688 -0.3898  0.0140  0.2611
 2633SOL    HW119358   3.647   1.517  15.631 -0.6480  1.0627  0.5799
 2633SOL    HW219359   3.718   1.610  15.716 -3.6846 -1.1438  3.3584
 2634SOL     OW19360   2.384   1.319   2.348  0.2469  0.0824 -0.0821
 2634SOL    HW119361   2.405   1.379   2.420 -0.7266 -0.4524  0.6499
 2634SOL    HW219362   2.336   1.254   2.399  1.4634 -1.1872 -0.5442
 2635SOL     OW19363   0.190   0.578   6.794 -0.2435 -0.2038 -0.1775
 2635SOL    HW119364   0.177   0.666   6.829  1.7883 -0.3003  0.7789
 2635SOL    HW219365   0.148   0.525   6.861 -1.2465  0.0654 -0.5862
 2636SOL     OW19366   1.990   0.113   5.156 -0.6064  0.0466 -0.7259
 2636SOL    HW119367   1.953   0.181   5.100  1.6869  0.4771 -1.7105
 2636SOL    HW219368   2.062   0.074   5.106  1.7751  0.1181  2.5994
 2637SOL     OW19369   3.142   0.264   1.277  0.3562  0.2422  0.0808
 2637SOL    HW119370   3.127   0.263   1.183  2.7517  2.7766 -0.3185
 2637SOL    HW219371   3.128   0.172   1.300 -1.0847  0.7430  1.2234
 2638SOL     OW19372   0.771   4.456  12.700  0.0023 -0.4878  0.2805
 2638SOL    HW119373   0.778   4.531  12.640 -0.6507  0.5698  1.5356
 2638SOL    HW219374   0.695   4.481  12.752  1.0247  1.1838  0.9649
 2639SOL     OW19375   0.705   2.196  16.007 -0.5031  0.3347 -0.5758
 2639SOL    HW119376   0.792   2.234  16.010 -0.3146 -0.4615  3.7642
 2639SOL    HW219377   0.692   2.179  16.100 -0.0338 -2.2803 -0.9672
 2640SOL     OW19378   1.117   0.896   6.165  0.5765  0.9930  0.3373
 2640SOL    HW119379   1.077   0.878   6.251  2.6396 -3.1587  0.4422
 2640SOL    HW219380   1.072   0.836   6.106 -0.2192  1.4130  0.5139
 2641SOL     OW19381   2.454   2.144  10.575  0.1176 -0.8349 -0.3563
 2641SOL    HW119382   2.510   2.221  10.587 -0.0399 -0.8764  0.6606
 2641SOL    HW219383   2.372   2.190  10.558  1.8057  2.4253  0.3298
 2642SOL     OW19384   4.370   1.934   4.805  0.2859  0.2673  0.1362
 2642SOL    HW119385   4.463   1.927   4.782 -0.3153 -0.0836 -2.2147
 2642SOL    HW219386   4.336   1.954   4.718 -0.8662  1.0362  0.7648
 2643SOL     OW19387   1.624   4.524  10.408  0.1844  0.4776  0.1183
 2643SOL    HW119388   1.622   4.573  10.326  0.2112 -2.5079 -1.6645
 2643SOL    HW219389   1.546   4.559  10.452 -1.9224 -1.8700 -1.7813
 2644SOL     OW19390   0.708   0.121   8.644  0.3082 -0.3122  0.7112
 2644SOL    HW119391   0.636   0.096   8.702 -0.9559  0.9338 -0.3248
 2644SOL    HW219392   0.781   0.061   8.658  0.8761  0.7933  2.6016
 2645SOL     OW19393   0.503   3.801  14.338 -0.2640 -0.0541  0.0645
 2645SOL    HW119394   0.534   3.714  14.365  1.7199  0.3813 -0.8187
 2645SOL    HW219395   0.537   3.864  14.401  3.3636 -0.9561 -0.9906
 2646SOL     OW19396   1.059   3.561   7.149 -0.1613  0.1009 -0.2005
 2646SOL    HW119397   1.035   3.605   7.067  1.2470  1.4110  0.0927
 2646SOL    HW219398   0.975   3.525   7.178 -0.1130  0.7200  0.7012
 2647SOL     OW19399   0.956   3.737   3.286  0.1816  0.9618  0.2123
 2647SOL    HW119400   0.991   3.802   3.348 -2.5159  1.0858  1.5854
 2647SOL    HW219401   0.864   3.763   3.280 -0.2229 -1.2544 -3.0304
 2648SOL     OW19402   4.382   0.931  13.269  0.5586 -0.1231  0.1314
 2648SOL    HW119403   4.429   0.948  13.187 -0.7276 -0.0476 -0.6035
 2648SOL    HW219404   4.398   0.838  13.281 -0.1263 -0.2920 -0.2602
 2649SOL     OW19405   3.421   2.770   5.331  0.3251 -0.0194  0.0820
 2649SOL    HW119406   3.449   2.861   5.340 -1.1185  0.1635  2.6436
 2649SOL    HW219407   3.326   2.780   5.338  0.3766  0.8391 -0.3863
 2650SOL     OW19408   1.517   3.236  14.001  0.7403 -0.0457 -0.1793
 2650SOL    HW119409   1.608   3.229  13.973  1.0109 -0.0324  0.7135
 2650SOL    HW219410   1.521   3.288  14.081  0.7024 -0.1035 -0.1396
 2651SOL     OW19411   4.507   3.932  10.385 -0.3388 -0.1400  0.0429
 2651SOL    HW119412   4.594   3.968  10.402  0.2083 -0.8389 -1.2060
 2651SOL    HW219413   4.527   3.876  10.309 -0.5852  1.1575 -0.9779
 2652SOL     OW19414   1.936   0.686   2.941 -0.9329 -0.6403  0.9152
 2652SOL    HW119415   1.908   0.680   3.032  0.7630  1.3104  1.5449
 2652SOL    HW219416   2.028   0.714   2.942 -1.2523  0.4302  0.4202
 2653SOL     OW19417   1.599   1.895   2.801  0.1362  0.3832 -0.1916
 2653SOL    HW119418   1.550   1.813   2.806 -0.2321  0.5185 -1.6581
 2653SOL    HW219419   1.682   1.864   2.764 -0.2811 -0.9750 -0.0054
 2654SOL     OW19420   1.253   4.215   0.216 -0.6335 -0.3777 -0.1011
 2654SOL    HW119421   1.234   4.240   0.306 -1.3914  3.2046 -1.2582
 2654SOL    HW219422   1.283   4.298   0.180  1.2817 -1.1785 -0.3828
 2655SOL     OW19423   0.241   0.904  13.182 -0.1896  0.1089 -0.0803
 2655SOL    HW119424   0.218   0.896  13.275 -0.5084  0.2901 -0.1435
 2655SOL    HW219425   0.159   0.913  13.133  0.4683 -3.1385 -1.7630
 2656SOL     OW19426   0.302   3.394   9.669  0.1380  0.1784 -0.7001
 2656SOL    HW119427   0.382   3.386   9.617  1.0414  2.4438  0.3640
 2656SOL    HW219428   0.329   3.454   9.738 -0.4698  2.5084 -2.4824
 2657SOL     OW19429   1.463   3.894   2.003 -0.2809 -0.2323 -0.2788
 2657SOL    HW119430   1.405   3.834   1.956 -0.8348  1.9537 -2.3270
 2657SOL    HW219431   1.403   3.965   2.023  0.2425 -0.2937  1.5411
 2658SOL     OW19432   3.515   1.111   3.948  0.4092 -0.1651  0.0232
 2658SOL    HW119433   3.606   1.098   3.921  0.8960  1.9543  0.6279
 2658SOL    HW219434   3.529   1.127   4.041  0.8082 -0.0524 -0.0547
 2659SOL     OW19435   0.194   1.739   4.766 -0.1663  0.2364 -0.4039
 2659SOL    HW119436   0.148   1.815   4.800 -0.7315 -0.2208 -0.1488
 2659SOL    HW219437   0.129   1.714   4.700  1.9563 -2.7846 -1.3585
 2660SOL     OW19438   2.277   2.898  11.792 -0.5926 -0.5543  0.3272
 2660SOL    HW119439   2.290   2.990  11.768 -1.0679 -0.0448  2.0462
 2660SOL    HW219440   2.334   2.846  11.736  0.8249 -0.6434  1.8940
 2661SOL     OW19441   0.894   2.135   8.134 -0.6901 -0.2369  0.2355
 2661SOL    HW119442   0.955   2.080   8.085  1.2240  1.1782  1.0395
 2661SOL    HW219443   0.914   2.223   8.104  1.6426 -0.4963  1.0095
 2662SOL     OW19444   0.511   3.092   7.785  0.6975 -0.8975  0.8248
 2662SOL    HW119445   0.523   3.090   7.690 -1.0653 -1.8162  0.6220
 2662SOL    HW219446   0.491   2.999   7.795  1.1975 -1.1545 -0.5857
 2663SOL     OW19447   3.876   1.439   3.166 -0.3609  0.0232 -0.2427
 2663SOL    HW119448   3.793   1.399   3.193  0.9316 -1.5313  1.4108
 2663SOL    HW219449   3.893   1.394   3.083  0.7193  1.0277 -0.5564
 2664SOL     OW19450   3.431   3.304   1.296  0.2130 -0.1001 -0.1264
 2664SOL    HW119451   3.404   3.359   1.222  3.2963  0.5367 -0.7525
 2664SOL    HW219452   3.475   3.230   1.255 -2.4837 -0.9327 -1.5582
 2665SOL     OW19453   0.607   1.128   5.311  0.3741 -0.6034  0.0002
 2665SOL    HW119454   0.537   1.191   5.293  0.4130 -0.1426  1.4884
 2665SOL    HW219455   0.615   1.120   5.406  1.4252 -0.2801 -0.0569
 2666SOL     OW19456   0.614   0.609  12.413 -0.0613  0.2306  0.1027
 2666SOL    HW119457   0.675   0.668  12.368  0.2547 -0.3183 -0.1845
 2666SOL    HW219458   0.530   0.643  12.383 -1.4211 -2.1241  1.2533
 2667SOL     OW19459   0.685   2.987  11.031 -0.2186 -0.7947  0.5927
 2667SOL    HW119460   0.676   2.894  11.011  2.2730 -0.8578 -0.2040
 2667SOL    HW219461   0.722   2.983  11.119 -0.4116  1.9165  0.8241
 2668SOL     OW19462   0.268   3.676   7.121 -0.1281 -0.5771  0.2863
 2668SOL    HW119463   0.250   3.755   7.171  0.5985 -1.1468  1.4532
 2668SOL    HW219464   0.184   3.667   7.076 -0.1272 -3.1839  0.7631
 2669SOL     OW19465   0.275   3.628  14.105 -0.3660 -0.1942  0.0365
 2669SOL    HW119466   0.312   3.673  14.181 -1.8121  0.2894  0.4598
 2669SOL    HW219467   0.212   3.690  14.067 -0.0069  0.3113  0.2613
 2670SOL     OW19468   0.536   1.258   1.998  0.1616  0.1786 -0.6995
 2670SOL    HW119469   0.585   1.267   2.079 -0.0010 -0.8567 -0.4831
 2670SOL    HW219470   0.468   1.195   2.024  2.0745 -1.7156 -0.3013
 2671SOL     OW19471   3.387   3.511  13.021 -0.4223 -0.2370 -0.4393
 2671SOL    HW119472   3.445   3.520  13.096 -0.7131 -2.2530  0.0131
 2671SOL    HW219473   3.323   3.450  13.057 -0.5896 -1.0554 -2.1379
 2672SOL     OW19474   2.012   2.138  12.442  0.1971 -0.1476  0.3395
 2672SOL    HW119475   1.929   2.183  12.452  0.5509  0.3001  1.2669
 2672SOL    HW219476   2.029   2.126  12.536  3.2945  2.0322  0.0803
 2673SOL     OW19477   1.185   3.673   5.365  0.3718  0.4285 -0.0205
 2673SOL    HW119478   1.213   3.659   5.455  1.4622  0.1479 -0.3984
 2673SOL    HW219479   1.256   3.731   5.336 -0.5841  0.5145 -2.1789
 2674SOL     OW19480   2.226   1.733   1.306 -0.5304 -0.0927  0.0125
 2674SOL    HW119481   2.306   1.688   1.334 -0.0215  1.7293  1.5247
 2674SOL    HW219482   2.175   1.719   1.386 -0.5660 -1.4261 -0.2392
 2675SOL     OW19483   0.643   3.952   7.066 -0.2590  0.0637 -0.4512
 2675SOL    HW119484   0.652   3.988   7.154  1.4781 -0.7982 -0.2807
 2675SOL    HW219485   0.646   3.857   7.077  0.9530  0.0980 -0.5203
 2676SOL     OW19486   1.075   2.165   2.746  0.3369 -0.5065  0.4743
 2676SOL    HW119487   1.021   2.141   2.671 -0.5384 -2.1005  1.6104
 2676SOL    HW219488   1.161   2.162   2.703  0.6479  0.6114  1.0242
 2677SOL     OW19489   2.778   2.244  11.122  0.3593 -0.6531  0.8146
 2677SOL    HW119490   2.741   2.161  11.152  0.2210 -1.0652 -0.5077
 2677SOL    HW219491   2.745   2.296  11.194 -2.9016 -0.2226 -1.0053
 2678SOL     OW19492   3.006   1.085   5.990  0.0328  0.4024  0.3275
 2678SOL    HW119493   2.977   1.163   5.943 -1.1700 -0.2067  0.0679
 2678SOL    HW219494   3.096   1.071   5.961  0.1525  1.0138  0.4112
 2679SOL     OW19495   0.407   0.211  15.217 -0.1761 -0.7170 -0.3889
 2679SOL    HW119496   0.479   0.234  15.275 -1.1751  0.1751  0.4923
 2679SOL    HW219497   0.447   0.193  15.132 -1.2067  0.4539 -1.1279
 2680SOL     OW19498   4.695   1.474   0.400 -0.1617 -0.3149  0.2224
 2680SOL    HW119499   0.002   1.467   0.491  3.3593  0.2591 -0.8384
 2680SOL    HW219500   4.717   1.565   0.378 -0.3693 -0.2365  0.3463
 2681SOL     OW19501   3.895   1.623  10.285  0.1169 -0.7862 -0.1679
 2681SOL    HW119502   3.822   1.648  10.342  0.1191  4.3698 -2.4215
 2681SOL    HW219503   3.929   1.558  10.346 -0.1477  1.4440  2.3535
 2682SOL     OW19504   0.984   1.644   5.724 -0.0943  0.2557  0.3177
 2682SOL    HW119505   1.053   1.588   5.760 -1.3678 -0.4033  1.7635
 2682SOL    HW219506   1.024   1.668   5.641  2.2110 -1.8285  0.8226
 2683SOL     OW19507   1.996   1.530   4.551 -0.2866  0.4787 -0.1973
 2683SOL    HW119508   1.945   1.594   4.600  0.5161  0.3280  0.8402
 2683SOL    HW219509   2.083   1.566   4.531  0.2525 -0.6810  0.0364
 2684SOL     OW19510   2.238   1.921   3.739  0.2366 -0.1729 -0.4344
 2684SOL    HW119511   2.178   1.860   3.781  1.6584 -0.7093  0.8035
 2684SOL    HW219512   2.282   1.968   3.810 -0.8313  0.9095 -0.4863
 2685SOL     OW19513   4.239   0.511   8.179  0.0152 -0.6217 -0.2106
 2685SOL    HW119514   4.153   0.488   8.144 -0.8827 -0.0960  1.6644
 2685SOL    HW219515   4.268   0.578   8.117 -0.0475  2.4169  3.0694
 2686SOL     OW19516   1.124   2.322   0.158 -0.6707 -0.0462 -0.2144
 2686SOL    HW119517   1.090   2.341   0.071 -0.0911 -0.7505 -0.5932
 2686SOL    HW219518   1.205   2.272   0.147 -0.1703  0.5373  0.8193
 2687SOL     OW19519   4.429   4.185  10.171  0.4246 -0.4068 -0.0277
 2687SOL    HW119520   4.394   4.128  10.102  2.0067 -1.7666  0.2960
 2687SOL    HW219521   4.521   4.160  10.165  0.2934 -0.1304 -3.0663
 2688SOL     OW19522   1.954   1.391  11.153  0.4597  0.0919 -0.4693
 2688SOL    HW119523   1.861   1.412  11.158 -0.4767 -4.1073 -0.2670
 2688SOL    HW219524   1.955   1.295  11.151  1.5721  0.1156 -1.2063
 2689SOL     OW19525   4.627   4.084   4.004  0.8142 -0.5688  0.0627
 2689SOL    HW119526   4.707   4.054   3.959  0.7805 -0.7720  0.1379
 2689SOL    HW219527   4.664   4.136   4.075  0.4249 -0.5797  0.2689
 2690SOL     OW19528   0.798   2.287  10.233 -0.2325  0.5014 -0.4010
 2690SOL    HW119529   0.746   2.274  10.313  2.7958 -0.5260  1.3962
 2690SOL    HW219530   0.882   2.254  10.263 -0.4033  0.1188 -0.3294
 2691SOL     OW19531   2.165   1.783  15.894 -0.4964 -0.3977 -0.2058
 2691SOL    HW119532   2.097   1.729  15.934 -2.1443  0.4353 -1.8888
 2691SOL    HW219533   2.202   1.718  15.835  1.4137 -0.9998  1.6807
 2692SOL     OW19534   4.487   0.002  14.985  0.0333  0.0038 -0.1327
 2692SOL    HW119535   4.489   4.640  14.940  1.2913 -0.3125  0.5189
 2692SOL    HW219536   4.553   4.703  15.051 -0.4489  0.1913  0.4020
 2693SOL     OW19537   4.446   0.234   5.978 -0.3640 -0.4957 -0.0619
 2693SOL    HW119538   4.519   0.176   5.998  1.3848  2.3057  1.6505
 2693SOL    HW219539   4.382   0.203   6.042  1.8957 -2.0919  1.3941
 2694SOL     OW19540   1.853   2.883   2.179  0.0503  0.2186  0.5363
 2694SOL    HW119541   1.823   2.794   2.160  0.8342  0.0172  0.2356
 2694SOL    HW219542   1.775   2.928   2.212 -1.5198 -0.8152 -1.7865
 2695SOL     OW19543   0.762   2.336   7.620 -0.0083 -0.2551  0.2699
 2695SOL    HW119544   0.743   2.302   7.532 -1.1916  1.3201 -0.0760
 2695SOL    HW219545   0.844   2.292   7.641 -0.4606  0.6258  3.9559
 2696SOL     OW19546   1.948   4.005   6.144  0.3119 -0.1651  0.4868
 2696SOL    HW119547   2.030   3.994   6.192 -0.6602  0.5241  2.3271
 2696SOL    HW219548   1.883   3.982   6.211  0.0866  0.7252  0.5784
 2697SOL     OW19549   0.607   1.112   9.663 -0.2760  0.0323  0.4903
 2697SOL    HW119550   0.543   1.069   9.720 -0.3150 -1.4806 -0.6932
 2697SOL    HW219551   0.585   1.202   9.686 -1.8808 -0.4222  0.7930
 2698SOL     OW19552   2.056   1.486   3.537 -0.2711  0.1703 -0.2473
 2698SOL    HW119553   1.962   1.487   3.516 -0.0533 -0.0809 -1.2613
 2698SOL    HW219554   2.095   1.531   3.462 -1.6519 -0.2185 -1.2057
 2699SOL     OW19555   1.032   2.541   4.347  0.6436  0.2891 -0.0071
 2699SOL    HW119556   1.000   2.617   4.395 -0.7933 -0.2208 -0.1514
 2699SOL    HW219557   1.012   2.571   4.258  1.3027 -0.5120 -0.4243
 2700SOL     OW19558   4.364   1.609   7.448  0.0077 -0.2111 -0.1277
 2700SOL    HW119559   4.405   1.555   7.515  1.5036 -0.8016 -1.5186
 2700SOL    HW219560   4.384   1.698   7.476  1.6543 -1.5562  3.0214
 2701SOL     OW19561   2.018   3.625   4.570  0.9508  0.0425  0.9528
 2701SOL    HW119562   1.951   3.622   4.638 -0.9603  0.8653 -0.9164
 2701SOL    HW219563   2.018   3.719   4.553  2.3106 -0.2564 -0.7733
 2702SOL     OW19564   0.280   0.024   6.037 -0.1926  0.3389 -0.6663
 2702SOL    HW119565   0.272   0.011   5.942  0.1626 -0.1389 -0.6337
 2702SOL    HW219566   0.318   0.112   6.040 -2.5814  1.3767 -0.8562
 2703SOL     OW19567   3.835   1.688   4.807  1.1370  0.1761 -0.0473
 2703SOL    HW119568   3.901   1.756   4.800  0.8571  0.4174 -0.3481
 2703SOL    HW219569   3.769   1.726   4.749 -1.9226  0.6020  3.7104
 2704SOL     OW19570   0.372   0.208   9.166 -0.2292 -0.4945 -0.5351
 2704SOL    HW119571   0.313   0.170   9.102  0.9846 -0.9050 -1.4079
 2704SOL    HW219572   0.422   0.128   9.182 -0.9752 -0.5859  1.3243
 2705SOL     OW19573   1.735   0.405   1.569  0.0829  0.0252  0.1076
 2705SOL    HW119574   1.816   0.427   1.616  1.3012  0.7349 -2.2705
 2705SOL    HW219575   1.721   0.492   1.531 -3.5573  0.2266  1.9334
 2706SOL     OW19576   3.616   2.943   7.857  0.1950 -0.1301 -0.0461
 2706SOL    HW119577   3.703   2.977   7.878  0.1308 -0.6072  0.9638
 2706SOL    HW219578   3.593   2.985   7.774 -1.3511  0.1043  0.4899
 2707SOL     OW19579   1.671   2.792   5.789  0.8304  0.7686  0.1231
 2707SOL    HW119580   1.595   2.791   5.847 -0.5349  0.7162 -1.6692
 2707SOL    HW219581   1.688   2.698   5.785  1.6946  0.9893 -1.1297
 2708SOL     OW19582   0.377   0.041   8.093 -0.4674  0.0866 -0.0794
 2708SOL    HW119583   0.307   0.081   8.145  1.5821  0.5032  2.3324
 2708SOL    HW219584   0.407   0.123   8.054  1.7173 -1.0030 -0.6561
 2709SOL     OW19585   1.812   0.919   1.350 -0.4859 -0.1684 -0.8131
 2709SOL    HW119586   1.859   0.954   1.426 -0.8229 -2.3640  0.4243
 2709SOL    HW219587   1.728   0.958   1.376  0.5309  1.1901  0.4750
 2710SOL     OW19588   1.854   1.270   7.655  0.2664 -0.6090 -0.6742
 2710SOL    HW119589   1.913   1.344   7.670  1.0132 -1.5593  1.1466
 2710SOL    HW219590   1.769   1.303   7.628 -0.2413  0.0385  1.6676
 2711SOL     OW19591   1.407   2.227   2.882 -0.4241  0.4184  0.7520
 2711SOL    HW119592   1.371   2.205   2.796  0.4131 -2.5411  1.1530
 2711SOL    HW219593   1.487   2.270   2.853 -0.8087 -0.4692 -1.6119
 2712SOL     OW19594   1.142   3.275   7.309  0.4053  0.3598  0.4660
 2712SOL    HW119595   1.108   3.294   7.221  1.0274  0.2039  0.1922
 2712SOL    HW219596   1.125   3.181   7.304  1.4620  0.2104 -0.2888
 2713SOL     OW19597   1.770   0.917  10.909 -0.0318 -0.0393 -0.3413
 2713SOL    HW119598   1.675   0.925  10.921 -0.1442  0.2491 -1.4588
 2713SOL    HW219599   1.790   0.867  10.989 -2.0516 -0.1442  0.1046
 2714SOL     OW19600   4.100   2.080  13.530  0.3065  0.9455  1.0621
 2714SOL    HW119601   4.130   2.023  13.460 -0.2975 -0.3774  1.8824
 2714SOL    HW219602   4.062   2.156  13.484 -1.3419 -0.5051  0.0124
 2715SOL     OW19603   3.408   3.355   3.226 -0.0562 -0.4531 -0.3782
 2715SOL    HW119604   3.429   3.265   3.249  2.4484  0.4278  0.8088
 2715SOL    HW219605   3.496   3.382   3.202 -1.0630  1.6685 -1.6581
 2716SOL     OW19606   1.731   3.473   6.278 -0.3596  0.1274 -0.2833
 2716SOL    HW119607   1.676   3.495   6.353  0.7973 -1.0403  0.9199
 2716SOL    HW219608   1.713   3.556   6.233  0.8715 -0.1131 -1.2483
 2717SOL     OW19609   0.174   4.475   1.052  0.9241  0.4520  0.8110
 2717SOL    HW119610   0.248   4.495   1.109  0.3305 -2.0913  2.4730
 2717SOL    HW219611   0.224   4.440   0.978 -2.8034 -0.7229 -1.1707
 2718SOL     OW19612   4.603   4.511   1.091 -0.0295 -0.3659  0.0078
 2718SOL    HW119613   4.568   4.459   1.019 -0.9334  1.3828 -0.8012
 2718SOL    HW219614   4.696   4.499   1.069 -0.4656 -0.8802 -1.5387
 2719SOL     OW19615   0.763   3.222  14.590 -0.7688  0.0161  0.5232
 2719SOL    HW119616   0.804   3.168  14.658  1.0663 -1.0292 -1.4333
 2719SOL    HW219617   0.761   3.155  14.522  2.2700 -0.0260  0.4478
 2720SOL     OW19618   3.921   1.733   3.135 -0.2544  0.4142 -0.3727
 2720SOL    HW119619   3.955   1.759   3.221 -1.3823  0.4699  0.0557
 2720SOL    HW219620   3.898   1.643   3.158 -0.4644  0.3039 -1.0060
 2721SOL     OW19621   0.342   3.113  16.915 -0.2181 -0.8918  0.4370
 2721SOL    HW119622   0.301   3.028  16.932 -1.7643 -0.3167 -0.4523
 2721SOL    HW219623   0.319   3.121  16.822 -0.6249 -1.4954  0.4857
 2722SOL     OW19624   1.871   3.585   8.259  0.1709  0.3182  0.2958
 2722SOL    HW119625   1.890   3.669   8.216  1.1332  0.0437  0.1681
 2722SOL    HW219626   1.906   3.521   8.196 -2.2087 -2.0351  1.4107
 2723SOL     OW19627   0.138   2.738  13.595  0.4828  0.6362 -0.3919
 2723SOL    HW119628   0.064   2.697  13.639  1.1071 -0.3395 -0.2271
 2723SOL    HW219629   0.118   2.831  13.601  2.0521  0.9856 -0.5222
 2724SOL     OW19630   4.420   1.438   7.230 -0.2671 -0.7115  0.5453
 2724SOL    HW119631   4.436   1.493   7.154  0.3731  1.2674  2.1099
 2724SOL    HW219632   4.400   1.504   7.296 -0.3686 -0.3146  0.1104
 2725SOL     OW19633   1.343   2.925   5.274 -0.1744 -0.1091  0.0029
 2725SOL    HW119634   1.317   2.994   5.335 -1.3032 -0.9457  0.4519
 2725SOL    HW219635   1.398   2.873   5.333  1.7772  0.5622 -1.1958
 2726SOL     OW19636   2.104   4.586   3.881  0.0455 -0.0815  0.2194
 2726SOL    HW119637   2.031   4.641   3.910  0.2443  0.4900 -0.3648
 2726SOL    HW219638   2.056   4.532   3.818 -1.1285  0.9718  0.2134
 2727SOL     OW19639   2.858   1.227   3.370  0.1511 -0.0190 -0.1106
 2727SOL    HW119640   2.838   1.305   3.319 -1.0111 -0.7162 -0.7139
 2727SOL    HW219641   2.774   1.205   3.409  0.0828 -0.0254 -0.2612
 2728SOL     OW19642   0.704   2.129  17.077 -0.6302  0.2187  0.6638
 2728SOL    HW119643   0.786   2.145  17.123  0.2368 -2.6321  0.1311
 2728SOL    HW219644   0.741   2.098  16.994 -2.0505  1.4057 -0.4114
 2729SOL     OW19645   2.499   2.033  10.231 -1.0959  0.3579 -0.3581
 2729SOL    HW119646   2.515   1.980  10.309 -0.7535 -0.7406 -1.1752
 2729SOL    HW219647   2.410   2.008  10.205 -1.5034  0.2162  1.1834
 2730SOL     OW19648   1.578   2.185   1.841  0.1613  0.3386  0.5405
 2730SOL    HW119649   1.565   2.248   1.770 -1.1181 -0.3903  0.1317
 2730SOL    HW219650   1.493   2.143   1.829 -0.6052  2.0280  0.0435
 2731SOL     OW19651   4.566   2.840   3.756  0.7893 -0.1381  0.5310
 2731SOL    HW119652   4.642   2.899   3.758  0.5618  0.1696  0.2207
 2731SOL    HW219653   4.590   2.790   3.677 -0.2708 -0.4355  0.4020
 2732SOL     OW19654   2.022   2.757  14.201 -0.6045 -0.2352  1.2858
 2732SOL    HW119655   1.946   2.704  14.226 -0.6302 -0.6587  0.3010
 2732SOL    HW219656   1.998   2.835  14.252  0.9988  0.3166  1.1840
 2733SOL     OW19657   1.190   1.991   3.306  0.2031 -0.2848 -0.2644
 2733SOL    HW119658   1.107   1.963   3.345  0.5321 -0.9180 -0.0303
 2733SOL    HW219659   1.168   1.976   3.214 -0.7117 -1.9734  0.2263
 2734SOL     OW19660   3.947   3.759   4.323 -0.0510 -0.1646 -0.0317
 2734SOL    HW119661   3.947   3.790   4.414 -1.8638 -1.5849  0.4458
 2734SOL    HW219662   3.954   3.664   4.325  1.8483  0.0385  2.9236
 2735SOL     OW19663   4.069   2.951   9.425 -0.3025 -0.4384  0.3045
 2735SOL    HW119664   4.011   2.891   9.472  1.4434 -0.9008  1.8652
 2735SOL    HW219665   4.014   3.026   9.402  0.0648 -0.1753  0.2943
 2736SOL     OW19666   0.566   1.949  15.751 -0.4000 -0.6264  0.6601
 2736SOL    HW119667   0.591   2.041  15.746  0.5841 -0.9613 -0.4606
 2736SOL    HW219668   0.588   1.927  15.661  1.1247  2.2633  0.3069
 2737SOL     OW19669   0.831   1.862   9.704 -0.3146  0.0405 -0.6277
 2737SOL    HW119670   0.739   1.870   9.678  0.0439 -0.4303 -2.0161
 2737SOL    HW219671   0.862   1.810   9.631 -1.6035  1.3905 -2.1360
 2738SOL     OW19672   4.475   4.519  14.004  0.1259  0.8883 -0.0829
 2738SOL    HW119673   4.547   4.459  14.025 -1.9204 -1.5170 -0.0033
 2738SOL    HW219674   4.461   4.514  13.909  0.5787  0.3233 -0.1232
 2739SOL     OW19675   0.612   3.973   8.173  0.2614  0.7168 -0.6138
 2739SOL    HW119676   0.668   4.050   8.169  0.8902  0.4123  2.1459
 2739SOL    HW219677   0.660   3.925   8.241 -1.1199  0.3187  0.0969
 2740SOL     OW19678   0.989   1.526   4.041 -0.0592  0.0724  0.0263
 2740SOL    HW119679   1.006   1.608   3.994 -2.2233  0.8570  0.6382
 2740SOL    HW219680   1.062   1.470   4.013 -0.6990 -0.3536 -0.7777
 2741SOL     OW19681   3.360   1.733  11.916  0.1273  0.2220 -0.1737
 2741SOL    HW119682   3.402   1.817  11.898  1.8393 -0.4363  0.7142
 2741SOL    HW219683   3.293   1.752  11.982  0.7878  0.5033  0.4150
 2742SOL     OW19684   0.277   2.663   8.080 -0.5254 -0.4479  0.1402
 2742SOL    HW119685   0.301   2.577   8.113 -1.5252 -0.6946  0.2224
 2742SOL    HW219686   0.238   2.635   7.997  2.0387 -2.1213 -0.4796
 2743SOL     OW19687   2.215   4.651   7.328  0.4392 -0.6949  0.0040
 2743SOL    HW119688   2.139   4.629   7.274 -0.2356  0.1150  0.6323
 2743SOL    HW219689   2.191   4.618   7.415 -1.7584  0.6361 -0.1248
 2744SOL     OW19690   3.549   1.287  14.565  0.3189 -0.2532  0.2568
 2744SOL    HW119691   3.641   1.272  14.586  0.4472 -0.2082 -0.2915
 2744SOL    HW219692   3.550   1.203  14.519  1.6009  0.5255 -1.1226
 2745SOL     OW19693   0.427   3.315  14.602 -0.3239 -0.1517  0.2543
 2745SOL    HW119694   0.447   3.227  14.569  3.4023  0.1505  1.6888
 2745SOL    HW219695   0.436   3.357  14.517  1.1958 -1.1706 -0.0836
 2746SOL     OW19696   3.217   1.232   1.776  0.0409  0.0247  0.0107
 2746SOL    HW119697   3.149   1.298   1.788 -1.3446 -1.5296  0.6737
 2746SOL    HW219698   3.166   1.153   1.795 -0.4490  0.3262 -0.0540
 2747SOL     OW19699   3.915   1.832  12.558 -0.8320  0.0202  0.1700
 2747SOL    HW119700   3.895   1.738  12.560  0.3065 -0.2581 -1.7323
 2747SOL    HW219701   3.905   1.845  12.464  3.9824 -0.4656 -0.4470
 2748SOL     OW19702   2.047   0.804  16.708 -0.6411  0.4624 -0.1392
 2748SOL    HW119703   2.118   0.757  16.663 -1.8855 -1.4873 -0.0904
 2748SOL    HW219704   1.974   0.761  16.664 -1.2866  0.2665  1.1386
 2749SOL     OW19705   4.087   1.917   7.692  0.4883 -0.3647 -0.2902
 2749SOL    HW119706   4.127   1.940   7.608 -0.2230 -0.0107 -0.5246
 2749SOL    HW219707   4.163   1.943   7.745 -0.0544  1.0101 -0.1941
 2750SOL     OW19708   3.684   4.485  14.415 -0.3096 -0.0460  0.1697
 2750SOL    HW119709   3.662   4.576  14.438 -1.2746 -0.0943 -0.5692
 2750SOL    HW219710   3.627   4.437  14.475 -0.8284  0.1690 -0.1483
 2751SOL     OW19711   0.447   2.044   7.367  0.0638 -0.1060  0.3385
 2751SOL    HW119712   0.368   2.024   7.316 -0.3757 -0.6541  1.2231
 2751SOL    HW219713   0.406   2.066   7.451  1.1839  1.9493  0.3534
 2752SOL     OW19714   1.690   0.010   5.052  0.1469  0.3723 -0.5706
 2752SOL    HW119715   1.774   0.010   5.005  0.1119  2.1870 -0.6131
 2752SOL    HW219716   1.639   4.669   5.001 -1.3808  0.1388  1.2723
 2753SOL     OW19717   1.101   1.593   6.251  0.0334  0.2072 -0.3344
 2753SOL    HW119718   1.169   1.637   6.200 -0.2235 -0.8891 -1.6183
 2753SOL    HW219719   1.031   1.587   6.186  0.2054  1.3877 -0.6209
 2754SOL     OW19720   1.495   0.988   8.301  0.3904 -0.0222  0.0085
 2754SOL    HW119721   1.536   0.902   8.307 -1.3263 -0.8877 -0.6720
 2754SOL    HW219722   1.406   0.960   8.280  0.1666  1.1120 -0.5518
 2755SOL     OW19723   4.321   3.318   4.460  0.2027 -0.4951  0.2864
 2755SOL    HW119724   4.345   3.396   4.511 -0.6863  1.0059 -1.5802
 2755SOL    HW219725   4.244   3.289   4.510  1.6107 -0.5622  2.4293
 2756SOL     OW19726   2.511   4.573   3.880 -0.1846 -0.1008 -0.2023
 2756SOL    HW119727   2.581   4.638   3.864 -2.3093  2.0561 -0.7693
 2756SOL    HW219728   2.486   4.593   3.970 -2.6287 -0.9764 -0.7034
 2757SOL     OW19729   1.942   2.784   4.283  0.3360  0.1642  0.2097
 2757SOL    HW119730   1.966   2.811   4.372 -0.7569 -0.8494  0.8224
 2757SOL    HW219731   1.849   2.765   4.297  0.2568 -0.6618 -1.3686
 2758SOL     OW19732   1.007   2.372   9.141  0.3746 -0.1938 -0.2693
 2758SOL    HW119733   1.088   2.392   9.093  1.6264  0.9671  2.3241
 2758SOL    HW219734   1.027   2.283   9.171 -0.3881  0.1141  1.1497
 2759SOL     OW19735   0.748   1.568  11.605 -0.3591 -0.3256  0.4970
 2759SOL    HW119736   0.745   1.664  11.609 -1.8595 -0.3227 -0.7988
 2759SOL    HW219737   0.842   1.552  11.611 -0.0029  0.8500 -1.9795
 2760SOL     OW19738   2.458   2.112   3.503  0.1533  0.4347  0.2368
 2760SOL    HW119739   2.456   2.206   3.520 -2.8301  0.6411 -1.2197
 2760SOL    HW219740   2.371   2.090   3.469 -0.4799  3.2120  0.0682
 2761SOL     OW19741   4.390   2.869   7.477 -0.2207  0.4954 -0.0707
 2761SOL    HW119742   4.474   2.858   7.432  0.2115 -1.5532  1.2538
 2761SOL    HW219743   4.336   2.832   7.406 -4.0312  0.1298  3.0247
 2762SOL     OW19744   2.479   4.468   4.415 -0.4282  0.3230  0.0158
 2762SOL    HW119745   2.507   4.538   4.473  3.4977 -2.7453  1.8023
 2762SOL    HW219746   2.563   4.422   4.411  0.6703  2.4670 -1.5604
 2763SOL     OW19747   2.701   2.834  10.601  0.3468 -0.0167  0.2938
 2763SOL    HW119748   2.788   2.801  10.622  0.9253  0.4751 -1.3496
 2763SOL    HW219749   2.712   2.929  10.604  2.2731 -0.2396  0.4877
 2764SOL     OW19750   1.353   1.459  17.335 -0.2325  0.5820 -0.0758
 2764SOL    HW119751   1.419   1.516  17.295  0.4089 -0.0730  0.0310
 2764SOL    HW219752   1.361   1.472  17.429 -0.0784 -0.4410  0.0498
 2765SOL     OW19753   2.053   1.241   8.901 -0.3216 -0.3677  0.3810
 2765SOL    HW119754   2.065   1.200   8.987  1.1798 -1.7911 -0.4975
 2765SOL    HW219755   1.960   1.263   8.902 -0.2343  0.0017  0.1718
 2766SOL     OW19756   0.505   1.541   4.873 -0.1256  0.2122 -0.3844
 2766SOL    HW119757   0.542   1.472   4.929 -1.3007  1.1663  1.5562
 2766SOL    HW219758   0.454   1.486   4.814 -0.0588 -0.2299 -0.0313
 2767SOL     OW19759   1.288   0.834   5.923 -0.7590  0.4098  0.2097
 2767SOL    HW119760   1.236   0.891   5.865  0.2243 -0.4951 -1.5634
 2767SOL    HW219761   1.357   0.897   5.946 -1.1503  0.3625  1.4679
 2768SOL     OW19762   0.043   1.867   5.461 -0.3684  1.2001  0.2702
 2768SOL    HW119763   0.055   1.774   5.476  3.0749  1.5172 -0.4926
 2768SOL    HW219764   0.128   1.874   5.417  0.6545 -1.7888  1.7864
 2769SOL     OW19765   3.718   2.093   1.709  0.2019  0.8067 -0.7975
 2769SOL    HW119766   3.636   2.141   1.715  0.5362  1.3512 -0.5539
 2769SOL    HW219767   3.705   2.022   1.771  0.8309 -0.1489 -1.7459
 2770SOL     OW19768   1.146   4.482   9.502 -0.0194 -0.7841 -0.4169
 2770SOL    HW119769   1.211   4.415   9.479 -0.9765 -2.1368  0.7639
 2770SOL    HW219770   1.184   4.564   9.471 -1.8122 -0.1059 -0.8103
 2771SOL     OW19771   1.057   2.337   9.649 -0.6461 -0.3457 -0.0761
 2771SOL    HW119772   1.112   2.377   9.582  0.5510  0.4866  1.3958
 2771SOL    HW219773   1.107   2.256   9.664  0.8040  0.2999 -1.5038
 2772SOL     OW19774   0.121   4.667  15.835  0.3108 -0.5591 -0.2015
 2772SOL    HW119775   0.202   4.681  15.786  0.7895 -0.2454  0.6689
 2772SOL    HW219776   0.126   0.001  15.912  1.9012 -1.4424  0.3472
 2773SOL     OW19777   4.094   2.818   5.777 -0.1238  0.5204  0.6549
 2773SOL    HW119778   4.103   2.913   5.784 -0.1298  0.6197 -0.7276
 2773SOL    HW219779   4.185   2.792   5.791 -0.1264  0.4870  0.6063
 2774SOL     OW19780   1.713   1.037   5.988  0.1834 -0.2144  0.5016
 2774SOL    HW119781   1.620   1.039   6.011  0.9502  0.3109  3.5626
 2774SOL    HW219782   1.738   1.124   6.019 -0.9624  0.5313 -0.6567
 2775SOL     OW19783   3.396   2.352   2.230  0.1632 -0.5406  0.6598
 2775SOL    HW119784   3.445   2.276   2.261 -2.8814 -3.5107 -1.7600
 2775SOL    HW219785   3.328   2.312   2.176  0.4362  1.2190 -0.9732
 2776SOL     OW19786   1.525   2.783   2.195  0.0348  0.5627 -0.0611
 2776SOL    HW119787   1.577   2.833   2.259  2.0439 -1.9050  0.2285
 2776SOL    HW219788   1.581   2.713   2.163 -1.3781  0.0662 -1.4346
 2777SOL     OW19789   2.060   3.138   9.211  0.7934 -0.2781 -0.3913
 2777SOL    HW119790   2.024   3.150   9.299  2.0802  1.4363 -0.0984
 2777SOL    HW219791   2.149   3.115   9.239  0.7899 -0.8611 -0.8445
 2778SOL     OW19792   1.909   3.298  12.447  0.4451 -0.1080 -0.0116
 2778SOL    HW119793   1.994   3.256  12.454  0.8980  0.7434 -0.3997
 2778SOL    HW219794   1.907   3.349  12.366 -0.1585 -1.7907 -1.0340
 2779SOL     OW19795   1.361   0.932   4.171 -0.5591  0.1328 -0.0873
 2779SOL    HW119796   1.424   0.969   4.110 -0.2182 -1.0595 -0.4580
 2779SOL    HW219797   1.404   0.947   4.256 -0.9806 -2.9747  0.7014
 2780SOL     OW19798   1.993   3.706   5.458  0.2938  0.1979  0.1615
 2780SOL    HW119799   1.945   3.713   5.376 -0.0654  1.7360  0.4967
 2780SOL    HW219800   1.967   3.628   5.507 -0.1016 -1.1022 -2.1255
 2781SOL     OW19801   0.678   4.253  15.429  0.3221 -0.3157  1.1349
 2781SOL    HW119802   0.584   4.244  15.443  0.0571  1.0916  0.3139
 2781SOL    HW219803   0.681   4.334  15.378 -2.2634 -1.9364 -1.5802
 2782SOL     OW19804   4.573   3.284   7.993  0.1080 -0.0533  0.4126
 2782SOL    HW119805   4.633   3.293   7.919 -1.6326  1.5220 -0.8344
 2782SOL    HW219806   4.631   3.227   8.043  1.2530  0.6313 -0.1240
 2783SOL     OW19807   3.357   0.238   7.399  0.6240  0.6235 -0.5672
 2783SOL    HW119808   3.321   0.319   7.435  0.2052  0.5194 -0.7630
 2783SOL    HW219809   3.387   0.282   7.320 -0.9044 -0.9197 -1.9863
 2784SOL     OW19810   2.025   0.373   7.570 -0.3755 -0.5919 -0.2302
 2784SOL    HW119811   2.101   0.430   7.585  0.1367 -0.7549 -2.1488
 2784SOL    HW219812   1.987   0.364   7.658 -2.3563  0.5740 -0.9763
 2785SOL     OW19813   4.103   1.508   8.277 -0.5387  0.2571 -0.2856
 2785SOL    HW119814   4.036   1.567   8.312 -0.1592  0.9760 -0.7768
 2785SOL    HW219815   4.089   1.510   8.183  1.6265 -3.0516 -0.7030
 2786SOL     OW19816   1.165   3.911   5.036 -0.2487 -0.2149  0.2620
 2786SOL    HW119817   1.164   3.817   5.018 -0.5805  0.0612 -1.1915
 2786SOL    HW219818   1.208   3.944   4.957 -2.2221 -0.8818 -1.1090
 2787SOL     OW19819   0.321   2.509   0.759  0.0284 -0.6455  0.2207
 2787SOL    HW119820   0.288   2.595   0.731  0.8301 -0.0853  0.9964
 2787SOL    HW219821   0.246   2.456   0.732  0.5693  0.1707 -2.8389
 2788SOL     OW19822   1.657   0.664   6.833 -0.2434 -0.1736 -0.3207
 2788SOL    HW119823   1.717   0.646   6.760  1.2921 -0.1814  0.9499
 2788SOL    HW219824   1.693   0.745   6.870 -0.5119  1.2156 -3.0827
 2789SOL     OW19825   3.907   1.649  11.737  0.1978  0.3038  0.6020
 2789SOL    HW119826   3.842   1.718  11.751 -0.8316 -0.4512 -0.5004
 2789SOL    HW219827   3.889   1.603  11.819 -1.2374  2.5553  1.5467
 2790SOL     OW19828   0.969   3.149   8.625  0.3058  0.7605  0.4530
 2790SOL    HW119829   0.935   3.131   8.537  0.8774  1.1249  0.1520
 2790SOL    HW219830   0.944   3.240   8.644  0.3628  1.0246 -0.7280
 2791SOL     OW19831   2.857   3.152   8.986 -0.5982  0.4169 -0.6777
 2791SOL    HW119832   2.933   3.194   8.946 -0.9645 -0.6188 -2.4643
 2791SOL    HW219833   2.898   3.079   9.033 -2.4509  0.2608  0.7124
 2792SOL     OW19834   0.422   3.281  12.448 -0.1153 -0.3523  0.2786
 2792SOL    HW119835   0.447   3.189  12.435 -0.3057 -0.3567 -0.0486
 2792SOL    HW219836   0.398   3.297  12.357 -1.4255 -2.9188  0.1564
 2793SOL     OW19837   3.877   3.917   6.722  0.6637 -0.2114  0.4025
 2793SOL    HW119838   3.789   3.953   6.732  0.2068 -1.1125 -0.3213
 2793SOL    HW219839   3.861   3.825   6.699 -0.5046  0.4418 -1.4295
 2794SOL     OW19840   4.532   0.946   5.732  0.0627 -0.5670  0.6730
 2794SOL    HW119841   4.438   0.952   5.751 -0.4536  0.3563 -2.1489
 2794SOL    HW219842   4.562   0.867   5.776 -0.2215 -0.1267  1.6629
 2795SOL     OW19843   3.275   4.490  15.148  0.2220 -0.1740 -0.6988
 2795SOL    HW119844   3.230   4.408  15.126  0.4559 -0.7049  0.8266
 2795SOL    HW219845   3.204   4.547  15.178  0.2432 -0.1983 -0.6017
 2796SOL     OW19846   0.834   3.799   8.317 -0.3439 -0.0325  0.2272
 2796SOL    HW119847   0.891   3.796   8.240  0.2877 -0.6274  0.7232
 2796SOL    HW219848   0.890   3.750   8.377 -0.7126 -0.6986  0.0317
 2797SOL     OW19849   4.282   3.504   4.682  0.3170  0.2990 -0.7145
 2797SOL    HW119850   4.269   3.412   4.705  0.1185  0.5003 -0.0176
 2797SOL    HW219851   4.242   3.550   4.756  3.7368  2.0143  0.0797
 2798SOL     OW19852   2.428   3.238  15.546  0.3514  0.6398 -0.2886
 2798SOL    HW119853   2.479   3.160  15.524  1.7234  1.1103  1.1880
 2798SOL    HW219854   2.468   3.263  15.629  0.3497  1.3477 -0.5043
 2799SOL     OW19855   2.632   3.051   9.295 -1.0396 -0.0085  0.1797
 2799SOL    HW119856   2.665   2.993   9.364 -2.1085  0.1799  0.8478
 2799SOL    HW219857   2.638   2.998   9.215  1.5581  0.5157  0.0402
 2800SOL     OW19858   3.389   3.063   5.077  0.0875  0.1568  0.2323
 2800SOL    HW119859   3.294   3.065   5.070  0.1194  0.8534  0.0202
 2800SOL    HW219860   3.409   3.111   4.996  0.5770  1.4279  1.1032
 2801SOL     OW19861   2.661   4.664   1.438 -0.0562 -0.1929 -0.3858
 2801SOL    HW119862   2.624   4.643   1.524 -0.8675  1.2814 -0.3821
 2801SOL    HW219863   2.712   4.583   1.432 -1.5274 -1.1211 -0.4533
 2802SOL     OW19864   4.030   0.075   2.727  0.2558 -0.0902 -0.4733
 2802SOL    HW119865   4.103   0.137   2.727 -0.3985  0.6824 -0.6648
 2802SOL    HW219866   4.066   4.722   2.774 -0.4319  0.5288  1.0358
 2803SOL     OW19867   0.307   4.411   0.803 -0.1107 -0.3986  0.2038
 2803SOL    HW119868   0.298   4.363   0.721  2.1525 -1.2705  0.4567
 2803SOL    HW219869   0.385   4.370   0.840  0.2498  0.7990  0.7683
 2804SOL     OW19870   1.317   4.304  16.031 -0.2351  0.2683  0.4231
 2804SOL    HW119871   1.341   4.216  16.003 -0.7801 -0.8129  3.3043
 2804SOL    HW219872   1.376   4.358  15.978  1.4670  0.3791  2.4134
 2805SOL     OW19873   0.896   4.594  16.439 -0.1170 -0.2952 -0.0155
 2805SOL    HW119874   0.896   4.569  16.346 -2.6708 -2.5520  0.6005
 2805SOL    HW219875   0.852   4.521  16.482  1.5399  0.0750  2.2934
 2806SOL     OW19876   2.656   1.043  10.031  0.1726  0.0036 -0.3776
 2806SOL    HW119877   2.742   1.069  10.063 -1.6226  1.7339  3.0769
 2806SOL    HW219878   2.629   0.984  10.101  0.8972  2.5085  1.9687
 2807SOL     OW19879   0.121   3.539   4.567 -0.2463 -0.2905 -0.2812
 2807SOL    HW119880   0.100   3.600   4.496  0.2987 -0.4995 -0.6179
 2807SOL    HW219881   0.200   3.577   4.606  0.7497 -1.0157 -1.6205
 2808SOL     OW19882   1.574   4.680  11.314 -0.5732 -0.2038 -0.4496
 2808SOL    HW119883   1.547   4.594  11.348  0.8187  0.0120  1.2052
 2808SOL    HW219884   1.653   4.701  11.364 -0.8371 -0.8567  0.2429
 2809SOL     OW19885   0.782   4.224  16.862 -0.0827  0.0773  0.0617
 2809SOL    HW119886   0.808   4.288  16.929  3.3946  1.4441 -2.6084
 2809SOL    HW219887   0.795   4.139  16.903 -1.9603  0.0590  0.6225
 2810SOL     OW19888   2.580   0.847   7.475  0.1576 -0.0089 -0.8670
 2810SOL    HW119889   2.494   0.826   7.438 -1.1328 -0.0429  2.1237
 2810SOL    HW219890   2.631   0.863   7.396  2.6690  2.3373  1.2384
 2811SOL     OW19891   3.281   2.903   1.299  0.2658  0.5955  0.3072
 2811SOL    HW119892   3.304   2.869   1.213  1.5522 -0.0730  0.9287
 2811SOL    HW219893   3.329   2.843   1.355 -3.1827 -0.1885  2.4385
 2812SOL     OW19894   4.253   2.097  13.766  0.1784  0.0870  0.4513
 2812SOL    HW119895   4.311   2.032  13.727 -0.9665 -0.8236  0.2563
 2812SOL    HW219896   4.201   2.112  13.687  1.5413 -0.9502 -0.6406
 2813SOL     OW19897   4.054   4.409  11.894  0.8692 -0.1260 -0.4733
 2813SOL    HW119898   4.112   4.453  11.831  1.7042 -0.9682 -0.2941
 2813SOL    HW219899   4.086   4.319  11.896  0.5548 -0.1437  3.9648
 2814SOL     OW19900   2.243   1.972  13.605 -0.3083 -0.0913  0.0317
 2814SOL    HW119901   2.289   2.011  13.531 -0.8696 -1.8058 -1.2408
 2814SOL    HW219902   2.286   1.886  13.606 -1.3553 -0.6370 -1.0305
 2815SOL     OW19903   3.402   1.505  10.354  0.1142  0.3728  0.0814
 2815SOL    HW119904   3.450   1.474  10.430  1.5062  1.9219 -0.1651
 2815SOL    HW219905   3.340   1.433  10.341 -0.9516  1.7225 -2.5201
 2816SOL     OW19906   1.748   1.380   7.313 -0.0440 -0.1112  0.1749
 2816SOL    HW119907   1.822   1.321   7.302  0.0347  0.0083  0.0704
 2816SOL    HW219908   1.780   1.429   7.388  2.1449 -0.5849 -0.4407
 2817SOL     OW19909   3.247   2.322   5.227  0.2713  0.3065 -0.2449
 2817SOL    HW119910   3.268   2.229   5.228 -0.7401  0.0895  1.0699
 2817SOL    HW219911   3.272   2.335   5.136  1.0096 -0.5962 -0.1673
 2818SOL     OW19912   0.321   1.679   6.952 -0.5735  0.1587  0.2169
 2818SOL    HW119913   0.274   1.750   6.995  1.9881  0.8500  1.8021
 2818SOL    HW219914   0.322   1.711   6.862  0.0025 -2.6901 -0.7965
 2819SOL     OW19915   2.781   2.607  11.360  0.2806 -0.2813  0.3927
 2819SOL    HW119916   2.860   2.661  11.357  1.0136 -1.3351  0.7938
 2819SOL    HW219917   2.812   2.518  11.342  0.6301 -0.1333  0.2577
 2820SOL     OW19918   1.405   4.016   1.566  0.2313 -0.3623  0.2853
 2820SOL    HW119919   1.378   4.099   1.604 -0.7621 -2.1794  3.5507
 2820SOL    HW219920   1.331   3.992   1.510 -0.3819  1.8972  0.1241
 2821SOL     OW19921   3.729   4.395   1.680  0.2332 -0.5308 -0.6728
 2821SOL    HW119922   3.751   4.323   1.738  0.6496  0.8746  0.9067
 2821SOL    HW219923   3.808   4.407   1.627  1.1812  1.0307  1.0931
 2822SOL     OW19924   1.531   2.733   6.011  0.1475 -0.3682 -0.1463
 2822SOL    HW119925   1.590   2.679   6.064  0.9874  0.2972 -0.4005
 2822SOL    HW219926   1.451   2.689   6.040 -0.0386 -1.1907 -1.9362
 2823SOL     OW19927   3.684   4.656   1.921 -0.2023  0.1127  0.7829
 2823SOL    HW119928   3.667   4.570   1.882 -2.2210  1.8719 -2.2854
 2823SOL    HW219929   3.744   4.624   1.987 -0.7016  1.3994  1.8775
 2824SOL     OW19930   4.429   4.076   1.444  0.3761  0.1621  0.7284
 2824SOL    HW119931   4.379   4.007   1.401  2.0436  0.1283 -1.1332
 2824SOL    HW219932   4.361   4.109   1.503  0.0369  2.0989 -0.7873
 2825SOL     OW19933   4.507   3.053   5.879 -0.0427 -0.2364  0.0550
 2825SOL    HW119934   4.493   2.991   5.807  0.9353 -0.8015  0.3488
 2825SOL    HW219935   4.583   3.100   5.848 -2.3577  1.9366 -2.3176
 2826SOL     OW19936   0.965   1.915   3.437 -0.5653 -0.1477  0.3210
 2826SOL    HW119937   0.932   1.912   3.527  0.5412 -0.2573  0.7218
 2826SOL    HW219938   0.939   2.002   3.407  0.3295 -0.1595 -0.4893
 2827SOL     OW19939   1.872   3.997   4.026 -0.6265  0.1653 -0.4322
 2827SOL    HW119940   1.830   3.993   3.940  1.6257 -3.2260 -1.3490
 2827SOL    HW219941   1.963   4.000   3.997  0.1465  0.3406  1.9654
 2828SOL     OW19942   1.265   0.291  14.349  0.4583 -0.2118 -0.1325
 2828SOL    HW119943   1.325   0.313  14.420  1.9386  0.6029 -1.6463
 2828SOL    HW219944   1.180   0.321  14.381  2.0346 -0.3454  4.1488
 2829SOL     OW19945   4.147   2.129   3.467  0.0404 -0.4361 -0.1976
 2829SOL    HW119946   4.236   2.156   3.486  0.3074 -0.8169 -0.9291
 2829SOL    HW219947   4.151   2.142   3.373 -5.4592  1.1955 -0.2284
 2830SOL     OW19948   0.416   4.597   3.730 -0.0613 -0.1923 -0.0373
 2830SOL    HW119949   0.392   4.596   3.822  4.0052  0.1308  1.0273
 2830SOL    HW219950   0.358   4.663   3.691  0.1003  0.3507  0.6357
 2831SOL     OW19951   3.046   3.698   1.779  0.4914  0.3537 -0.9175
 2831SOL    HW119952   3.032   3.603   1.780  0.2039  0.3899 -1.3010
 2831SOL    HW219953   2.955   3.730   1.780  0.4137  0.1776 -2.8210
 2832SOL     OW19954   3.587   2.372   1.128  0.3530 -0.3306 -0.5913
 2832SOL    HW119955   3.594   2.361   1.223 -0.3915 -0.3348 -0.5343
 2832SOL    HW219956   3.641   2.302   1.093  0.7018  0.8384 -2.3818
 2833SOL     OW19957   3.943   2.569  16.685  0.5105 -0.1282  0.4833
 2833SOL    HW119958   3.929   2.664  16.684  1.8474  0.0767  1.0493
 2833SOL    HW219959   3.867   2.545  16.738 -1.4056  2.6445 -1.0196
 2834SOL     OW19960   3.096   3.118  14.364  0.1102  0.6012  0.3592
 2834SOL    HW119961   3.119   3.060  14.292 -2.4913 -1.9382  1.5476
 2834SOL    HW219962   3.133   3.065  14.435 -1.2671 -2.0559 -0.9100
 2835SOL     OW19963   2.987   0.037   6.697 -0.1640 -0.5802 -0.0218
 2835SOL    HW119964   2.932   0.090   6.755 -0.8995  0.1059 -1.3606
 2835SOL    HW219965   2.963   4.669   6.718  0.3156 -0.7745 -0.3235
 2836SOL     OW19966   0.281   0.407   7.916  0.3880  0.1990 -0.2766
 2836SOL    HW119967   0.218   0.472   7.885 -2.3423 -3.4491 -2.3495
 2836SOL    HW219968   0.276   0.432   8.009 -1.2248 -2.0173  0.2285
 2837SOL     OW19969   1.420   0.222   4.808  0.2230  0.0043  0.2262
 2837SOL    HW119970   1.435   0.262   4.893 -0.5345  0.9357 -0.0653
 2837SOL    HW219971   1.486   0.153   4.809 -0.4353 -0.5240  3.9256
 2838SOL     OW19972   0.447   0.892   8.780  0.1757  0.5655  0.8777
 2838SOL    HW119973   0.465   0.977   8.820  0.5502  1.4463 -1.2133
 2838SOL    HW219974   0.351   0.898   8.788 -0.1419 -0.3397 -2.3187
 2839SOL     OW19975   1.319   0.137   8.857  0.5210  0.1018 -0.6793
 2839SOL    HW119976   1.303   0.055   8.905 -0.0050  1.7413  1.9095
 2839SOL    HW219977   1.230   0.151   8.824  1.4961 -0.1448 -3.4202
 2840SOL     OW19978   2.506   0.215  15.125 -0.1134 -0.0037  0.4543
 2840SOL    HW119979   2.602   0.221  15.119  0.0189 -0.6652  1.8761
 2840SOL    HW219980   2.494   0.140  15.182 -0.4624 -0.1084  0.2410
 2841SOL     OW19981   2.134   1.209   2.899 -0.2999 -0.0601  0.6743
 2841SOL    HW119982   2.064   1.156   2.937 -1.7752  1.5177  0.1795
 2841SOL    HW219983   2.098   1.223   2.811  0.4077 -3.1263 -0.1017
 2842SOL     OW19984   4.271   0.955   2.217 -0.8459 -0.2456  0.5595
 2842SOL    HW119985   4.209   0.955   2.144 -2.0154  0.6413  1.5594
 2842SOL    HW219986   4.329   0.887   2.183 -1.5342 -0.4301 -0.2376
 2843SOL     OW19987   2.236   2.341   4.537  0.1210  0.5599 -0.2795
 2843SOL    HW119988   2.284   2.397   4.475 -0.1872 -2.2409 -3.0483
 2843SOL    HW219989   2.160   2.397   4.552 -0.0679 -0.1169  1.2282
 2844SOL     OW19990   3.122   3.021   2.243 -0.1136 -0.0125  0.7647
 2844SOL    HW119991   3.124   2.928   2.220 -0.4475  0.6306 -1.8538
 2844SOL    HW219992   3.194   3.024   2.306  1.3813 -1.0694 -0.8562
 2845SOL     OW19993   2.941   4.155   3.089 -0.1798  0.0962  0.0374
 2845SOL    HW119994   2.997   4.213   3.140 -0.2081  0.2996 -0.1659
 2845SOL    HW219995   2.871   4.207   3.050 -0.3385 -1.4129 -1.6570
 2846SOL     OW19996   2.822   0.398   3.007  0.0732  0.1593  0.0686
 2846SOL    HW119997   2.763   0.406   2.932  1.3641 -2.0039 -1.1379
 2846SOL    HW219998   2.828   0.303   3.009  0.2191  0.1403 -1.3204
 2847SOL     OW19999   3.279   2.086  12.139 -0.1721  0.5089  0.2607
 2847SOL    HW120000   3.320   2.055  12.058  1.2842  2.2293  0.3480
 2847SOL    HW220001   3.213   2.154  12.120 -1.7383 -1.4560 -1.3817
 2848SOL     OW20002   2.698   0.928   7.229 -0.1414  0.0209  0.0215
 2848SOL    HW120003   2.661   0.876   7.159 -2.8503  0.1487  1.3779
 2848SOL    HW220004   2.704   1.010   7.180 -2.0121 -1.6517 -2.9630
 2849SOL     OW20005   1.092   0.982   4.727 -0.0539  0.1366  0.2788
 2849SOL    HW120006   1.025   0.985   4.659  0.2208  4.5343  0.2177
 2849SOL    HW220007   1.158   1.044   4.695  1.6903 -1.3939  0.8735
 2850SOL     OW20008   1.810   3.750  12.465 -0.1107  0.4751 -0.0472
 2850SOL    HW120009   1.870   3.756  12.391  0.3439 -0.5818  0.2465
 2850SOL    HW220010   1.763   3.673  12.432 -1.2605  0.9589  0.4384
 2851SOL     OW20011   2.909   3.249   1.514  0.7633  0.4938  0.2348
 2851SOL    HW120012   2.938   3.318   1.454 -1.9654  0.9869 -0.5524
 2851SOL    HW220013   2.827   3.223   1.471  2.0128 -0.3029 -1.6296
 2852SOL     OW20014   2.416   0.876   8.660  0.1654 -0.0389  0.1683
 2852SOL    HW120015   2.467   0.805   8.698  2.3359  1.0556 -0.7243
 2852SOL    HW220016   2.340   0.897   8.715 -2.1006  0.7369 -3.2735
 2853SOL     OW20017   1.833   4.482   3.086  0.1072 -0.1553 -0.8108
 2853SOL    HW120018   1.908   4.482   3.026  0.8723 -1.5382  0.1382
 2853SOL    HW220019   1.855   4.418   3.154 -0.6345 -0.1139 -0.5304
 2854SOL     OW20020   3.577   3.395   6.806 -0.2982  0.6553  0.0616
 2854SOL    HW120021   3.589   3.300   6.808 -1.7693  0.5003  1.4442
 2854SOL    HW220022   3.648   3.430   6.752  0.5136 -2.1757 -0.6955
 2855SOL     OW20023   0.177   3.758   4.313  0.5805  0.2114  0.5852
 2855SOL    HW120024   0.179   3.814   4.235  0.7052  1.0634  1.2020
 2855SOL    HW220025   0.195   3.829   4.375 -0.1280  2.2723 -1.5774
 2856SOL     OW20026   3.260   4.248   2.200  0.0134 -0.0628 -0.2520
 2856SOL    HW120027   3.317   4.281   2.130  0.5428 -0.9799 -0.2511
 2856SOL    HW220028   3.190   4.217   2.143  1.4511 -2.0766 -0.9138
 2857SOL     OW20029   0.162   1.405   5.310  0.2901 -0.0828 -0.8100
 2857SOL    HW120030   0.088   1.346   5.328  2.0847 -2.4518 -1.2357
 2857SOL    HW220031   0.149   1.418   5.216  1.3886 -1.0390 -1.0863
 2858SOL     OW20032   2.756   4.383   8.207 -0.2905  0.0434  0.0698
 2858SOL    HW120033   2.727   4.320   8.273 -0.0375 -0.2703 -0.1157
 2858SOL    HW220034   2.701   4.349   8.137 -0.6209  0.5012  0.1053
 2859SOL     OW20035   1.623   2.601  15.065  0.6330 -0.0243 -0.2791
 2859SOL    HW120036   1.578   2.531  15.017  0.8671 -0.1147 -0.3669
 2859SOL    HW220037   1.713   2.573  15.046  0.6280  0.7744 -1.5377
 2860SOL     OW20038   2.347   3.132   9.280  0.0171  0.1436 -0.0614
 2860SOL    HW120039   2.435   3.127   9.316  0.2798 -0.7795 -0.8419
 2860SOL    HW220040   2.365   3.089   9.197 -1.3845  1.6530 -1.1597
 2861SOL     OW20041   4.083   4.287   1.210  0.4854  0.2573  0.2359
 2861SOL    HW120042   4.042   4.272   1.295 -1.4653  1.7515 -0.4486
 2861SOL    HW220043   4.032   4.229   1.153  1.0134 -0.5830  0.6134
 2862SOL     OW20044   2.206   0.404   1.160  0.6054 -0.3080 -0.4567
 2862SOL    HW120045   2.253   0.322   1.176 -3.9157 -2.5114  1.4256
 2862SOL    HW220046   2.144   0.404   1.233  0.6165  2.2070 -0.4324
 2863SOL     OW20047   3.065   3.202  13.607  0.0948  0.1035 -0.1321
 2863SOL    HW120048   3.038   3.145  13.534 -0.6635 -0.7037  0.7763
 2863SOL    HW220049   3.030   3.287  13.581  0.1902  0.0967 -0.2806
 2864SOL     OW20050   0.198   1.048   8.180 -0.1733 -0.0190  0.2145
 2864SOL    HW120051   0.237   1.045   8.267 -2.1076 -0.0954  1.0818
 2864SOL    HW220052   0.251   0.997   8.119 -0.0687 -0.3325  0.5690
 2865SOL     OW20053   0.886   1.067   8.760 -0.4175  0.6811 -0.2490
 2865SOL    HW120054   0.913   0.975   8.757 -0.9859  0.5024  0.0635
 2865SOL    HW220055   0.935   1.088   8.839  0.3235 -2.0504 -0.0005
 2866SOL     OW20056   0.007   0.371   7.549  0.3387  0.0929  0.3570
 2866SOL    HW120057   0.010   0.371   7.645 -2.2720 -0.4467  0.4430
 2866SOL    HW220058   0.073   0.303   7.535  0.4212 -0.0140  1.2671
 2867SOL     OW20059   2.981   0.514   3.707 -0.3809  0.4179 -0.8476
 2867SOL    HW120060   2.960   0.606   3.718 -1.3884  0.0318  0.5167
 2867SOL    HW220061   3.076   0.506   3.696 -0.4465 -0.8042 -0.6266
 2868SOL     OW20062   3.147   3.005  16.045  0.4379 -0.2022 -0.2014
 2868SOL    HW120063   3.131   3.099  16.039  0.7252 -0.1267  0.2531
 2868SOL    HW220064   3.241   3.001  16.061  0.1534 -1.6277  1.0587
 2869SOL     OW20065   3.004   1.365  13.665  0.0970  0.6018  0.2131
 2869SOL    HW120066   2.918   1.368  13.624  0.9695  1.4746 -1.5533
 2869SOL    HW220067   3.044   1.280  13.650  1.8497  1.2848  0.9667
 2870SOL     OW20068   2.316   2.757  13.986 -0.2346 -0.3626 -0.1956
 2870SOL    HW120069   2.391   2.711  13.948 -0.9331 -0.2465 -1.7094
 2870SOL    HW220070   2.263   2.764  13.907 -0.7927  1.7708  0.3581
 2871SOL     OW20071   1.346   1.425   4.377  0.2590  0.5429 -0.1204
 2871SOL    HW120072   1.410   1.376   4.428  0.2146 -0.1982 -0.7803
 2871SOL    HW220073   1.275   1.418   4.441  2.8364  0.6098  2.7713
 2872SOL     OW20074   3.618   4.585   8.481 -0.5948  0.4172  0.0713
 2872SOL    HW120075   3.597   4.635   8.402 -1.3070  0.6868  0.4234
 2872SOL    HW220076   3.529   4.572   8.514 -1.3766  3.4179 -0.8409
 2873SOL     OW20077   1.274   3.002   5.810  0.1206 -0.3514  0.2991
 2873SOL    HW120078   1.182   3.027   5.818 -0.5738 -3.0359  0.6897
 2873SOL    HW220079   1.301   3.015   5.901  1.9553  0.5161 -0.3722
 2874SOL     OW20080   1.865   0.064  12.911 -0.2621  0.0616  0.8720
 2874SOL    HW120081   1.782   0.022  12.934  0.5526 -0.5681  2.6497
 2874SOL    HW220082   1.838   0.117  12.836 -0.4280 -0.1925  0.7520
 2875SOL     OW20083   0.607   0.750   9.503  0.2486  0.4117 -0.0883
 2875SOL    HW120084   0.584   0.708   9.586  2.9041 -2.2206 -0.6924
 2875SOL    HW220085   0.527   0.736   9.454 -0.4546  0.2561  1.1012
 2876SOL     OW20086   3.328   0.580  15.777 -0.0835 -0.3269 -0.2344
 2876SOL    HW120087   3.306   0.654  15.720 -0.8158 -0.3052  0.0847
 2876SOL    HW220088   3.320   0.511  15.711  1.7517 -0.7929  0.0249
 2877SOL     OW20089   2.983   2.325   8.119 -0.2380  0.1216  0.3928
 2877SOL    HW120090   2.989   2.290   8.030 -1.9521  1.9977 -0.4508
 2877SOL    HW220091   3.061   2.381   8.118 -1.5351  1.9160  0.2171
 2878SOL     OW20092   1.726   1.359   4.870 -0.2872 -0.1078  0.0269
 2878SOL    HW120093   1.802   1.302   4.860 -0.4454  0.1078 -2.5037
 2878SOL    HW220094   1.768   1.445   4.879 -0.3244 -0.0907  0.0348
 2879SOL     OW20095   3.418   0.319  10.889  0.2382  0.7797  0.2726
 2879SOL    HW120096   3.356   0.387  10.863  0.2926  0.8187  0.2442
 2879SOL    HW220097   3.362   0.257  10.935 -2.1099  1.9938 -0.9165
 2880SOL     OW20098   2.288   1.735   7.550 -0.0613  0.2255 -0.0633
 2880SOL    HW120099   2.228   1.749   7.477 -0.8214 -0.4230  0.4254
 2880SOL    HW220100   2.251   1.785   7.622 -1.6482 -0.9338 -0.0474
 2881SOL     OW20101   2.196   1.758  15.040  0.3768  0.7889 -0.0317
 2881SOL    HW120102   2.122   1.793  15.089  0.4086  1.0097 -0.1413
 2881SOL    HW220103   2.247   1.716  15.109  0.5198 -2.3041 -2.0032
 2882SOL     OW20104   3.455   1.645  10.051  0.2632 -0.8799  0.2158
 2882SOL    HW120105   3.541   1.605  10.060  1.1312  0.6097 -1.4852
 2882SOL    HW220106   3.401   1.574  10.084 -1.0370  0.5048  1.0940
 2883SOL     OW20107   1.951   3.343  10.001  0.0841 -0.5096 -0.0264
 2883SOL    HW120108   1.982   3.286  10.071 -0.4409  1.8611  2.1540
 2883SOL    HW220109   1.864   3.367  10.033  0.0996  0.8106 -0.9578
 2884SOL     OW20110   0.492   2.325  11.120 -0.4464 -0.2107 -0.1796
 2884SOL    HW120111   0.468   2.237  11.148 -0.5098  0.2977  1.3463
 2884SOL    HW220112   0.578   2.296  11.087 -0.0313  0.4425  0.3244
 2885SOL     OW20113   3.168   0.430   7.876 -0.0363  0.6380  0.6376
 2885SOL    HW120114   3.173   0.461   7.966 -4.1079  0.2195  0.9955
 2885SOL    HW220115   3.076   0.404   7.870 -0.0998  0.7245  1.1897
 2886SOL     OW20116   1.995   2.853   8.745 -0.1188 -0.1951 -0.5442
 2886SOL    HW120117   2.005   2.907   8.666  2.7285 -0.6016 -0.4506
 2886SOL    HW220118   1.972   2.916   8.814 -1.1861 -3.5421  2.1659
 2887SOL     OW20119   0.196   3.152   2.018  0.0397 -0.2359  0.5250
 2887SOL    HW120120   0.138   3.146   2.093 -0.6928 -1.6548 -0.1526
 2887SOL    HW220121   0.225   3.243   2.027 -2.2241  0.7291 -1.7975
 2888SOL     OW20122   3.327   4.055   6.972 -0.0621 -0.0165 -0.4386
 2888SOL    HW120123   3.269   4.075   7.046 -0.7755 -1.7035 -0.5519
 2888SOL    HW220124   3.340   3.964   6.998  0.4639 -0.2821 -1.6483
 2889SOL     OW20125   2.130   3.298  11.143  0.6345 -0.2048  0.0049
 2889SOL    HW120126   2.187   3.223  11.125  1.9909  1.1837 -1.4861
 2889SOL    HW220127   2.185   3.352  11.200  0.7834  0.8011 -1.0917
 2890SOL     OW20128   3.994   0.968   1.335 -0.1274 -0.3979 -0.0274
 2890SOL    HW120129   3.906   0.933   1.320 -0.2713  0.3924 -1.0782
 2890SOL    HW220130   3.991   1.020   1.415 -0.7059 -1.7218  0.8083
 2891SOL     OW20131   3.738   2.904   4.390  0.6925  0.0973  0.1350
 2891SOL    HW120132   3.676   2.853   4.337  2.1882 -1.5670  0.0022
 2891SOL    HW220133   3.814   2.847   4.382 -0.4454 -1.8094  2.7849
 2892SOL     OW20134   3.589   0.256   6.636 -0.1828  0.2419 -0.2333
 2892SOL    HW120135   3.621   0.338   6.672  0.0871 -0.7688  1.7990
 2892SOL    HW220136   3.546   0.279   6.553 -2.1863  0.8208  0.9665
 2893SOL     OW20137   4.133   0.557   2.056  1.0478 -0.1071  0.0097
 2893SOL    HW120138   4.111   0.608   1.978 -1.2468  0.8193  1.2449
 2893SOL    HW220139   4.120   0.467   2.025 -2.1829  0.9278 -1.6307
 2894SOL     OW20140   1.748   1.901   5.582  0.3370  0.1827 -0.6179
 2894SOL    HW120141   1.757   1.969   5.648 -0.8287 -0.9388  0.6810
 2894SOL    HW220142   1.836   1.864   5.581  1.1411  2.1265 -3.4070
 2895SOL     OW20143   0.450   2.597   4.022 -0.2207  0.1488 -0.0584
 2895SOL    HW120144   0.498   2.604   3.939 -0.2928 -0.4189 -0.1493
 2895SOL    HW220145   0.362   2.610   3.988 -1.9656 -1.9297  3.6454
 2896SOL     OW20146   2.735   4.002   9.874 -0.2741  0.3892 -0.6243
 2896SOL    HW120147   2.647   3.979   9.843 -0.4627  2.1167 -1.4005
 2896SOL    HW220148   2.786   3.958   9.807 -1.8623 -3.2145  0.5235
 2897SOL     OW20149   1.313   3.775   2.248 -0.6787 -0.1976  0.5649
 2897SOL    HW120150   1.322   3.715   2.174  2.9664  0.5171  0.4045
 2897SOL    HW220151   1.370   3.743   2.318 -0.5638 -0.6739  0.2474
 2898SOL     OW20152   2.952   3.972   7.915 -0.1129  0.3465 -0.0590
 2898SOL    HW120153   2.913   3.933   7.993 -1.6219 -0.1037 -1.0517
 2898SOL    HW220154   2.960   3.895   7.858  0.3520  0.9989 -0.8822
 2899SOL     OW20155   2.941   0.066   3.781 -0.8641  0.3123 -0.2261
 2899SOL    HW120156   2.931   0.071   3.876 -2.9989 -1.5145 -0.3668
 2899SOL    HW220157   2.857   0.091   3.743 -0.7193  1.0850 -0.0416
 2900SOL     OW20158   1.796   4.329   5.213 -0.0251 -0.0135  0.0307
 2900SOL    HW120159   1.789   4.301   5.305 -2.3662 -0.3051 -0.2204
 2900SOL    HW220160   1.712   4.284   5.197  0.5144 -1.3575  0.9812
 2901SOL     OW20161   1.630   2.045  12.340  0.1090 -0.0941  0.1812
 2901SOL    HW120162   1.707   2.023  12.287  0.0696  0.6785 -0.1876
 2901SOL    HW220163   1.584   1.964  12.318  0.0070 -0.6382  2.3806
 2902SOL     OW20164   1.975   3.274  12.828  0.8327 -0.0091  0.3991
 2902SOL    HW120165   1.995   3.198  12.774  1.4973 -0.9279  1.9509
 2902SOL    HW220166   2.057   3.284  12.875  1.1843 -0.8121 -0.0459
 2903SOL     OW20167   0.380   4.023   6.971 -0.0640 -0.5749 -0.0218
 2903SOL    HW120168   0.424   4.094   7.016 -0.7836 -0.3157  0.2647
 2903SOL    HW220169   0.443   3.951   6.978  0.6367  0.1675  1.2318
 2904SOL     OW20170   3.687   1.646  15.393 -0.3029  0.1235  0.1166
 2904SOL    HW120171   3.676   1.741  15.393 -1.8684 -0.0419  2.0085
 2904SOL    HW220172   3.619   1.617  15.332 -1.1979  2.1195  0.1472
 2905SOL     OW20173   1.298   2.169   1.323 -0.3057  0.3836 -0.3255
 2905SOL    HW120174   1.383   2.171   1.280 -1.1303 -0.0502 -2.0003
 2905SOL    HW220175   1.242   2.182   1.246  0.0636 -0.5357 -0.7585
 2906SOL     OW20176   0.417   4.453   9.254  0.3556 -0.0350  0.3896
 2906SOL    HW120177   0.483   4.522   9.246 -0.2520  0.6921  1.7155
 2906SOL    HW220178   0.335   4.503   9.255 -0.4884 -1.3901 -0.2481
 2907SOL     OW20179   1.151   1.024  11.997 -0.0004  0.0443 -0.0407
 2907SOL    HW120180   1.099   1.088  12.046  1.0431  1.3743 -0.6569
 2907SOL    HW220181   1.129   0.940  12.035  0.2658 -0.1382 -0.2896
 2908SOL     OW20182   2.665   2.958   8.198 -0.0166  0.3227  0.0772
 2908SOL    HW120183   2.624   2.996   8.120  0.2400 -0.3499 -0.3883
 2908SOL    HW220184   2.609   2.984   8.271  3.2554 -0.1359  2.7418
 2909SOL     OW20185   0.152   3.943  17.596  0.5625 -0.2795  0.1191
 2909SOL    HW120186   0.077   4.000  17.579  1.3233 -0.1588 -2.7527
 2909SOL    HW220187   0.123   3.877  17.533  0.8839 -1.1331  0.8528
 2910SOL     OW20188   0.178   0.529  16.358 -0.1557  0.3493  0.0625
 2910SOL    HW120189   0.226   0.611  16.348  4.0202 -2.1187 -0.1199
 2910SOL    HW220190   0.094   0.566  16.331 -0.3017  1.4395  1.9959
 2911SOL     OW20191   1.460   0.823   2.941 -0.1478  0.0264  0.0990
 2911SOL    HW120192   1.383   0.766   2.940  1.1824 -1.6536 -2.5072
 2911SOL    HW220193   1.418   0.905   2.970  0.8624  0.7255 -0.4264
 2912SOL     OW20194   2.554   4.684   7.143 -0.6775 -0.2151  0.1539
 2912SOL    HW120195   2.459   4.689   7.147 -0.6961  1.1400 -1.7323
 2912SOL    HW220196   2.564   4.636   7.225 -1.8493 -0.2791  0.2528
 2913SOL     OW20197   1.206   3.759  15.279  0.0996 -0.0750 -0.2646
 2913SOL    HW120198   1.224   3.766  15.185  1.4216  2.8037  0.1954
 2913SOL    HW220199   1.202   3.665  15.296  0.9623  0.2305  1.6559
 2914SOL     OW20200   2.526   3.267   2.624 -0.1638  0.2772  0.1627
 2914SOL    HW120201   2.503   3.296   2.712  1.1089  0.2135  0.5167
 2914SOL    HW220202   2.491   3.178   2.616 -1.9466  1.0792 -0.8871
 2915SOL     OW20203   1.654   1.600   4.551  0.6394 -0.0814  0.3882
 2915SOL    HW120204   1.691   1.594   4.462 -1.6382  0.6277 -0.6086
 2915SOL    HW220205   1.724   1.649   4.593  0.7992  0.7068 -0.7713
 2916SOL     OW20206   3.485   1.636  11.691  0.4535 -0.5691  0.2903
 2916SOL    HW120207   3.406   1.660  11.739  0.1221  0.4757 -0.7766
 2916SOL    HW220208   3.438   1.627  11.608  2.3593  0.2546 -0.8808
 2917SOL     OW20209   0.460   3.673   6.942  0.1215 -0.0008 -0.2312
 2917SOL    HW120210   0.400   3.695   7.013 -0.6397 -1.6449 -0.3669
 2917SOL    HW220211   0.538   3.668   6.997  0.7142 -3.5413 -1.3568
 2918SOL     OW20212   4.639   2.105   2.660 -0.0231 -0.0422  0.1122
 2918SOL    HW120213   4.659   2.149   2.577  0.6205  2.2968  1.4979
 2918SOL    HW220214   0.005   2.070   2.673 -0.4576 -0.7915  1.0053
 2919SOL     OW20215   2.279   2.515   4.060 -0.7201 -0.1722 -0.2078
 2919SOL    HW120216   2.252   2.606   4.054 -1.3065 -0.3937 -0.7909
 2919SOL    HW220217   2.238   2.501   4.145  1.5099  0.1285  0.9292
 2920SOL     OW20218   1.768   3.320   8.575  0.2551  0.6118  0.1655
 2920SOL    HW120219   1.759   3.226   8.594  0.4494  0.6441  0.4234
 2920SOL    HW220220   1.857   3.333   8.607  0.4628 -0.9594  0.2564
 2921SOL     OW20221   1.035   0.126   8.298 -0.7211 -0.1088  0.5526
 2921SOL    HW120222   1.070   0.134   8.210  0.8608  1.3782  1.3136
 2921SOL    HW220223   1.065   0.037   8.314 -1.7853 -0.8137 -1.4931
 2922SOL     OW20224   4.469   0.069   9.379  0.3155  0.1958  0.1996
 2922SOL    HW120225   4.428   0.020   9.308  0.6394  2.7044 -1.7073
 2922SOL    HW220226   4.456   0.011   9.455 -0.8457 -0.2061 -0.2998
 2923SOL     OW20227   2.243   3.803  13.847  0.3535 -0.5666  0.1336
 2923SOL    HW120228   2.175   3.842  13.903  2.0226  0.7936  1.2333
 2923SOL    HW220229   2.205   3.816  13.760 -1.5320  1.4417  1.2470
 2924SOL     OW20230   0.327   2.105   8.407  0.3601 -0.2445 -0.0756
 2924SOL    HW120231   0.389   2.176   8.428 -1.2454  1.4969 -1.2322
 2924SOL    HW220232   0.290   2.090   8.494 -1.7313  1.7325 -0.6143
 2925SOL     OW20233   1.747   2.792   3.709 -0.3918 -0.4407 -0.3641
 2925SOL    HW120234   1.689   2.756   3.776  1.4050  0.3943  1.6074
 2925SOL    HW220235   1.780   2.715   3.662 -0.8891 -0.2326 -1.0545
 2926SOL     OW20236   0.416   1.878   0.157 -0.4284  0.3784  0.5986
 2926SOL    HW120237   0.377   1.867   0.070  0.2693 -1.7319  0.5615
 2926SOL    HW220238   0.484   1.942   0.137  0.0071 -0.9401 -2.2247
 2927SOL     OW20239   3.663   4.056   8.188 -0.2058  0.4595  0.0084
 2927SOL    HW120240   3.578   4.034   8.151  0.1165 -0.4673 -0.1870
 2927SOL    HW220241   3.719   4.087   8.117  1.1385 -0.7575  0.5296
 2928SOL     OW20242   2.839   0.628   2.339  0.1612 -0.4229  0.1834
 2928SOL    HW120243   2.763   0.686   2.335 -0.0240 -0.7268 -0.6995
 2928SOL    HW220244   2.813   0.559   2.277  1.1206  0.9931 -1.7669
 2929SOL     OW20245   1.305   4.252  11.539  0.1769  0.1328 -0.2769
 2929SOL    HW120246   1.286   4.255  11.446 -2.1880 -0.5779  0.1683
 2929SOL    HW220247   1.279   4.343  11.553 -0.5418 -0.2707  1.0948
 2930SOL     OW20248   2.563   4.698   4.551  0.1601  0.3145  0.3253
 2930SOL    HW120249   2.651   4.710   4.515 -0.3436  2.4505 -0.1886
 2930SOL    HW220250   2.509   0.045   4.515 -0.5037 -0.9674 -1.1580
 2931SOL     OW20251   1.059   3.538   5.861  0.6603  0.2657  0.3098
 2931SOL    HW120252   1.138   3.506   5.904  0.6486 -2.1890 -1.4775
 2931SOL    HW220253   1.019   3.587   5.933 -0.1809  0.2255 -0.1295
 2932SOL     OW20254   0.634   0.922   1.992  0.1934 -0.8348  0.1155
 2932SOL    HW120255   0.605   0.847   1.940 -2.3226  0.4393 -0.3171
 2932SOL    HW220256   0.580   0.917   2.071 -0.6708  1.7692 -0.3167
 2933SOL     OW20257   0.295   1.750   3.107  1.1956  0.2599  0.2454
 2933SOL    HW120258   0.346   1.723   3.183 -0.2179  0.4268  1.2334
 2933SOL    HW220259   0.330   1.837   3.084  1.9311 -0.3277 -0.8857
 2934SOL     OW20260   1.318   3.613   1.963  0.5761  0.2623 -0.2582
 2934SOL    HW120261   1.403   3.578   1.990  0.6066  0.9697  0.5560
 2934SOL    HW220262   1.261   3.537   1.975 -0.1100  0.9850  0.9826
 2935SOL     OW20263   2.008   1.445   6.000  0.0396 -0.2246  0.6672
 2935SOL    HW120264   2.064   1.509   6.045 -1.4300  1.5772 -0.0658
 2935SOL    HW220265   2.066   1.382   5.956 -1.0152 -0.5273 -0.2920
 2936SOL     OW20266   2.873   1.231   1.208  0.0651 -0.2740  0.1463
 2936SOL    HW120267   2.942   1.295   1.220 -0.0611 -0.2569  0.7636
 2936SOL    HW220268   2.808   1.264   1.270 -0.8081  0.2638 -1.0539
 2937SOL     OW20269   4.460   3.077   2.827 -0.0524 -0.6670 -0.2261
 2937SOL    HW120270   4.378   3.030   2.816 -1.0979  1.3253 -0.9749
 2937SOL    HW220271   4.445   3.155   2.773 -2.4871 -2.0688 -1.5410
 2938SOL     OW20272   3.638   3.295   3.457  0.7694 -0.1929  0.5503
 2938SOL    HW120273   3.703   3.301   3.386  0.5367  0.1403  0.3612
 2938SOL    HW220274   3.575   3.227   3.435  0.9063 -0.0303 -0.3734
 2939SOL     OW20275   2.193   2.497  16.565 -0.5471 -0.2925 -0.3066
 2939SOL    HW120276   2.153   2.479  16.649  0.4794  0.6162  0.3780
 2939SOL    HW220277   2.129   2.558  16.529 -2.5547 -0.2146  3.4023
 2940SOL     OW20278   3.782   2.193   1.083  0.9517  0.0451  0.0064
 2940SOL    HW120279   3.786   2.217   0.990 -1.0570  2.8831  0.6344
 2940SOL    HW220280   3.838   2.116   1.071 -0.3252 -0.6955 -1.1741
 2941SOL     OW20281   4.603   4.486   6.492 -0.7752  0.3481 -0.5623
 2941SOL    HW120282   4.541   4.513   6.425 -0.4426  0.0862 -0.9732
 2941SOL    HW220283   4.672   4.549   6.472 -1.8397  1.2491 -1.3554
 2942SOL     OW20284   3.897   1.298   7.718  0.6771  0.1644  0.1869
 2942SOL    HW120285   3.907   1.253   7.634 -1.6627  2.0668 -1.0747
 2942SOL    HW220286   3.832   1.367   7.707  0.0545 -0.6276 -1.0718
 2943SOL     OW20287   3.236   1.167   5.812  0.1885 -0.2427  0.3894
 2943SOL    HW120288   3.317   1.217   5.818 -0.0323  0.3586 -1.5592
 2943SOL    HW220289   3.205   1.209   5.732  0.2833  2.2870  1.6995
 2944SOL     OW20290   2.162   3.196   8.556 -0.7873  0.4335  0.2484
 2944SOL    HW120291   2.124   3.112   8.528  2.5199 -0.5317 -1.3400
 2944SOL    HW220292   2.210   3.217   8.476  0.9066 -1.1976  0.8470
 2945SOL     OW20293   1.469   3.938   7.268  0.4418 -0.2722  0.5080
 2945SOL    HW120294   1.439   3.973   7.352 -0.0392 -0.2996  0.3470
 2945SOL    HW220295   1.442   3.847   7.279  1.4796 -0.0333  4.8300
 2946SOL     OW20296   2.243   1.872   3.136 -0.0473 -0.4928  0.4209
 2946SOL    HW120297   2.160   1.841   3.098 -0.4945 -0.6888  1.5406
 2946SOL    HW220298   2.289   1.899   3.057  1.6685 -1.4920  1.0853
 2947SOL     OW20299   1.179   2.936   6.634  0.1529 -0.2177  0.2125
 2947SOL    HW120300   1.240   2.945   6.561 -1.5575 -2.5228 -1.4913
 2947SOL    HW220301   1.237   2.972   6.701 -0.3689  0.8193  0.1047
 2948SOL     OW20302   1.434   0.942   3.197  0.0262 -0.1783 -0.1264
 2948SOL    HW120303   1.343   0.914   3.199  0.6647 -2.1302  1.2503
 2948SOL    HW220304   1.484   0.874   3.153  0.5182  0.9854 -1.3615
 2949SOL     OW20305   1.723   2.321  14.122  0.1054 -0.2236 -0.2325
 2949SOL    HW120306   1.705   2.228  14.135 -2.8043  0.5294  1.0681
 2949SOL    HW220307   1.638   2.365  14.114  0.9256  1.3441 -0.3082
 2950SOL     OW20308   4.722   1.369   4.013 -0.2555  0.3569 -0.4956
 2950SOL    HW120309   4.682   1.365   3.926  2.1468 -0.7325 -1.5508
 2950SOL    HW220310   0.031   1.459   4.023 -0.4810  0.2477  1.2399
 2951SOL     OW20311   3.574   0.178   1.889 -0.1263  0.0237  0.0344
 2951SOL    HW120312   3.585   0.238   1.963 -0.1884 -3.5872  2.9982
 2951SOL    HW220313   3.623   0.100   1.914  0.1884 -0.1182 -1.0763
 2952SOL     OW20314   4.256   4.685   0.615  0.1390  0.2441  0.2329
 2952SOL    HW120315   4.162   4.671   0.624 -0.0641  1.0171 -0.6211
 2952SOL    HW220316   4.265   0.032   0.680  2.0044  0.2604 -0.0471
 2953SOL     OW20317   2.553   1.097   2.004  0.2695  0.3316  0.2527
 2953SOL    HW120318   2.486   1.042   1.964  0.0284  1.5162 -0.9770
 2953SOL    HW220319   2.631   1.041   2.007  0.0126  0.0293  1.3500
 2954SOL     OW20320   4.448   3.734   4.647 -0.2969  0.3668 -0.2235
 2954SOL    HW120321   4.398   3.760   4.725  0.3586  0.6198  0.1086
 2954SOL    HW220322   4.411   3.647   4.633  0.8699 -0.8130  4.1191
 2955SOL     OW20323   1.268   3.427   0.512 -0.1789 -0.0957  0.3821
 2955SOL    HW120324   1.315   3.503   0.547 -1.8904  0.5696  1.2438
 2955SOL    HW220325   1.196   3.477   0.474 -0.0126 -0.2367 -0.1168
 2956SOL     OW20326   2.458   1.879   0.185  0.7457  0.5030 -0.5303
 2956SOL    HW120327   2.518   1.805   0.196  0.6204  0.4676 -0.0553
 2956SOL    HW220328   2.415   1.874   0.271  1.1950  0.0429 -0.3302
 2957SOL     OW20329   0.553   3.504  13.737  0.1787  1.0318 -0.1685
 2957SOL    HW120330   0.612   3.438  13.774 -0.3405  2.5379  3.4042
 2957SOL    HW220331   0.557   3.477  13.646 -3.6209  1.2717 -0.4239
 2958SOL     OW20332   4.702   0.174   6.013  0.0499 -0.6684 -0.3904
 2958SOL    HW120333   0.028   0.250   5.982 -1.6444  0.2851 -0.6843
 2958SOL    HW220334   4.679   0.131   5.931  0.1319  0.8932 -1.2319
 2959SOL     OW20335   4.263   0.025   8.976  0.9873 -0.4137  0.4122
 2959SOL    HW120336   4.264   0.104   8.921  0.1748 -0.5819  0.1571
 2959SOL    HW220337   4.194   4.707   8.924  1.6123  1.4117 -1.8670
 2960SOL     OW20338   0.584   2.323   7.978  0.0238  0.3622 -0.3339
 2960SOL    HW120339   0.551   2.352   8.063 -2.2675 -1.9888 -0.4367
 2960SOL    HW220340   0.607   2.234   8.003 -0.5483  0.2970 -0.0511
 2961SOL     OW20341   2.520   0.619  10.054  0.3209  0.2711  0.3141
 2961SOL    HW120342   2.432   0.594  10.026  0.7093 -0.2442 -0.4420
 2961SOL    HW220343   2.537   0.689   9.991 -1.0080 -0.4466 -0.8550
 2962SOL     OW20344   3.954   4.597   3.610 -0.0883 -0.2473 -0.5438
 2962SOL    HW120345   3.864   4.607   3.579 -0.7569 -3.6453  0.2816
 2962SOL    HW220346   3.968   4.502   3.611 -1.3051 -0.4268 -0.6174
 2963SOL     OW20347   0.484   4.427   3.284  0.1918  0.3412  0.0264
 2963SOL    HW120348   0.534   4.477   3.349  1.8101 -0.0470 -0.9202
 2963SOL    HW220349   0.478   4.347   3.336  0.2035  0.7142  0.6129
 2964SOL     OW20350   0.218   4.109   3.644  0.5606 -0.1704 -0.3230
 2964SOL    HW120351   0.263   4.171   3.702 -0.2072  0.7890 -0.7553
 2964SOL    HW220352   0.149   4.166   3.612  0.7437  0.5294  0.5427
 2965SOL     OW20353   2.893   1.791   2.516 -0.1326  0.1285 -0.3380
 2965SOL    HW120354   2.837   1.730   2.564  1.3479 -1.3080 -0.4254
 2965SOL    HW220355   2.957   1.727   2.484 -0.1176 -0.1809  0.3116
 2966SOL     OW20356   3.418   1.544   6.544 -0.1841  0.7788 -0.3224
 2966SOL    HW120357   3.419   1.476   6.612 -0.6643 -0.3715 -1.4721
 2966SOL    HW220358   3.334   1.531   6.500  1.5065 -2.9279 -2.3925
 2967SOL     OW20359   0.460   2.775   7.518 -0.2985 -0.1327 -0.4080
 2967SOL    HW120360   0.409   2.699   7.490  1.5929 -2.3750  2.1983
 2967SOL    HW220361   0.403   2.839   7.475  0.7589  0.7406 -0.4950
 2968SOL     OW20362   0.545   3.960  11.750 -0.3640  0.1534  0.6048
 2968SOL    HW120363   0.607   3.997  11.686  0.2488  1.1510  1.7738
 2968SOL    HW220364   0.504   4.040  11.783 -1.7417 -0.4933  0.4302
 2969SOL     OW20365   1.319   0.259   2.499  0.1660 -0.3401 -0.2249
 2969SOL    HW120366   1.311   0.282   2.592  1.8073 -1.0281  0.0847
 2969SOL    HW220367   1.239   0.298   2.464  1.1740  0.3421 -1.7870
 2970SOL     OW20368   2.377   3.106   3.494 -0.3632  0.3697 -0.6492
 2970SOL    HW120369   2.448   3.065   3.444  0.6947  2.2994 -0.7180
 2970SOL    HW220370   2.308   3.050   3.457  0.0227  0.2269 -1.1464
 2971SOL     OW20371   4.506   0.852  15.751 -0.5610 -0.0041 -0.3661
 2971SOL    HW120372   4.464   0.797  15.686  0.8298  0.8993 -2.0465
 2971SOL    HW220373   4.442   0.921  15.769 -1.8775 -1.1771 -0.6045
 2972SOL     OW20374   4.364   0.631   7.966 -0.2409  0.2116  0.0722
 2972SOL    HW120375   4.372   0.633   7.870  1.7124  0.9780  0.2470
 2972SOL    HW220376   4.395   0.720   7.982 -1.4926  0.6113  0.2909
 2973SOL     OW20377   3.844   1.433  14.786  0.5418  0.2633 -0.2741
 2973SOL    HW120378   3.825   1.340  14.772  0.9221  0.3974 -1.6274
 2973SOL    HW220379   3.863   1.442  14.880  1.6172 -1.0340 -0.3621
 2974SOL     OW20380   0.847   0.349  12.697  0.2082  0.2487 -0.1701
 2974SOL    HW120381   0.808   0.262  12.692  0.2743  0.1740  0.6493
 2974SOL    HW220382   0.784   0.416  12.725  0.7243  0.5554  0.2590
 2975SOL     OW20383   2.193   0.799   2.733  0.0761 -0.0586  0.1477
 2975SOL    HW120384   2.271   0.829   2.686  1.0563 -2.3037  0.2984
 2975SOL    HW220385   2.128   0.859   2.697 -0.0677 -1.1691 -1.4743
 2976SOL     OW20386   0.909   1.307  17.615 -0.2739 -0.0585  1.0171
 2976SOL    HW120387   0.988   1.255  17.630 -0.2949 -0.0034  1.3193
 2976SOL    HW220388   0.922   1.375  17.681 -1.2686  1.3821 -0.2975
 2977SOL     OW20389   2.785   2.890   7.838  0.8123  0.0188 -0.0890
 2977SOL    HW120390   2.772   2.980   7.870  0.9677 -0.8780  2.4928
 2977SOL    HW220391   2.834   2.898   7.757  1.1212 -2.0160 -0.0879
 2978SOL     OW20392   2.163   0.868   2.422  0.7961  0.3451 -0.0625
 2978SOL    HW120393   2.208   0.790   2.392  1.0539  1.0868 -1.6236
 2978SOL    HW220394   2.097   0.883   2.354 -0.6114  0.0649  1.2489
 2979SOL     OW20395   1.563   3.884  12.484  0.4875  0.2600 -0.0634
 2979SOL    HW120396   1.547   3.869  12.391  0.9224 -1.0517  0.0745
 2979SOL    HW220397   1.658   3.876  12.491  0.2393 -1.7407  1.1282
 2980SOL     OW20398   3.401   0.393   2.231  0.9764  0.1083  0.0932
 2980SOL    HW120399   3.342   0.393   2.306  1.6419 -0.4839  0.6158
 2980SOL    HW220400   3.402   0.484   2.201 -0.5403 -0.0268 -0.3338
 2981SOL     OW20401   2.522   4.075  11.058 -0.1528 -0.4664  0.4219
 2981SOL    HW120402   2.575   4.004  11.093  0.6231 -0.0087  0.1605
 2981SOL    HW220403   2.518   4.059  10.964 -2.8792 -1.9424  0.7625
 2982SOL     OW20404   1.506   0.717   0.526  0.3219 -0.4153  0.9317
 2982SOL    HW120405   1.519   0.624   0.546  0.6364 -0.9321 -1.6012
 2982SOL    HW220406   1.412   0.724   0.509  0.4064 -0.8227  0.2677
 2983SOL     OW20407   2.483   4.473   1.259  0.0273  0.1708 -0.0687
 2983SOL    HW120408   2.479   4.437   1.171 -0.7614  1.3321 -0.5013
 2983SOL    HW220409   2.568   4.436   1.284 -0.4023  0.6213  2.0854
 2984SOL     OW20410   2.706   0.960  14.931  0.0901 -0.6955  0.2108
 2984SOL    HW120411   2.617   0.984  14.956  1.1724  2.3533  1.1804
 2984SOL    HW220412   2.697   0.953  14.836 -0.7178  1.0382  0.1562
 2985SOL     OW20413   1.827   3.351   7.378  0.2953 -0.7306 -0.5202
 2985SOL    HW120414   1.788   3.322   7.460 -1.5252  0.4452 -0.9639
 2985SOL    HW220415   1.773   3.429   7.369  0.4601 -0.4118  1.4256
 2986SOL     OW20416   4.024   1.653  11.198 -0.3058  0.1601  0.1603
 2986SOL    HW120417   3.995   1.630  11.286 -0.4977 -1.4093 -0.3177
 2986SOL    HW220418   4.096   1.716  11.206 -0.1738 -0.1306  1.3147
 2987SOL     OW20419   4.511   0.339   2.786  0.5554 -0.1047  0.4820
 2987SOL    HW120420   4.603   0.313   2.791  0.2331 -1.6716 -1.3708
 2987SOL    HW220421   4.477   0.254   2.815 -1.2202  0.5841  0.4026
 2988SOL     OW20422   0.319   1.344   7.031  0.1328 -0.0411  0.7069
 2988SOL    HW120423   0.358   1.420   6.990  1.1672 -0.4673  0.9065
 2988SOL    HW220424   0.240   1.372   7.079  0.1654  1.0715  0.1005
 2989SOL     OW20425   2.171   0.016  11.674 -0.1032  0.0530  0.6877
 2989SOL    HW120426   2.176   0.047  11.764 -2.9009 -3.7737  2.2085
 2989SOL    HW220427   2.246   4.679  11.675  0.1798  0.4000 -1.1219
 2990SOL     OW20428   1.054   1.281   7.497 -0.4232 -0.8460  0.1855
 2990SOL    HW120429   1.074   1.358   7.550  1.5138 -0.9819 -0.3305
 2990SOL    HW220430   1.106   1.302   7.419 -2.3916  0.2192 -0.8416
 2991SOL     OW20431   2.052   3.176   4.454  0.2984  0.1254  0.5670
 2991SOL    HW120432   2.077   3.231   4.529  1.0608 -1.4403  1.4526
 2991SOL    HW220433   2.001   3.107   4.496 -1.1340  0.0940 -1.2262
 2992SOL     OW20434   4.633   3.802  11.632 -0.0212  0.2737 -0.2735
 2992SOL    HW120435   4.682   3.725  11.661 -0.1213 -0.0648 -0.9989
 2992SOL    HW220436   4.557   3.808  11.691  1.3275  2.4342  1.2817
 2993SOL     OW20437   1.742   4.446   6.249  0.4989  0.1244 -0.2055
 2993SOL    HW120438   1.803   4.438   6.322 -1.3658  1.2109  1.4378
 2993SOL    HW220439   1.697   4.368   6.281  0.2352  0.6869  0.7805
 2994SOL     OW20440   0.592   4.557   2.384  0.0332 -0.1101 -0.1282
 2994SOL    HW120441   0.507   4.584   2.351 -0.8926  2.1063  3.9821
 2994SOL    HW220442   0.571   4.557   2.478 -0.1200  1.7552 -0.1608
 2995SOL     OW20443   2.493   1.456   6.428  0.7232  0.5143  0.6189
 2995SOL    HW120444   2.564   1.446   6.492  1.1748  0.8515  0.1678
 2995SOL    HW220445   2.421   1.428   6.485  0.8101 -1.3518 -0.1860
 2996SOL     OW20446   2.164   3.783   6.338 -0.0472  0.3405 -0.4212
 2996SOL    HW120447   2.182   3.853   6.400 -1.6308 -1.2511  1.8406
 2996SOL    HW220448   2.214   3.811   6.261 -0.0778  2.1385  0.2039
 2997SOL     OW20449   2.865   3.766   6.360  0.6265  0.3808 -0.0931
 2997SOL    HW120450   2.905   3.837   6.308  2.9704 -0.6971  0.2119
 2997SOL    HW220451   2.845   3.812   6.441  0.2445  0.4769 -0.2450
 2998SOL     OW20452   3.681   4.377   7.237 -0.0645  0.1083  0.0315
 2998SOL    HW120453   3.645   4.346   7.154  1.7003 -0.9993 -0.3060
 2998SOL    HW220454   3.761   4.427   7.223 -0.3718  0.8005  0.7506
 2999SOL     OW20455   0.193   3.059   5.567 -0.3466 -0.2422 -0.2817
 2999SOL    HW120456   0.229   3.084   5.482 -2.0394 -1.1725 -1.2646
 2999SOL    HW220457   0.193   3.149   5.599 -0.4994  0.0605 -1.1280
 3000SOL     OW20458   4.156   3.053  16.287 -0.1487 -0.0091 -0.1883
 3000SOL    HW120459   4.213   2.993  16.335 -2.4444 -2.7642 -0.8989
 3000SOL    HW220460   4.223   3.118  16.265  1.1354 -1.7239 -1.3575
 3001SOL     OW20461   4.409   0.257  12.100 -0.9293  0.5015  0.5081
 3001SOL    HW120462   4.447   0.337  12.135 -0.4848  0.9171 -0.9610
 3001SOL    HW220463   4.344   0.242  12.169  0.0520 -1.3537  1.0457
 3002SOL     OW20464   1.548   0.268   3.923 -0.9638 -0.4090 -0.5638
 3002SOL    HW120465   1.468   0.321   3.918 -1.1812 -0.6337  0.5199
 3002SOL    HW220466   1.571   0.243   3.834 -2.4911 -1.1210 -0.7553
 3003SOL     OW20467   1.997   0.542   3.486 -0.1950 -0.4763  0.5365
 3003SOL    HW120468   1.909   0.533   3.522 -1.1444  1.0440 -1.3657
 3003SOL    HW220469   1.971   0.614   3.428  2.2917  0.6559  0.7937
 3004SOL     OW20470   0.293   2.106   8.909  0.0450  0.6892 -0.0247
 3004SOL    HW120471   0.209   2.100   8.955 -2.3091  1.2471 -4.2813
 3004SOL    HW220472   0.336   2.049   8.973 -2.0772 -0.3501  0.5144
 3005SOL     OW20473   3.441   3.586   7.573  0.6176  0.0726  0.3969
 3005SOL    HW120474   3.375   3.630   7.627 -0.0241  1.9895 -1.9438
 3005SOL    HW220475   3.516   3.617   7.624  0.0607  1.8415  0.1537
 3006SOL     OW20476   1.976   4.296   7.580  0.0918  0.4352  0.0396
 3006SOL    HW120477   1.895   4.261   7.543 -0.3572  2.0776 -0.5395
 3006SOL    HW220478   1.958   4.339   7.664  0.2998 -2.5921  1.6496
 3007SOL     OW20479   0.373   3.170   4.542  0.3681  0.5552 -0.1443
 3007SOL    HW120480   0.391   3.238   4.476  1.5081 -2.4188 -2.9175
 3007SOL    HW220481   0.287   3.201   4.571  0.9840 -1.0997  3.3383
 3008SOL     OW20482   1.949   2.544   2.897  0.7765 -0.0362 -0.3685
 3008SOL    HW120483   1.967   2.615   2.834 -2.9266  2.3024  1.2115
 3008SOL    HW220484   1.942   2.587   2.982 -2.1333  2.7416 -1.9961
 3009SOL     OW20485   4.365   2.419  14.513  0.0298  0.4615  0.0791
 3009SOL    HW120486   4.439   2.368  14.478  1.2083  1.0161  1.7728
 3009SOL    HW220487   4.337   2.480  14.444  1.6713  0.4846 -0.5836
 3010SOL     OW20488   1.867   2.914   7.227 -0.3226 -0.1890 -0.3328
 3010SOL    HW120489   1.820   2.934   7.308  0.6814  0.7942  0.0076
 3010SOL    HW220490   1.802   2.869   7.173  1.0495 -0.4837 -1.7377
 3011SOL     OW20491   3.743   0.507   8.107 -0.0412  0.8872  0.0584
 3011SOL    HW120492   3.743   0.563   8.029 -5.3054  1.5538  0.5284
 3011SOL    HW220493   3.650   0.485   8.113 -0.6424  2.8972 -1.4050
 3012SOL     OW20494   3.121   2.662   2.279  0.7951 -0.3382 -0.9411
 3012SOL    HW120495   3.083   2.699   2.358 -0.7666 -0.0054 -1.8567
 3012SOL    HW220496   3.195   2.722   2.267 -2.2597  3.8071  1.1654
 3013SOL     OW20497   3.816   4.700   3.974 -0.0931 -0.1211  0.0582
 3013SOL    HW120498   3.726   0.009   3.967  0.3938  0.9986 -1.0306
 3013SOL    HW220499   3.799   4.615   3.932 -0.7821 -0.4272  0.9420
 3014SOL     OW20500   0.534   3.327   7.302 -0.7206  0.1262 -0.5341
 3014SOL    HW120501   0.541   3.412   7.345  0.4724 -0.3742  0.2641
 3014SOL    HW220502   0.441   3.340   7.283 -0.7182 -1.1277 -1.4305
 3015SOL     OW20503   3.445   1.810   3.898 -0.5660 -0.3744  0.3420
 3015SOL    HW120504   3.515   1.788   3.836  0.8880  1.7701  1.2362
 3015SOL    HW220505   3.487   1.772   3.975  1.1962 -1.2427 -1.0424
 3016SOL     OW20506   4.248   1.345   3.391 -0.0200  0.2578 -0.3347
 3016SOL    HW120507   4.342   1.364   3.399 -0.3422  0.9963  1.5415
 3016SOL    HW220508   4.221   1.348   3.482 -0.1274 -1.0478 -0.3255
 3017SOL     OW20509   2.773   3.199   6.100  0.1028 -0.5346 -0.2306
 3017SOL    HW120510   2.766   3.183   6.194 -1.5033  1.9322  0.0850
 3017SOL    HW220511   2.740   3.122   6.055  0.5858 -0.8605 -0.0326
 3018SOL     OW20512   3.465   2.061   1.975 -0.3383 -0.5113  0.3611
 3018SOL    HW120513   3.409   1.995   2.015 -1.5708  0.4707  0.2793
 3018SOL    HW220514   3.547   2.017   1.952 -0.7508 -0.0407 -2.0983
 3019SOL     OW20515   3.058   4.347  15.173 -0.6245  0.2668  0.0907
 3019SOL    HW120516   3.024   4.336  15.085 -0.2513  1.2622 -0.1838
 3019SOL    HW220517   2.985   4.393  15.213 -1.4778  0.9587 -2.2727
 3020SOL     OW20518   1.455   3.073   3.911 -0.0777  0.0900  0.1529
 3020SOL    HW120519   1.412   3.135   3.971  0.9338  1.9551 -1.0472
 3020SOL    HW220520   1.537   3.123   3.907 -1.2132  2.0190  0.7733
 3021SOL     OW20521   1.131   2.975  13.084 -0.4647  0.0158 -0.1925
 3021SOL    HW120522   1.106   2.906  13.145  1.1333  1.2576  1.8863
 3021SOL    HW220523   1.068   2.967  13.013 -1.3910 -0.2366  0.6467
 3022SOL     OW20524   2.519   4.622   8.165 -0.2512 -0.4839 -0.1790
 3022SOL    HW120525   2.477   4.567   8.231  0.9198  0.0909  1.0460
 3022SOL    HW220526   2.463   4.602   8.091 -0.6785  1.3500 -0.3471
 3023SOL     OW20527   3.590   2.108   5.154  0.4124 -0.1420 -0.1112
 3023SOL    HW120528   3.672   2.140   5.190  0.4105 -0.7660  0.4449
 3023SOL    HW220529   3.615   2.030   5.104  1.0554 -0.6131  0.9462
 3024SOL     OW20530   3.305   3.316   9.816 -0.0544 -0.3161 -0.1926
 3024SOL    HW120531   3.256   3.395   9.838  1.2677  0.4034  0.1544
 3024SOL    HW220532   3.372   3.324   9.884 -0.5376  0.9851  0.1307
 3025SOL     OW20533   3.519   3.419   9.987  0.4707  0.8774 -0.1084
 3025SOL    HW120534   3.607   3.399  10.016  1.0223 -0.5736 -2.7323
 3025SOL    HW220535   3.519   3.514   9.995 -0.1860  0.7779  1.0457
 3026SOL     OW20536   1.835   2.418   5.213 -0.5418  0.3054 -0.2705
 3026SOL    HW120537   1.757   2.383   5.256 -0.7088 -1.5190 -2.0420
 3026SOL    HW220538   1.871   2.332   5.189  1.7581  1.4332 -0.8667
 3027SOL     OW20539   4.207   3.489  16.882 -0.3582 -0.1784  0.1897
 3027SOL    HW120540   4.235   3.549  16.812  0.2187 -1.3161 -0.5691
 3027SOL    HW220541   4.113   3.505  16.885 -0.5967 -1.6594  0.5169
 3028SOL     OW20542   3.518   0.975  16.990  0.0708 -0.4126 -0.5936
 3028SOL    HW120543   3.442   0.918  16.978  0.4325 -0.9425 -0.3747
 3028SOL    HW220544   3.582   0.905  16.979  1.2884  0.5790  0.0737
 3029SOL     OW20545   4.123   2.376  15.169 -0.2231 -0.7622 -0.1419
 3029SOL    HW120546   4.103   2.288  15.199  1.1288 -1.2084 -0.5359
 3029SOL    HW220547   4.039   2.418  15.149  0.8121  0.7412 -1.3319
 3030SOL     OW20548   0.129   2.633   5.696  0.2262  0.3122 -0.1258
 3030SOL    HW120549   0.089   2.692   5.633 -0.0985 -1.9527 -2.0108
 3030SOL    HW220550   0.214   2.676   5.713  0.6490 -1.3508  1.9996
 3031SOL     OW20551   1.509   2.385  13.464 -0.3600  0.6755  0.1442
 3031SOL    HW120552   1.578   2.379  13.531 -0.9165 -1.0629  0.5450
 3031SOL    HW220553   1.474   2.473  13.478 -3.3982 -0.0452 -3.0328
 3032SOL     OW20554   1.198   2.186  16.410  0.0540  0.1644  0.1710
 3032SOL    HW120555   1.172   2.194  16.318 -0.4710 -2.8029  0.0647
 3032SOL    HW220556   1.231   2.096  16.402  2.3654  1.0648 -0.3377
 3033SOL     OW20557   2.423   2.029   2.960 -0.1994  0.2070  0.2860
 3033SOL    HW120558   2.409   2.094   3.029 -0.3962  0.8493 -0.3566
 3033SOL    HW220559   2.518   2.017   2.954 -0.1887  0.8503 -0.9039
 3034SOL     OW20560   2.107   0.539   9.005 -0.2465 -0.2656 -0.3682
 3034SOL    HW120561   2.033   0.524   8.946 -0.2295 -0.5573 -0.3168
 3034SOL    HW220562   2.183   0.538   8.947 -0.6804 -0.4058 -0.9263
 3035SOL     OW20563   1.734   0.333  15.359  0.0234 -0.0998  0.9296
 3035SOL    HW120564   1.781   0.329  15.276 -2.1383  0.6728 -0.3377
 3035SOL    HW220565   1.660   0.391  15.342  1.4274  2.1366  2.6212
 3036SOL     OW20566   1.304   1.886  13.479 -0.5013  0.3148 -0.0511
 3036SOL    HW120567   1.297   1.953  13.546 -1.8193  0.2349 -0.0986
 3036SOL    HW220568   1.395   1.859  13.480 -0.1535  1.4861 -0.1690
 3037SOL     OW20569   3.406   1.395   3.048  0.0797  0.0620  0.8116
 3037SOL    HW120570   3.478   1.457   3.044 -2.4298  2.9209  0.0090
 3037SOL    HW220571   3.370   1.400   3.137  2.9584 -1.3808  2.0689
 3038SOL     OW20572   0.690   3.204   7.981 -0.0866  0.1747  0.7408
 3038SOL    HW120573   0.620   3.182   7.920 -1.4333  0.9674  2.0251
 3038SOL    HW220574   0.738   3.121   7.980  2.7599  1.8317 -0.7978
 3039SOL     OW20575   4.251   1.725   3.269 -0.7736 -0.4073  0.1123
 3039SOL    HW120576   4.227   1.665   3.199  3.2222  1.0994 -2.5390
 3039SOL    HW220577   4.345   1.714   3.260 -0.8191 -1.4057  0.8402
 3040SOL     OW20578   1.851   0.373   3.773  0.3519 -0.3587 -0.6050
 3040SOL    HW120579   1.820   0.385   3.683 -0.5662  0.4915 -0.1662
 3040SOL    HW220580   1.797   0.437   3.819  2.0988  0.6723  0.0068
 3041SOL     OW20581   2.997   4.037   4.566  0.8895  0.5683  0.2954
 3041SOL    HW120582   2.939   4.112   4.584 -1.9147 -1.4528 -0.3498
 3041SOL    HW220583   2.967   3.974   4.631  0.7778 -0.7039 -0.9777
 3042SOL     OW20584   2.111   0.106  13.405 -0.1515 -0.5458  0.2409
 3042SOL    HW120585   2.206   0.106  13.397 -0.1692 -0.4442  0.0258
 3042SOL    HW220586   2.082   0.127  13.316 -1.2766 -1.7538  0.3105
 3043SOL     OW20587   2.869   3.639   7.167  0.0770  0.2264 -0.2925
 3043SOL    HW120588   2.953   3.618   7.125  1.0814 -0.0723  1.8607
 3043SOL    HW220589   2.808   3.606   7.100  1.0196  1.0371 -1.5492
 3044SOL     OW20590   3.517   3.046   8.304 -0.0538 -0.4307 -0.3030
 3044SOL    HW120591   3.446   3.059   8.241 -2.0627  3.3300  2.6798
 3044SOL    HW220592   3.589   3.009   8.253 -1.0451 -0.7054 -1.5075
 3045SOL     OW20593   3.994   0.532   4.893 -0.3352  0.4920  0.5868
 3045SOL    HW120594   4.012   0.626   4.889  1.4635  0.1267 -0.1462
 3045SOL    HW220595   3.978   0.525   4.987  0.4200  0.0815  0.6815
 3046SOL     OW20596   4.695   2.007   6.578  0.2485 -0.9069 -0.3123
 3046SOL    HW120597   0.034   2.080   6.588 -0.1029 -0.7270  0.5977
 3046SOL    HW220598   4.713   1.980   6.488  2.2473 -0.6138  0.0102
 3047SOL     OW20599   3.189   3.549   9.852 -0.1591  0.4535  1.2080
 3047SOL    HW120600   3.170   3.624   9.909  0.3785  1.1723  0.4374
 3047SOL    HW220601   3.123   3.568   9.785 -0.1125 -2.4076  0.3451
 3048SOL     OW20602   1.694   3.521   1.879  0.4930  0.1212 -0.0891
 3048SOL    HW120603   1.648   3.555   1.956 -1.6679 -0.3895 -1.1441
 3048SOL    HW220604   1.785   3.514   1.908  0.2520 -0.8358  0.4368
 3049SOL     OW20605   3.478   1.871  10.505  0.2053  0.0706  0.4136
 3049SOL    HW120606   3.429   1.846  10.427 -1.7100  0.5907  1.4442
 3049SOL    HW220607   3.487   1.966  10.500  0.1620 -0.0341 -1.4848
 3050SOL     OW20608   1.481   2.236   7.008 -0.7823  0.1921 -0.1576
 3050SOL    HW120609   1.392   2.219   7.039 -0.0486  0.7007  2.1929
 3050SOL    HW220610   1.475   2.306   6.943  1.8009  0.5669  0.0115
 3051SOL     OW20611   0.488   4.132   1.972  0.1054  0.2971 -0.0309
 3051SOL    HW120612   0.438   4.060   2.010 -0.2963  1.6332  1.9787
 3051SOL    HW220613   0.465   4.112   1.881  1.0925 -1.6270  0.1305
 3052SOL     OW20614   3.294   0.876   6.442 -0.7968  0.4516 -0.3906
 3052SOL    HW120615   3.221   0.883   6.381  0.6439  0.1885 -2.1545
 3052SOL    HW220616   3.358   0.836   6.382  0.0815  1.9305 -0.4449
 3053SOL     OW20617   1.815   1.308   2.536 -0.0837 -0.4768  0.0347
 3053SOL    HW120618   1.794   1.298   2.628 -1.9925 -3.0824 -0.7003
 3053SOL    HW220619   1.855   1.223   2.519  1.0912 -0.2954  1.9529
 3054SOL     OW20620   2.531   0.742  17.025  0.6904 -0.4101 -0.0126
 3054SOL    HW120621   2.450   0.708  16.988  1.5298 -2.0862 -0.3135
 3054SOL    HW220622   2.497   0.828  17.050 -0.7856 -1.1711  0.5326
 3055SOL     OW20623   3.398   0.819   4.555  0.6410 -0.4452  0.0469
 3055SOL    HW120624   3.459   0.893   4.555  1.4216 -1.0863 -0.3666
 3055SOL    HW220625   3.431   0.770   4.630 -1.0001 -0.3057  0.8597
 3056SOL     OW20626   0.099   2.822   5.507 -0.2504  0.3765  0.0135
 3056SOL    HW120627   0.127   2.911   5.526 -1.7215  0.9843 -0.6235
 3056SOL    HW220628   0.167   2.787   5.450 -1.2028  2.6730 -2.5229
 3057SOL     OW20629   3.181   0.463   9.578  0.1217  0.2557  0.2177
 3057SOL    HW120630   3.087   0.450   9.566  0.1015  1.4726 -0.9647
 3057SOL    HW220631   3.182   0.475   9.673  1.4612  2.5060 -0.0671
 3058SOL     OW20632   3.307   3.064   1.718  0.1516 -0.2755  0.0603
 3058SOL    HW120633   3.292   3.105   1.633  1.7408 -0.2483 -0.2129
 3058SOL    HW220634   3.384   3.016   1.688  0.4506  0.6570 -0.6483
 3059SOL     OW20635   4.423   3.375   0.722 -0.4014  0.3194 -0.3073
 3059SOL    HW120636   4.481   3.316   0.770 -1.0748 -2.0041 -2.3412
 3059SOL    HW220637   4.339   3.346   0.759 -0.2680  0.5891  0.2101
 3060SOL     OW20638   0.215   0.311   3.987  0.0902 -0.1075  0.3459
 3060SOL    HW120639   0.255   0.387   4.029 -0.1520  0.3540 -0.2577
 3060SOL    HW220640   0.293   0.284   3.938 -0.5455  0.2118 -0.8444
 3061SOL     OW20641   0.337   2.038   9.849 -0.1767  0.0654 -0.1077
 3061SOL    HW120642   0.260   2.074   9.894  0.7085 -0.5542  1.8829
 3061SOL    HW220643   0.404   2.090   9.894  0.2700 -0.3279 -0.3193
 3062SOL     OW20644   2.370   1.791   6.742  0.0135 -0.1126  0.3448
 3062SOL    HW120645   2.308   1.720   6.727  0.5603 -0.8327  1.4817
 3062SOL    HW220646   2.372   1.835   6.657 -1.1411  1.8718  1.3573
 3063SOL     OW20647   3.897   2.450   4.356  0.2203  0.1318  0.0175
 3063SOL    HW120648   3.814   2.494   4.375 -0.5198 -1.0055 -0.6017
 3063SOL    HW220649   3.871   2.399   4.279  0.8006 -1.1827  0.6928
 3064SOL     OW20650   2.915   2.047   1.725 -0.7139 -0.6597  0.2487
 3064SOL    HW120651   2.967   2.127   1.718 -0.9412 -0.1522  4.3851
 3064SOL    HW220652   2.844   2.091   1.773  0.6460  1.2225  0.5601
 3065SOL     OW20653   4.656   3.848   1.152  0.2236 -0.4183  0.2055
 3065SOL    HW120654   4.679   3.908   1.223 -2.3585  1.8207 -0.8298
 3065SOL    HW220655   4.581   3.896   1.117  0.9623 -0.2243 -1.1123
 3066SOL     OW20656   2.499   4.210   3.396  0.7613 -0.1778  0.1500
 3066SOL    HW120657   2.437   4.169   3.335  1.7263  1.7143 -2.1379
 3066SOL    HW220658   2.581   4.178   3.358  0.8357  0.4669 -0.2488
 3067SOL     OW20659   2.244   1.724  11.903  0.3815 -0.5156 -0.0216
 3067SOL    HW120660   2.189   1.790  11.946  1.2807  0.9543 -1.1295
 3067SOL    HW220661   2.199   1.711  11.820 -2.5138  2.6596  1.0351
 3068SOL     OW20662   2.207   4.134   6.158  0.2791  0.3474  0.1678
 3068SOL    HW120663   2.257   4.187   6.220 -1.0214  1.8528 -0.0751
 3068SOL    HW220664   2.279   4.124   6.096 -0.3853  2.2610 -0.9074
 3069SOL     OW20665   4.229   4.182  11.858 -0.2767 -0.0138  0.1276
 3069SOL    HW120666   4.320   4.156  11.872 -0.2615 -0.1488 -0.2114
 3069SOL    HW220667   4.189   4.106  11.815  0.6755 -0.1175 -0.5703
 3070SOL     OW20668   4.508   0.135   6.723  0.6225  0.1473  0.0512
 3070SOL    HW120669   4.455   0.181   6.658  0.3243 -1.2644 -0.7076
 3070SOL    HW220670   4.478   0.044   6.714 -2.9250  1.5800 -2.4547
 3071SOL     OW20671   3.592   4.704   5.406  0.3154 -0.1711  0.2024
 3071SOL    HW120672   3.600   4.682   5.313  0.1404  2.5916 -0.4780
 3071SOL    HW220673   3.661   4.648   5.441 -2.0403 -3.1594  0.0483
 3072SOL     OW20674   1.112   2.563   5.096 -1.2474 -0.2106  0.1619
 3072SOL    HW120675   1.101   2.658   5.093 -2.8895 -0.3944  0.0644
 3072SOL    HW220676   1.072   2.549   5.182  0.9956 -1.9209  0.9059
 3073SOL     OW20677   4.543   1.765  12.289 -0.3346  0.3704  0.3676
 3073SOL    HW120678   4.502   1.837  12.337  1.6185  0.7210  1.4925
 3073SOL    HW220679   4.633   1.774  12.320 -0.1801 -0.7993  0.2585
 3074SOL     OW20680   2.174   0.689   8.534 -0.2702 -0.5318 -0.3118
 3074SOL    HW120681   2.113   0.657   8.601 -0.9797  1.0446 -0.1975
 3074SOL    HW220682   2.209   0.775   8.558 -2.4989  0.4220 -0.3988
 3075SOL     OW20683   2.925   2.067   6.382  0.1918  0.2552 -0.2160
 3075SOL    HW120684   3.009   2.049   6.339  1.0643 -0.1793  1.6481
 3075SOL    HW220685   2.929   2.002   6.451  1.9287  0.1968 -0.3683
 3076SOL     OW20686   0.343   4.155   5.941  0.4591 -0.3051 -0.1161
 3076SOL    HW120687   0.356   4.217   5.868  0.2829 -0.3605 -0.1960
 3076SOL    HW220688   0.367   4.206   6.018 -0.3568 -0.5150  0.2817
 3077SOL     OW20689   4.057   1.983  13.048  0.0952 -0.0030  0.3879
 3077SOL    HW120690   4.147   1.960  13.071 -0.1031  0.1496  1.3181
 3077SOL    HW220691   4.049   1.929  12.969  1.4218  2.2937 -1.3073
 3078SOL     OW20692   4.637   0.738  13.429  0.2467  0.0178 -0.4762
 3078SOL    HW120693   4.697   0.807  13.402 -0.0566  0.6760  0.5242
 3078SOL    HW220694   4.698   0.678  13.472  0.9689 -0.4168 -2.0870
 3079SOL     OW20695   3.179   0.012   8.652 -0.1601 -1.0324 -0.0258
 3079SOL    HW120696   3.092   0.051   8.654  0.9490  1.4685 -0.7874
 3079SOL    HW220697   3.228   0.042   8.729 -1.1684 -1.1409  0.6554
 3080SOL     OW20698   0.440   0.541   7.106  0.0711  0.2118 -0.0591
 3080SOL    HW120699   0.436   0.600   7.031 -0.0165  1.1010  0.6483
 3080SOL    HW220700   0.394   0.606   7.159 -1.5282  0.0265 -1.2162
 3081SOL     OW20701   0.163   1.870   5.045 -0.2340 -0.3053 -0.5209
 3081SOL    HW120702   0.251   1.872   5.008 -0.3108  0.1188 -0.6856
 3081SOL    HW220703   0.117   1.941   4.999  0.7189 -1.2009 -2.8437
 3082SOL     OW20704   4.663   2.323   7.246  0.5855  0.5788 -0.6335
 3082SOL    HW120705   4.663   2.230   7.271 -2.5214  0.7598  0.0879
 3082SOL    HW220706   4.641   2.322   7.153  2.1788  1.9976 -1.0180
 3083SOL     OW20707   3.616   0.439   5.633 -0.7025 -0.3940 -0.4525
 3083SOL    HW120708   3.631   0.517   5.579 -1.3290 -0.3783 -0.6014
 3083SOL    HW220709   3.610   0.371   5.566  0.4851  0.1360 -1.1028
 3084SOL     OW20710   3.247   4.212   8.730  0.0037 -0.4054 -0.2258
 3084SOL    HW120711   3.338   4.182   8.730 -0.6218 -2.2960 -1.9220
 3084SOL    HW220712   3.238   4.255   8.645 -0.0786 -2.9031 -1.4562
 3085SOL     OW20713   2.443   2.112  10.842  0.3171 -0.9121 -0.2169
 3085SOL    HW120714   2.454   2.129  10.749 -0.7635 -1.6909 -0.4874
 3085SOL    HW220715   2.374   2.046  10.836 -1.4699  0.7382  2.0186
 3086SOL     OW20716   4.601   2.588   6.911 -0.0797  0.3398  0.6890
 3086SOL    HW120717   4.642   2.656   6.963 -1.9927  0.5993  1.8431
 3086SOL    HW220718   4.546   2.633   6.847 -0.5490  0.7613  1.3929
 3087SOL     OW20719   2.566   4.087   9.110  0.0846  0.0422 -0.3918
 3087SOL    HW120720   2.503   4.059   9.176  0.6744 -0.9242 -0.2432
 3087SOL    HW220721   2.614   4.150   9.164 -1.8038  2.6650 -1.7636
 3088SOL     OW20722   1.999   3.214   5.693  0.2208  0.6636  0.3044
 3088SOL    HW120723   2.059   3.142   5.711  0.5936  0.7021 -0.7833
 3088SOL    HW220724   1.916   3.167   5.685 -0.9056  2.7133 -0.0183
 3089SOL     OW20725   1.784   4.284   5.932 -0.2309  0.4930  0.0687
 3089SOL    HW120726   1.857   4.325   5.979 -1.1809  2.1038  0.1100
 3089SOL    HW220727   1.803   4.192   5.951 -0.8043 -0.5167 -4.2501
 3090SOL     OW20728   4.395   4.618   6.609  0.5423 -0.1365 -0.2488
 3090SOL    HW120729   4.319   4.561   6.622 -1.0293  1.8027 -0.9006
 3090SOL    HW220730   4.455   4.545   6.592 -0.3004 -1.2822  1.6609
 3091SOL     OW20731   3.565   2.985   7.427 -0.7338  0.5264  0.0832
 3091SOL    HW120732   3.579   3.070   7.386 -0.2357 -0.2895 -1.4610
 3091SOL    HW220733   3.525   2.938   7.353  3.4033  0.0039 -1.8809
 3092SOL     OW20734   1.719   3.180   3.857  0.2020 -0.6376  0.3432
 3092SOL    HW120735   1.709   3.138   3.772  0.8614 -0.2620  0.0774
 3092SOL    HW220736   1.808   3.151   3.876  0.0102 -1.9986 -0.9296
 3093SOL     OW20737   2.673   2.533   3.772  0.2373 -0.6908 -0.3696
 3093SOL    HW120738   2.714   2.482   3.702  1.2552 -0.0214 -0.2589
 3093SOL    HW220739   2.602   2.478   3.806 -0.0824  0.3669  0.6631
 3094SOL     OW20740   3.899   3.324   4.875 -0.1854  0.1842 -0.2272
 3094SOL    HW120741   3.878   3.410   4.840  1.1892  0.6376  0.0632
 3094SOL    HW220742   3.971   3.292   4.821 -2.0754 -0.5997 -2.2766
 3095SOL     OW20743   3.804   1.455   2.634 -0.4637 -0.0685 -0.1914
 3095SOL    HW120744   3.825   1.477   2.725  1.2231 -2.6222  0.0559
 3095SOL    HW220745   3.775   1.364   2.643 -0.9880  0.1642  0.5417
 3096SOL     OW20746   0.897   3.126  12.429  0.1109  0.3263  0.0849
 3096SOL    HW120747   0.934   3.120  12.341 -0.2943  0.5606 -0.1024
 3096SOL    HW220748   0.827   3.191  12.418  1.3075  1.1124 -2.8570
 3097SOL     OW20749   0.368   4.191  11.583 -0.1406 -0.0657  0.0589
 3097SOL    HW120750   0.299   4.257  11.574  2.2519  2.4385  0.4314
 3097SOL    HW220751   0.310   4.139  11.639 -1.2298  1.2334  0.1512
 3098SOL     OW20752   0.122   4.581  15.456 -0.0240 -0.5054 -0.2886
 3098SOL    HW120753   0.028   4.583  15.472  0.3480  0.8564  1.7591
 3098SOL    HW220754   0.135   4.497  15.411  2.3070 -0.6658  0.7081
 3099SOL     OW20755   2.148   0.712   1.312  0.6227 -0.0652 -0.3783
 3099SOL    HW120756   2.060   0.679   1.293  0.3152  0.1373  0.6960
 3099SOL    HW220757   2.195   0.726   1.229  0.9154  1.1502 -0.0076
 3100SOL     OW20758   2.116   1.531   5.606 -0.0745  0.4418 -0.3363
 3100SOL    HW120759   2.107   1.465   5.537  0.2379  0.7819 -0.6973
 3100SOL    HW220760   2.210   1.546   5.617  0.1371  0.8842 -2.8535
 3101SOL     OW20761   1.637   3.039   2.060 -0.0647  0.0165 -0.2185
 3101SOL    HW120762   1.699   3.077   1.998 -0.7786 -0.7735 -1.4209
 3101SOL    HW220763   1.638   3.093   2.139 -0.3719  0.6475 -0.6425
 3102SOL     OW20764   3.241   1.996   5.552  0.2072  0.9053  0.1792
 3102SOL    HW120765   3.334   1.976   5.545  0.3009  1.6660 -0.7265
 3102SOL    HW220766   3.250   2.092   5.552 -0.7664  1.0070 -2.1725
 3103SOL     OW20767   4.657   2.849   7.334  0.3779  0.1350  0.6310
 3103SOL    HW120768   4.689   2.769   7.293  0.2581  0.1260  0.5541
 3103SOL    HW220769   0.006   2.912   7.330  0.9403 -0.4057  2.3328
 3104SOL     OW20770   3.629   3.393   7.820 -0.4284  0.5560 -0.2641
 3104SOL    HW120771   3.640   3.369   7.728 -0.0325 -2.3504  0.5427
 3104SOL    HW220772   3.633   3.489   7.814  2.7483  0.3023 -1.9772
 3105SOL     OW20773   3.514   3.363   8.881 -0.0891  0.1306  0.3128
 3105SOL    HW120774   3.558   3.284   8.848 -2.0356 -0.0321 -1.9004
 3105SOL    HW220775   3.560   3.430   8.831 -2.2280  0.2739 -1.4682
 3106SOL     OW20776   3.785   3.303   2.215 -0.1660  0.0203  0.2256
 3106SOL    HW120777   3.783   3.394   2.243 -1.7264  1.1497 -3.4989
 3106SOL    HW220778   3.746   3.313   2.128  2.7610  1.3688 -0.9670
 3107SOL     OW20779   1.802   2.240   3.293  0.6869 -0.2189 -0.2046
 3107SOL    HW120780   1.807   2.200   3.379  0.6707  0.6495  0.2034
 3107SOL    HW220781   1.713   2.212   3.272  0.5546  1.7076 -2.2709
 3108SOL     OW20782   4.588   4.010   8.446  0.6023  0.1443 -0.3931
 3108SOL    HW120783   4.645   4.044   8.376  1.4477  0.9411  0.6754
 3108SOL    HW220784   4.656   3.995   8.512 -0.2710 -0.3866  0.3771
 3109SOL     OW20785   2.673   0.553   5.140 -0.3295 -0.2304 -0.1431
 3109SOL    HW120786   2.615   0.569   5.065  0.9751 -1.3215 -1.3661
 3109SOL    HW220787   2.643   0.467   5.168 -0.2940 -0.8364 -2.0229
 3110SOL     OW20788   0.745   1.925   4.672  0.2884 -0.3562 -0.1105
 3110SOL    HW120789   0.681   1.883   4.615  0.2183 -0.3891 -0.0069
 3110SOL    HW220790   0.751   2.011   4.630  2.9626 -0.8472 -0.7511
 3111SOL     OW20791   2.565   2.318   4.547 -0.0846 -0.0149  0.0903
 3111SOL    HW120792   2.646   2.349   4.506 -0.2442 -1.4803 -1.3538
 3111SOL    HW220793   2.516   2.397   4.573 -0.4896  0.4628 -2.1090
 3112SOL     OW20794   2.341   3.146   6.407  0.1837  0.2113 -0.0594
 3112SOL    HW120795   2.262   3.119   6.360 -1.0298  2.6720  0.5986
 3112SOL    HW220796   2.338   3.098   6.491 -0.1113 -0.6464 -0.5596
 3113SOL     OW20797   0.423   2.523   6.305 -0.3626 -0.1697  0.4464
 3113SOL    HW120798   0.350   2.482   6.258  1.1943 -0.9277 -1.2600
 3113SOL    HW220799   0.377   2.584   6.363  1.0050 -0.3084  1.6885
 3114SOL     OW20800   4.580   0.943  10.502  0.0313  0.2430  0.2559
 3114SOL    HW120801   4.584   0.957  10.596 -2.9938 -1.2090  0.5913
 3114SOL    HW220802   4.674   0.950  10.484  0.2496 -0.0534  1.3081
 3115SOL     OW20803   0.901   4.370   3.299  0.1485 -0.1499  0.3917
 3115SOL    HW120804   0.895   4.371   3.203  0.7430  0.8103  0.3618
 3115SOL    HW220805   0.931   4.459   3.316 -0.7856  0.0303  1.0679
 3116SOL     OW20806   1.006   4.638   4.148  0.7657  0.5700  0.1157
 3116SOL    HW120807   0.948   4.634   4.223 -0.6957  1.4410 -0.9709
 3116SOL    HW220808   1.088   4.674   4.182  1.3498  0.9251 -1.6257
 3117SOL     OW20809   3.067   2.054   1.349 -0.2332  0.1277 -0.1933
 3117SOL    HW120810   3.064   1.982   1.412  0.9773  0.5358  0.3353
 3117SOL    HW220811   2.978   2.085   1.339 -0.3763 -0.6153 -1.2401
 3118SOL     OW20812   1.471   3.697  15.440  0.0661  0.0765  0.1225
 3118SOL    HW120813   1.541   3.750  15.402 -0.5501  0.2324 -0.7819
 3118SOL    HW220814   1.407   3.672  15.373 -0.0244 -1.9227  0.9652
 3119SOL     OW20815   4.201   4.212   3.795  0.0889  0.2489 -0.2183
 3119SOL    HW120816   4.249   4.294   3.795 -0.3809  0.5032 -3.8564
 3119SOL    HW220817   4.136   4.217   3.866 -0.5275  0.4177 -0.7916
 3120SOL     OW20818   1.111   2.741   2.558  0.3871 -0.3997  0.1504
 3120SOL    HW120819   1.173   2.680   2.517 -1.5223 -2.1598 -0.1395
 3120SOL    HW220820   1.032   2.708   2.515  0.7770  0.3749 -1.1605
 3121SOL     OW20821   1.472   3.366  13.462 -0.3126 -0.1456 -0.4182
 3121SOL    HW120822   1.391   3.372  13.512  0.4740  0.6187  0.7677
 3121SOL    HW220823   1.532   3.306  13.505 -1.8293 -1.3112  0.0774
 3122SOL     OW20824   1.121   4.130   1.438  0.3147 -0.0973  0.2971
 3122SOL    HW120825   1.056   4.137   1.367 -0.8859  1.0547  1.4951
 3122SOL    HW220826   1.146   4.038   1.432 -0.5625 -0.5060  2.9419
 3123SOL     OW20827   1.890   3.262   5.213  0.5900 -0.3101  0.5091
 3123SOL    HW120828   1.826   3.286   5.146  1.8731  0.7880 -0.3280
 3123SOL    HW220829   1.844   3.180   5.228 -1.0885  0.7570  1.3125
 3124SOL     OW20830   2.670   1.339   9.669 -0.1493  0.0664 -0.0829
 3124SOL    HW120831   2.618   1.298   9.738  0.1114 -0.1415 -0.0087
 3124SOL    HW220832   2.744   1.280   9.685 -0.0026  1.0480  2.7308
 3125SOL     OW20833   4.146   1.669   3.733  0.4362  0.2181 -0.1667
 3125SOL    HW120834   4.142   1.582   3.772 -2.1627  0.8308  0.9039
 3125SOL    HW220835   4.205   1.645   3.661 -0.9652 -0.6759 -1.0243
 3126SOL     OW20836   4.466   2.853  15.758 -0.5653 -0.3352  0.0172
 3126SOL    HW120837   4.500   2.781  15.812 -2.2346 -1.1182  0.0354
 3126SOL    HW220838   4.382   2.817  15.731 -0.1915  0.4378 -2.2057
 3127SOL     OW20839   3.081   4.643   2.120  0.7929 -0.4845  0.4795
 3127SOL    HW120840   3.024   4.620   2.046 -1.0741 -1.3578  2.1951
 3127SOL    HW220841   3.167   4.646   2.078 -0.4764 -0.3225 -2.0780
 3128SOL     OW20842   2.988   4.610   7.289 -0.1950  0.1471 -0.4808
 3128SOL    HW120843   3.042   4.543   7.246  1.9366  1.7189 -0.2554
 3128SOL    HW220844   3.031   4.689   7.257  0.0830  0.1942  0.0101
 3129SOL     OW20845   0.283   4.046   8.171 -0.5073 -0.1172  0.0730
 3129SOL    HW120846   0.337   3.982   8.125 -1.4946  0.3044 -1.6679
 3129SOL    HW220847   0.331   4.119   8.133 -2.6109  0.1659 -2.0892
 3130SOL     OW20848   0.215   0.291   0.558 -0.5230  0.3945  0.2149
 3130SOL    HW120849   0.253   0.271   0.473  0.9046 -0.1536  0.9850
 3130SOL    HW220850   0.264   0.227   0.609 -2.0388 -1.4890 -0.6726
 3131SOL     OW20851   4.305   3.289   7.662 -0.6606  0.7191  0.3557
 3131SOL    HW120852   4.295   3.224   7.593  0.1591  2.9008 -1.8012
 3131SOL    HW220853   4.364   3.348   7.615 -0.8038  1.8028  1.5404
 3132SOL     OW20854   2.124   3.478  11.969 -0.0661 -0.2813  0.0516
 3132SOL    HW120855   2.060   3.421  11.925 -1.1177  0.1291  1.0423
 3132SOL    HW220856   2.200   3.443  11.923 -0.7043 -1.0698 -0.3995
 3133SOL     OW20857   4.546   4.207   6.494  0.2931 -0.4231  0.1627
 3133SOL    HW120858   4.605   4.170   6.428 -0.0086  0.6607 -0.7395
 3133SOL    HW220859   4.550   4.303   6.488  1.9116 -0.4434  1.1118
 3134SOL     OW20860   4.525   1.454   5.717  0.2526  0.0390  0.2528
 3134SOL    HW120861   4.519   1.447   5.622  1.4543 -0.7520  0.2362
 3134SOL    HW220862   4.584   1.380   5.731 -0.5438 -0.5448  0.5349
 3135SOL     OW20863   2.589   1.831   7.421 -0.2477 -0.3714  0.2837
 3135SOL    HW120864   2.566   1.824   7.513  0.1390 -0.7253  0.3552
 3135SOL    HW220865   2.524   1.771   7.385  0.1249 -0.0754 -0.8968
 3136SOL     OW20866   2.359   4.501   7.919 -0.1360 -0.4530 -0.0855
 3136SOL    HW120867   2.290   4.435   7.917  0.0716 -0.6253 -1.8581
 3136SOL    HW220868   2.420   4.460   7.858  1.4151 -1.2802  2.0482
 3137SOL     OW20869   2.925   4.349   0.518 -0.3517  0.3107 -0.3096
 3137SOL    HW120870   2.953   4.438   0.494 -0.6504  1.1136  2.3049
 3137SOL    HW220871   2.830   4.352   0.509 -0.5144 -3.5876  0.3975
 3138SOL     OW20872   3.585   3.435   8.390 -0.0794  0.6476 -0.2363
 3138SOL    HW120873   3.626   3.445   8.305 -0.9323  1.8658 -0.5074
 3138SOL    HW220874   3.495   3.424   8.358 -0.7882  0.2491  1.8535
 3139SOL     OW20875   4.471   4.510  13.689  0.0119 -0.4028 -0.1869
 3139SOL    HW120876   4.379   4.497  13.667 -0.0728 -0.0576 -0.0379
 3139SOL    HW220877   4.497   4.418  13.679 -2.2115 -1.0647 -0.0200
 3140SOL     OW20878   1.457   2.799   6.507  0.4636 -0.0944  0.5706
 3140SOL    HW120879   1.448   2.704   6.516 -1.3334  0.0964  0.8195
 3140SOL    HW220880   1.380   2.814   6.451  1.8301 -1.2485 -1.6254
 3141SOL     OW20881   3.028   4.253   7.946 -0.1465 -0.0229 -0.3617
 3141SOL    HW120882   2.994   4.165   7.929  0.1789 -0.3339  0.6394
 3141SOL    HW220883   3.123   4.243   7.942 -0.0072  1.1317 -0.0407
 3142SOL     OW20884   0.138   1.645   7.660 -0.5425  0.0314 -0.0861
 3142SOL    HW120885   0.190   1.721   7.636  0.2577 -0.1947  0.9222
 3142SOL    HW220886   0.196   1.592   7.715 -0.1303 -0.0302 -0.5869
 3143SOL     OW20887   1.790   2.099   5.802  0.3021 -0.2651 -0.3845
 3143SOL    HW120888   1.811   2.124   5.892  0.7858  2.4884 -1.2629
 3143SOL    HW220889   1.836   2.171   5.759 -1.8649  0.3675 -1.6346
 3144SOL     OW20890   2.837   3.845   5.381  0.1302  0.0197  0.2517
 3144SOL    HW120891   2.884   3.779   5.331  0.0000 -0.4616  0.7694
 3144SOL    HW220892   2.886   3.845   5.463  1.5643  2.1331 -0.6164
 3145SOL     OW20893   0.424   4.497   6.902  0.0412 -0.5068 -0.1329
 3145SOL    HW120894   0.367   4.456   6.967  0.1258 -1.1056 -0.4388
 3145SOL    HW220895   0.365   4.556   6.855 -1.1575 -0.7585  1.0688
 3146SOL     OW20896   0.741   1.154   2.470 -0.4320  0.0261  0.3545
 3146SOL    HW120897   0.791   1.101   2.408 -2.0897 -2.1071  0.8586
 3146SOL    HW220898   0.746   1.242   2.432  1.5973 -0.0668  0.3947
 3147SOL     OW20899   4.511   0.643  15.921 -0.3181  0.6747 -0.3781
 3147SOL    HW120900   4.525   0.728  15.879  1.1557  0.8173  0.4254
 3147SOL    HW220901   4.425   0.650  15.964  0.0092 -1.7956  0.6741
 3148SOL     OW20902   2.221   2.377  13.108  0.4527 -0.5435 -0.0520
 3148SOL    HW120903   2.299   2.321  13.097  0.9356 -0.4256  2.6279
 3148SOL    HW220904   2.170   2.347  13.033 -0.2284 -1.9844  0.9716
 3149SOL     OW20905   0.968   2.652   4.119  0.1719  0.4999 -0.4255
 3149SOL    HW120906   1.010   2.738   4.111 -0.3741  0.7671 -0.3834
 3149SOL    HW220907   0.874   2.666   4.114  0.2912  1.3018 -0.3465
 3150SOL     OW20908   3.396   0.087   2.290  0.3984  0.1824  0.1140
 3150SOL    HW120909   3.370   0.011   2.342  1.0477 -0.3078 -0.2866
 3150SOL    HW220910   3.318   0.142   2.300 -0.7586 -1.3971 -0.1458
 3151SOL     OW20911   0.778   2.746  11.565 -0.0353 -0.0796  0.9830
 3151SOL    HW120912   0.841   2.791  11.621  2.0969  0.1285 -1.5577
 3151SOL    HW220913   0.800   2.656  11.590  2.1031  0.9383  2.7745
 3152SOL     OW20914   4.221   2.611   3.222  0.4243  0.3960 -0.3536
 3152SOL    HW120915   4.302   2.560   3.216 -0.4138 -0.8021 -1.5765
 3152SOL    HW220916   4.202   2.628   3.314 -1.1954 -2.4782 -0.1478
 3153SOL     OW20917   3.835   3.342  13.934  0.3467  0.1678 -0.2562
 3153SOL    HW120918   3.929   3.323  13.937  0.2697 -0.4862 -1.8065
 3153SOL    HW220919   3.834   3.400  14.010  1.5417 -0.8333  0.5205
 3154SOL     OW20920   0.889   4.374  13.968  0.1690 -0.4362  0.2872
 3154SOL    HW120921   0.915   4.359  13.877 -0.0663 -1.5574  0.4017
 3154SOL    HW220922   0.923   4.295  14.011  0.6307 -1.4015 -1.8524
 3155SOL     OW20923   3.529   0.507  11.720 -0.2927 -0.0242 -0.2664
 3155SOL    HW120924   3.547   0.601  11.717 -1.5472  0.2794  1.8755
 3155SOL    HW220925   3.623   0.489  11.727  0.4425  2.9887 -1.9002
 3156SOL     OW20926   4.159   0.501  12.660 -0.4593 -0.2603  0.2703
 3156SOL    HW120927   4.117   0.448  12.592 -0.4797  1.2140 -0.8675
 3156SOL    HW220928   4.136   0.593  12.646 -2.3540 -0.5300  1.7288
 3157SOL     OW20929   3.951   0.171   3.866  0.3209  0.3511  0.6254
 3157SOL    HW120930   3.884   0.240   3.866  1.1855  1.1783 -2.3429
 3157SOL    HW220931   3.902   0.092   3.889  1.9814 -1.1126 -0.9408
 3158SOL     OW20932   2.884   2.877   0.966  0.1296  0.4151  0.0423
 3158SOL    HW120933   2.934   2.930   0.904  1.5945  0.1181  0.9635
 3158SOL    HW220934   2.804   2.929   0.958  0.6999  1.1664 -0.8940
 3159SOL     OW20935   0.353   3.299   1.402  0.3963  0.2684  0.1177
 3159SOL    HW120936   0.281   3.327   1.459  2.0521  1.7593  1.4823
 3159SOL    HW220937   0.309   3.263   1.326  0.1280  2.3818 -0.7190
 3160SOL     OW20938   3.684   1.801   7.467 -0.1800 -0.4183 -0.0397
 3160SOL    HW120939   3.670   1.825   7.559  1.8022  1.4693 -0.2458
 3160SOL    HW220940   3.609   1.744   7.450 -1.9097  2.2378 -1.2799
 3161SOL     OW20941   0.640   1.987   4.927 -0.2831 -0.2530  0.7439
 3161SOL    HW120942   0.674   1.966   4.840  1.7263 -1.2524  1.7639
 3161SOL    HW220943   0.557   1.941   4.917 -0.6598  0.6374 -0.2574
 3162SOL     OW20944   3.792   0.262   2.360 -0.2415  0.0251  0.0812
 3162SOL    HW120945   3.879   0.242   2.395 -0.2705 -0.4846 -0.1372
 3162SOL    HW220946   3.763   0.319   2.431 -0.3546  0.2112 -0.1158
 3163SOL     OW20947   4.668   0.746   3.315  0.1161 -0.2364  0.1626
 3163SOL    HW120948   4.720   0.721   3.238  1.0344  0.7553  0.4659
 3163SOL    HW220949   4.689   0.838   3.328  0.2457 -0.1209 -0.8607
 3164SOL     OW20950   2.480   2.116   9.148 -0.8286  0.4318  0.2741
 3164SOL    HW120951   2.416   2.184   9.169 -1.7630 -0.1901 -0.5643
 3164SOL    HW220952   2.530   2.175   9.092 -0.8830 -0.6259 -0.9042
 3165SOL     OW20953   3.393   1.468   2.491  0.9623 -0.2332  0.6950
 3165SOL    HW120954   3.372   1.375   2.488  0.0092  0.0669 -2.2008
 3165SOL    HW220955   3.457   1.462   2.420  0.3086  0.4702  0.0367
 3166SOL     OW20956   4.453   3.308   2.685 -0.3685 -0.4692 -0.6571
 3166SOL    HW120957   4.539   3.340   2.658 -0.2273 -0.8682 -0.6762
 3166SOL    HW220958   4.408   3.306   2.600 -5.8836 -0.2846  2.2622
 3167SOL     OW20959   0.747   3.638   2.475  0.6363 -0.3420 -0.0064
 3167SOL    HW120960   0.759   3.550   2.510  0.6370 -0.4984 -0.4030
 3167SOL    HW220961   0.678   3.623   2.411 -0.4226  0.3051  0.9904
 3168SOL     OW20962   0.028   1.819  10.804  0.2393 -0.1887 -0.0218
 3168SOL    HW120963   4.720   1.831  10.894  0.4101 -1.7799  0.2577
 3168SOL    HW220964   0.108   1.769  10.817  0.0347 -0.3361  0.6546
 3169SOL     OW20965   1.666   1.446  11.716 -0.1282  0.0970  0.1570
 3169SOL    HW120966   1.609   1.410  11.784  2.3591 -0.8455  1.7612
 3169SOL    HW220967   1.733   1.490  11.768 -1.1245  0.9180  0.7505
 3170SOL     OW20968   4.158   3.238   2.710 -0.0418 -0.4231 -0.0979
 3170SOL    HW120969   4.110   3.166   2.751  2.0044 -0.0818  2.8994
 3170SOL    HW220970   4.145   3.221   2.617 -1.5666  0.2812 -0.0165
 3171SOL     OW20971   3.024   3.546   5.867  0.4419 -0.0769 -0.0610
 3171SOL    HW120972   3.010   3.485   5.794 -0.9006  2.8836 -2.2513
 3171SOL    HW220973   3.009   3.489   5.943 -0.6012  0.6892  0.2947
 3172SOL     OW20974   3.952   4.617  11.030 -0.3504 -0.0330 -0.1504
 3172SOL    HW120975   3.865   4.650  11.054 -0.3713  2.1542 -3.1353
 3172SOL    HW220976   3.951   4.532  11.074  1.4762 -0.6419 -1.2625
 3173SOL     OW20977   2.085   1.368   6.420  0.3466  0.6276  0.5397
 3173SOL    HW120978   2.157   1.350   6.360  2.0327  4.1013  1.5380
 3173SOL    HW220979   2.130   1.377   6.504  0.2384 -0.1267  0.6740
 3174SOL     OW20980   0.332   3.853   5.442  0.5938 -0.2093 -0.0876
 3174SOL    HW120981   0.387   3.929   5.462  2.6119 -1.5102 -0.6755
 3174SOL    HW220982   0.249   3.877   5.484 -0.1851 -1.4839 -0.9213
 3175SOL     OW20983   0.701   3.887   2.593  0.2154 -0.1989 -0.0043
 3175SOL    HW120984   0.740   3.938   2.522 -0.6597  0.4894  0.0039
 3175SOL    HW220985   0.716   3.802   2.552 -1.1413 -0.2895 -0.3299
 3176SOL     OW20986   1.377   3.527   6.271 -0.4501  0.3590  0.5073
 3176SOL    HW120987   1.346   3.540   6.181  0.1692 -0.8311  0.1224
 3176SOL    HW220988   1.405   3.615   6.296  2.4295 -0.0963 -0.9721
 3177SOL     OW20989   2.857   1.960  14.601  0.1539  0.2049 -0.2728
 3177SOL    HW120990   2.897   2.023  14.661  1.3957  0.0245 -0.9185
 3177SOL    HW220991   2.852   1.885  14.661 -0.7877  0.3007 -0.2235
 3178SOL     OW20992   3.219   0.294  10.675  0.1994  0.3038  0.1964
 3178SOL    HW120993   3.260   0.327  10.596  0.7474 -1.7469 -0.3796
 3178SOL    HW220994   3.259   0.207  10.682 -0.2041 -0.0747 -2.1158
 3179SOL     OW20995   2.737   1.287   4.458 -0.3287 -0.6158  0.1766
 3179SOL    HW120996   2.817   1.313   4.504  0.3585 -0.5667 -1.0326
 3179SOL    HW220997   2.734   1.360   4.395 -0.7318 -0.0473  0.8633
 3180SOL     OW20998   2.160   3.261   5.098  0.2611 -0.0233  0.5626
 3180SOL    HW120999   2.072   3.258   5.135 -0.6035  1.0870 -1.3700
 3180SOL    HW221000   2.136   3.242   5.007  3.1332 -3.7097  0.5604
 3181SOL     OW21001   1.207   1.584   6.964 -0.0631 -0.2664  0.4551
 3181SOL    HW121002   1.145   1.591   7.036 -0.1553  1.7708  0.1605
 3181SOL    HW221003   1.155   1.610   6.889 -0.2684 -1.5143  0.1553
 3182SOL     OW21004   1.801   2.327   2.913  0.4715  0.5992 -0.0007
 3182SOL    HW121005   1.738   2.343   2.843  0.7949  0.0477 -0.4190
 3182SOL    HW221006   1.847   2.411   2.913  0.8873  0.3796 -1.0489
 3183SOL     OW21007   0.277   0.837   6.488  0.4915 -0.0500 -0.5220
 3183SOL    HW121008   0.254   0.870   6.401 -2.0071  2.3955  1.0640
 3183SOL    HW221009   0.229   0.898   6.544 -0.9203 -1.0243 -0.6912
 3184SOL     OW21010   1.449   3.454  11.258  0.2412 -0.4066 -0.0605
 3184SOL    HW121011   1.379   3.431  11.320 -0.5056  0.0918 -0.7238
 3184SOL    HW221012   1.396   3.474  11.181  0.9707 -2.2676 -1.0573
 3185SOL     OW21013   0.374   3.750   8.110  0.6491  0.0483 -0.1673
 3185SOL    HW121014   0.415   3.732   8.195 -1.5355  1.5627  1.2176
 3185SOL    HW221015   0.445   3.729   8.049  1.0480  0.0073  0.3084
 3186SOL     OW21016   1.884   3.486  12.998  0.5027 -0.2723  0.9238
 3186SOL    HW121017   1.951   3.551  13.020  0.3116  1.1089 -2.6369
 3186SOL    HW221018   1.918   3.425  12.933  0.0324 -0.9593  1.3155
 3187SOL     OW21019   4.564   4.114   7.382 -0.5132 -0.1998 -0.2671
 3187SOL    HW121020   4.516   4.077   7.456 -0.6915 -1.6774 -1.1314
 3187SOL    HW221021   4.635   4.160   7.427 -0.4286 -1.7884  1.2374
 3188SOL     OW21022   0.913   1.088   9.795  0.2810 -0.5018  0.3047
 3188SOL    HW121023   0.902   1.022   9.727 -2.2352 -0.1963  0.4197
 3188SOL    HW221024   0.926   1.163   9.737  2.4470 -0.6478  0.6027
 3189SOL     OW21025   3.794   2.500   4.680  0.7669 -0.2354 -0.0197
 3189SOL    HW121026   3.710   2.505   4.725  1.2025  1.5108  0.6024
 3189SOL    HW221027   3.771   2.505   4.587 -1.0499 -1.3285  0.3804
 3190SOL     OW21028   0.251   1.060   7.084  0.0171 -0.2732 -0.1622
 3190SOL    HW121029   0.160   1.091   7.081 -0.7856 -2.5539  0.7917
 3190SOL    HW221030   0.281   1.132   7.140  0.4067 -0.8870  0.4075
 3191SOL     OW21031   3.876   3.322  14.989 -0.0087  0.7210 -0.0631
 3191SOL    HW121032   3.851   3.411  15.016  0.2430  0.7263  0.1474
 3191SOL    HW221033   3.946   3.309  15.053 -0.0435 -0.7991 -0.3271
 3192SOL     OW21034   3.777   2.120   8.637 -0.3261  0.5560  0.0199
 3192SOL    HW121035   3.856   2.162   8.671  0.3098 -1.3810  0.9516
 3192SOL    HW221036   3.763   2.180   8.564 -1.8995  2.2630  1.7255
 3193SOL     OW21037   0.060   2.697   8.880  0.0317 -0.5383  0.4789
 3193SOL    HW121038   0.127   2.724   8.817  0.2254 -0.2946  0.7871
 3193SOL    HW221039   4.720   2.657   8.820 -1.5593  1.4860  0.7625
 3194SOL     OW21040   0.954   3.132  12.162  0.7187 -0.0314 -0.1068
 3194SOL    HW121041   0.868   3.145  12.123  1.1827 -1.5666 -1.6478
 3194SOL    HW221042   0.966   3.042  12.129 -0.8230 -1.4871  3.3035
 3195SOL     OW21043   4.263   2.853   9.248 -0.3659 -0.2984 -0.3299
 3195SOL    HW121044   4.186   2.876   9.300  0.5124  1.3085  0.2521
 3195SOL    HW221045   4.282   2.932   9.196  1.4335 -1.0479 -0.8195
 3196SOL     OW21046   4.670   2.644  14.463 -0.5830  0.1791  0.4755
 3196SOL    HW121047   4.638   2.678  14.380  0.8154 -2.0751 -0.9689
 3196SOL    HW221048   4.602   2.683  14.517 -1.1479 -3.3345  2.2921
 3197SOL     OW21049   0.994   1.314   8.649  0.1306  0.4269 -0.3640
 3197SOL    HW121050   0.971   1.228   8.683  0.6717 -0.0406 -1.1650
 3197SOL    HW221051   0.944   1.354   8.720  1.2814  1.1201  0.0511
 3198SOL     OW21052   1.006   0.527  12.579 -0.2512  0.2685 -0.0502
 3198SOL    HW121053   1.091   0.522  12.622 -1.1847  1.3257  1.8814
 3198SOL    HW221054   0.957   0.457  12.623 -1.0256  0.8542  0.0213
 3199SOL     OW21055   0.253   0.127   2.559 -0.4161 -0.0308 -0.1314
 3199SOL    HW121056   0.230   0.046   2.603  2.8299  0.2205  2.0232
 3199SOL    HW221057   0.207   0.102   2.479 -0.2204  0.3674 -0.3735
 3200SOL     OW21058   2.376   1.201   0.328  0.7213  0.3321  0.8931
 3200SOL    HW121059   2.384   1.272   0.264  1.0084 -2.3712 -2.0481
 3200SOL    HW221060   2.409   1.245   0.406  1.8697  1.6401 -0.3373
 3201SOL     OW21061   4.202   1.153   5.332  0.0465  0.2218  0.0920
 3201SOL    HW121062   4.168   1.190   5.413  1.6538  3.3703 -0.6716
 3201SOL    HW221063   4.252   1.077   5.362 -0.1623  0.4819  1.0921
 3202SOL     OW21064   4.400   3.319   4.013 -0.3430 -0.0757 -0.5489
 3202SOL    HW121065   4.333   3.321   4.080 -0.8182  1.2343 -1.0644
 3202SOL    HW221066   4.403   3.414   4.003 -1.5486  0.0095 -0.0443
 3203SOL     OW21067   2.152   1.493   8.839 -0.1339 -0.0339 -0.2833
 3203SOL    HW121068   2.131   1.406   8.875 -0.6233 -0.3619 -1.3663
 3203SOL    HW221069   2.071   1.515   8.794  0.6955  2.0633 -0.7433
 3204SOL     OW21070   2.184   4.348  10.727 -0.3146 -0.0355  0.1015
 3204SOL    HW121071   2.124   4.422  10.715  0.3420  0.2910 -1.1910
 3204SOL    HW221072   2.246   4.356  10.654  0.8257  0.5959  1.1475
 3205SOL     OW21073   0.912   2.169  13.817  0.4472  0.0247  0.3598
 3205SOL    HW121074   0.896   2.125  13.901  1.7960 -0.9000  0.1257
 3205SOL    HW221075   0.844   2.128  13.763  1.4199 -0.4109 -0.5257
 3206SOL     OW21076   3.065   2.978   8.521  0.7076 -0.7071 -0.3590
 3206SOL    HW121077   3.105   3.063   8.499 -0.7910 -0.1602 -0.9541
 3206SOL    HW221078   3.020   2.958   8.439 -0.5177 -0.8085  0.3464
 3207SOL     OW21079   1.702   1.319   1.159  0.6661 -0.4286 -0.0916
 3207SOL    HW121080   1.739   1.320   1.247 -0.2679 -0.7652  0.3060
 3207SOL    HW221081   1.688   1.225   1.148  1.1576 -0.2701 -1.9512
 3208SOL     OW21082   1.930   0.816  14.895  0.2361 -0.2903 -0.0983
 3208SOL    HW121083   1.903   0.848  14.981 -1.6300 -1.4890 -0.2356
 3208SOL    HW221084   1.927   0.722  14.913  1.2794 -0.3535 -0.2915
 3209SOL     OW21085   0.633   1.251   8.351  0.0907 -0.1608  0.6023
 3209SOL    HW121086   0.707   1.308   8.372  0.2500 -1.2154  2.8020
 3209SOL    HW221087   0.662   1.175   8.401  0.9487  0.6832  1.3784
 3210SOL     OW21088   4.047   3.508  13.125  0.3902  0.3965  0.1975
 3210SOL    HW121089   3.956   3.535  13.139 -0.1855 -1.6948  0.5485
 3210SOL    HW221090   4.059   3.519  13.031  0.3521  4.3346  0.6454
 3211SOL     OW21091   3.112   3.474   2.580 -0.0264  0.8649  0.2711
 3211SOL    HW121092   3.084   3.529   2.654  0.4171  0.1369  0.9776
 3211SOL    HW221093   3.190   3.519   2.546 -0.2584 -0.3033 -1.8009
 3212SOL     OW21094   1.723   0.444   6.391  0.1225 -0.6381 -0.3159
 3212SOL    HW121095   1.752   0.359   6.357 -0.4864 -0.8745 -0.2432
 3212SOL    HW221096   1.632   0.419   6.409 -0.3583 -0.8254 -3.0232
 3213SOL     OW21097   4.284   0.257   8.550 -0.0995 -0.3963  0.3014
 3213SOL    HW121098   4.230   0.236   8.626 -0.8544 -2.0602 -0.6855
 3213SOL    HW221099   4.371   0.249   8.590 -0.0053 -2.0674 -0.2329
 3214SOL     OW21100   0.649   0.584  12.691 -0.2051 -0.1517  0.0436
 3214SOL    HW121101   0.672   0.676  12.700  1.5127 -0.6944  1.1876
 3214SOL    HW221102   0.650   0.573  12.596 -0.9752 -0.3910  0.0597
 3215SOL     OW21103   4.707   2.887  15.304  0.1942  0.5285  0.2527
 3215SOL    HW121104   4.707   2.884  15.208  0.2253 -0.4449  0.2789
 3215SOL    HW221105   0.061   2.940  15.327  1.8811 -0.5782 -2.8167
 3216SOL     OW21106   3.770   3.916  12.566  1.4348  0.0611 -0.4307
 3216SOL    HW121107   3.794   3.866  12.488  0.2834 -1.4381  0.1629
 3216SOL    HW221108   3.810   3.876  12.644 -3.5023 -0.4986  1.8045
 3217SOL     OW21109   1.583   4.061   0.853  0.3995  0.1173  0.3331
 3217SOL    HW121110   1.588   4.126   0.783 -2.7090 -1.0312 -0.9555
 3217SOL    HW221111   1.652   4.089   0.913  0.0640  0.6112  0.4794
 3218SOL     OW21112   2.404   2.437   2.347 -0.0396 -0.2838 -0.4200
 3218SOL    HW121113   2.461   2.368   2.313  2.1245  1.3558 -0.1115
 3218SOL    HW221114   2.420   2.506   2.282 -1.4817  0.8377  0.4312
 3219SOL     OW21115   3.584   4.293   7.745  0.3378 -0.2393  0.4942
 3219SOL    HW121116   3.646   4.320   7.677 -0.6039  1.0375  0.1434
 3219SOL    HW221117   3.632   4.222   7.787 -0.9897  0.8425  3.8812
 3220SOL     OW21118   3.984   4.010   8.151  0.1513 -0.1859 -0.2428
 3220SOL    HW121119   3.897   3.988   8.186  0.7662  0.0107  1.4011
 3220SOL    HW221120   4.037   3.956   8.210  2.6313 -1.5719 -3.7305
 3221SOL     OW21121   1.529   3.612   2.382  0.4239 -0.0717 -0.0963
 3221SOL    HW121122   1.540   3.531   2.433  1.7128  0.7709  0.9674
 3221SOL    HW221123   1.605   3.660   2.415  0.4194  1.0516 -1.7394
 3222SOL     OW21124   2.449   4.631  14.172  0.2098 -0.4539  0.4715
 3222SOL    HW121125   2.536   4.660  14.199  0.6160 -1.4326  0.2228
 3222SOL    HW221126   2.438   4.546  14.216  0.4729 -1.7213 -1.9454
 3223SOL     OW21127   2.424   3.692   3.589  0.0450 -0.4370  0.1165
 3223SOL    HW121128   2.513   3.726   3.584  0.1957 -0.8217  0.2378
 3223SOL    HW221129   2.393   3.713   3.501 -2.9962  1.3711  1.5997
 3224SOL     OW21130   3.333   2.374   1.812 -0.3890  0.3190 -0.0097
 3224SOL    HW121131   3.365   2.326   1.888 -1.6049 -1.1185 -0.4148
 3224SOL    HW221132   3.351   2.462   1.846 -0.6211  0.5868 -0.5929
 3225SOL     OW21133   4.440   0.346   2.488 -0.7470 -0.2033 -0.0126
 3225SOL    HW121134   4.516   0.364   2.433 -0.1113  1.4216  1.4017
 3225SOL    HW221135   4.462   0.388   2.571 -1.1530 -0.6442  0.3176
 3226SOL     OW21136   2.063   1.796   2.186  0.3370  0.7899  0.2849
 3226SOL    HW121137   1.979   1.841   2.178 -0.9994 -1.8600 -0.5607
 3226SOL    HW221138   2.036   1.705   2.173 -1.0161  1.3361 -0.5665
 3227SOL     OW21139   0.064   3.182   6.850  0.5646  0.1332  0.4932
 3227SOL    HW121140   0.111   3.140   6.922  0.4701  0.0848  0.5273
 3227SOL    HW221141   0.090   3.119   6.783 -1.7492  1.1954 -1.4144
 3228SOL     OW21142   3.747   2.209   3.673  0.0313  0.6675  0.4096
 3228SOL    HW121143   3.840   2.228   3.686  0.3429  0.3632 -1.3573
 3228SOL    HW221144   3.748   2.184   3.580  0.5690  0.5452  0.4535
 3229SOL     OW21145   2.467   3.615   7.746 -0.3387 -0.0992 -0.3917
 3229SOL    HW121146   2.375   3.608   7.723  0.2579 -1.6845 -2.3417
 3229SOL    HW221147   2.494   3.558   7.674 -3.2105  0.6498 -2.0636
 3230SOL     OW21148   2.709   0.013   7.951  0.0632  0.2000 -0.8709
 3230SOL    HW121149   2.637   0.076   7.945 -0.1860  0.0920  1.0150
 3230SOL    HW221150   2.672   4.680   8.019  1.8688  1.7318  1.3545
 3231SOL     OW21151   0.205   3.943   4.102  0.1432 -0.6390  0.1764
 3231SOL    HW121152   0.296   3.970   4.088 -0.5506  1.1015 -0.9711
 3231SOL    HW221153   0.199   3.892   4.022  0.5281  1.2895 -1.0852
 3232SOL     OW21154   2.409   0.881   6.850  0.3143 -0.0052  0.0461
 3232SOL    HW121155   2.379   0.803   6.897 -3.4767  1.5780  0.2325
 3232SOL    HW221156   2.400   0.853   6.759  1.3449  0.0821 -0.0870
 3233SOL     OW21157   1.037   1.206   4.317  0.5433  0.1295  0.0274
 3233SOL    HW121158   0.951   1.246   4.325  1.1948  1.2869  1.2356
 3233SOL    HW221159   1.090   1.260   4.376 -0.9275  0.5053  1.0120
 3234SOL     OW21160   1.452   4.018  16.741  0.1782  0.2802 -0.3561
 3234SOL    HW121161   1.466   3.933  16.783 -0.6517  0.4973  0.3450
 3234SOL    HW221162   1.537   4.016  16.696  0.5033 -0.6728  0.2931
 3235SOL     OW21163   2.739   2.209   9.332 -0.2917  0.1591  0.4607
 3235SOL    HW121164   2.810   2.234   9.392  0.5677  1.3256 -1.0385
 3235SOL    HW221165   2.753   2.116   9.346 -0.4562 -0.3945 -3.1475
 3236SOL     OW21166   4.712   2.057   9.392 -0.1444  0.6780  0.0328
 3236SOL    HW121167   0.047   2.132   9.407  1.2643 -0.5014  0.5014
 3236SOL    HW221168   4.645   2.095   9.335 -2.0718 -3.0075 -0.1557
 3237SOL     OW21169   2.224   0.018  16.779  0.2858  0.6492 -0.5580
 3237SOL    HW121170   2.173   4.668  16.743 -1.1330  1.4131 -0.0807
 3237SOL    HW221171   2.309   4.708  16.750  0.3462  0.5270 -0.2411
 3238SOL     OW21172   1.864   2.891   5.973 -0.2322  0.0973 -0.2022
 3238SOL    HW121173   1.805   2.960   6.001 -0.9194 -1.0567  1.1527
 3238SOL    HW221174   1.804   2.854   5.908  0.2473  0.6371 -0.9568
 3239SOL     OW21175   1.343   2.905   4.136 -0.5944  0.4727  0.5595
 3239SOL    HW121176   1.267   2.921   4.193 -0.0454  2.0134  0.8656
 3239SOL    HW221177   1.398   2.979   4.161 -1.2445  1.1811 -0.0980
 3240SOL     OW21178   3.397   4.393   2.377  0.0123 -0.2170  0.3897
 3240SOL    HW121179   3.331   4.349   2.324  2.0788 -0.2276 -2.1992
 3240SOL    HW221180   3.426   4.460   2.314  0.0323 -0.7867 -0.2157
 3241SOL     OW21181   2.296   4.636  12.422 -0.3448  0.0851  0.7112
 3241SOL    HW121182   2.390   4.648  12.439 -0.3963  2.8377 -0.8826
 3241SOL    HW221183   2.285   4.656  12.329 -1.4234  0.2158  0.8664
 3242SOL     OW21184   1.469   4.570   3.612 -0.1889 -0.4130  0.3168
 3242SOL    HW121185   1.408   4.525   3.553  0.2512 -0.2398 -0.2752
 3242SOL    HW221186   1.409   4.630   3.657  1.8525  0.8666  1.3489
 3243SOL     OW21187   0.126   0.089  16.919 -0.5023  0.1247  0.2627
 3243SOL    HW121188   0.045   0.041  16.938 -0.9024 -0.3504 -2.4901
 3243SOL    HW221189   0.111   0.170  16.966  1.8894  0.9093 -0.3389
 3244SOL     OW21190   0.529   4.699   9.204 -0.1072  0.2613  0.0005
 3244SOL    HW121191   0.564   4.658   9.125  1.2623  0.0450  0.7173
 3244SOL    HW221192   0.614   0.001   9.240 -0.6893  2.0862  0.1540
 3245SOL     OW21193   1.511   4.404  11.296  0.1137 -0.1010  0.3598
 3245SOL    HW121194   1.543   4.416  11.206 -0.8668 -0.8872 -0.0839
 3245SOL    HW221195   1.425   4.364  11.291 -0.3638  0.9172  0.3130
 3246SOL     OW21196   1.954   2.491  17.662  0.0776 -0.8031  0.1716
 3246SOL    HW121197   1.989   2.488   0.059  1.9551  1.2749 -0.5088
 3246SOL    HW221198   1.862   2.513  17.679  0.6765  1.5481  0.3273
 3247SOL     OW21199   2.716   4.300   6.612  0.1608 -0.2423 -0.1254
 3247SOL    HW121200   2.738   4.373   6.555 -2.1366 -1.5019 -2.6667
 3247SOL    HW221201   2.739   4.333   6.698 -2.9650  1.1967  0.1151
 3248SOL     OW21202   4.300   4.078   2.342 -0.4548 -0.1354 -0.1561
 3248SOL    HW121203   4.325   4.027   2.265 -0.1947 -0.1536 -0.0600
 3248SOL    HW221204   4.250   4.152   2.307  1.1645  0.6897 -0.7496
 3249SOL     OW21205   0.132   1.459   0.718 -0.2056  0.4799 -0.9343
 3249SOL    HW121206   0.189   1.448   0.642  0.2982  2.1048 -0.7709
 3249SOL    HW221207   0.199   1.499   0.772  0.4337 -1.7433 -0.0487
 3250SOL     OW21208   2.241   3.450   8.643 -0.1896 -0.1466  0.1137
 3250SOL    HW121209   2.246   3.356   8.623  2.6174 -0.0993  0.6583
 3250SOL    HW221210   2.158   3.449   8.690  0.2593  1.7380  0.9178
 3251SOL     OW21211   3.400   1.568   2.124  0.0980 -0.1826  0.3255
 3251SOL    HW121212   3.456   1.540   2.197  1.2522  2.4951  0.4604
 3251SOL    HW221213   3.431   1.509   2.056  0.0045  1.5109 -1.1693
 3252SOL     OW21214   1.971   4.234   5.034  0.0674 -0.1157 -0.1462
 3252SOL    HW121215   1.902   4.250   5.098 -0.3233  0.1878 -0.6441
 3252SOL    HW221216   2.011   4.320   5.020  0.6426 -0.1678  1.1358
 3253SOL     OW21217   1.757   2.621   2.152 -0.0726  0.3623 -0.0339
 3253SOL    HW121218   1.830   2.575   2.193  0.4083  0.7816 -0.4328
 3253SOL    HW221219   1.736   2.562   2.080 -0.1720 -0.1568  0.4158
 3254SOL     OW21220   1.148   2.296  16.141  0.0572  0.3330 -0.2447
 3254SOL    HW121221   1.178   2.385  16.127 -0.2620  0.2303 -1.5830
 3254SOL    HW221222   1.076   2.299  16.078  0.1727 -0.1000 -0.3970
 3255SOL     OW21223   3.244   4.452   9.975  0.2207  0.2826 -0.3871
 3255SOL    HW121224   3.192   4.388  10.023 -0.3702  1.0293 -0.0279
 3255SOL    HW221225   3.184   4.477   9.904 -2.1580 -1.7544  0.9258
 3256SOL     OW21226   3.627   0.975   9.171 -0.0599  0.0544 -0.5036
 3256SOL    HW121227   3.539   0.950   9.198  0.0419 -0.6964 -0.8557
 3256SOL    HW221228   3.672   0.950   9.252  1.7039 -0.1279 -1.5483
 3257SOL     OW21229   2.087   1.059   1.446  0.1655 -0.4319 -0.2830
 3257SOL    HW121230   2.079   1.103   1.362  1.5326 -0.8658 -0.6399
 3257SOL    HW221231   2.155   0.994   1.427 -0.3109 -1.6922  2.3156
 3258SOL     OW21232   2.006   0.629   6.859 -0.0283 -0.1653  0.5533
 3258SOL    HW121233   1.954   0.710   6.856 -0.2117 -0.2398  1.5020
 3258SOL    HW221234   2.041   0.622   6.770  0.4429  1.6780  0.5895
 3259SOL     OW21235   3.125   2.078  12.951 -0.5681 -0.3250 -0.2655
 3259SOL    HW121236   3.157   2.030  12.875  0.0568  0.1400 -0.2923
 3259SOL    HW221237   3.120   2.011  13.020  3.0474 -0.5237 -0.1959
 3260SOL     OW21238   2.150   1.106   7.990  0.1341  0.8233  0.3253
 3260SOL    HW121239   2.170   1.191   7.952  2.3702 -0.6528 -1.7951
 3260SOL    HW221240   2.113   1.062   7.913  0.4913 -1.1901  1.3154
 3261SOL     OW21241   1.738   0.428   7.448 -0.3772  0.1977 -0.1411
 3261SOL    HW121242   1.824   0.443   7.409 -0.2525  2.2984  0.9397
 3261SOL    HW221243   1.697   0.515   7.449 -1.0029 -0.0960 -0.1889
 3262SOL     OW21244   2.809   1.659   8.968 -0.9706 -0.4960  0.2169
 3262SOL    HW121245   2.764   1.675   9.051 -1.9282  1.0081 -0.5827
 3262SOL    HW221246   2.813   1.748   8.934 -0.6040 -1.0861 -1.2918
 3263SOL     OW21247   3.920   4.334  15.591  0.2917  0.5196 -0.2778
 3263SOL    HW121248   3.928   4.374  15.678 -3.2655  1.3915 -0.3711
 3263SOL    HW221249   3.996   4.361  15.539 -0.8329  1.8487 -1.2089
 3264SOL     OW21250   1.448   1.909   2.569  0.1042  0.0456 -0.2817
 3264SOL    HW121251   1.443   1.814   2.580  0.0851  0.0666 -0.1204
 3264SOL    HW221252   1.512   1.931   2.637 -1.1709 -1.4262  1.3696
 3265SOL     OW21253   2.308   1.600  12.135 -0.5590 -0.6220  0.4490
 3265SOL    HW121254   2.283   1.659  12.063  0.6194 -0.5395  0.1070
 3265SOL    HW221255   2.356   1.665  12.187  1.0790  0.3817 -2.3232
 3266SOL     OW21256   0.131   2.010   2.145 -0.2580 -0.0027  0.2240
 3266SOL    HW121257   0.164   2.080   2.202  1.7034 -0.0819 -0.8210
 3266SOL    HW221258   0.055   2.052   2.105 -0.3156 -2.5278 -2.2998
 3267SOL     OW21259   2.039   0.991  10.933  0.2638 -0.2998  0.0790
 3267SOL    HW121260   2.058   0.900  10.956 -2.2426 -0.5341  1.2659
 3267SOL    HW221261   1.953   0.985  10.892 -0.5209  2.0104  1.3917
 3268SOL     OW21262   0.946   3.107  14.772 -0.1394 -0.3095 -0.3865
 3268SOL    HW121263   1.019   3.054  14.802  1.4659  2.0701 -0.1200
 3268SOL    HW221264   0.919   3.158  14.848  0.5162  1.0772 -1.0837
 3269SOL     OW21265   1.817   0.774  11.138  0.3064  0.0067 -0.3240
 3269SOL    HW121266   1.764   0.705  11.177  0.2712  0.5421  0.5648
 3269SOL    HW221267   1.852   0.818  11.215  1.2178  4.2710 -3.1836
 3270SOL     OW21268   2.442   1.790  13.939  0.0289 -0.0859 -0.1657
 3270SOL    HW121269   2.431   1.778  13.844 -0.6316 -1.2154  0.0617
 3270SOL    HW221270   2.527   1.834  13.939  0.6822 -1.3529 -0.5345
 3271SOL     OW21271   0.463   2.734  11.244 -0.3699 -0.2247 -0.3133
 3271SOL    HW121272   0.420   2.819  11.234  0.4562  0.1586 -0.6658
 3271SOL    HW221273   0.435   2.681  11.169  2.9644  1.7845 -3.0139
 3272SOL     OW21274   3.388   4.546   4.491  0.5207  0.1099  0.7704
 3272SOL    HW121275   3.436   4.466   4.514  1.1446 -0.9303 -4.1373
 3272SOL    HW221276   3.445   4.566   4.417  0.2233  1.0852  0.7997
 3273SOL     OW21277   4.701   3.549   3.870  0.7188  0.1871  0.0131
 3273SOL    HW121278   4.704   3.538   3.775 -1.0719  0.6817 -0.1095
 3273SOL    HW221279   4.613   3.588   3.876 -0.1864 -1.5639 -1.6806
 3274SOL     OW21280   2.986   1.395   7.393  0.3853 -0.1100  0.1752
 3274SOL    HW121281   2.903   1.442   7.403  1.9008  2.2265  1.7142
 3274SOL    HW221282   3.005   1.426   7.304 -0.6573  0.3575  0.1208
 3275SOL     OW21283   0.735   2.664  13.776 -0.1809  0.2144  0.0413
 3275SOL    HW121284   0.743   2.613  13.857  1.6431 -2.8116 -2.0550
 3275SOL    HW221285   0.768   2.601  13.712  0.7540  1.1322 -0.3779
 3276SOL     OW21286   1.255   3.178   1.062 -0.6186  0.6085 -0.0071
 3276SOL    HW121287   1.282   3.098   1.017 -2.2872  0.4357 -0.7179
 3276SOL    HW221288   1.324   3.180   1.128 -0.4822  1.0508 -0.1612
 3277SOL     OW21289   3.261   3.329   7.585 -0.0668  0.0729  0.0437
 3277SOL    HW121290   3.226   3.391   7.649  0.6387 -2.5528  2.9356
 3277SOL    HW221291   3.341   3.373   7.556  1.6383 -3.0849 -0.0210
 3278SOL     OW21292   2.144   4.215   3.823  0.4296 -0.1092  0.1715
 3278SOL    HW121293   2.059   4.253   3.799  1.4559  3.0067  1.4424
 3278SOL    HW221294   2.190   4.207   3.740 -1.8721  2.2730 -1.3497
 3279SOL     OW21295   2.745   4.170   7.316 -0.0779 -0.2352  0.7358
 3279SOL    HW121296   2.743   4.260   7.347 -1.1372  0.7597 -2.1848
 3279SOL    HW221297   2.764   4.117   7.393  0.6859  1.9404  2.0319
 3280SOL     OW21298   3.450   3.901   8.887  0.2427 -0.7225 -0.2400
 3280SOL    HW121299   3.416   3.977   8.935  0.3207 -1.0510  0.3337
 3280SOL    HW221300   3.461   3.935   8.798 -1.7013  1.7144  0.4648
 3281SOL     OW21301   2.148   1.497   2.664  0.2889  0.0856 -0.5770
 3281SOL    HW121302   2.117   1.584   2.687  0.5226  0.4687 -1.7047
 3281SOL    HW221303   2.210   1.467   2.731 -0.9953 -0.5649  0.3295
 3282SOL     OW21304   3.126   2.068  13.363 -0.3579  0.1765 -0.0652
 3282SOL    HW121305   3.034   2.092  13.364 -0.6796 -1.0017 -1.9755
 3282SOL    HW221306   3.134   2.024  13.278  0.1542 -0.8207  0.4859
 3283SOL     OW21307   0.868   3.012   6.267 -0.2455 -0.2723 -0.5186
 3283SOL    HW121308   0.797   3.017   6.332 -1.0412 -2.0503 -1.2626
 3283SOL    HW221309   0.875   2.917   6.258  1.5243 -0.0613 -1.3037
 3284SOL     OW21310   2.303   0.813   9.324  0.3200  0.7771 -0.3037
 3284SOL    HW121311   2.340   0.901   9.329 -0.7597  1.3067 -1.4936
 3284SOL    HW221312   2.209   0.833   9.317  0.1050 -1.0987 -2.9306
 3285SOL     OW21313   0.528   3.130   3.011 -0.6845  0.1155  0.1144
 3285SOL    HW121314   0.467   3.199   3.033  1.7926  2.4433 -0.2939
 3285SOL    HW221315   0.602   3.127   3.072 -0.8361 -0.4259  0.2728
 3286SOL     OW21316   4.650   1.092  10.816  1.0914 -0.8664 -0.1993
 3286SOL    HW121317   4.563   1.077  10.853  1.7094 -2.6191  0.5395
 3286SOL    HW221318   4.685   1.003  10.820 -2.8510 -2.3763  1.3357
 3287SOL     OW21319   3.643   2.940  14.911 -0.2796 -0.7862  0.0141
 3287SOL    HW121320   3.670   3.004  14.846 -0.7099 -1.1049 -0.4774
 3287SOL    HW221321   3.618   3.002  14.979 -0.9795  1.9085 -2.7090
 3288SOL     OW21322   0.946   1.946   7.521 -0.0935 -0.5307  0.3511
 3288SOL    HW121323   1.022   1.897   7.550  0.0734 -0.6493 -0.2965
 3288SOL    HW221324   0.948   1.911   7.432  0.2580  0.2811  0.0388
 3289SOL     OW21325   0.811   2.101   0.399  0.3483 -0.0185  0.1443
 3289SOL    HW121326   0.764   2.162   0.456  1.2419  0.7061  0.1142
 3289SOL    HW221327   0.893   2.149   0.387  1.0948 -1.5631 -1.0390
 3290SOL     OW21328   2.422   0.104   6.095 -0.1106 -0.1661  0.0506
 3290SOL    HW121329   2.492   0.105   6.159  0.6618 -1.5735 -0.7760
 3290SOL    HW221330   2.396   0.012   6.087 -0.2263  0.0326 -1.8834
 3291SOL     OW21331   1.019   1.961   4.674 -0.7118 -0.4304 -0.3193
 3291SOL    HW121332   0.927   1.987   4.681  0.5171  3.7532  0.5037
 3291SOL    HW221333   1.023   1.901   4.749  1.2643  0.7897  0.5551
 3292SOL     OW21334   2.562   4.497   4.743 -0.7309  0.3643 -0.0715
 3292SOL    HW121335   2.587   4.571   4.687 -0.3995 -0.1800 -0.6404
 3292SOL    HW221336   2.467   4.508   4.745 -0.9801 -2.0409  0.6577
 3293SOL     OW21337   2.832   3.814   0.384  0.4492  0.6645 -0.0420
 3293SOL    HW121338   2.805   3.818   0.292 -2.9789 -0.5588  0.9028
 3293SOL    HW221339   2.799   3.899   0.414 -1.4661 -0.3203  0.5970
 3294SOL     OW21340   4.445   0.541   5.609  0.2017 -0.4384 -0.6116
 3294SOL    HW121341   4.507   0.534   5.537  1.9414  0.8249  0.7632
 3294SOL    HW221342   4.510   0.532   5.679 -2.0487 -2.8552  1.1997
 3295SOL     OW21343   3.586   1.250  17.021  0.6028  0.1860  0.1478
 3295SOL    HW121344   3.585   1.154  17.021  0.6523  0.1954  1.7357
 3295SOL    HW221345   3.614   1.258  17.112 -0.5015  2.4394  0.3017
 3296SOL     OW21346   3.952   0.941   9.079 -0.6266 -0.1148  0.7344
 3296SOL    HW121347   3.886   0.893   9.130 -0.0119  0.3908  2.0075
 3296SOL    HW221348   4.019   0.873   9.069  1.1797  2.0554 -1.7814
 3297SOL     OW21349   4.461   4.001   3.350 -0.3259  0.9479  0.7215
 3297SOL    HW121350   4.390   4.026   3.410 -1.4626 -0.2652 -0.1125
 3297SOL    HW221351   4.461   3.906   3.345 -2.8147  0.9628 -0.0405
 3298SOL     OW21352   3.245   0.314  17.543 -0.0712 -0.0251  0.2604
 3298SOL    HW121353   3.198   0.387  17.503  0.6147  0.0837 -0.3616
 3298SOL    HW221354   3.337   0.332  17.524 -0.2893  1.7687  0.9693
 3299SOL     OW21355   4.104   2.699   6.401  0.3722 -0.4218 -0.0092
 3299SOL    HW121356   4.040   2.758   6.440 -0.2494 -1.4454  0.5030
 3299SOL    HW221357   4.130   2.645   6.475 -0.1757 -2.4035 -1.2588
 3300SOL     OW21358   2.860   2.759   3.189  0.6522  0.4624 -0.4554
 3300SOL    HW121359   2.947   2.726   3.211  0.0667 -1.1876 -0.6596
 3300SOL    HW221360   2.799   2.690   3.215 -0.5143  1.3460 -0.8524
 3301SOL     OW21361   3.891   1.630   0.475  0.9504  0.1744  0.0464
 3301SOL    HW121362   3.862   1.539   0.470 -1.8306  0.9139  2.3604
 3301SOL    HW221363   3.983   1.611   0.490  1.1972  0.7125 -0.8118
 3302SOL     OW21364   0.477   0.749   5.271  0.4993  0.4004  0.0379
 3302SOL    HW121365   0.479   0.709   5.358  2.8286  0.6490  0.1067
 3302SOL    HW221366   0.565   0.737   5.235  0.3264 -0.5983 -0.0470
 3303SOL     OW21367   4.332   0.150   1.426 -0.4477  0.0121 -0.1365
 3303SOL    HW121368   4.362   0.066   1.392 -1.4424 -0.5481  0.3876
 3303SOL    HW221369   4.381   0.170   1.506  2.9292  1.8422 -2.6603
 3304SOL     OW21370   1.349   0.061   2.900  0.0853  0.0552 -0.4192
 3304SOL    HW121371   1.398   4.702   2.891  0.3039  0.1229  0.2006
 3304SOL    HW221372   1.256   0.036   2.897 -0.5210  2.3704 -0.8939
 3305SOL     OW21373   1.365   0.583  12.100  0.0217 -0.6337  0.4155
 3305SOL    HW121374   1.366   0.489  12.113  1.3330 -0.9427 -1.9933
 3305SOL    HW221375   1.373   0.590  12.005  0.8232 -0.4570  0.4982
 3306SOL     OW21376   2.145   0.959   0.597 -0.1713  0.8792  0.2315
 3306SOL    HW121377   2.202   1.023   0.641 -0.5646  0.0526  1.9207
 3306SOL    HW221378   2.063   1.002   0.622 -0.2195  1.6014 -1.1740
 3307SOL     OW21379   3.346   4.517   5.753 -0.4470  0.3293 -0.4220
 3307SOL    HW121380   3.369   4.506   5.661  2.4406  0.3427  0.2989
 3307SOL    HW221381   3.270   4.575   5.746 -0.5333  0.1666 -0.8508
 3308SOL     OW21382   1.951   1.118   3.848 -0.1339 -0.2816  0.2765
 3308SOL    HW121383   1.991   1.127   3.761  0.3141 -1.4362  0.3607
 3308SOL    HW221384   1.893   1.042   3.852  0.0494 -0.4561 -0.3067
 3309SOL     OW21385   2.329   0.995  14.426  0.1566 -0.4510  0.1820
 3309SOL    HW121386   2.253   0.941  14.407  0.4277 -0.3450 -1.1661
 3309SOL    HW221387   2.285   1.060  14.481  2.6093  1.4617 -0.1116
 3310SOL     OW21388   2.877   3.724   6.026 -0.1011 -0.2919 -0.3500
 3310SOL    HW121389   2.953   3.778   6.006 -0.2238 -0.0319 -0.1146
 3310SOL    HW221390   2.921   3.646   5.993  1.6096 -0.1074  1.5012
 3311SOL     OW21391   3.292   0.991   1.531  0.3130  0.4525  0.1675
 3311SOL    HW121392   3.351   1.001   1.606  0.3462  0.7768  0.0985
 3311SOL    HW221393   3.212   0.952   1.567  1.9550 -1.0483  2.1961
 3312SOL     OW21394   2.518   2.627   7.104 -0.2630 -0.5970 -0.2892
 3312SOL    HW121395   2.537   2.715   7.135  1.3268 -0.8814 -0.4898
 3312SOL    HW221396   2.498   2.659   7.017  1.5577 -0.6198 -0.7168
 3313SOL     OW21397   0.173   1.416   4.543  0.0548 -0.9377  1.1323
 3313SOL    HW121398   0.113   1.457   4.480  0.8571 -0.0458  0.9381
 3313SOL    HW221399   0.112   1.348   4.570 -0.7069 -1.0778 -0.9936
 3314SOL     OW21400   0.387   1.210   5.147  0.1048  0.1816  0.2492
 3314SOL    HW121401   0.366   1.116   5.149  1.3886 -0.1679 -3.5048
 3314SOL    HW221402   0.300   1.250   5.153  1.4737  3.3055 -1.2012
 3315SOL     OW21403   0.622   4.266   4.813 -0.4093 -0.1695 -0.6738
 3315SOL    HW121404   0.692   4.251   4.877 -0.8241 -1.6341 -0.5669
 3315SOL    HW221405   0.670   4.231   4.738 -2.0685 -1.3819 -1.1563
 3316SOL     OW21406   0.560   0.913  14.910  0.3380 -0.2432  0.1071
 3316SOL    HW121407   0.523   0.876  14.990 -0.0584 -0.8571 -0.3522
 3316SOL    HW221408   0.640   0.863  14.894 -0.9845 -2.4422  0.2728
 3317SOL     OW21409   0.753   2.368   4.039  0.1785 -0.1309 -0.5461
 3317SOL    HW121410   0.700   2.383   4.118  0.4157 -1.1844 -0.1884
 3317SOL    HW221411   0.825   2.429   4.051 -1.3478  1.2792  1.5501
 3318SOL     OW21412   3.096   0.088  16.146 -0.2878 -0.2126  0.4223
 3318SOL    HW121413   3.028   0.112  16.209 -0.6819  1.8132 -0.7817
 3318SOL    HW221414   3.152   0.051  16.214 -1.9666 -0.2532  1.7881
 3319SOL     OW21415   2.335   2.518   5.579 -0.0188  0.1689  0.1693
 3319SOL    HW121416   2.344   2.563   5.495 -1.2767 -1.4645 -0.8484
 3319SOL    HW221417   2.356   2.427   5.561 -0.0057  0.2544 -0.2557
 3320SOL     OW21418   3.653   2.552   4.425  0.4334 -0.6088  0.0061
 3320SOL    HW121419   3.587   2.509   4.370  0.8537 -0.2462 -0.7853
 3320SOL    HW221420   3.602   2.627   4.453  1.2396 -0.9947  2.4572
 3321SOL     OW21421   0.480   0.092  15.518 -0.6925 -0.0099  0.9096
 3321SOL    HW121422   0.494   0.008  15.475  1.7552  0.6465  0.4214
 3321SOL    HW221423   0.534   0.151  15.465  1.5859 -2.4940  0.4719
 3322SOL     OW21424   2.366   3.254   9.777  0.2015 -0.3765  0.1783
 3322SOL    HW121425   2.351   3.229   9.868 -0.4173  0.3891  0.2884
 3322SOL    HW221426   2.290   3.206   9.744 -2.1733  2.2710  1.7720
 3323SOL     OW21427   3.691   1.288   4.678 -0.6194 -0.2252 -0.3405
 3323SOL    HW121428   3.650   1.304   4.762 -0.7184 -1.5999 -0.1287
 3323SOL    HW221429   3.783   1.288   4.704 -0.5406  0.8533 -0.5946
 3324SOL     OW21430   2.095   1.422   3.875 -0.1497  0.6110  0.1668
 3324SOL    HW121431   2.012   1.430   3.829 -1.0062  0.0195  1.5951
 3324SOL    HW221432   2.060   1.383   3.956  2.5391  0.6871  1.3607
 3325SOL     OW21433   1.566   2.247   8.053  0.1885 -0.0679 -0.2719
 3325SOL    HW121434   1.625   2.258   8.127 -0.3227  0.0778  0.1135
 3325SOL    HW221435   1.626   2.247   7.979  0.4390 -1.3182 -0.0779
 3326SOL     OW21436   1.782   2.376  17.471  0.0483  0.3714  0.3907
 3326SOL    HW121437   1.872   2.402  17.490 -0.4400  3.0102 -0.8768
 3326SOL    HW221438   1.729   2.411  17.542 -0.8185 -0.5098  0.1826
 3327SOL     OW21439   3.899   1.449   4.293  0.1844 -0.1224  0.5699
 3327SOL    HW121440   3.842   1.413   4.361 -0.5437 -0.2824 -0.1308
 3327SOL    HW221441   3.843   1.452   4.215  1.6967  1.6250 -0.4571
 3328SOL     OW21442   2.362   0.496   5.684  0.0498 -0.0373 -0.3597
 3328SOL    HW121443   2.422   0.518   5.612  0.9262 -1.4555 -0.0515
 3328SOL    HW221444   2.375   0.402   5.677  0.7974  0.0082  0.4013
 3329SOL     OW21445   3.995   1.149  17.464  0.0068  0.0393  0.3045
 3329SOL    HW121446   4.040   1.216  17.515 -1.1746  2.8607 -2.3336
 3329SOL    HW221447   3.999   1.183  17.374 -2.0247 -3.7940 -1.2062
 3330SOL     OW21448   4.283   0.323   3.364 -0.0275 -0.0149 -0.4272
 3330SOL    HW121449   4.211   0.277   3.321  0.6407 -1.4710  0.0325
 3330SOL    HW221450   4.290   0.396   3.302 -0.2445 -0.2253 -0.7001
 3331SOL     OW21451   4.658   2.360   3.227 -0.1306 -0.2373  0.0140
 3331SOL    HW121452   4.713   2.282   3.215 -0.4050 -0.2745 -1.0232
 3331SOL    HW221453   4.716   2.402   3.291 -0.4166  0.9920 -0.5299
 3332SOL     OW21454   1.430   4.031  12.680  0.1487 -0.4213 -0.4356
 3332SOL    HW121455   1.390   4.103  12.634 -1.0807 -1.2517 -0.6594
 3332SOL    HW221456   1.485   3.988  12.614  0.2223 -0.1667 -0.5367
 3333SOL     OW21457   1.490   0.997  10.913 -0.3451  0.3231 -0.3521
 3333SOL    HW121458   1.462   0.915  10.954 -1.6202 -0.2969 -2.5097
 3333SOL    HW221459   1.450   1.003  10.827 -0.9258  1.7720  0.0045
 3334SOL     OW21460   0.974   0.672   8.599  0.0783 -1.0415 -0.2166
 3334SOL    HW121461   1.000   0.589   8.639  1.2976 -0.4945  0.1249
 3334SOL    HW221462   0.902   0.646   8.541 -1.1406 -2.5018  1.9857
 3335SOL     OW21463   3.020   3.444   1.756  0.2377 -1.1198 -0.1710
 3335SOL    HW121464   3.085   3.374   1.763  0.5168 -0.8632 -0.2054
 3335SOL    HW221465   2.966   3.409   1.685  1.5786 -0.5883 -1.4392
 3336SOL     OW21466   3.851   3.865   5.702 -0.4165  0.0171 -0.0180
 3336SOL    HW121467   3.815   3.953   5.717 -2.0232 -0.4826 -0.9594
 3336SOL    HW221468   3.838   3.857   5.607  0.5423 -0.4878 -0.1044
 3337SOL     OW21469   0.292   2.342  17.046 -0.2232  0.1905 -0.1310
 3337SOL    HW121470   0.214   2.393  17.021 -1.4856 -1.5909  0.1524
 3337SOL    HW221471   0.247   2.258  17.037  0.2419  0.0779 -1.3861
 3338SOL     OW21472   1.244   4.470   3.492 -0.2182 -0.3124  0.3555
 3338SOL    HW121473   1.168   4.476   3.550 -0.8481  1.8729 -0.7274
 3338SOL    HW221474   1.200   4.453   3.409  2.5136 -0.5747 -1.0390
 3339SOL     OW21475   0.853   1.868  17.057  0.1614 -0.3421  0.5960
 3339SOL    HW121476   0.824   1.786  17.099 -2.9859  0.5805  0.2267
 3339SOL    HW221477   0.793   1.878  16.983  0.8269 -1.2940 -0.0744
 3340SOL     OW21478   2.616   2.414   6.712 -0.4285  0.1154  0.2153
 3340SOL    HW121479   2.573   2.460   6.783  0.7238  2.5771 -0.7010
 3340SOL    HW221480   2.624   2.481   6.644 -0.9825  0.9445  0.9726
 3341SOL     OW21481   2.346   1.972   9.392 -0.1724 -0.2892  0.1595
 3341SOL    HW121482   2.392   1.890   9.374  1.2048  0.6054 -0.3100
 3341SOL    HW221483   2.410   2.026   9.348 -1.2273 -2.4655 -4.0176
 3342SOL     OW21484   0.560   4.285   5.791 -0.1445  0.1036  0.1990
 3342SOL    HW121485   0.480   4.294   5.739  1.9124 -0.7271 -3.0703
 3342SOL    HW221486   0.577   4.374   5.821 -1.5735  0.4598 -0.0172
 3343SOL     OW21487   2.422   2.578   5.861 -0.5983  0.3481 -0.2582
 3343SOL    HW121488   2.398   2.559   5.770  1.7524 -0.3564 -0.7482
 3343SOL    HW221489   2.518   2.571   5.861 -0.5077  1.8174  1.1181
 3344SOL     OW21490   2.881   4.186   9.062 -0.4789  0.2583 -0.2453
 3344SOL    HW121491   2.801   4.209   9.110 -0.9919  0.5528 -1.2470
 3344SOL    HW221492   2.933   4.154   9.136 -1.0035 -1.2346 -0.5262
 3345SOL     OW21493   4.511   2.234  16.891  0.1214 -0.5727 -0.0212
 3345SOL    HW121494   4.440   2.187  16.933 -0.6052  0.6933  0.1694
 3345SOL    HW221495   4.477   2.208  16.806 -0.4486 -0.6736  0.2420
 3346SOL     OW21496   2.486   3.719  16.767 -0.3791 -0.3824 -0.1216
 3346SOL    HW121497   2.426   3.646  16.779 -0.9820 -0.2625 -2.4954
 3346SOL    HW221498   2.471   3.772  16.845 -0.5702 -0.9844  0.2470
 3347SOL     OW21499   2.347   1.028   1.589  0.6351 -0.3002 -0.4064
 3347SOL    HW121500   2.435   1.065   1.594  0.5927 -0.3057  0.3686
 3347SOL    HW221501   2.310   1.072   1.513  0.9350 -0.8895 -0.8868
 3348SOL     OW21502   1.639   2.057  13.088  0.5911  0.3747  0.2785
 3348SOL    HW121503   1.640   2.128  13.152 -1.7969  1.0331 -0.4230
 3348SOL    HW221504   1.717   2.075  13.036 -0.4612 -1.2307 -1.8484
 3349SOL     OW21505   1.084   3.020   2.540  0.3340  0.2697  0.4719
 3349SOL    HW121506   1.093   2.927   2.556 -1.6117  0.3089  1.8321
 3349SOL    HW221507   1.145   3.062   2.601 -0.8753  0.9794  1.2013
 3350SOL     OW21508   3.576   1.427   2.311 -0.2691  0.0120  0.2716
 3350SOL    HW121509   3.664   1.456   2.336  0.6472 -2.6106  0.0779
 3350SOL    HW221510   3.596   1.378   2.231  1.6423  0.5448  0.4164
 3351SOL     OW21511   2.323   2.836  10.246  0.0707 -0.1190  0.0195
 3351SOL    HW121512   2.402   2.880  10.214 -0.8014  0.7634 -0.9065
 3351SOL    HW221513   2.336   2.744  10.224 -0.0904  0.1257 -1.0966
 3352SOL     OW21514   0.497   2.565   6.035  0.0508 -0.6422 -0.2891
 3352SOL    HW121515   0.576   2.608   6.068  0.3967 -1.0014 -0.6637
 3352SOL    HW221516   0.460   2.532   6.117  2.6921 -0.8118  0.8195
 3353SOL     OW21517   0.783   3.287   1.739  0.0424 -0.3607 -0.3622
 3353SOL    HW121518   0.762   3.264   1.649  0.0855  1.3755 -0.8191
 3353SOL    HW221519   0.760   3.198   1.765 -1.9764  0.8344  1.9824
 3354SOL     OW21520   1.478   1.322  16.804  0.1300  0.5688 -0.2741
 3354SOL    HW121521   1.525   1.268  16.867  0.3138 -0.5303 -1.3415
 3354SOL    HW221522   1.519   1.286  16.725  1.1265  1.2503 -0.0608
 3355SOL     OW21523   0.633   0.822   4.183  0.0092 -0.3714 -0.3505
 3355SOL    HW121524   0.561   0.842   4.124 -0.4893 -1.7291 -0.2123
 3355SOL    HW221525   0.633   0.893   4.247  0.3789 -0.1524 -0.5991
 3356SOL     OW21526   1.132   0.269   0.705  0.1357  0.1503 -0.2023
 3356SOL    HW121527   1.150   0.233   0.792  1.6164 -2.4569 -1.5857
 3356SOL    HW221528   1.182   0.211   0.648  0.9274  0.4231  0.2133
 3357SOL     OW21529   0.315   0.915   5.966  0.1956  0.1169  0.3574
 3357SOL    HW121530   0.297   0.899   6.059  0.6818 -0.6133  0.3311
 3357SOL    HW221531   0.247   0.859   5.928  1.0327 -0.5362 -0.1751
 3358SOL     OW21532   2.945   3.076   2.511 -0.5396  0.0878  0.9763
 3358SOL    HW121533   2.958   3.167   2.485 -4.4346  0.8781  1.7392
 3358SOL    HW221534   2.890   3.043   2.439  1.8469 -1.3928 -0.1809
 3359SOL     OW21535   0.859   3.205   2.106  0.4385 -0.0882 -0.4443
 3359SOL    HW121536   0.893   3.192   2.017 -1.6635 -0.5694 -1.1709
 3359SOL    HW221537   0.936   3.201   2.163  0.1068 -0.6069 -0.0329
 3360SOL     OW21538   3.609   3.644   2.122 -0.0188  0.1140  0.2750
 3360SOL    HW121539   3.624   3.704   2.195 -3.7190 -0.2677  1.3592
 3360SOL    HW221540   3.694   3.601   2.111  0.5209  0.9497  1.1857
 3361SOL     OW21541   1.069   1.882  13.699 -0.2201 -0.0794 -0.0326
 3361SOL    HW121542   1.154   1.925  13.689 -0.6176  0.3555 -1.5707
 3361SOL    HW221543   1.031   1.903  13.614 -0.3252  0.8915  0.2665
 3362SOL     OW21544   4.361   1.348   1.453  0.1779  0.1160  0.0358
 3362SOL    HW121545   4.328   1.437   1.463  2.6768  0.9201  1.3004
 3362SOL    HW221546   4.432   1.350   1.517  0.2524 -1.7620 -0.0066
 3363SOL     OW21547   1.934   3.808   2.177 -0.2302  0.2946 -0.6137
 3363SOL    HW121548   1.925   3.901   2.200 -3.0360 -0.0373 -0.3605
 3363SOL    HW221549   1.865   3.780   2.236  0.9801 -0.1273  0.6035
 3364SOL     OW21550   4.059   0.746  12.665  0.2440 -0.0790  0.0875
 3364SOL    HW121551   4.097   0.830  12.640  0.6165 -0.1378  0.4519
 3364SOL    HW221552   3.970   0.756  12.632  0.5645  1.5806 -0.2970
 3365SOL     OW21553   0.104   1.371   7.237 -0.0640  0.3378  0.6065
 3365SOL    HW121554   0.053   1.416   7.305  1.6083  1.5616  1.0462
 3365SOL    HW221555   0.042   1.377   7.164  1.9922  1.2062 -1.0796
 3366SOL     OW21556   1.317   2.306   7.317  0.5572  0.3241 -0.6850
 3366SOL    HW121557   1.281   2.278   7.233 -2.3863  0.3846  0.5409
 3366SOL    HW221558   1.277   2.393   7.320 -0.9020 -0.2658 -2.8173
 3367SOL     OW21559   0.383   1.715   3.922  0.4509 -0.4065 -0.0805
 3367SOL    HW121560   0.395   1.793   3.866  0.9280  0.3070  1.0233
 3367SOL    HW221561   0.432   1.647   3.877 -2.3007 -2.9410  0.7800
 3368SOL     OW21562   0.652   0.319   8.198  0.5652  0.7702  0.0415
 3368SOL    HW121563   0.609   0.294   8.117 -2.7637  0.2809  1.9419
 3368SOL    HW221564   0.596   0.280   8.265 -0.6477  0.4086 -1.1851
 3369SOL     OW21565   3.857   3.057   6.768 -0.1177  0.2506  0.1539
 3369SOL    HW121566   3.775   3.084   6.809 -0.1269  0.8969 -0.3064
 3369SOL    HW221567   3.826   3.033   6.681  1.6086  0.2757 -0.4601
 3370SOL     OW21568   2.966   1.708   8.113  0.7707 -0.3513  0.3458
 3370SOL    HW121569   2.982   1.619   8.145 -0.7578 -0.5257  0.6313
 3370SOL    HW221570   3.026   1.753   8.172  0.7614 -2.3910  1.9226
 3371SOL     OW21571   0.016   3.711   2.547 -0.2934  0.3046  0.6365
 3371SOL    HW121572   4.688   3.789   2.523 -0.4625  0.6418  2.0903
 3371SOL    HW221573   0.038   3.671   2.462 -3.4595  2.9997 -1.4480
 3372SOL     OW21574   2.063   2.495   6.116  0.4303  0.0498 -0.2762
 3372SOL    HW121575   2.111   2.455   6.043 -0.0734 -3.8157  1.4881
 3372SOL    HW221576   2.127   2.554   6.155  2.3021 -0.9565 -1.7921
 3373SOL     OW21577   0.843   3.192   3.000 -0.2544 -0.0527 -0.1786
 3373SOL    HW121578   0.904   3.214   3.071  0.2552 -0.2347 -0.5579
 3373SOL    HW221579   0.807   3.277   2.975  0.6659  0.4586  0.2060
 3374SOL     OW21580   3.481   1.782  12.850 -0.0608 -0.2411 -0.1312
 3374SOL    HW121581   3.519   1.784  12.762  1.5554 -0.1606  0.5572
 3374SOL    HW221582   3.391   1.808  12.834  0.0202 -0.1393 -0.4288
 3375SOL     OW21583   2.491   3.025   2.279 -0.1886 -0.1123 -0.0367
 3375SOL    HW121584   2.509   3.103   2.227 -1.6593  0.6203  0.5300
 3375SOL    HW221585   2.417   2.989   2.230 -0.1174  0.2201 -0.3876
 3376SOL     OW21586   2.873   4.623  16.777 -0.3387 -0.4798  0.9452
 3376SOL    HW121587   2.823   4.662  16.849  0.0032  2.1920 -0.2641
 3376SOL    HW221588   2.807   4.629  16.708  0.6146  0.5711  0.1135
 3377SOL     OW21589   0.115   0.998   3.637  0.1905 -0.0177  0.1310
 3377SOL    HW121590   0.074   0.921   3.677  0.8096 -0.7116 -0.5775
 3377SOL    HW221591   0.207   0.973   3.637 -0.3186 -1.9602 -2.9638
 3378SOL     OW21592   2.026   0.231   6.865 -0.3628  0.5025 -0.1235
 3378SOL    HW121593   2.057   0.227   6.956 -1.1369 -1.7177  0.0285
 3378SOL    HW221594   1.933   0.253   6.866 -0.5648 -0.3714 -0.3788
 3379SOL     OW21595   0.986   0.434  15.300 -0.2627 -0.0953 -0.0332
 3379SOL    HW121596   0.995   0.342  15.325 -2.5001 -0.1634  0.5408
 3379SOL    HW221597   0.892   0.435  15.283  0.0133  0.6414 -1.5075
 3380SOL     OW21598   2.311   4.158   8.064  0.2633 -0.6561 -0.5020
 3380SOL    HW121599   2.259   4.187   8.138  2.6426 -1.1746  1.3705
 3380SOL    HW221600   2.258   4.188   7.990 -0.2738 -0.6410 -0.1127
 3381SOL     OW21601   1.552   0.814   6.262  0.5457  0.3238  0.0081
 3381SOL    HW121602   1.637   0.852   6.284  0.4265  0.1938  0.7082
 3381SOL    HW221603   1.486   0.868   6.307  1.9969  3.2857 -1.4264
 3382SOL     OW21604   2.476   1.669   9.796  0.6332 -0.1506 -1.0066
 3382SOL    HW121605   2.395   1.620   9.809  0.5337 -0.4799 -2.8130
 3382SOL    HW221606   2.511   1.677   9.884  0.0887  1.8057 -0.9632
 3383SOL     OW21607   3.705   4.000   1.667  0.6488  0.2815 -0.6805
 3383SOL    HW121608   3.782   3.975   1.718 -0.5812 -2.2827 -0.0926
 3383SOL    HW221609   3.705   3.954   1.583  0.0539  0.0297 -0.5429
 3384SOL     OW21610   4.349   4.392   5.898  0.0033  0.1488  0.5317
 3384SOL    HW121611   4.289   4.320   5.919  0.8130 -1.0233 -1.2405
 3384SOL    HW221612   4.296   4.455   5.849  0.8251  0.0386 -0.5018
 3385SOL     OW21613   3.319   4.570   4.854 -0.5923 -0.5843 -0.0390
 3385SOL    HW121614   3.276   4.523   4.926  0.2845  1.8063  2.0559
 3385SOL    HW221615   3.402   4.522   4.847  0.8736  2.0396 -0.6669
 3386SOL     OW21616   3.511   1.047   1.695 -0.0022 -0.3989  0.0926
 3386SOL    HW121617   3.587   1.003   1.657  0.6242  3.6737 -3.3447
 3386SOL    HW221618   3.552   1.133   1.703 -1.9372  0.6194 -0.8592
 3387SOL     OW21619   0.813   2.077  16.574 -0.0796  0.1024  0.5985
 3387SOL    HW121620   0.864   2.004  16.537 -2.3871 -0.3335 -1.7190
 3387SOL    HW221621   0.860   2.157  16.551 -1.5607  0.8103  0.0788
 3388SOL     OW21622   4.384   4.345  15.312 -0.0257  0.3456  0.3822
 3388SOL    HW121623   4.473   4.346  15.348  0.1915  1.6433 -0.1562
 3388SOL    HW221624   4.375   4.253  15.290 -1.1259 -0.1778  3.0876
 3389SOL     OW21625   4.157   1.563  13.706 -0.0850 -0.2408  0.5880
 3389SOL    HW121626   4.202   1.645  13.724  1.3403 -0.9417  0.1762
 3389SOL    HW221627   4.070   1.603  13.702  0.3838  1.0102  2.7729
 3390SOL     OW21628   3.175   4.317   4.721  0.0942  0.4471 -0.3079
 3390SOL    HW121629   3.170   4.396   4.667  2.5534  0.3032 -0.7471
 3390SOL    HW221630   3.174   4.358   4.807 -1.7685 -1.9816  0.8334
 3391SOL     OW21631   1.919   0.857   5.598 -0.1289  0.0564  0.1044
 3391SOL    HW121632   1.843   0.849   5.654 -0.0401  1.8203  0.4863
 3391SOL    HW221633   1.934   0.765   5.575 -0.5880  0.1190 -0.4603
 3392SOL     OW21634   0.583   4.530   9.536  0.5366  0.2424 -0.4520
 3392SOL    HW121635   0.648   4.541   9.606 -1.6277 -1.8848  1.9248
 3392SOL    HW221636   0.632   4.480   9.471  1.2659 -0.6732  0.8083
 3393SOL     OW21637   3.340   2.982   3.630  0.6320 -0.0732  0.7301
 3393SOL    HW121638   3.369   2.907   3.681 -0.0822 -1.2952 -0.6745
 3393SOL    HW221639   3.255   3.004   3.668  0.2000 -2.5795  1.1787
 3394SOL     OW21640   0.469   3.388   5.000  0.2583  0.0193  0.1225
 3394SOL    HW121641   0.529   3.370   5.073  1.0420  0.4080 -0.4302
 3394SOL    HW221642   0.480   3.483   5.003 -1.2758  0.2190 -0.4525
 3395SOL     OW21643   2.188   4.184  15.945  0.0514 -0.8960 -0.4501
 3395SOL    HW121644   2.280   4.210  15.955  0.3077 -1.5542 -1.1324
 3395SOL    HW221645   2.176   4.163  15.852 -1.2467 -0.3301 -0.4035
 3396SOL     OW21646   3.903   0.018   8.408  0.6995 -0.3509  0.7046
 3396SOL    HW121647   3.824   0.006   8.355  0.2424 -0.5106  1.4217
 3396SOL    HW221648   3.919   0.112   8.393  0.5889 -0.2780  1.0501
 3397SOL     OW21649   1.115   2.146  17.312 -0.1692 -0.0592  0.0005
 3397SOL    HW121650   1.127   2.056  17.280  1.5345  0.4514 -0.8249
 3397SOL    HW221651   1.059   2.175  17.240  0.3374 -0.3325 -0.5105
 3398SOL     OW21652   1.476   1.071   9.295 -0.6561  0.1004 -0.9291
 3398SOL    HW121653   1.401   1.019   9.265  0.3546 -1.3129 -1.0221
 3398SOL    HW221654   1.433   1.156   9.286 -1.0003 -0.0635 -0.8279
 3399SOL     OW21655   3.598   1.933  11.339 -0.2688 -0.1117 -0.5331
 3399SOL    HW121656   3.658   1.873  11.383 -1.8843 -1.2350  0.1327
 3399SOL    HW221657   3.517   1.885  11.355  0.1502 -0.5398  0.2813
 3400SOL     OW21658   2.338   2.123  13.384 -0.2896  0.3033  0.5286
 3400SOL    HW121659   2.429   2.098  13.365 -0.6059  1.1633 -2.0530
 3400SOL    HW221660   2.349   2.207  13.430 -2.7417  1.4383 -0.9864
 3401SOL     OW21661   1.038   1.767   3.922 -0.0993 -0.2710  0.3764
 3401SOL    HW121662   1.065   1.767   3.830 -0.0380 -1.6766  0.3841
 3401SOL    HW221663   1.124   1.766   3.963  0.2790 -0.2845 -0.4007
 3402SOL     OW21664   4.348   0.509   1.745 -0.1522 -0.3144  0.1628
 3402SOL    HW121665   4.266   0.546   1.776 -0.9047  0.2003 -2.4574
 3402SOL    HW221666   4.342   0.543   1.656 -0.0255  1.1686  0.7276
 3403SOL     OW21667   2.665   2.594   8.161  0.2410  0.3582 -0.4149
 3403SOL    HW121668   2.651   2.665   8.224 -2.0201  1.1761 -1.8374
 3403SOL    HW221669   2.680   2.635   8.076  1.0659  0.7204 -0.0924
 3404SOL     OW21670   3.887   0.332   1.150 -0.2349  0.6619  0.2122
 3404SOL    HW121671   3.884   0.408   1.092  2.7317 -0.6384 -1.6424
 3404SOL    HW221672   3.949   0.279   1.101 -0.1163  2.4907 -1.6264
 3405SOL     OW21673   4.003   0.807   4.928 -0.2833  0.1731  0.0318
 3405SOL    HW121674   3.979   0.839   5.015 -0.1669  0.7249 -0.1422
 3405SOL    HW221675   4.098   0.810   4.936 -0.2017  0.6167 -1.1054
 3406SOL     OW21676   0.667   2.924   8.652 -0.5666 -0.1910 -0.3358
 3406SOL    HW121677   0.650   2.874   8.733 -4.4701 -0.2306 -1.1631
 3406SOL    HW221678   0.683   2.857   8.586  1.0701 -2.1026  1.9764
 3407SOL     OW21679   1.441   0.080   4.086  0.1977  0.0069  0.1904
 3407SOL    HW121680   1.475   0.147   4.027 -0.5609  1.4586  1.3963
 3407SOL    HW221681   1.520   0.031   4.108 -0.4581 -0.3803  1.7318
 3408SOL     OW21682   1.800   3.347   4.473  0.3044 -0.0366 -0.7584
 3408SOL    HW121683   1.715   3.326   4.433  0.6982 -1.7100 -0.6932
 3408SOL    HW221684   1.774   3.419   4.531 -0.9189 -0.8330 -0.3188
 3409SOL     OW21685   0.664   3.625   9.029  0.1907  0.6678  0.0747
 3409SOL    HW121686   0.581   3.577   9.034  1.3676 -1.5473 -1.7575
 3409SOL    HW221687   0.731   3.557   9.039 -1.1392 -0.6433  0.1311
 3410SOL     OW21688   3.691   1.351  11.121 -0.0102  0.4173  0.0380
 3410SOL    HW121689   3.600   1.376  11.139  0.7629  2.3282  1.3876
 3410SOL    HW221690   3.687   1.325  11.029  1.4077 -0.8950  0.3544
 3411SOL     OW21691   3.367   1.521  12.897 -0.4855  0.1421  0.3170
 3411SOL    HW121692   3.404   1.607  12.877 -0.3209  0.0683  0.3028
 3411SOL    HW221693   3.368   1.477  12.812  0.8207 -0.4330  0.6268
 3412SOL     OW21694   1.553   2.394   1.643  0.4040  0.1695  0.1146
 3412SOL    HW121695   1.525   2.417   1.554 -0.7171  3.1912  1.2655
 3412SOL    HW221696   1.640   2.435   1.640  0.3601  0.2322 -0.3292
 3413SOL     OW21697   1.032   2.031   5.017 -0.2549  0.0242  0.1383
 3413SOL    HW121698   1.117   2.045   4.975  0.1917 -0.7337  0.7745
 3413SOL    HW221699   1.015   2.122   5.040 -1.6495 -0.1482 -0.1936
 3414SOL     OW21700   4.657   2.368   4.401  0.2783  0.1093 -0.2765
 3414SOL    HW121701   4.570   2.340   4.432  1.0635 -0.8291  1.0955
 3414SOL    HW221702   4.710   2.363   4.481  0.3381  1.8471 -0.2128
 3415SOL     OW21703   1.692   2.518   0.048 -0.0947 -0.2736  0.1047
 3415SOL    HW121704   1.615   2.565   0.015  1.5058  2.9167  0.9068
 3415SOL    HW221705   1.708   2.559   0.133 -1.1199  1.5041 -0.5476
 3416SOL     OW21706   4.172   0.524   4.041 -0.7874  0.1405  0.3530
 3416SOL    HW121707   4.094   0.577   4.023 -0.1434  0.6487 -1.0124
 3416SOL    HW221708   4.246   0.550   3.986 -0.2212 -0.4972  0.8205
 3417SOL     OW21709   0.450   3.945   6.172  0.1006 -0.7552 -0.1671
 3417SOL    HW121710   0.437   3.981   6.260  1.2780 -1.8310  0.4465
 3417SOL    HW221711   0.514   3.999   6.126 -0.9216  0.9380  0.3917
 3418SOL     OW21712   1.166   4.418  15.777 -0.1289 -0.0268  0.1501
 3418SOL    HW121713   1.109   4.451  15.847  0.6093  1.6443 -0.0229
 3418SOL    HW221714   1.141   4.326  15.777  0.0635 -0.0739 -0.1677
 3419SOL     OW21715   0.265   3.954   4.494 -0.3081 -0.8124  0.1300
 3419SOL    HW121716   0.324   4.019   4.456 -0.3794 -0.4632  0.6214
 3419SOL    HW221717   0.215   4.016   4.548 -1.6138 -1.5153 -0.2718
 3420SOL     OW21718   1.497   4.640  16.585 -0.4471  0.1768 -0.2170
 3420SOL    HW121719   1.406   4.623  16.560 -1.3626  1.5269  2.1615
 3420SOL    HW221720   1.543   4.627  16.502 -0.6798 -0.1084 -0.3036
 3421SOL     OW21721   2.771   3.819   5.784 -0.0525  0.4793  0.5130
 3421SOL    HW121722   2.717   3.741   5.779  1.4595 -0.5162 -0.1523
 3421SOL    HW221723   2.777   3.843   5.877 -0.3076  1.0981  0.3690
 3422SOL     OW21724   0.167   2.625   7.154  0.0896  0.1290  0.4244
 3422SOL    HW121725   0.191   2.558   7.090  0.2146  1.5237 -0.9839
 3422SOL    HW221726   0.079   2.594   7.175  0.8641 -0.0389  3.4344
 3423SOL     OW21727   3.145   1.650   3.109  0.2313 -0.1140 -0.4005
 3423SOL    HW121728   3.108   1.695   3.185 -1.3811 -0.7396 -0.8117
 3423SOL    HW221729   3.208   1.714   3.077 -0.0799  1.3653  1.9456
 3424SOL     OW21730   2.527   2.411   6.384  0.1815 -0.0274  0.5016
 3424SOL    HW121731   2.548   2.444   6.296  0.8631  1.6847  1.2986
 3424SOL    HW221732   2.589   2.340   6.397  1.0754  0.7194  0.2669
 3425SOL     OW21733   0.307   2.176   4.821  0.4120 -0.0374 -0.2019
 3425SOL    HW121734   0.218   2.190   4.854 -0.1982 -2.3026 -0.9111
 3425SOL    HW221735   0.348   2.163   4.907  0.5291 -0.7362 -0.3650
 3426SOL     OW21736   3.527   2.771   4.561 -0.1920 -0.2806 -0.2105
 3426SOL    HW121737   3.565   2.859   4.566 -2.1570  0.5327  0.1046
 3426SOL    HW221738   3.458   2.767   4.627 -0.9664  0.6822 -0.9682
 3427SOL     OW21739   0.032   4.652   4.551 -0.0077  0.1986  0.1104
 3427SOL    HW121740   4.677   4.700   4.580  0.1154 -0.9737  2.3887
 3427SOL    HW221741   0.083   0.001   4.514 -1.9599  2.3404  1.5635
 3428SOL     OW21742   0.572   0.899   3.437 -0.0616  0.0925  0.3894
 3428SOL    HW121743   0.595   0.950   3.360 -1.9345  0.6080  0.1673
 3428SOL    HW221744   0.642   0.916   3.499  0.4440  0.0836 -0.1869
 3429SOL     OW21745   3.366   2.355   8.312  0.4221  0.6535 -0.2380
 3429SOL    HW121746   3.307   2.346   8.387  1.6223 -0.3220  0.5821
 3429SOL    HW221747   3.415   2.434   8.332  0.5445  0.0393  1.9365
 3430SOL     OW21748   4.508   4.596   7.412 -0.2417 -0.0985  0.0996
 3430SOL    HW121749   4.472   4.597   7.323 -0.0992 -1.4340  0.0318
 3430SOL    HW221750   4.521   4.689   7.430 -1.3447  0.2216 -0.7606
 3431SOL     OW21751   1.641   3.397   3.973 -0.4336 -0.0057 -0.0473
 3431SOL    HW121752   1.673   3.319   3.928  1.5409  1.7123 -1.5930
 3431SOL    HW221753   1.657   3.469   3.913 -2.2681  0.3364 -0.1262
 3432SOL     OW21754   1.429   4.688  12.650  0.9127 -0.8578 -0.1992
 3432SOL    HW121755   1.462   4.708  12.562  1.8691  1.7121  0.7431
 3432SOL    HW221756   1.469   0.044  12.689 -1.6813  0.6569 -0.6312
 3433SOL     OW21757   1.734   2.500   5.711 -0.0506 -0.2445  0.3605
 3433SOL    HW121758   1.697   2.532   5.629  0.2613 -2.8843 -0.8360
 3433SOL    HW221759   1.824   2.501   5.678 -0.7455 -0.5064 -1.5541
 3434SOL     OW21760   2.322   2.410   1.366  0.4045  0.4387 -0.3604
 3434SOL    HW121761   2.393   2.463   1.402  0.3501 -0.6814  1.3871
 3434SOL    HW221762   2.248   2.469   1.380  0.3379 -0.0269  1.2653
 3435SOL     OW21763   3.937   2.529  12.385 -0.0549 -0.0403 -0.2367
 3435SOL    HW121764   3.981   2.450  12.354  4.4549  2.5487 -0.5376
 3435SOL    HW221765   3.920   2.585  12.309 -1.9209  0.9379  0.9071
 3436SOL     OW21766   1.079   1.327   4.821 -0.2598  0.4186 -0.5030
 3436SOL    HW121767   1.046   1.343   4.909 -1.5668  1.3731 -1.1650
 3436SOL    HW221768   1.147   1.264   4.848  0.6509  1.3604 -0.5858
 3437SOL     OW21769   2.444   3.488  14.091 -0.3718  0.6111  0.2498
 3437SOL    HW121770   2.401   3.407  14.117  0.9384 -0.9215 -2.3959
 3437SOL    HW221771   2.466   3.466  14.001 -0.1401  0.7530  0.2699
 3438SOL     OW21772   2.223   4.220   9.129 -0.0586 -0.6283 -0.9905
 3438SOL    HW121773   2.294   4.284   9.127 -1.2974  0.8018  0.7009
 3438SOL    HW221774   2.238   4.154   9.061  0.5209 -1.8641  0.3399
 3439SOL     OW21775   2.573   1.880   7.680  0.0875  0.4528 -0.1639
 3439SOL    HW121776   2.635   1.807   7.686 -0.4936  0.0449  0.9758
 3439SOL    HW221777   2.512   1.845   7.746 -0.1882  1.6868  0.2339
 3440SOL     OW21778   0.388   0.789   9.102  0.4028  0.5134 -0.1342
 3440SOL    HW121779   0.415   0.697   9.098  0.0011  0.4796 -2.2056
 3440SOL    HW221780   0.367   0.785   9.195 -3.3571 -0.0647 -1.0093
 3441SOL     OW21781   4.547   3.228  12.323 -0.2524 -0.8910 -0.1722
 3441SOL    HW121782   4.544   3.323  12.325 -0.1609 -0.9073  0.7513
 3441SOL    HW221783   4.468   3.211  12.373  1.3367  1.3756  3.0785
 3442SOL     OW21784   0.226   2.170   6.205 -0.1532 -0.3779 -1.2208
 3442SOL    HW121785   0.182   2.100   6.254  0.0901  0.4903  0.2602
 3442SOL    HW221786   0.266   2.110   6.143 -1.7217 -1.3637 -1.2960
 3443SOL     OW21787   0.499   3.075   0.127 -0.1181  0.1424  0.0615
 3443SOL    HW121788   0.504   3.026   0.208 -0.7759  0.6545  0.4167
 3443SOL    HW221789   0.548   3.155   0.146 -0.7934  0.7537 -0.7187
 3444SOL     OW21790   0.315   3.723   9.505 -0.4691  0.1183 -0.3124
 3444SOL    HW121791   0.394   3.742   9.554 -0.1332 -1.3278 -0.2826
 3444SOL    HW221792   0.347   3.686   9.422 -1.5451 -1.5936  0.0138
 3445SOL     OW21793   1.375   2.273  17.257  0.0426 -0.1593  0.6344
 3445SOL    HW121794   1.391   2.301  17.347  2.2071 -1.8688  0.7811
 3445SOL    HW221795   1.286   2.238  17.263  0.0602  0.0032  1.7948
 3446SOL     OW21796   2.547   3.123   5.558 -0.3520 -0.1329  0.0742
 3446SOL    HW121797   2.545   3.206   5.509 -0.2428 -0.2036 -0.0474
 3446SOL    HW221798   2.622   3.071   5.532 -0.4676 -1.1776  1.8529
 3447SOL     OW21799   1.598   2.627   0.784 -0.2613  0.0434  0.6215
 3447SOL    HW121800   1.526   2.602   0.726 -1.8520  0.4519  2.4134
 3447SOL    HW221801   1.589   2.561   0.852  1.6942 -0.3133  0.5426
 3448SOL     OW21802   3.895   3.156  14.784  0.2879  0.1254 -0.0150
 3448SOL    HW121803   3.871   3.212  14.711  0.3837  0.0276 -0.1222
 3448SOL    HW221804   3.899   3.221  14.854 -0.4473 -0.6550  0.7544
 3449SOL     OW21805   2.424   1.043   0.953 -0.4084  0.5263 -0.0946
 3449SOL    HW121806   2.350   1.056   0.893 -0.8207 -1.9408 -0.1143
 3449SOL    HW221807   2.402   1.107   1.021  1.4171  0.5187  0.5137
 3450SOL     OW21808   3.125   0.693   8.692  0.3936 -0.0420 -0.0921
 3450SOL    HW121809   3.041   0.702   8.737  0.5357  0.6404  0.0495
 3450SOL    HW221810   3.116   0.759   8.623 -0.8014  1.5510  1.5520
 3451SOL     OW21811   0.329   4.619   3.971  0.1576 -0.8543  0.1986
 3451SOL    HW121812   0.255   4.650   4.023 -1.3451 -0.9894 -1.8566
 3451SOL    HW221813   0.394   4.662   4.025 -1.1437 -0.9564  1.8484
 3452SOL     OW21814   1.341   1.833  10.687  0.5195  0.2694 -0.4179
 3452SOL    HW121815   1.386   1.878  10.615  0.5895 -0.8696 -1.0803
 3452SOL    HW221816   1.401   1.850  10.760  0.2186  0.1157 -0.1350
 3453SOL     OW21817   0.218   1.849   4.419  0.2019  0.1642  0.7009
 3453SOL    HW121818   0.242   1.765   4.380 -0.9569  0.7287 -1.2148
 3453SOL    HW221819   0.205   1.890   4.333 -1.8452 -3.1346 -0.5533
 3454SOL     OW21820   2.632   3.435   9.734 -0.2526 -0.1060  0.2956
 3454SOL    HW121821   2.576   3.375   9.684  0.1999 -0.3527  0.0768
 3454SOL    HW221822   2.680   3.379   9.795 -0.2366  0.2758  0.6281
 3455SOL     OW21823   2.768   1.762   3.005  0.3042  0.2581  0.6096
 3455SOL    HW121824   2.807   1.676   3.024 -1.3553 -1.0757 -1.8805
 3455SOL    HW221825   2.685   1.743   2.960 -0.0635  0.2839  1.2820
 3456SOL     OW21826   3.045   4.710   4.355 -0.1669 -0.4545  0.3779
 3456SOL    HW121827   2.967   0.039   4.335 -1.2001 -2.5995 -1.0519
 3456SOL    HW221828   3.121   0.038   4.324 -0.3289  0.0498  0.8058
 3457SOL     OW21829   4.635   2.058   2.932 -0.2870  0.1790 -0.3092
 3457SOL    HW121830   4.598   2.100   2.854  0.1618  1.3248  0.0951
 3457SOL    HW221831   4.557   2.057   2.988 -1.2451  1.8437 -1.6078
 3458SOL     OW21832   3.489   2.267   1.396  0.5786 -0.1967  0.0188
 3458SOL    HW121833   3.486   2.229   1.484  0.4802  2.0346  0.9769
 3458SOL    HW221834   3.434   2.344   1.408  0.5756  0.0183 -1.3761
 3459SOL     OW21835   2.086   2.732   3.796  0.5714  0.1260  0.1943
 3459SOL    HW121836   1.997   2.704   3.776  0.1753  1.2810  0.3197
 3459SOL    HW221837   2.080   2.721   3.891 -0.5628  0.5789  0.1742
 3460SOL     OW21838   3.630   2.595  14.139 -0.0321 -0.1983 -0.9646
 3460SOL    HW121839   3.555   2.539  14.158  1.1874 -0.3237  3.6268
 3460SOL    HW221840   3.669   2.608  14.226 -1.4405  2.3882 -0.7065
 3461SOL     OW21841   0.133   0.145   7.400 -0.1332 -0.0406  0.0287
 3461SOL    HW121842   0.106   0.077   7.338  1.5867 -1.3849  0.7441
 3461SOL    HW221843   0.153   0.215   7.338  1.3004 -0.4716  0.0061
 3462SOL     OW21844   0.404   2.987   8.995 -0.3586 -0.6643 -0.5347
 3462SOL    HW121845   0.326   3.043   8.992 -1.0203 -1.3434  3.1617
 3462SOL    HW221846   0.391   2.943   8.911 -0.7145  0.6981 -1.1994
 3463SOL     OW21847   2.417   0.883   4.539  0.4426  0.1779 -0.2231
 3463SOL    HW121848   2.482   0.845   4.480 -1.3101 -0.3532 -1.8051
 3463SOL    HW221849   2.455   0.881   4.627 -0.4824 -2.1357  0.1048
 3464SOL     OW21850   2.399   1.720  15.241  0.5008  0.3568  0.3716
 3464SOL    HW121851   2.474   1.778  15.235  0.3120  0.5207 -0.4154
 3464SOL    HW221852   2.367   1.730  15.331  1.2091 -0.9824  0.7690
 3465SOL     OW21853   0.304   3.629   6.463 -0.1173  0.0815  0.0482
 3465SOL    HW121854   0.285   3.673   6.546  1.0763  1.0664 -0.1988
 3465SOL    HW221855   0.394   3.610   6.490 -0.3600 -0.5170  0.4445
 3466SOL     OW21856   2.064   3.515   5.247  0.5738  0.0344 -0.4605
 3466SOL    HW121857   2.010   3.590   5.222  0.8689 -0.4817 -2.6465
 3466SOL    HW221858   1.999   3.445   5.245  0.3431  0.2567 -0.7498
 3467SOL     OW21859   4.512   2.358   2.131 -0.1089  0.1007  0.3477
 3467SOL    HW121860   4.457   2.279   2.135 -0.1404  0.1437  0.7517
 3467SOL    HW221861   4.504   2.384   2.222  0.2320 -0.5499  0.5634
 3468SOL     OW21862   0.830   2.915   6.842  1.1621 -0.0342 -0.3055
 3468SOL    HW121863   0.759   2.918   6.907  0.7026  2.8020 -0.9213
 3468SOL    HW221864   0.899   2.877   6.896  0.6418  1.3692  1.3562
 3469SOL     OW21865   4.518   0.734   2.646  0.1504 -0.3984 -0.1248
 3469SOL    HW121866   4.506   0.678   2.722  1.2565  0.3662  0.6178
 3469SOL    HW221867   4.439   0.714   2.595  2.5888 -0.4817 -3.8444
 3470SOL     OW21868   1.230   3.586   3.010 -1.0026 -0.3274 -0.1159
 3470SOL    HW121869   1.269   3.670   2.986  0.0323 -1.1197 -1.2434
 3470SOL    HW221870   1.166   3.578   2.940  0.4799 -0.5289 -1.4383
 3471SOL     OW21871   3.034   1.347  10.808  0.4301  0.3479 -0.5263
 3471SOL    HW121872   2.969   1.373  10.873 -0.5337  0.9948 -1.7410
 3471SOL    HW221873   3.069   1.430  10.775 -3.1161  1.4106 -1.6378
 3472SOL     OW21874   2.834   2.319  13.112  0.2004  0.0267 -0.2861
 3472SOL    HW121875   2.886   2.330  13.032  0.0738  2.6001 -0.0273
 3472SOL    HW221876   2.772   2.390  13.094 -1.1865 -0.6492  1.9672
 3473SOL     OW21877   1.487   0.423   3.095  0.2503 -0.2293  0.1260
 3473SOL    HW121878   1.566   0.456   3.052  0.4942 -2.4071 -1.0999
 3473SOL    HW221879   1.423   0.491   3.077 -0.8129 -1.5393 -1.0311
 3474SOL     OW21880   1.263   3.551  17.268 -0.3106 -0.4578 -0.1423
 3474SOL    HW121881   1.187   3.582  17.317 -1.1088 -1.3735 -0.8020
 3474SOL    HW221882   1.230   3.544  17.179  0.6281 -1.8527 -0.3747
 3475SOL     OW21883   2.329   0.128   7.105  0.0406 -0.1055  0.0454
 3475SOL    HW121884   2.249   0.177   7.085  0.2908  0.2381 -0.1054
 3475SOL    HW221885   2.300   0.123   7.197  0.3441  4.0907  0.3918
 3476SOL     OW21886   3.027   1.380   2.361  0.0366 -0.0422  0.2129
 3476SOL    HW121887   3.086   1.369   2.286  0.0453  2.8253 -0.2073
 3476SOL    HW221888   2.961   1.436   2.321  0.6335 -0.5524 -1.4884
 3477SOL     OW21889   0.597   3.049   7.513  0.3226  0.1905  0.9183
 3477SOL    HW121890   0.565   2.959   7.509  1.8222 -0.1300 -3.3408
 3477SOL    HW221891   0.645   3.059   7.430 -0.7599 -0.7117  0.1837
 3478SOL     OW21892   3.123   3.434  11.472 -0.7070 -0.6893 -0.8211
 3478SOL    HW121893   3.193   3.374  11.447 -0.9399 -1.4202  0.3064
 3478SOL    HW221894   3.110   3.493  11.397 -2.9649  3.1145  2.5379
 3479SOL     OW21895   1.440   3.124   8.772 -0.4478  0.2001  0.5776
 3479SOL    HW121896   1.414   3.032   8.766 -2.5452  0.6765  2.5469
 3479SOL    HW221897   1.404   3.155   8.689 -1.2105  0.6054  1.0689
 3480SOL     OW21898   2.755   3.862   0.926  0.7647 -0.0199 -0.0210
 3480SOL    HW121899   2.832   3.811   0.952  1.3859  1.2705  0.7002
 3480SOL    HW221900   2.767   3.952   0.956 -2.2438 -0.0925  1.3928
 3481SOL     OW21901   0.834   3.265  15.884  0.6936  0.4238  0.0875
 3481SOL    HW121902   0.879   3.290  15.804 -1.0572 -1.3685 -1.4369
 3481SOL    HW221903   0.753   3.236  15.841  0.8297  1.5533 -0.9234
 3482SOL     OW21904   4.575   1.426   8.407  0.4617 -0.4941  0.3228
 3482SOL    HW121905   4.585   1.345   8.458  3.1626 -1.2941 -1.4366
 3482SOL    HW221906   4.665   1.433   8.374  0.1918 -0.6315 -0.4215
 3483SOL     OW21907   3.628   3.300   7.571  0.4570 -0.0971  0.5567
 3483SOL    HW121908   3.712   3.256   7.559  1.8785  2.4292  1.0875
 3483SOL    HW221909   3.640   3.374   7.512  1.4470  0.8630  1.9598
 3484SOL     OW21910   3.310   2.737  16.793  0.0686 -0.4694  0.0967
 3484SOL    HW121911   3.337   2.656  16.750 -4.8256 -0.3900 -3.1218
 3484SOL    HW221912   3.294   2.715  16.885 -1.4587 -2.0668 -0.5498
 3485SOL     OW21913   3.718   1.185   2.576 -0.1888 -0.2975  0.0135
 3485SOL    HW121914   3.648   1.139   2.530  1.4428 -2.1841 -0.6105
 3485SOL    HW221915   3.744   1.129   2.649  1.3519  0.9972  0.4667
 3486SOL     OW21916   1.311   1.664   6.071  0.1606 -0.1081  0.4457
 3486SOL    HW121917   1.342   1.689   5.984 -1.0187  0.9005  0.3179
 3486SOL    HW221918   1.382   1.679   6.133 -0.3812 -1.3619  1.3608
 3487SOL     OW21919   4.118   2.905   9.003 -0.1341  0.1039 -0.5858
 3487SOL    HW121920   4.057   2.868   9.067 -1.8842 -0.2308 -2.4166
 3487SOL    HW221921   4.207   2.872   9.018 -0.2535  0.2879  0.5182
 3488SOL     OW21922   2.185   4.283   7.822  0.1096  0.2192  0.1711
 3488SOL    HW121923   2.099   4.324   7.818 -0.0602 -0.1165  0.3993
 3488SOL    HW221924   2.166   4.205   7.768  1.1046  0.8281 -1.0805
 3489SOL     OW21925   3.423   1.629   3.310  0.0533  0.5893 -0.4230
 3489SOL    HW121926   3.352   1.566   3.303 -0.2896  0.9546 -0.2333
 3489SOL    HW221927   3.385   1.707   3.351 -1.7500 -0.1431 -0.7357
 3490SOL     OW21928   3.478   0.677   4.772  0.3127 -0.3734  0.2945
 3490SOL    HW121929   3.429   0.605   4.731 -0.0373 -1.2323  2.2404
 3490SOL    HW221930   3.562   0.635   4.791  1.4895  2.1258  0.5852
 3491SOL     OW21931   1.145   0.189   8.026  0.1219  0.0653  0.3699
 3491SOL    HW121932   1.110   0.127   7.961 -2.2981  2.0117 -0.2064
 3491SOL    HW221933   1.059   0.222   8.052 -0.1872  0.2870 -0.8872
 3492SOL     OW21934   2.818   1.904  15.715 -0.1088 -0.1917  0.3055
 3492SOL    HW121935   2.800   1.822  15.762 -1.1824  1.2809  2.4877
 3492SOL    HW221936   2.908   1.923  15.740 -0.3345  2.0196 -0.6275
 3493SOL     OW21937   1.566   3.786   6.717 -0.2550 -0.2452  0.0020
 3493SOL    HW121938   1.501   3.855   6.706  0.7099  0.9498  1.8446
 3493SOL    HW221939   1.621   3.827   6.784 -4.1863  1.1112  2.3691
 3494SOL     OW21940   0.327   2.929   8.129  0.1745  0.3805  0.4329
 3494SOL    HW121941   0.319   2.839   8.096 -0.9138  0.6192  0.0684
 3494SOL    HW221942   0.263   2.977   8.077 -0.1113 -2.2859 -1.7199
 3495SOL     OW21943   4.292   0.536   9.603  0.3268  0.1933  0.1832
 3495SOL    HW121944   4.287   0.591   9.681  1.9486 -0.9439  1.1132
 3495SOL    HW221945   4.199   0.532   9.582 -0.6281 -0.6767  4.5576
 3496SOL     OW21946   2.294   2.332   8.246 -0.7917 -0.2604 -0.0797
 3496SOL    HW121947   2.329   2.387   8.175  1.3137  0.0883  1.2333
 3496SOL    HW221948   2.290   2.249   8.198 -1.6994  0.3983 -1.1371
 3497SOL     OW21949   4.330   4.045   0.259 -0.4646  0.1253 -0.0767
 3497SOL    HW121950   4.320   3.984   0.187  2.4571 -0.1809 -0.2188
 3497SOL    HW221951   4.424   4.045   0.275 -0.9014 -0.7403  2.6021
 3498SOL     OW21952   0.568   0.826   2.873 -0.0332  0.1208 -0.6863
 3498SOL    HW121953   0.500   0.882   2.911 -1.3668 -1.3382 -0.9471
 3498SOL    HW221954   0.575   0.861   2.784 -0.6289 -0.3445 -0.9181
 3499SOL     OW21955   4.722   4.565   5.730  0.2601 -0.1079 -0.1869
 3499SOL    HW121956   0.016   4.474   5.754 -1.0067 -1.1463 -3.1923
 3499SOL    HW221957   0.091   4.589   5.742 -0.6200  1.6345  3.1489
 3500SOL     OW21958   2.851   2.700   0.433 -0.0850  0.2532  0.6419
 3500SOL    HW121959   2.765   2.659   0.442  0.0776 -0.5101 -1.1165
 3500SOL    HW221960   2.897   2.683   0.515 -0.1179 -1.3485  0.3440
 3501SOL     OW21961   2.676   1.860   2.334 -0.0393 -0.2191 -0.0568
 3501SOL    HW121962   2.735   1.862   2.258 -1.7296  1.3988 -1.3463
 3501SOL    HW221963   2.737   1.844   2.406  0.0087 -1.2154 -0.3174
 3502SOL     OW21964   4.217   0.807   7.528  0.3005 -0.5697  0.6236
 3502SOL    HW121965   4.171   0.860   7.592  2.3866  0.3756  1.3397
 3502SOL    HW221966   4.243   0.727   7.573 -2.3985 -1.2510  0.9454
 3503SOL     OW21967   4.672   1.250   8.626  0.2426 -0.3338  0.2163
 3503SOL    HW121968   4.672   1.230   8.720 -0.2733 -0.7750  0.1234
 3503SOL    HW221969   0.012   1.322   8.627 -0.5155  0.3328  0.1730
 3504SOL     OW21970   4.190   4.468   7.744 -0.2708  0.1675  0.4665
 3504SOL    HW121971   4.217   4.499   7.831 -0.3618  1.9289 -0.1395
 3504SOL    HW221972   4.097   4.456   7.760 -0.7289  0.4326 -2.0384
 3505SOL     OW21973   1.147   2.732  12.687  0.5770  0.1553 -0.0113
 3505SOL    HW121974   1.179   2.651  12.727  2.2904  1.1528  0.6225
 3505SOL    HW221975   1.202   2.730  12.609  1.0212  1.7637  0.2542
 3506SOL     OW21976   3.863   0.402  17.346 -0.3397 -0.2829  0.2723
 3506SOL    HW121977   3.829   0.355  17.422 -0.7361 -0.4825 -0.0312
 3506SOL    HW221978   3.869   0.489  17.384 -2.4250  1.3589 -3.1838
 3507SOL     OW21979   2.666   4.682   8.520  0.7429 -0.5550 -0.2258
 3507SOL    HW121980   2.644   0.002   8.437  0.2137 -0.2428  0.0823
 3507SOL    HW221981   2.598   4.615   8.513 -0.1752  0.3527  0.1505
 3508SOL     OW21982   4.471   3.988  11.376 -0.4614 -0.5174 -0.2854
 3508SOL    HW121983   4.529   4.021  11.308 -2.5196  4.1496  0.2368
 3508SOL    HW221984   4.512   4.013  11.458 -0.2814 -2.1646  0.1420
 3509SOL     OW21985   1.324   1.203   6.545 -0.1539 -0.1494  0.0693
 3509SOL    HW121986   1.255   1.193   6.479 -1.2708 -0.5535  1.3125
 3509SOL    HW221987   1.407   1.218   6.498 -0.0719  0.2632  0.3501
 3510SOL     OW21988   3.321   0.026   4.654 -0.0521  0.0612  0.1425
 3510SOL    HW121989   3.286   4.695   4.725 -1.1903 -0.7229 -1.0133
 3510SOL    HW221990   3.360   4.679   4.602  0.8187 -1.2841  2.6061
 3511SOL     OW21991   0.804   0.231   2.834 -0.3349  0.4468  0.0679
 3511SOL    HW121992   0.765   0.233   2.746  2.2920  0.4226 -1.0795
 3511SOL    HW221993   0.897   0.230   2.813 -0.2064 -2.9160  0.7584
 3512SOL     OW21994   1.863   1.921   9.561  0.4834  0.5955  0.2930
 3512SOL    HW121995   1.879   1.988   9.628  0.8500  2.7366 -1.9608
 3512SOL    HW221996   1.811   1.976   9.504 -2.2761 -1.0752  1.2147
 3513SOL     OW21997   4.242   1.628   5.141 -0.1903 -0.6654 -0.1351
 3513SOL    HW121998   4.283   1.658   5.060  0.0084 -2.3953 -0.6585
 3513SOL    HW221999   4.226   1.535   5.126 -2.2258 -0.1530 -1.0550
 3514SOL     OW22000   3.764   1.957  10.417  0.2198 -0.1082 -0.3043
 3514SOL    HW122001   3.748   1.877  10.368  1.5181 -0.7792  0.3791
 3514SOL    HW222002   3.686   1.967  10.472 -0.3221 -1.9973 -0.7285
 3515SOL     OW22003   3.666   2.336  16.762 -0.0803 -0.0462 -0.2554
 3515SOL    HW122004   3.711   2.363  16.842 -1.2313  1.4606 -0.1041
 3515SOL    HW222005   3.697   2.246  16.751  2.5694  0.9360 -0.8431
 3516SOL     OW22006   3.272   3.391   8.712 -0.1081  0.0087 -0.2519
 3516SOL    HW122007   3.262   3.468   8.656 -1.9252  1.8856  2.6302
 3516SOL    HW222008   3.283   3.442   8.792 -0.0783  0.3234 -0.4583
 3517SOL     OW22009   2.705   1.232   6.815  0.0395  0.2042  0.3294
 3517SOL    HW122010   2.705   1.197   6.726  1.0945  0.5496  0.1975
 3517SOL    HW222011   2.766   1.305   6.807 -1.1504  1.2407  0.7387
 3518SOL     OW22012   4.627   0.183  10.193 -0.0970  0.0629  0.3068
 3518SOL    HW122013   4.571   0.108  10.213 -0.8166  0.7425  0.8513
 3518SOL    HW222014   4.578   0.224  10.122  2.8725  0.2401 -1.6721
 3519SOL     OW22015   0.283   1.672  10.211 -0.4012  0.2049  0.1753
 3519SOL    HW122016   0.326   1.691  10.128  1.1659  1.6051  1.2857
 3519SOL    HW222017   0.194   1.703  10.193 -0.7474 -1.7340 -1.3608
 3520SOL     OW22018   2.022   0.216   2.490  0.1339  0.5797  0.2005
 3520SOL    HW122019   1.945   0.269   2.471  1.1818  0.8891 -3.2011
 3520SOL    HW222020   2.046   0.194   2.400  1.5392 -1.1462  0.9975
 3521SOL     OW22021   3.814   3.196   5.749  0.4723  0.0367  0.3388
 3521SOL    HW122022   3.873   3.141   5.799  0.6788 -0.4055 -0.3878
 3521SOL    HW222023   3.873   3.200   5.673 -0.5501 -1.5267 -0.5297
 3522SOL     OW22024   3.737   0.801  16.643  0.4642 -0.5375 -0.8532
 3522SOL    HW122025   3.810   0.744  16.667 -0.6879 -1.0853  1.3492
 3522SOL    HW222026   3.785   0.880  16.666  1.2721 -0.8575 -1.4530
 3523SOL     OW22027   4.651   3.511   8.625 -0.5554  0.2712  0.3478
 3523SOL    HW122028   4.563   3.496   8.591 -0.7613  1.6641  0.2793
 3523SOL    HW222029   4.667   3.592   8.577 -0.1324 -0.2361 -0.3774
 3524SOL     OW22030   0.441   3.191   7.030 -0.4060  0.3181  0.1191
 3524SOL    HW122031   0.532   3.210   7.053 -0.6388  0.9572  0.5006
 3524SOL    HW222032   0.401   3.258   7.085 -1.7663 -0.2315 -0.2102
 3525SOL     OW22033   2.709   2.240   6.500  0.3989  0.1538  0.8491
 3525SOL    HW122034   2.759   2.207   6.575 -0.6352 -0.2519  1.3671
 3525SOL    HW222035   2.760   2.198   6.431 -1.4898  0.0734 -0.5015
 3526SOL     OW22036   2.578   3.996   2.610 -0.3807 -0.1378 -0.1792
 3526SOL    HW122037   2.496   3.960   2.574 -0.3654  0.2067 -0.5715
 3526SOL    HW222038   2.549   4.010   2.700  1.1835  2.2489 -0.0493
 3527SOL     OW22039   4.247   3.740   8.697  0.0082  0.2457 -0.2096
 3527SOL    HW122040   4.286   3.652   8.697 -2.0487 -0.6814  0.3566
 3527SOL    HW222041   4.298   3.790   8.634 -1.8800 -0.2075 -2.1081
 3528SOL     OW22042   2.165   2.996   1.071  0.1303 -0.1832 -0.0723
 3528SOL    HW122043   2.170   2.906   1.039  0.2285 -0.5808  1.0650
 3528SOL    HW222044   2.246   3.030   1.031 -0.0421  1.4582  0.9930
 3529SOL     OW22045   0.665   4.412   7.895  0.1613  0.3960 -0.3164
 3529SOL    HW122046   0.645   4.493   7.942  0.1290  0.2508 -0.0739
 3529SOL    HW222047   0.583   4.393   7.850  0.4590  0.4965 -0.8893
 3530SOL     OW22048   3.307   3.704   1.354  0.0658  0.2260 -0.6661
 3530SOL    HW122049   3.314   3.650   1.433 -0.2374 -1.3513 -1.7083
 3530SOL    HW222050   3.269   3.641   1.292  0.2827 -0.3218 -0.2404
 3531SOL     OW22051   2.280   1.883  12.184  0.4737  0.0419 -0.2535
 3531SOL    HW122052   2.372   1.905  12.169  0.2231  0.8680 -0.5675
 3531SOL    HW222053   2.231   1.950  12.136 -0.2528 -0.2850  0.0321
 3532SOL     OW22054   4.474   2.480   5.246 -0.2723  0.1172  0.0878
 3532SOL    HW122055   4.473   2.384   5.249  1.8421  0.1253  1.3031
 3532SOL    HW222056   4.528   2.497   5.323  1.2182  0.7082 -1.0975
 3533SOL     OW22057   0.763   4.680   6.522  0.2397  0.0182  0.3227
 3533SOL    HW122058   0.696   4.629   6.568  2.3667 -1.7492  1.4874
 3533SOL    HW222059   0.834   4.671   6.585  0.5609  0.9476  0.0879
 3534SOL     OW22060   3.983   1.453   3.416 -0.0137  0.7245 -0.0291
 3534SOL    HW122061   3.947   1.438   3.329 -2.5460  1.8907  0.7829
 3534SOL    HW222062   4.073   1.482   3.403  0.6754 -1.2034  0.3966
 3535SOL     OW22063   3.948   3.191   8.257  0.2332  0.0597 -0.0115
 3535SOL    HW122064   4.020   3.220   8.313 -0.7567 -0.6495  1.6360
 3535SOL    HW222065   3.877   3.177   8.320  1.1260 -0.2781  0.9236
 3536SOL     OW22066   4.157   0.650   5.887 -0.8174 -0.5384 -0.3891
 3536SOL    HW122067   4.225   0.585   5.906 -3.1029 -2.3323  1.5826
 3536SOL    HW222068   4.082   0.609   5.930 -0.4145  0.8757  1.6860
 3537SOL     OW22069   2.928   4.202   8.661  0.2738 -0.4352 -0.4657
 3537SOL    HW122070   2.999   4.266   8.658  1.5205 -1.8919 -1.7956
 3537SOL    HW222071   2.910   4.205   8.568  2.0778  1.0295 -0.7721
 3538SOL     OW22072   3.565   2.181   6.610  0.3977 -0.1572 -0.4207
 3538SOL    HW122073   3.606   2.168   6.525  0.0037 -1.6117 -0.3869
 3538SOL    HW222074   3.606   2.262   6.641  1.5440 -0.4555 -1.1718
 3539SOL     OW22075   2.615   2.032  14.567 -0.5151  0.3089  0.1032
 3539SOL    HW122076   2.705   1.999  14.568 -0.5466  0.2441  1.2962
 3539SOL    HW222077   2.622   2.122  14.599  0.3293 -0.1302  1.1877
 3540SOL     OW22078   1.454   1.077   6.051  0.0309  0.7771 -0.1913
 3540SOL    HW122079   1.459   1.171   6.035 -0.6912  1.0787  1.3734
 3540SOL    HW222080   1.422   1.070   6.141 -0.7080  2.4630 -0.3143
 3541SOL     OW22081   1.319   2.759   4.843  0.3365  0.3806 -0.0048
 3541SOL    HW122082   1.375   2.830   4.875  1.6245  0.0983 -1.6540
 3541SOL    HW222083   1.277   2.794   4.765 -1.2348 -1.1002  0.1929
 3542SOL     OW22084   0.308   2.410   7.595 -0.0431  0.1364 -0.5244
 3542SOL    HW122085   0.354   2.449   7.520  0.1137 -1.2288 -1.1389
 3542SOL    HW222086   0.216   2.409   7.568 -0.2857  1.9489  0.1964
 3543SOL     OW22087   3.757   1.430   4.933  0.1841 -0.0174 -0.2851
 3543SOL    HW122088   3.826   1.363   4.936  2.2192  2.1579  1.1878
 3543SOL    HW222089   3.804   1.499   4.886  0.0530 -0.9051 -1.7189
 3544SOL     OW22090   4.412   0.468   8.895 -0.1259  1.0148  0.4057
 3544SOL    HW122091   4.502   0.464   8.864 -0.4189 -0.5651 -0.2082
 3544SOL    HW222092   4.373   0.540   8.845 -1.1068  0.7783  0.8288
 3545SOL     OW22093   2.972   3.846  16.687 -0.7247  0.1276 -0.4260
 3545SOL    HW122094   2.901   3.782  16.682  0.1963 -1.0446  1.9717
 3545SOL    HW222095   2.964   3.868  16.594  3.3093  1.6426 -0.4208
 3546SOL     OW22096   1.139   1.723   3.669 -0.3849 -0.3941  0.6721
 3546SOL    HW122097   1.171   1.738   3.580  0.0597  1.1710  1.0857
 3546SOL    HW222098   1.127   1.629   3.660 -0.1144 -0.2323 -1.4328
 3547SOL     OW22099   3.401   3.644   1.913 -0.1310 -0.3428  0.1158
 3547SOL    HW122100   3.468   3.653   1.981  0.9196 -0.8599 -0.8634
 3547SOL    HW222101   3.411   3.732   1.875  0.1245 -1.4404 -2.3547
 3548SOL     OW22102   2.629   0.411   1.847 -0.3805  0.8813  0.2583
 3548SOL    HW122103   2.695   0.417   1.778  0.6789 -2.1129  1.0471
 3548SOL    HW222104   2.581   0.333   1.820 -0.3700  0.5592  1.2053
 3549SOL     OW22105   1.994   4.014   9.274 -0.5413  0.3385  0.0988
 3549SOL    HW122106   1.996   3.934   9.326  0.7300  0.1718 -0.2167
 3549SOL    HW222107   2.031   3.970   9.197 -0.7598  0.2676  0.0358
 3550SOL     OW22108   4.595   1.504  12.225 -0.3866 -0.1130  0.1689
 3550SOL    HW122109   4.564   1.592  12.243  3.1058  0.7374  2.0849
 3550SOL    HW222110   4.686   1.529  12.211 -0.3752 -0.7045 -0.7848
 3551SOL     OW22111   1.247   4.320   6.674 -0.3173 -0.2408  0.0687
 3551SOL    HW122112   1.161   4.349   6.643 -0.4843 -2.3336 -1.4374
 3551SOL    HW222113   1.263   4.340   6.766 -0.4112  0.8348 -0.1549
 3552SOL     OW22114   2.363   4.076   8.918 -0.5385 -0.0717 -0.2590
 3552SOL    HW122115   2.409   4.124   8.849 -0.0574 -1.3889 -0.8594
 3552SOL    HW222116   2.428   4.071   8.988  0.1579 -1.7916 -1.0314
 3553SOL     OW22117   1.690   3.535  12.338 -0.1959 -1.0810 -0.2297
 3553SOL    HW122118   1.702   3.477  12.263 -3.4822 -1.3418 -0.5576
 3553SOL    HW222119   1.606   3.579  12.325 -0.6563 -1.8296  0.1610
 3554SOL     OW22120   1.280   3.144   8.011 -0.2681 -0.5838  0.8533
 3554SOL    HW122121   1.224   3.140   7.933  1.7808 -0.0551 -0.6382
 3554SOL    HW222122   1.313   3.055   8.022  0.0213 -0.4286  1.2254
 3555SOL     OW22123   4.193   0.648  11.016  0.2560 -0.0010  0.1819
 3555SOL    HW122124   4.187   0.558  10.984 -3.2309 -0.4568  2.1208
 3555SOL    HW222125   4.123   0.646  11.081  1.1641 -0.5037  1.1602
 3556SOL     OW22126   0.300   3.912   6.605 -0.1174  0.2714 -0.2512
 3556SOL    HW122127   0.300   3.998   6.648 -1.1051  0.3312 -0.3860
 3556SOL    HW222128   0.210   3.911   6.573  0.2223  1.5544 -1.2298
 3557SOL     OW22129   3.786   3.326   2.655 -0.4708 -0.5210  0.4509
 3557SOL    HW122130   3.698   3.309   2.688 -0.6666 -0.3849  0.0028
 3557SOL    HW222131   3.763   3.374   2.575 -0.8150 -1.3121  0.0708
 3558SOL     OW22132   4.527   1.904   4.299  0.1125 -0.0127 -0.5214
 3558SOL    HW122133   4.564   1.970   4.241 -1.3645 -0.0744 -1.5359
 3558SOL    HW222134   4.463   1.958   4.344  0.1970 -0.1790 -0.1978
 3559SOL     OW22135   0.106   1.049   5.736  0.2264 -0.6147 -0.9706
 3559SOL    HW122136   0.036   1.025   5.797  1.0855  0.7617  0.5584
 3559SOL    HW222137   0.108   1.144   5.748 -0.7558 -0.2223 -3.7788
 3560SOL     OW22138   2.488   2.610  14.376 -0.1122  0.3403  0.3569
 3560SOL    HW122139   2.421   2.605  14.307  1.2337 -1.2650 -0.8176
 3560SOL    HW222140   2.449   2.566  14.451 -0.5500  0.6942  0.3364
 3561SOL     OW22141   0.038   1.752   3.193 -0.2093  0.2965  0.1949
 3561SOL    HW122142   0.122   1.750   3.148  0.2423 -0.6432  1.0825
 3561SOL    HW222143   0.073   1.770   3.280  0.2601  0.3204  0.0019
 3562SOL     OW22144   3.987   4.121  16.879  0.1641 -0.5169  0.3369
 3562SOL    HW122145   3.933   4.158  16.949  0.7116  0.6292  0.1588
 3562SOL    HW222146   3.963   4.177  16.805 -0.7784  0.4241  1.3387
 3563SOL     OW22147   0.771   1.634   4.792  0.2903 -0.1491 -0.1111
 3563SOL    HW122148   0.755   1.661   4.702 -2.0107  0.8153  0.6105
 3563SOL    HW222149   0.680   1.622   4.818  0.5596 -0.1171  0.8696
 3564SOL     OW22150   3.369   1.789   1.181 -0.4259 -0.3906  0.0934
 3564SOL    HW122151   3.326   1.874   1.187  1.3597  0.4808  0.6503
 3564SOL    HW222152   3.416   1.793   1.097 -1.4191 -0.3675 -0.4638
 3565SOL     OW22153   2.859   4.608   4.569 -0.6468 -0.5594 -0.3883
 3565SOL    HW122154   2.924   4.628   4.636  0.9699 -0.2462 -2.0253
 3565SOL    HW222155   2.919   4.600   4.495 -0.0269  2.7477 -0.2241
 3566SOL     OW22156   2.773   1.896   8.833  0.0678 -0.4572 -0.0490
 3566SOL    HW122157   2.783   1.977   8.882  1.0239 -1.0112  0.6596
 3566SOL    HW222158   2.829   1.923   8.760 -0.8688  1.0082 -0.2269
 3567SOL     OW22159   2.667   4.320   3.896 -0.3468 -0.4091  0.2040
 3567SOL    HW122160   2.592   4.379   3.894  0.4157  0.5514 -0.3619
 3567SOL    HW222161   2.728   4.380   3.852 -0.2965  0.0468  0.8892
 3568SOL     OW22162   2.119   0.265  12.424 -0.0227  0.1822  0.6698
 3568SOL    HW122163   2.070   0.303  12.352 -1.0095 -3.2786 -0.5175
 3568SOL    HW222164   2.189   0.330  12.425  0.1335  0.0751 -2.2666
 3569SOL     OW22165   1.191   3.120   4.798 -0.2657 -0.2840  0.1713
 3569SOL    HW122166   1.148   3.202   4.821  0.5229  0.5280 -1.2632
 3569SOL    HW222167   1.246   3.103   4.874  2.4858 -0.5498 -1.8551
 3570SOL     OW22168   2.429   1.732   2.367 -0.7074  0.5325  0.2450
 3570SOL    HW122169   2.497   1.792   2.337  2.8403 -2.6600  1.9576
 3570SOL    HW222170   2.366   1.744   2.296 -1.3255 -0.1421  0.6812
 3571SOL     OW22171   3.164   1.148   8.361  0.0312 -0.1284  0.2619
 3571SOL    HW122172   3.195   1.140   8.451 -2.8803  1.0871  1.3518
 3571SOL    HW222173   3.218   1.222   8.334  0.0754 -0.7129 -1.2445
 3572SOL     OW22174   1.082   2.736  14.664 -0.3789  0.2383  0.3957
 3572SOL    HW122175   1.098   2.820  14.622 -0.1461 -0.6421 -1.2840
 3572SOL    HW222176   1.095   2.756  14.757  1.5780  0.1262  0.1538
 3573SOL     OW22177   4.447   2.640  16.294  0.0166  0.2020  0.3892
 3573SOL    HW122178   4.456   2.634  16.389  4.0785 -1.1564 -0.0927
 3573SOL    HW222179   4.528   2.681  16.264  0.1300 -1.5357 -1.6225
 3574SOL     OW22180   0.979   4.391   5.385 -0.0038 -0.1486  0.4258
 3574SOL    HW122181   1.048   4.326   5.376 -0.1480 -0.1504 -0.7086
 3574SOL    HW222182   0.987   4.405   5.479  0.1904 -3.0496  0.8280
 3575SOL     OW22183   0.089   0.290   2.753 -0.3119  0.1945  0.0330
 3575SOL    HW122184   0.106   0.238   2.675 -2.4656  0.5238 -0.6417
 3575SOL    HW222185   0.156   0.359   2.746  0.8148 -0.8347  0.5889
 3576SOL     OW22186   3.393   2.311   7.477 -0.6013  0.2223 -0.5223
 3576SOL    HW122187   3.452   2.375   7.517  0.9032 -2.0434  0.9012
 3576SOL    HW222188   3.432   2.313   7.390 -0.0006 -0.2691 -0.2646
 3577SOL     OW22189   1.812   1.033   1.894 -0.1651  0.0078 -0.4752
 3577SOL    HW122190   1.878   0.968   1.920 -0.8478 -0.2524  0.6173
 3577SOL    HW222191   1.806   1.073   1.981 -0.6330  1.7534 -1.3074
 3578SOL     OW22192   2.703   3.695   8.611 -0.2635 -0.1281  0.2592
 3578SOL    HW122193   2.704   3.787   8.637 -0.1545 -0.3248  0.9357
 3578SOL    HW222194   2.662   3.652   8.686  1.4036  0.2215  1.3703
 3579SOL     OW22195   2.174   1.349   8.266  0.0373  0.0671 -0.2462
 3579SOL    HW122196   2.178   1.276   8.327  3.2178  1.5534  1.3512
 3579SOL    HW222197   2.104   1.402   8.305 -0.4104 -1.0015  0.3964
 3580SOL     OW22198   2.423   0.920  17.276  0.3798 -0.1894 -0.0850
 3580SOL    HW122199   2.415   0.983  17.347 -1.1711  1.1386 -1.4276
 3580SOL    HW222200   2.336   0.881  17.281  0.7573 -0.8405  1.3786
 3581SOL     OW22201   0.503   4.397   4.503 -0.0988  0.4539  0.0022
 3581SOL    HW122202   0.516   4.468   4.566 -1.3058 -2.4750  3.5338
 3581SOL    HW222203   0.435   4.440   4.451  1.1437  0.6778 -1.4411
 3582SOL     OW22204   0.195   1.939  11.156  0.6208 -0.4381 -0.1202
 3582SOL    HW122205   0.269   1.887  11.124 -1.1965 -2.4634 -0.9940
 3582SOL    HW222206   0.242   2.019  11.181 -0.2365  0.1363 -0.3349
 3583SOL     OW22207   3.202   1.268  16.035 -0.0601  0.1956  0.0766
 3583SOL    HW122208   3.192   1.172  16.037  3.0494 -0.1484  0.0905
 3583SOL    HW222209   3.296   1.264  16.052  0.2854 -2.2469 -2.2813
 3584SOL     OW22210   0.758   1.384  12.260 -0.8823 -0.6505 -0.4462
 3584SOL    HW122211   0.763   1.291  12.240 -0.3764 -0.1795 -2.4919
 3584SOL    HW222212   0.708   1.378  12.341  0.7856  0.8046  0.6837
 3585SOL     OW22213   3.691   1.306  17.579 -0.2634  0.0810  0.8394
 3585SOL    HW122214   3.686   1.211  17.569  1.0064 -0.0306  1.2568
 3585SOL    HW222215   3.777   1.319  17.619 -0.4206  0.7416  0.9549
 3586SOL     OW22216   0.676   4.370   6.963  0.2475  0.0498 -0.1528
 3586SOL    HW122217   0.583   4.364   6.940  1.2409 -0.3575 -4.0187
 3586SOL    HW222218   0.670   4.438   7.029 -0.0780  0.8345 -0.9897
 3587SOL     OW22219   3.709   3.759   3.042  0.7721 -0.1329  0.5374
 3587SOL    HW122220   3.645   3.707   3.092  1.2688 -2.2912 -1.0526
 3587SOL    HW222221   3.769   3.694   3.006 -0.8724 -1.3877  0.0477
 3588SOL     OW22222   2.767   4.673  11.764 -0.6176 -0.1084  0.7050
 3588SOL    HW122223   2.782   4.693  11.856 -0.4802  1.5743  0.3077
 3588SOL    HW222224   2.682   4.709  11.740  0.5653  1.5605 -1.0418
 3589SOL     OW22225   3.546   3.590   5.845 -0.4687 -0.0152 -0.1200
 3589SOL    HW122226   3.583   3.590   5.757  0.8916  1.5193  0.4658
 3589SOL    HW222227   3.622   3.545   5.882 -0.1903  0.0289 -0.6349
 3590SOL     OW22228   3.380   4.388   7.363 -1.1081  0.6595  0.2046
 3590SOL    HW122229   3.288   4.410   7.370 -1.2769 -0.1368  0.5377
 3590SOL    HW222230   3.396   4.403   7.270  2.9865  2.4709  1.2076
 3591SOL     OW22231   0.741   3.014  14.406  0.1945 -0.4111 -0.2437
 3591SOL    HW122232   0.757   2.921  14.421  1.4358 -0.0326  0.8322
 3591SOL    HW222233   0.659   3.011  14.358  1.0743  0.7454 -1.8323
 3592SOL     OW22234   3.192   0.173   3.669  0.0168  0.5790  0.2857
 3592SOL    HW122235   3.107   0.155   3.710 -2.7734  3.4750 -4.2323
 3592SOL    HW222236   3.224   0.255   3.706 -0.7716  1.2816 -0.6005
 3593SOL     OW22237   1.229   3.184   9.375  0.2773 -0.2043 -0.4178
 3593SOL    HW122238   1.205   3.193   9.282  2.2809 -2.3511 -1.1322
 3593SOL    HW222239   1.258   3.274   9.391 -0.2470 -0.1894  0.4700
 3594SOL     OW22240   3.441   4.619  16.255 -0.0778  0.0925 -0.0944
 3594SOL    HW122241   3.359   4.659  16.283 -1.1070 -0.1834 -2.6325
 3594SOL    HW222242   3.471   4.568  16.330 -0.9075 -0.8344 -0.3735
 3595SOL     OW22243   1.510   0.023   7.589  0.1810  0.1639 -0.4325
 3595SOL    HW122244   1.487   4.678   7.525  0.6444 -0.1203 -0.3024
 3595SOL    HW222245   1.436   0.026   7.650  1.6967  1.0944  1.3538
 3596SOL     OW22246   2.192   1.738   7.002 -0.0336 -0.0459  0.7686
 3596SOL    HW122247   2.150   1.711   7.083 -1.4708 -0.0949  0.0076
 3596SOL    HW222248   2.119   1.792   6.970  0.5132  0.1689 -0.1311
 3597SOL     OW22249   4.023   1.028   1.930  0.0641  0.4895 -0.2249
 3597SOL    HW122250   4.063   0.999   1.848  0.3706  1.1225 -0.2968
 3597SOL    HW222251   3.932   1.005   1.912  0.7917 -2.2535 -0.4714
 3598SOL     OW22252   1.506   2.287   3.548 -0.7558 -0.0114 -0.1754
 3598SOL    HW122253   1.517   2.362   3.489 -2.4798 -1.2798 -2.0943
 3598SOL    HW222254   1.464   2.226   3.488 -0.4447 -2.1182  1.7465
 3599SOL     OW22255   4.663   2.929  15.006  0.3675  0.5947  0.0423
 3599SOL    HW122256   4.572   2.898  15.007  0.9884 -1.1806  0.1821
 3599SOL    HW222257   4.652   3.019  15.037 -0.7373  0.8435 -1.0348
 3600SOL     OW22258   2.214   0.791  14.160 -0.2183  0.1294 -0.1245
 3600SOL    HW122259   2.173   0.799  14.247  2.3787  1.0028  1.0231
 3600SOL    HW222260   2.215   0.884  14.137  0.2098  0.6685  2.0451
 3601SOL     OW22261   1.786   1.709   2.159  0.0489 -0.0592 -0.2097
 3601SOL    HW122262   1.755   1.800   2.160 -0.8778 -0.3679 -0.4881
 3601SOL    HW222263   1.786   1.684   2.251  1.9112  0.6429 -0.0198
 3602SOL     OW22264   2.826   1.628   2.114  0.3865  0.1019  0.1744
 3602SOL    HW122265   2.774   1.658   2.040  0.0623  1.4450  0.9418
 3602SOL    HW222266   2.883   1.704   2.128 -1.2199  1.0705  1.5709
 3603SOL     OW22267   3.501   1.972   5.427 -0.4123  0.4272 -0.1048
 3603SOL    HW122268   3.478   1.897   5.372 -0.4262 -0.1118  0.6431
 3603SOL    HW222269   3.483   2.039   5.361  2.4493  0.1152 -1.1892
 3604SOL     OW22270   2.839   0.831  16.299 -0.3486 -0.7175  0.3174
 3604SOL    HW122271   2.762   0.884  16.319  1.4311  1.4762  1.3565
 3604SOL    HW222272   2.816   0.810  16.209  1.5207  0.8834 -0.5309
 3605SOL     OW22273   3.729   3.405   0.532 -0.1031 -0.2342  0.3199
 3605SOL    HW122274   3.695   3.428   0.445 -0.3602  1.2296  0.8074
 3605SOL    HW222275   3.708   3.486   0.577  0.9864 -0.3379  1.0057
 3606SOL     OW22276   2.310   3.363   4.132  0.1502  0.0297 -0.3786
 3606SOL    HW122277   2.398   3.334   4.110  0.2195  1.1206 -1.6061
 3606SOL    HW222278   2.324   3.453   4.161  1.4206 -0.9067  1.8713
 3607SOL     OW22279   0.966   2.656   5.560  0.1200 -0.0034 -0.2757
 3607SOL    HW122280   0.978   2.582   5.501  1.8119  0.4404 -0.5100
 3607SOL    HW222281   0.919   2.620   5.635  0.9605  1.4062  0.9480
 3608SOL     OW22282   3.635   3.680  12.968 -0.5602 -0.2550 -0.0543
 3608SOL    HW122283   3.684   3.715  12.894 -1.0887 -0.8121 -0.6702
 3608SOL    HW222284   3.586   3.759  12.991  1.9250  1.4267 -0.4800
 3609SOL     OW22285   4.021   2.488   7.561  0.1300 -0.2643 -0.0108
 3609SOL    HW122286   4.044   2.398   7.536  1.6734  0.0257  0.3263
 3609SOL    HW222287   4.111   2.520   7.561  0.0369 -0.0333  1.7053
 3610SOL     OW22288   2.428   2.923   4.565  0.0886  0.1960  0.3350
 3610SOL    HW122289   2.432   2.858   4.495 -0.1999 -0.4089  0.8790
 3610SOL    HW222290   2.367   2.986   4.527 -0.9478 -0.9850  0.0335
 3611SOL     OW22291   3.489   2.713   8.642 -0.0878 -0.1137 -0.1894
 3611SOL    HW122292   3.512   2.650   8.573 -0.5164  0.0502 -0.4850
 3611SOL    HW222293   3.444   2.656   8.704 -0.2147  0.0976 -0.0903
 3612SOL     OW22294   1.658   0.540   0.326 -0.0933 -0.1783  0.1041
 3612SOL    HW122295   1.716   0.590   0.383 -0.1299  1.1081 -0.9916
 3612SOL    HW222296   1.633   0.593   0.250 -0.2294 -0.5789 -0.1326
 3613SOL     OW22297   1.062   4.458   7.880  0.0197  0.3008 -0.2659
 3613SOL    HW122298   1.003   4.445   7.805 -1.1794 -1.9708  1.0860
 3613SOL    HW222299   1.131   4.510   7.838  0.0666 -0.0065 -0.5628
 3614SOL     OW22300   0.803   3.474  10.531  0.0766 -0.3085  0.5035
 3614SOL    HW122301   0.798   3.380  10.516  0.6356 -0.3208  0.3983
 3614SOL    HW222302   0.808   3.508  10.442 -1.7539  0.4265  0.6898
 3615SOL     OW22303   1.933   2.162   6.066  0.7626 -0.0934 -0.2639
 3615SOL    HW122304   1.947   2.069   6.081  1.1396  0.2521  1.5493
 3615SOL    HW222305   2.018   2.183   6.027  1.4165  0.0528  1.2266
 3616SOL     OW22306   0.639   0.665  12.095  0.5769 -0.6176  0.2959
 3616SOL    HW122307   0.606   0.755  12.091 -3.6787 -2.2352 -0.2550
 3616SOL    HW222308   0.690   0.671  12.014  0.5234  0.0507  0.3078
 3617SOL     OW22309   1.235   2.262  12.917 -0.0072  0.1356  1.1233
 3617SOL    HW122310   1.286   2.183  12.935 -0.1602 -0.2791 -0.2825
 3617SOL    HW222311   1.279   2.325  12.974  1.7124  0.0918 -0.1404
 3618SOL     OW22312   1.212   4.024   3.752 -0.0373 -0.4410 -0.1133
 3618SOL    HW122313   1.209   4.070   3.668 -1.3327  1.0759  0.7727
 3618SOL    HW222314   1.155   4.076   3.808 -1.6090 -1.8758 -0.3846
 3619SOL     OW22315   2.687   0.639  11.435  0.0547 -0.2690 -0.9262
 3619SOL    HW122316   2.723   0.594  11.512  0.5048 -0.6605 -1.3615
 3619SOL    HW222317   2.594   0.640  11.457  0.2798 -1.3512  0.0609
 3620SOL     OW22318   4.274   4.202   6.498  0.4978  0.0093 -0.6789
 3620SOL    HW122319   4.253   4.159   6.415  1.5869 -0.4674 -0.7178
 3620SOL    HW222320   4.370   4.195   6.498  0.4923 -0.0539  2.3067
 3621SOL     OW22321   2.588   1.680   2.814 -0.6675  0.2842  0.0138
 3621SOL    HW122322   2.532   1.602   2.803  1.9736 -1.5952 -0.0915
 3621SOL    HW222323   2.523   1.743   2.784 -1.4889  0.4311  2.0654
 3622SOL     OW22324   2.359   2.885   3.753  0.5815  0.1227 -0.0376
 3622SOL    HW122325   2.435   2.836   3.722 -1.0556 -2.6189  0.1696
 3622SOL    HW222326   2.289   2.819   3.754  0.9974 -0.3290 -0.1620
 3623SOL     OW22327   4.440   4.341   3.494  0.0239 -0.0700 -0.8058
 3623SOL    HW122328   4.408   4.408   3.434 -0.4093  1.8214  1.4966
 3623SOL    HW222329   4.384   4.264   3.485 -0.8535  0.5305 -0.4854
 3624SOL     OW22330   0.998   4.503   6.368 -0.2871  0.7126 -0.2423
 3624SOL    HW122331   1.070   4.499   6.304 -1.7373 -1.5558 -1.7490
 3624SOL    HW222332   0.953   4.581   6.336 -1.2228  1.3985  2.8007
 3625SOL     OW22333   4.688   1.090  17.355  0.3297 -0.4364 -0.1264
 3625SOL    HW122334   4.706   1.106  17.262  3.5076  1.3423  0.7915
 3625SOL    HW222335   0.004   1.171  17.388  0.4784 -0.5202 -0.0953
 3626SOL     OW22336   2.713   2.519   2.837 -0.7059 -0.2037 -0.0077
 3626SOL    HW122337   2.666   2.509   2.920  1.6488  1.3399  1.5016
 3626SOL    HW222338   2.668   2.455   2.782 -0.1111 -1.0016  0.4244
 3627SOL     OW22339   1.590   3.274   4.755 -0.3244  0.4766  0.1932
 3627SOL    HW122340   1.633   3.349   4.712  0.6446  0.0413  0.3936
 3627SOL    HW222341   1.510   3.267   4.703  0.8587  2.4940 -1.9404
 3628SOL     OW22342   0.301   3.650  12.964 -0.1383 -0.0828 -0.1433
 3628SOL    HW122343   0.277   3.677  12.875 -1.3869  0.4679  0.3605
 3628SOL    HW222344   0.222   3.602  12.988  0.8826 -0.4086  2.5483
 3629SOL     OW22345   1.427   3.779   6.317 -0.1555 -0.2965  0.2271
 3629SOL    HW122346   1.453   3.748   6.403 -3.3785  1.7237  1.9379
 3629SOL    HW222347   1.468   3.865   6.308 -0.5819 -0.1396 -0.1993
 3630SOL     OW22348   1.576   0.222   5.563  0.2354 -0.0665 -0.5793
 3630SOL    HW122349   1.671   0.214   5.563  0.2685  0.4643  2.1967
 3630SOL    HW222350   1.565   0.209   5.469 -1.6803 -1.6192 -0.1465
 3631SOL     OW22351   3.818   2.847   8.209 -0.5177  0.4231 -0.1914
 3631SOL    HW122352   3.885   2.874   8.146  0.2766  0.4735  0.6746
 3631SOL    HW222353   3.815   2.752   8.202 -0.5534  0.5089 -1.3955
 3632SOL     OW22354   0.864   3.404   8.645  0.6084  0.2986 -0.1009
 3632SOL    HW122355   0.817   3.482   8.677 -1.7655 -0.5056 -1.6082
 3632SOL    HW222356   0.884   3.450   8.564  0.9748  1.4717  0.6558
 3633SOL     OW22357   2.483   2.851   7.903 -0.3436  0.0915 -0.6708
 3633SOL    HW122358   2.576   2.875   7.902 -0.8905  2.1901 -1.5611
 3633SOL    HW222359   2.472   2.829   7.810  1.3842 -0.1082 -0.8269
 3634SOL     OW22360   0.995   4.134   5.773  0.0741  0.2459  0.1762
 3634SOL    HW122361   0.950   4.052   5.792 -0.7877  0.6931  0.0667
 3634SOL    HW222362   0.961   4.152   5.685 -0.2321 -2.3257 -0.2264
 3635SOL     OW22363   1.032   4.203   6.220  0.0575  0.5701  0.1751
 3635SOL    HW122364   1.065   4.278   6.270  1.6732  1.1243 -1.7264
 3635SOL    HW222365   1.073   4.217   6.135 -1.9225 -0.6733 -0.9568
 3636SOL     OW22366   3.804   1.151   3.408  0.0484  0.4460 -0.1108
 3636SOL    HW122367   3.813   1.130   3.501  4.2895  1.5985 -0.2527
 3636SOL    HW222368   3.895   1.172   3.389  0.2249 -1.3710 -1.3281
 3637SOL     OW22369   4.550   1.357  12.435 -0.4422  0.0781 -0.0870
 3637SOL    HW122370   4.478   1.419  12.450  0.7526  1.2775  0.6051
 3637SOL    HW222371   4.571   1.399  12.352  2.5922 -2.1882 -0.4542
 3638SOL     OW22372   4.145   4.482  13.908 -0.1331  0.0409  0.5951
 3638SOL    HW122373   4.064   4.509  13.951 -1.5683 -0.3181 -1.8661
 3638SOL    HW222374   4.177   4.568  13.885 -0.5623 -0.1607 -0.7552
 3639SOL     OW22375   3.442   3.460  12.688 -0.6031 -0.4423 -0.6192
 3639SOL    HW122376   3.479   3.463  12.600 -1.7525 -0.8732 -1.1089
 3639SOL    HW222377   3.460   3.368  12.711  0.0374 -0.3740 -0.8252
 3640SOL     OW22378   0.120   4.403   8.606  0.3556  0.2078 -0.1354
 3640SOL    HW122379   0.051   4.351   8.647 -1.0426  2.1491 -0.0174
 3640SOL    HW222380   0.128   4.381   8.513 -3.1241  2.6434 -0.9826
 3641SOL     OW22381   3.924   4.101  13.160  0.3364  0.5397  0.0478
 3641SOL    HW122382   3.853   4.045  13.191 -0.7899  4.2805  4.3029
 3641SOL    HW222383   3.912   4.182  13.210 -1.2956 -0.3858  1.1534
 3642SOL     OW22384   3.510   1.319   4.230 -0.3904 -0.2113  0.4842
 3642SOL    HW122385   3.571   1.370   4.282  0.4708 -0.1725 -0.5672
 3642SOL    HW222386   3.525   1.234   4.270  1.5483 -1.1724 -2.2323
 3643SOL     OW22387   0.051   1.672   6.060  0.4780 -0.0012 -0.0405
 3643SOL    HW122388   0.087   1.714   5.982 -0.1577  0.4404 -0.0988
 3643SOL    HW222389   0.078   1.581   6.051  1.2338  0.3668 -1.4209
 3644SOL     OW22390   0.840   1.205   8.120  0.6909  0.2640  0.6075
 3644SOL    HW122391   0.933   1.192   8.139  0.9981  0.7167 -0.6319
 3644SOL    HW222392   0.814   1.202   8.212  0.1822 -2.1375  0.3848
 3645SOL     OW22393   3.835   2.122   0.520 -0.0363 -0.4688 -0.8690
 3645SOL    HW122394   3.862   2.076   0.440 -1.6675 -0.8748 -1.1849
 3645SOL    HW222395   3.921   2.143   0.556 -1.0094 -0.6716  1.5498
 3646SOL     OW22396   1.914   0.478   5.367 -0.5255  0.3414  0.1096
 3646SOL    HW122397   1.852   0.525   5.422 -2.3006 -0.3493 -1.3347
 3646SOL    HW222398   1.861   0.411   5.325  0.7334 -0.8392  0.3860
 3647SOL     OW22399   4.127   4.285   5.476  0.1367  0.1624 -0.1896
 3647SOL    HW122400   4.193   4.355   5.483 -0.0857  0.3316  0.2069
 3647SOL    HW222401   4.158   4.219   5.538  0.9694 -1.1380 -2.0063
 3648SOL     OW22402   2.340   2.986   7.318 -0.0766  0.4290 -0.2155
 3648SOL    HW122403   2.277   2.971   7.247 -0.8866  1.4654  0.2802
 3648SOL    HW222404   2.422   2.938   7.308 -1.0561 -0.9324 -1.6657
 3649SOL     OW22405   4.349   2.425   0.959 -0.0342 -0.0450 -0.4083
 3649SOL    HW122406   4.285   2.493   0.978  0.3914  0.4491 -0.7460
 3649SOL    HW222407   4.423   2.484   0.944  0.1171  0.1045  0.9634
 3650SOL     OW22408   1.541   4.069   7.524 -0.0120 -0.1279 -0.2634
 3650SOL    HW122409   1.621   4.020   7.545  0.4508  1.3355  1.3569
 3650SOL    HW222410   1.575   4.155   7.500  1.1325 -0.0221  1.7809
 3651SOL     OW22411   0.057   4.398  11.351 -0.1684  0.0171  0.0652
 3651SOL    HW122412   0.047   4.345  11.431  0.3395  0.0313  0.1384
 3651SOL    HW222413   0.126   4.343  11.314 -0.7882 -2.9703  3.3453
 3652SOL     OW22414   3.331   1.259  15.635  0.6601  0.6991  0.1909
 3652SOL    HW122415   3.264   1.264  15.567  1.1305 -2.4782 -0.5004
 3652SOL    HW222416   3.339   1.349  15.668  0.6063  0.8038 -0.0828
 3653SOL     OW22417   1.377   4.634   5.966 -0.1049  0.4343  0.6945
 3653SOL    HW122418   1.454   4.684   5.939  1.5947 -0.5127  3.6616
 3653SOL    HW222419   1.403   4.617   6.057  1.9860 -0.6912 -0.1089
 3654SOL     OW22420   3.600   1.222   7.931  0.1466 -0.5631  0.5030
 3654SOL    HW122421   3.564   1.310   7.916 -0.2644 -0.9536 -0.8639
 3654SOL    HW222422   3.547   1.190   8.004  0.3411 -0.4609  0.6886
 3655SOL     OW22423   1.755   0.195   6.250  0.0022  1.0437  0.1121
 3655SOL    HW122424   1.667   0.176   6.218  0.5395 -1.3800  0.0996
 3655SOL    HW222425   1.797   0.197   6.164  1.3451 -1.4670  0.7179
 3656SOL     OW22426   3.732   1.808  12.061  0.0938  0.2235  0.1457
 3656SOL    HW122427   3.746   1.816  11.967 -1.2468 -2.4061 -0.2893
 3656SOL    HW222428   3.646   1.849  12.069 -0.0832  0.0102 -0.7046
 3657SOL     OW22429   1.004   2.328  14.036  0.5737 -0.0749 -0.1292
 3657SOL    HW122430   0.918   2.369  14.045  0.4540 -0.4106  0.2516
 3657SOL    HW222431   0.993   2.246  13.987 -1.9835 -1.7386  3.2261
 3658SOL     OW22432   0.608   1.483   7.243 -0.3352 -0.0068 -0.0390
 3658SOL    HW122433   0.570   1.401   7.211  0.7747 -0.3965 -0.3635
 3658SOL    HW222434   0.621   1.529   7.160 -1.9214 -2.0835 -1.4371
 3659SOL     OW22435   2.648   3.712  12.726 -0.0185 -0.0905 -0.0713
 3659SOL    HW122436   2.731   3.734  12.769 -0.1769  2.5367 -1.0546
 3659SOL    HW222437   2.684   3.678  12.644 -1.0592  2.5089 -1.6364
 3660SOL     OW22438   4.373   1.720  12.085  0.1915 -0.2719  0.6590
 3660SOL    HW122439   4.308   1.660  12.122  1.8840 -1.1104  2.2494
 3660SOL    HW222440   4.417   1.755  12.162 -1.1381 -1.8191  2.1293
 3661SOL     OW22441   4.403   0.798   3.217  0.1073  0.2698  0.5549
 3661SOL    HW122442   4.491   0.787   3.253  0.0362  1.3384  1.0460
 3661SOL    HW222443   4.402   0.860   3.144 -1.3763  0.9037  1.1250
 3662SOL     OW22444   3.732   2.401  14.508 -0.3319 -0.1057 -0.2412
 3662SOL    HW122445   3.690   2.343  14.444  2.4947 -1.3417 -0.9744
 3662SOL    HW222446   3.759   2.475  14.454  1.9845 -1.4284 -0.9261
 3663SOL     OW22447   3.937   0.067   5.722 -0.3743  0.0808 -0.1376
 3663SOL    HW122448   3.880   4.713   5.712  0.8604 -0.8750  0.2902
 3663SOL    HW222449   3.866   0.129   5.742  0.1887 -0.1019  2.4368
 3664SOL     OW22450   0.255   3.715  16.014 -0.3557  0.3324 -0.5837
 3664SOL    HW122451   0.161   3.722  15.995 -0.7959 -0.5926  1.1787
 3664SOL    HW222452   0.280   3.639  15.962  1.2644 -1.0048  2.1416
 3665SOL     OW22453   3.137   0.972   2.821 -0.3439  0.3403  0.5861
 3665SOL    HW122454   3.136   1.068   2.818  3.0086  0.3850  0.4802
 3665SOL    HW222455   3.142   0.960   2.916  1.0878  1.7157  0.6916
 3666SOL     OW22456   1.583   2.698   4.151  0.3745 -0.1200 -0.5176
 3666SOL    HW122457   1.548   2.610   4.139 -1.7133  1.0471 -3.2264
 3666SOL    HW222458   1.629   2.704   4.234 -0.1963  0.3662 -0.2308
 3667SOL     OW22459   1.820   3.753   4.178 -0.0663 -0.0250  0.3465
 3667SOL    HW122460   1.833   3.826   4.118  2.0889 -0.6209  0.0816
 3667SOL    HW222461   1.788   3.804   4.253  0.2600 -2.1362  1.9297
 3668SOL     OW22462   1.471   0.474   9.226  0.1895 -0.5427  0.2561
 3668SOL    HW122463   1.468   0.428   9.142  0.7856 -0.4504  0.1856
 3668SOL    HW222464   1.565   0.489   9.224 -0.2048  2.3865  4.3370
 3669SOL     OW22465   3.234   1.669  13.079 -1.0726  0.0524  0.1952
 3669SOL    HW122466   3.260   1.620  13.000  1.4349  0.0135  1.0320
 3669SOL    HW222467   3.265   1.614  13.151  0.2170  0.4494 -0.0511
 3670SOL     OW22468   4.631   0.642   3.825 -0.2040  0.2846 -0.1421
 3670SOL    HW122469   4.656   0.580   3.757  1.0271  1.8341 -1.1235
 3670SOL    HW222470   4.713   0.685   3.850  0.8012 -1.6564 -0.1273
 3671SOL     OW22471   3.902   1.688   2.306 -0.2651  0.2561 -0.3160
 3671SOL    HW122472   3.898   1.597   2.335 -0.5108  0.6504  0.8871
 3671SOL    HW222473   3.986   1.691   2.260  1.1387  1.1816  2.3260
 3672SOL     OW22474   2.043   1.951  11.640  0.5031  0.6586  0.3332
 3672SOL    HW122475   1.949   1.951  11.623  0.5828 -1.8660 -0.1816
 3672SOL    HW222476   2.084   1.927  11.557  0.4871  1.9464 -0.0409
 3673SOL     OW22477   0.001   1.440   6.714 -0.2719  0.4119 -0.1387
 3673SOL    HW122478   0.044   1.525   6.717  1.2938 -0.4840  2.4109
 3673SOL    HW222479   0.032   1.410   6.628  1.7449 -3.1032  1.8196
 3674SOL     OW22480   2.309   4.385   3.239 -0.1721  0.1367 -0.6920
 3674SOL    HW122481   2.318   4.402   3.333  0.6459  1.9840 -1.1091
 3674SOL    HW222482   2.361   4.460   3.212 -1.1904  1.7996  1.9356
 3675SOL     OW22483   0.114   3.044   7.973  0.4558  0.6202  0.4455
 3675SOL    HW122484   0.067   3.002   7.901 -1.1480  1.5263  0.9519
 3675SOL    HW222485   0.048   3.049   8.042  0.1847 -0.7657  0.2802
 3676SOL     OW22486   2.694   3.695  17.015 -0.5085  0.1835 -0.0434
 3676SOL    HW122487   2.709   3.630  17.084 -0.8143  1.7963  1.5606
 3676SOL    HW222488   2.604   3.722  17.032  0.3256  1.7472  1.9477
 3677SOL     OW22489   4.654   3.212  14.983 -0.1083 -0.2003  0.2347
 3677SOL    HW122490   4.705   3.201  14.903 -0.9665 -2.3660 -0.0212
 3677SOL    HW222491   4.712   3.243  15.052 -0.6011 -0.4235  0.7443
 3678SOL     OW22492   2.136   2.401   2.508  0.2250 -0.1614  0.1347
 3678SOL    HW122493   2.136   2.361   2.596  1.1403 -0.6432 -0.0872
 3678SOL    HW222494   2.214   2.454   2.519 -0.7001  1.2329 -0.0840
 3679SOL     OW22495   0.810   2.543   8.731  0.3023 -0.0510 -0.2381
 3679SOL    HW122496   0.844   2.454   8.738 -2.0889 -1.1232 -2.0261
 3679SOL    HW222497   0.808   2.580   8.819 -1.9655 -0.3885 -0.1377
 3680SOL     OW22498   1.925   2.929   4.516 -0.1172  0.1793  0.7365
 3680SOL    HW122499   1.934   2.939   4.611  2.8451 -1.9122  0.6631
 3680SOL    HW222500   1.829   2.929   4.509  0.0102 -1.3767 -1.1952
 3681SOL     OW22501   3.731   0.269   8.598  0.5046  0.0398 -0.1493
 3681SOL    HW122502   3.712   0.322   8.675  1.3768 -1.1315  0.8897
 3681SOL    HW222503   3.691   0.184   8.619 -2.2176  1.6684  1.2053
 3682SOL     OW22504   3.790   1.335   8.253  0.3745 -0.0935 -0.0220
 3682SOL    HW122505   3.791   1.274   8.327 -0.5735  0.2959  0.3080
 3682SOL    HW222506   3.705   1.374   8.272  0.7203  0.9840 -0.6839
 3683SOL     OW22507   2.083   1.408  12.868 -0.3711  0.8379  0.4680
 3683SOL    HW122508   2.125   1.372  12.790 -1.1806 -0.0871  0.4550
 3683SOL    HW222509   2.150   1.391  12.933  0.8507 -1.3392 -1.3811
 3684SOL     OW22510   2.257   3.698   9.605 -0.2381  0.2158 -0.9265
 3684SOL    HW122511   2.269   3.785   9.568  0.3672  0.2719 -0.5982
 3684SOL    HW222512   2.272   3.633   9.536 -3.5557 -0.3660 -1.0755
 3685SOL     OW22513   1.446   3.635  12.543  0.2728  0.2996  0.3691
 3685SOL    HW122514   1.425   3.616  12.451 -0.2055  3.6038 -0.2301
 3685SOL    HW222515   1.470   3.727  12.530 -0.5563  0.6991  1.7519
 3686SOL     OW22516   2.562   3.991   8.477 -0.5586 -0.0876  0.0133
 3686SOL    HW122517   2.488   4.030   8.523  0.0887  1.7166 -0.4775
 3686SOL    HW222518   2.617   3.971   8.553 -1.1942 -1.7399  0.0271
 3687SOL     OW22519   3.207   2.220  17.061  0.6567  0.4533  0.2500
 3687SOL    HW122520   3.122   2.262  17.070  0.4559 -0.0517  0.6913
 3687SOL    HW222521   3.207   2.134  17.103  1.4221  0.4866  0.3266
 3688SOL     OW22522   1.915   2.642   0.657 -0.2475  0.3881 -0.4751
 3688SOL    HW122523   1.891   2.711   0.718  2.2100  0.1711  0.7270
 3688SOL    HW222524   1.828   2.608   0.636 -0.5764  1.3476 -0.6934
 3689SOL     OW22525   0.426   4.542   8.436  0.7079  0.2481  0.0262
 3689SOL    HW122526   0.448   4.525   8.527  1.4044 -3.1123 -0.7738
 3689SOL    HW222527   0.511   4.565   8.398 -0.3062  3.8994 -0.0066
 3690SOL     OW22528   1.932   4.248   3.519  0.0866 -0.5589  0.2427
 3690SOL    HW122529   1.949   4.155   3.506  1.3010 -0.1552 -1.0460
 3690SOL    HW222530   2.021   4.284   3.516 -0.5578  1.1465  1.4636
 3691SOL     OW22531   3.559   0.690   7.678 -0.3698  0.5208 -0.3607
 3691SOL    HW122532   3.484   0.700   7.737 -1.0931  5.6165 -2.1683
 3691SOL    HW222533   3.633   0.688   7.739 -0.6724  0.3071 -0.0022
 3692SOL     OW22534   0.714   3.422   2.919  0.0989 -0.2619  0.0509
 3692SOL    HW122535   0.768   3.488   2.963  0.7274 -0.2007 -0.8116
 3692SOL    HW222536   0.639   3.413   2.978 -0.1641  0.8337 -0.1298
 3693SOL     OW22537   4.666   3.743   9.465  0.5657  0.5282 -0.3361
 3693SOL    HW122538   4.589   3.793   9.440 -0.7357  0.1024  2.8567
 3693SOL    HW222539   4.665   3.695   9.382 -0.4532  0.4209 -0.2530
 3694SOL     OW22540   1.090   4.395  14.716 -0.0499  0.1028 -0.0921
 3694SOL    HW122541   1.079   4.301  14.731 -0.6509  0.5494  2.2152
 3694SOL    HW222542   1.000   4.424  14.729 -0.8512 -2.7407  0.6305
 3695SOL     OW22543   0.340   2.803   6.075  0.3526 -0.0113  0.4102
 3695SOL    HW122544   0.373   2.713   6.075  3.2217  1.0266  2.0399
 3695SOL    HW222545   0.417   2.850   6.108  1.1255 -1.5034  0.7563
 3696SOL     OW22546   2.205   2.822  10.496 -0.0098 -0.4525 -0.0197
 3696SOL    HW122547   2.237   2.850  10.411  1.7063  0.3364  0.8771
 3696SOL    HW222548   2.222   2.730  10.479 -1.7010 -0.6565 -0.6044
 3697SOL     OW22549   3.711   2.873  12.327  0.3015 -0.6853 -0.1408
 3697SOL    HW122550   3.744   2.887  12.238  0.2806 -1.1598 -0.2219
 3697SOL    HW222551   3.616   2.874  12.311  0.8425 -0.0691 -3.2821
 3698SOL     OW22552   2.583   3.015   5.070  0.5975  0.3744 -0.0305
 3698SOL    HW122553   2.504   3.000   5.018  1.1842  3.1928 -1.7474
 3698SOL    HW222554   2.555   2.974   5.152  3.2833 -0.5034  0.4765
 3699SOL     OW22555   0.803   3.137   2.445 -0.0628  0.6125 -0.0301
 3699SOL    HW122556   0.878   3.193   2.425  0.2181 -0.6563 -2.5324
 3699SOL    HW222557   0.815   3.052   2.402  1.4122  1.1312 -0.6427
 3700SOL     OW22558   2.842   0.897   2.102 -0.4260  0.1858  0.0555
 3700SOL    HW122559   2.788   0.852   2.168  0.6906 -2.9540 -1.1820
 3700SOL    HW222560   2.922   0.900   2.155  0.2568 -3.9389 -0.7275
 3701SOL     OW22561   4.554   2.875  13.319  0.6780  0.6020 -0.1078
 3701SOL    HW122562   4.650   2.871  13.315  0.7182  2.9229 -1.1552
 3701SOL    HW222563   4.538   2.788  13.356 -2.2912  0.8497 -0.8491
 3702SOL     OW22564   3.472   0.658   3.067 -0.3868 -0.2834 -0.6253
 3702SOL    HW122565   3.502   0.735   3.116 -0.3838 -0.2569 -0.6686
 3702SOL    HW222566   3.495   0.675   2.975  2.5861  0.4305  0.2347
 3703SOL     OW22567   4.101   3.152   7.094  0.2541 -0.2115 -0.6284
 3703SOL    HW122568   4.142   3.235   7.072 -0.4686  0.1372 -0.6689
 3703SOL    HW222569   4.018   3.174   7.137  1.0271  0.3118  0.5897
 3704SOL     OW22570   1.974   1.595  14.286 -0.4817  0.4605  0.4194
 3704SOL    HW122571   2.033   1.668  14.267  1.2823 -1.2131 -0.5063
 3704SOL    HW222572   1.916   1.629  14.354 -2.1826 -1.5326 -0.0453
 3705SOL     OW22573   2.416   1.739  13.641  0.6063 -0.0293  0.2431
 3705SOL    HW122574   2.435   1.708  13.553 -0.7145 -0.1494  0.0077
 3705SOL    HW222575   2.385   1.660  13.684 -2.5778  1.0253 -0.1413
 3706SOL     OW22576   1.742   1.302   8.368  0.0036 -0.2487  0.1601
 3706SOL    HW122577   1.797   1.363   8.319 -0.3075 -0.1246 -0.0290
 3706SOL    HW222578   1.692   1.367   8.417 -1.3320  0.0238 -1.5943
 3707SOL     OW22579   3.418   0.399   5.372 -0.0993 -0.4826 -0.2529
 3707SOL    HW122580   3.510   0.382   5.392 -0.2793 -0.2341  0.7949
 3707SOL    HW222581   3.395   0.329   5.311 -0.3579 -0.5333 -0.0996
 3708SOL     OW22582   3.445   4.311   4.394  0.0733  0.0079 -0.3225
 3708SOL    HW122583   3.398   4.264   4.325  2.4224 -2.2307 -0.3910
 3708SOL    HW222584   3.536   4.291   4.373 -0.0156 -1.1249  0.3526
 3709SOL     OW22585   1.212   1.309   7.268  0.0547  0.4719  0.1004
 3709SOL    HW122586   1.302   1.339   7.282 -0.4606  0.6704  3.0812
 3709SOL    HW222587   1.225   1.313   7.173 -1.3785  0.6201 -0.0829
 3710SOL     OW22588   2.298   3.124   4.369  0.6239  0.4359  0.0277
 3710SOL    HW122589   2.314   3.214   4.343 -0.9605  1.2183  1.7484
 3710SOL    HW222590   2.208   3.129   4.400 -0.4021 -0.9550 -2.7394
 3711SOL     OW22591   0.819   0.469   6.073 -0.1814  0.4600 -0.0018
 3711SOL    HW122592   0.763   0.476   5.995 -0.4562 -1.9005 -0.0176
 3711SOL    HW222593   0.757   0.454   6.145 -0.6316 -0.1695 -0.5208
 3712SOL     OW22594   0.493   0.319   0.101 -0.4362 -0.0754  0.2629
 3712SOL    HW122595   0.511   0.243   0.046  1.6939 -0.9538  2.1477
 3712SOL    HW222596   0.484   0.278   0.187 -1.5986  0.3346  0.3327
 3713SOL     OW22597   2.255   4.532  10.082  0.1567  0.3923  0.2343
 3713SOL    HW122598   2.205   4.509  10.160 -1.5286 -1.5960 -1.4223
 3713SOL    HW222599   2.323   4.464  10.080  0.8698  1.1318 -0.8490
 3714SOL     OW22600   1.825   3.130   4.252  0.2145  0.0754 -0.2895
 3714SOL    HW122601   1.782   3.071   4.315 -0.9498  1.8496  0.5801
 3714SOL    HW222602   1.772   3.093   4.182  0.7105 -1.4480  0.1215
 3715SOL     OW22603   1.561   3.525   8.972 -0.0701 -0.2298 -0.2602
 3715SOL    HW122604   1.514   3.453   9.015  0.6040 -0.0531  0.7823
 3715SOL    HW222605   1.529   3.596   9.028  1.1790  2.1382 -2.5503
 3716SOL     OW22606   4.609   4.423   6.033 -0.4103 -0.0033  0.2673
 3716SOL    HW122607   4.637   4.508   6.067  0.6725 -0.3099  0.1387
 3716SOL    HW222608   4.524   4.443   5.994 -0.6996 -1.7544 -0.0004
 3717SOL     OW22609   3.773   2.076   4.713  0.1169  0.1127  0.0690
 3717SOL    HW122610   3.749   2.162   4.747 -0.7447  1.0750 -2.9926
 3717SOL    HW222611   3.743   2.079   4.622 -0.1929 -2.6415  0.0954
 3718SOL     OW22612   4.215   4.187   6.211  0.4590  0.7501 -0.3742
 3718SOL    HW122613   4.150   4.254   6.234  0.7056  0.6749  0.5767
 3718SOL    HW222614   4.217   4.199   6.116  1.9973  0.2741 -0.3962
 3719SOL     OW22615   4.158   1.835   6.534 -0.1408 -0.0149 -0.3049
 3719SOL    HW122616   4.165   1.754   6.485  0.2618  0.4912 -1.0730
 3719SOL    HW222617   4.141   1.897   6.463 -0.4360 -1.1407 -1.2085
 3720SOL     OW22618   3.100   0.915   3.074 -0.0592 -0.0572  0.0801
 3720SOL    HW122619   3.023   0.966   3.097 -0.8433 -1.2549  0.1070
 3720SOL    HW222620   3.068   0.826   3.086 -2.1744  0.3134 -2.7177
 3721SOL     OW22621   1.302   3.850  11.076  0.0826  0.0246  0.1850
 3721SOL    HW122622   1.397   3.838  11.080  0.3128  1.4761 -0.7985
 3721SOL    HW222623   1.278   3.922  11.134  1.5270 -0.0477  0.8735
 3722SOL     OW22624   4.495   2.519   3.764  0.3099 -0.1896  0.5487
 3722SOL    HW122625   4.546   2.504   3.843 -0.0921 -0.8508  0.6845
 3722SOL    HW222626   4.510   2.612   3.748  0.3651 -0.1845  0.6318
 3723SOL     OW22627   3.050   2.934   1.778 -0.2664 -0.4065 -0.2649
 3723SOL    HW122628   3.138   2.970   1.775 -1.5086  2.5980 -0.0040
 3723SOL    HW222629   3.053   2.877   1.855  2.0362 -0.2751 -0.2566
 3724SOL     OW22630   2.120   1.660   6.698  0.3248  0.5593  0.2585
 3724SOL    HW122631   2.060   1.710   6.643  0.8171  2.4341  1.4516
 3724SOL    HW222632   2.060   1.627   6.764 -0.6486  1.1274 -0.3419
 3725SOL     OW22633   0.473   1.474  12.938 -0.3819 -0.4932  0.4568
 3725SOL    HW122634   0.396   1.449  12.989 -0.0166 -0.1467  1.1784
 3725SOL    HW222635   0.493   1.563  12.968  1.0517 -0.3416 -0.9509
 3726SOL     OW22636   3.685   1.871   8.556 -0.4229  0.3482  0.2065
 3726SOL    HW122637   3.728   1.953   8.579 -0.5241  0.3657  0.3333
 3726SOL    HW222638   3.593   1.898   8.550 -0.0865  1.0990 -1.6457
 3727SOL     OW22639   2.500   0.011  15.288 -0.5083  0.0753  0.2558
 3727SOL    HW122640   2.556   4.656  15.293  0.3860  0.7817  1.3656
 3727SOL    HW222641   2.435   4.702  15.351 -0.2296 -0.0791  0.4708
 3728SOL     OW22642   2.365   2.382  16.305 -0.2170 -0.0750 -0.4322
 3728SOL    HW122643   2.349   2.409  16.215  0.5872  0.8536 -0.2942
 3728SOL    HW222644   2.343   2.462  16.353  1.0362 -0.2236  0.3854
 3729SOL     OW22645   1.153   4.428   2.323 -0.6891 -0.2092  0.6570
 3729SOL    HW122646   1.139   4.514   2.363  0.6658  0.5810 -0.5656
 3729SOL    HW222647   1.088   4.375   2.370 -1.3631 -0.7571 -0.8716
 3730SOL     OW22648   3.337   2.829   2.274  0.0722 -0.0275  0.1255
 3730SOL    HW122649   3.416   2.876   2.301  0.0824 -0.4115  0.7746
 3730SOL    HW222650   3.383   2.753   2.237  0.4442 -0.2930  1.1216
 3731SOL     OW22651   1.224   1.734   3.416  0.0458  0.2496  0.4116
 3731SOL    HW122652   1.224   1.829   3.412  0.2270  0.2085 -0.4093
 3731SOL    HW222653   1.159   1.706   3.353  1.2612 -0.4077 -0.5542
 3732SOL     OW22654   0.412   1.821  11.020  0.6391  0.0920 -0.0960
 3732SOL    HW122655   0.335   1.778  10.982  0.9738  0.1911 -0.8713
 3732SOL    HW222656   0.488   1.787  10.974  1.4314  2.1734 -0.2829
 3733SOL     OW22657   1.334   1.727   7.306 -0.1585 -0.2543 -0.1554
 3733SOL    HW122658   1.359   1.729   7.213  0.4887 -0.0891  0.0246
 3733SOL    HW222659   1.387   1.652   7.334 -0.5850 -0.8446 -0.9224
 3734SOL     OW22660   1.977   2.703   1.821  0.1935  0.2415  0.1731
 3734SOL    HW122661   1.898   2.756   1.821  0.8448  1.1992  1.4975
 3734SOL    HW222662   1.941   2.616   1.837  0.0769  0.4464  0.9981
 3735SOL     OW22663   0.225   0.400  15.322  0.7281 -0.1566  0.5791
 3735SOL    HW122664   0.185   0.464  15.262  0.3559 -1.0438 -0.1329
 3735SOL    HW222665   0.279   0.351  15.261 -1.8858 -0.6822 -1.3470
 3736SOL     OW22666   4.080   0.021   3.404  0.0882  0.1123 -0.4765
 3736SOL    HW122667   4.053   4.697   3.484 -2.5256  0.8036 -0.9576
 3736SOL    HW222668   4.069   4.670   3.343  0.5060 -0.0898 -0.3090
 3737SOL     OW22669   1.595   3.473   8.084 -0.5518 -0.2020 -0.6943
 3737SOL    HW122670   1.583   3.543   8.149  0.0545  1.5851 -2.5247
 3737SOL    HW222671   1.513   3.429   8.107 -1.6744  2.6213  0.7251
 3738SOL     OW22672   4.239   1.925   2.428  0.8570  0.4594 -0.0418
 3738SOL    HW122673   4.198   1.889   2.350 -1.5141  3.3481 -0.1373
 3738SOL    HW222674   4.171   1.900   2.491  1.4422 -0.6126  0.1679
 3739SOL     OW22675   0.272   3.750  12.686 -0.2578  0.0778 -0.4969
 3739SOL    HW122676   0.184   3.727  12.655 -0.3264 -0.2789 -0.0463
 3739SOL    HW222677   0.318   3.676  12.647 -0.4450  1.4233 -3.2008
 3740SOL     OW22678   2.378   3.042   1.485  0.4968 -0.0705  0.4894
 3740SOL    HW122679   2.453   3.100   1.500 -0.3484  0.7993  1.3390
 3740SOL    HW222680   2.330   3.084   1.413  1.8572 -2.1541 -1.6381
 3741SOL     OW22681   1.416   2.099  15.915  0.2979 -0.5695  0.3173
 3741SOL    HW122682   1.410   2.047  15.835 -1.1213  0.4432 -0.2326
 3741SOL    HW222683   1.449   2.033  15.976  1.6857 -0.1955 -0.0298
 3742SOL     OW22684   0.101   2.934   3.816 -0.0949 -0.6548 -0.0693
 3742SOL    HW122685   0.137   2.966   3.899  1.1892 -3.8219  0.6227
 3742SOL    HW222686   0.145   2.992   3.755 -0.8482  0.0295  0.0404
 3743SOL     OW22687   1.211   0.022   2.404  0.8017  0.4681 -0.1125
 3743SOL    HW122688   1.214   0.035   2.309  0.9369 -4.4412 -0.7333
 3743SOL    HW222689   1.283   0.084   2.417 -0.0114  1.3225  0.3142
 3744SOL     OW22690   0.518   3.629   5.474 -0.2814  0.5601  0.2408
 3744SOL    HW122691   0.447   3.691   5.491 -0.1899  0.9102 -0.6525
 3744SOL    HW222692   0.524   3.606   5.566 -2.1872  1.1808  0.5141
 3745SOL     OW22693   3.422   1.944   8.268 -0.5216  0.1291  0.6413
 3745SOL    HW122694   3.412   1.956   8.362  0.1676  1.2213  0.5835
 3745SOL    HW222695   3.405   1.850   8.268  1.7710 -0.2926 -1.9215
 3746SOL     OW22696   2.648   1.619  16.214  0.3334  0.2772  0.2035
 3746SOL    HW122697   2.701   1.550  16.253 -1.4177 -1.7108 -0.9347
 3746SOL    HW222698   2.572   1.563  16.203 -0.4744  1.7849 -2.0166
 3747SOL     OW22699   0.886   3.999   3.366  0.2336  0.2435  0.4188
 3747SOL    HW122700   0.901   4.080   3.415 -1.2978  1.6896 -1.5122
 3747SOL    HW222701   0.795   4.015   3.342 -0.0401 -0.4460  1.0265
 3748SOL     OW22702   0.380   2.624   9.013 -0.2519  0.2676  0.1025
 3748SOL    HW122703   0.353   2.659   8.928  1.5486  0.7652 -0.2529
 3748SOL    HW222704   0.294   2.590   9.039  0.1410 -0.9607 -0.1835
 3749SOL     OW22705   1.664   4.179   6.378 -0.1009  0.3228 -0.0004
 3749SOL    HW122706   1.713   4.165   6.459 -1.9529 -3.1177  0.5004
 3749SOL    HW222707   1.587   4.225   6.411  0.0846  1.6803 -1.4409
 3750SOL     OW22708   2.977   4.658   0.514 -0.5669 -0.1323  0.2539
 3750SOL    HW122709   3.043   4.682   0.448 -1.1397  0.5929 -0.0526
 3750SOL    HW222710   3.025   4.647   0.596 -0.4786  1.3062  0.3897
 3751SOL     OW22711   3.523   1.363   1.354  0.0286 -0.2357 -0.6398
 3751SOL    HW122712   3.558   1.450   1.375  0.0333 -0.1298 -1.0803
 3751SOL    HW222713   3.529   1.354   1.259 -1.9392 -1.4208 -0.6490
 3752SOL     OW22714   4.351   0.053   3.508 -0.0098 -0.2622 -0.5536
 3752SOL    HW122715   4.340   0.136   3.461  1.4566 -1.0287 -2.2252
 3752SOL    HW222716   4.261   0.021   3.508 -0.5915  1.3187  0.5022
 3753SOL     OW22717   3.660   0.471   4.452  0.1175 -0.1405  0.4325
 3753SOL    HW122718   3.628   0.409   4.518 -1.5572 -0.3434 -0.5846
 3753SOL    HW222719   3.739   0.425   4.425  0.7833  1.6290 -0.6059
 3754SOL     OW22720   0.566   1.988  15.492  0.3903 -0.0257  0.3885
 3754SOL    HW122721   0.616   2.067  15.471 -0.1394  0.1894 -0.0678
 3754SOL    HW222722   0.585   1.937  15.413 -0.5671  1.8110 -1.0577
 3755SOL     OW22723   3.662   4.010  10.267 -0.1948  0.0427 -0.4798
 3755SOL    HW122724   3.662   4.091  10.217 -1.2769  0.7194  0.6054
 3755SOL    HW222725   3.710   4.025  10.348  0.8244  0.8343 -1.2419
 3756SOL     OW22726   0.542   2.578   3.122  0.3830 -0.1431  0.3410
 3756SOL    HW122727   0.456   2.536   3.133 -0.4614  1.5546  0.2426
 3756SOL    HW222728   0.569   2.568   3.031 -0.4373  1.3744 -0.0570
 3757SOL     OW22729   2.703   1.065  12.011  0.0567  0.4036 -0.1067
 3757SOL    HW122730   2.745   1.052  11.926  2.1544  1.1052  0.8326
 3757SOL    HW222731   2.748   1.145  12.037 -1.8966  1.7727 -0.9704
 3758SOL     OW22732   3.297   0.208   2.851  0.6519 -0.3331  0.0546
 3758SOL    HW122733   3.304   0.302   2.836 -1.3706 -0.2165 -0.2325
 3758SOL    HW222734   3.312   0.179   2.761 -0.4277 -0.7963  0.0177
 3759SOL     OW22735   3.251   2.710   6.266  0.3545  0.0829  0.3441
 3759SOL    HW122736   3.338   2.702   6.226 -0.3725  0.1465 -1.2338
 3759SOL    HW222737   3.273   2.790   6.313  2.8668  0.0640 -0.7960
 3760SOL     OW22738   1.321   2.992   3.187  0.0720 -0.4580  0.0139
 3760SOL    HW122739   1.302   2.960   3.100  0.5884 -0.0925 -0.2353
 3760SOL    HW222740   1.389   2.930   3.212 -0.4279 -0.6910  0.8045
 3761SOL     OW22741   2.960   2.583  16.166  0.1529  0.1712  0.7073
 3761SOL    HW122742   2.866   2.600  16.161  0.3172  0.1232 -2.2698
 3761SOL    HW222743   2.993   2.664  16.206  0.7898  0.1866  0.1525
 3762SOL     OW22744   0.418   2.670  13.289 -0.5008  0.0786 -0.0158
 3762SOL    HW122745   0.454   2.610  13.224  0.6311  3.6184 -2.6555
 3762SOL    HW222746   0.500   2.696  13.330 -0.5793 -1.3889  1.1104
 3763SOL     OW22747   3.133   4.099   4.219 -0.2450  0.3367  0.3826
 3763SOL    HW122748   3.117   4.139   4.304 -2.5071 -0.8023  0.4827
 3763SOL    HW222749   3.067   4.029   4.221  0.7690 -0.5898  1.0152
 3764SOL     OW22750   0.184   3.871   6.869 -0.2374 -0.0399  0.4055
 3764SOL    HW122751   0.249   3.917   6.923  0.1555 -0.5185  0.3445
 3764SOL    HW222752   0.114   3.936   6.867  0.4048  0.6253 -0.7928
 3765SOL     OW22753   2.756   2.197   3.314 -0.2208  0.9016  0.4162
 3765SOL    HW122754   2.770   2.106   3.287  1.4494  1.5261 -0.8123
 3765SOL    HW222755   2.666   2.205   3.283  0.2538  0.6560 -1.0458
 3766SOL     OW22756   1.612   1.415   7.623  0.2543 -0.2451 -0.2771
 3766SOL    HW122757   1.519   1.431   7.606 -0.0902 -1.6391  0.3439
 3766SOL    HW222758   1.646   1.504   7.610 -0.3634  0.0641  0.2495
 3767SOL     OW22759   2.187   2.644   1.468 -0.6280 -0.1237 -0.8253
 3767SOL    HW122760   2.172   2.703   1.394 -1.7212  0.1781 -0.3528
 3767SOL    HW222761   2.184   2.703   1.543 -1.4752 -0.9127 -0.2473
 3768SOL     OW22762   2.122   1.423  13.595 -0.5428  0.0108  0.1064
 3768SOL    HW122763   2.185   1.438  13.666 -0.9671  0.8575  0.3024
 3768SOL    HW222764   2.114   1.514  13.567  0.8352  0.5798  1.5159
 3769SOL     OW22765   3.351   2.249   3.134  0.2762  0.1245 -0.2776
 3769SOL    HW122766   3.262   2.232   3.166  1.1323 -1.8109  1.0566
 3769SOL    HW222767   3.351   2.341   3.107  1.5633 -0.2873 -1.6444
 3770SOL     OW22768   4.336   2.301   2.983 -0.2194  0.2988  0.5010
 3770SOL    HW122769   4.359   2.327   2.894 -0.8498 -0.5880  0.0787
 3770SOL    HW222770   4.390   2.353   3.043 -0.3201  2.6318 -1.4832
 3771SOL     OW22771   0.680   1.304  12.918  0.4295  0.3736  0.3825
 3771SOL    HW122772   0.678   1.289  13.012  1.6816  0.5120  0.4258
 3771SOL    HW222773   0.604   1.362  12.910 -0.3117 -0.5351  0.8233
 3772SOL     OW22774   3.006   4.544   4.022 -0.6068 -0.2680 -0.0567
 3772SOL    HW122775   3.030   4.629   4.058 -2.2722 -0.1841  0.8319
 3772SOL    HW222776   2.928   4.521   4.072 -1.1505  1.9268  0.0888
 3773SOL     OW22777   0.587   4.185   3.000  0.3901  0.5935  0.1213
 3773SOL    HW122778   0.623   4.152   2.918  1.4923  0.5886  0.6169
 3773SOL    HW222779   0.635   4.266   3.013  0.6736  0.5395 -0.6241
 3774SOL     OW22780   4.268   0.506  17.059 -0.0922 -0.1370  0.4819
 3774SOL    HW122781   4.264   0.580  17.120 -3.8930  1.5313 -1.8068
 3774SOL    HW222782   4.200   0.538  17.001 -0.2903  2.2122  2.0024
 3775SOL     OW22783   4.305   4.075   3.569  0.5237 -0.4621 -0.7584
 3775SOL    HW122784   4.268   4.136   3.633  0.2931 -0.8458 -0.5212
 3775SOL    HW222785   4.357   4.028   3.634  0.7023  1.2756  0.3391
 3776SOL     OW22786   3.877   4.465   7.811  0.4765 -0.0823 -0.2339
 3776SOL    HW122787   3.914   4.535   7.865  0.7774 -1.0005  0.7459
 3776SOL    HW222788   3.786   4.495   7.816 -0.0944 -1.7083 -0.8228
 3777SOL     OW22789   1.320   0.301   2.767  0.1540  0.4772  0.3406
 3777SOL    HW122790   1.334   0.224   2.822 -3.3245  0.5195  1.3040
 3777SOL    HW222791   1.333   0.382   2.817 -1.2460 -0.0262  1.5155
 3778SOL     OW22792   2.303   3.520   6.772 -0.1410  0.3584 -0.6337
 3778SOL    HW122793   2.263   3.448   6.725 -1.6845 -0.4305  1.8963
 3778SOL    HW222794   2.223   3.552   6.814  0.5045 -0.9904  1.5972
 3779SOL     OW22795   2.346   2.220   2.137  0.8218  0.3040  0.3089
 3779SOL    HW122796   2.259   2.201   2.102  1.3238 -1.1574 -0.1365
 3779SOL    HW222797   2.354   2.314   2.120 -0.1269 -0.0688 -2.2087
 3780SOL     OW22798   2.524   0.128   3.050  0.4484 -0.1400 -0.3755
 3780SOL    HW122799   2.443   0.180   3.054  0.8191  0.7244 -3.9359
 3780SOL    HW222800   2.491   0.039   3.061  2.6937 -0.5938  2.6000
 3781SOL     OW22801   1.802   3.540   1.623  0.5303 -0.2070 -0.1136
 3781SOL    HW122802   1.740   3.586   1.566 -0.0495 -0.7265  0.0961
 3781SOL    HW222803   1.738   3.535   1.694 -0.7894  1.6048 -1.1560
 3782SOL     OW22804   0.216   3.546   8.888  0.3273  0.2760 -0.5028
 3782SOL    HW122805   0.126   3.544   8.921  0.7372 -0.7027  0.5868
 3782SOL    HW222806   0.214   3.637   8.859  3.5146  0.6378  0.4703
 3783SOL     OW22807   1.081   1.517  12.986 -0.1140 -0.0275  0.3218
 3783SOL    HW122808   1.104   1.595  13.036 -1.1103 -0.7270  1.8775
 3783SOL    HW222809   1.064   1.455  13.057  1.2095 -0.5762  0.1515
 3784SOL     OW22810   2.982   2.630   6.903  0.3681  0.0270 -0.1233
 3784SOL    HW122811   2.949   2.605   6.989  0.4553  0.3386 -0.0005
 3784SOL    HW222812   2.908   2.680   6.869  2.3715  2.4310 -0.9383
 3785SOL     OW22813   2.461   3.353   2.862  0.0646  0.5580 -0.4848
 3785SOL    HW122814   2.419   3.317   2.940  2.5850  1.9522  1.5404
 3785SOL    HW222815   2.415   3.437   2.856 -0.7794  0.2829  2.1957
 3786SOL     OW22816   1.695   1.490  12.589  0.3109  0.3886  0.2669
 3786SOL    HW122817   1.684   1.570  12.640 -3.1152 -0.0879  0.2559
 3786SOL    HW222818   1.670   1.424  12.653  1.2779 -1.7638 -1.5872
 3787SOL     OW22819   2.491   1.423   6.004  0.6243  0.3755  0.1259
 3787SOL    HW122820   2.587   1.414   6.000  0.4905 -0.7300 -0.6590
 3787SOL    HW222821   2.466   1.500   5.953  3.7414  1.5585  0.3580
 3788SOL     OW22822   4.597   4.160   9.097  0.0538  0.2459  0.2940
 3788SOL    HW122823   4.648   4.240   9.106  0.2371  0.1274  0.2919
 3788SOL    HW222824   4.560   4.145   9.010 -0.3056 -0.3123  0.5393
 3789SOL     OW22825   3.811   4.384   8.427 -0.3860  0.2123 -0.4062
 3789SOL    HW122826   3.758   4.309   8.454 -2.1702  1.4960 -0.3874
 3789SOL    HW222827   3.749   4.456   8.423 -1.0532 -0.3793 -0.6356
 3790SOL     OW22828   1.589   0.091   5.937  0.2856  0.0759 -0.1662
 3790SOL    HW122829   1.649   0.037   5.989 -1.1323 -0.2039  1.1919
 3790SOL    HW222830   1.546   0.141   6.007 -0.5609 -0.2028 -0.4837
 3791SOL     OW22831   0.782   3.872   6.069  0.0071  0.2826 -0.7317
 3791SOL    HW122832   0.720   3.931   6.026  1.2066  2.5995  0.7203
 3791SOL    HW222833   0.775   3.890   6.163  1.1588 -2.1675 -0.1729
 3792SOL     OW22834   1.277   4.068   9.423 -0.2408  0.4138  0.7830
 3792SOL    HW122835   1.306   4.144   9.472 -1.0128  0.9576  0.4014
 3792SOL    HW222836   1.323   4.079   9.339 -1.3652 -2.5630 -0.2555
 3793SOL     OW22837   4.481   4.103  11.937 -0.0344 -0.2726 -0.1179
 3793SOL    HW122838   4.552   4.164  11.919 -0.2006  0.1568  0.6699
 3793SOL    HW222839   4.489   4.099  12.032  1.8326 -1.9866 -0.3523
 3794SOL     OW22840   0.346   1.420   5.888 -0.0711  0.3078  0.0978
 3794SOL    HW122841   0.349   1.325   5.877  2.8093  0.3625  0.1906
 3794SOL    HW222842   0.335   1.424   5.983  0.9224  0.6634  0.1994
 3795SOL     OW22843   4.392   0.263  17.294 -0.1364  0.2993  0.7420
 3795SOL    HW122844   4.324   0.229  17.235  1.6168  0.4787 -1.3803
 3795SOL    HW222845   4.340   0.319  17.352  1.3373  0.8906  1.4847
 3796SOL     OW22846   4.198   3.070  14.163  0.4590  0.9809 -0.4165
 3796SOL    HW122847   4.129   3.017  14.203 -0.3318  2.2840 -0.0355
 3796SOL    HW222848   4.222   3.137  14.227  1.8069  0.7937 -0.7260
 3797SOL     OW22849   1.314   3.877   9.675 -0.0811  0.0541 -0.1066
 3797SOL    HW122850   1.300   3.940   9.604 -0.5350  0.2662  0.1722
 3797SOL    HW222851   1.267   3.801   9.640 -1.2899  0.9665 -0.5029
 3798SOL     OW22852   4.400   1.307   5.974  0.2341  0.4661  0.0575
 3798SOL    HW122853   4.423   1.388   6.019  1.5577  2.1478 -3.5994
 3798SOL    HW222854   4.306   1.323   5.966  0.8392  3.8206 -0.4546
 3799SOL     OW22855   3.650   0.779   2.054  0.3266  0.4095  0.2373
 3799SOL    HW122856   3.718   0.743   2.111 -0.6417 -1.2118  0.3599
 3799SOL    HW222857   3.568   0.747   2.093 -0.5164  0.8997 -1.1479
 3800SOL     OW22858   0.061   4.418  15.142  0.0060  0.2740 -0.5573
 3800SOL    HW122859   0.084   4.336  15.187 -2.1483  0.5576  1.0437
 3800SOL    HW222860   0.109   4.400  15.061 -0.1708 -2.0582 -0.1420
 3801SOL     OW22861   3.881   2.874   3.388 -0.1131 -0.3305 -0.0099
 3801SOL    HW122862   3.906   2.932   3.316 -1.5571  1.7538  1.1749
 3801SOL    HW222863   3.852   2.938   3.453 -0.6303 -0.2293 -0.3425
 3802SOL     OW22864   1.001   2.582   7.183 -0.0723  0.6100 -0.3882
 3802SOL    HW122865   0.933   2.517   7.203  0.0576  1.0215  1.3633
 3802SOL    HW222866   1.077   2.569   7.239 -1.0478 -1.7342  0.4015
 3803SOL     OW22867   2.554   1.526   8.534  0.1033  0.2276  0.3483
 3803SOL    HW122868   2.624   1.488   8.480  0.8921  1.9498  0.1541
 3803SOL    HW222869   2.608   1.520   8.613  0.0087  1.7968  0.5387
 3804SOL     OW22870   1.984   0.119   1.610 -0.0542 -0.3103  0.1774
 3804SOL    HW122871   2.017   0.082   1.692 -0.7801 -4.9279 -1.6319
 3804SOL    HW222872   2.020   0.208   1.616 -0.6510 -0.0844  0.4492
 3805SOL     OW22873   2.204   0.161   8.291 -0.1115  0.4271  0.0392
 3805SOL    HW122874   2.198   0.086   8.232 -0.3807  2.7314 -2.8440
 3805SOL    HW222875   2.180   0.235   8.235  2.1734  3.2290  2.7276
 3806SOL     OW22876   4.581   2.686   8.687 -0.0035  0.2204 -0.0154
 3806SOL    HW122877   4.492   2.678   8.654  0.0785 -0.6189 -0.0325
 3806SOL    HW222878   4.620   2.734   8.614 -0.1134  0.7231  0.2580
 3807SOL     OW22879   3.790   0.983   8.880 -0.2090  0.0834 -0.5676
 3807SOL    HW122880   3.715   0.977   8.939  0.2738  0.7146  0.1107
 3807SOL    HW222881   3.855   0.993   8.950 -2.5650 -0.7851  1.7372
 3808SOL     OW22882   3.454   0.120   1.416  0.0135  0.1750 -0.0101
 3808SOL    HW122883   3.542   0.096   1.385  0.0363 -1.0643  1.0228
 3808SOL    HW222884   3.438   0.176   1.340 -0.0971 -0.3899 -0.4019
 3809SOL     OW22885   1.003   2.739   9.743  0.6289  0.3297  0.2949
 3809SOL    HW122886   1.018   2.678   9.816  0.6693  1.4301  1.2059
 3809SOL    HW222887   1.007   2.826   9.782  1.3045 -0.2712  1.5901
 3810SOL     OW22888   2.547   1.723   5.971 -0.4160 -0.0071  0.3174
 3810SOL    HW122889   2.604   1.740   5.896 -1.3360 -1.8585 -0.8043
 3810SOL    HW222890   2.600   1.759   6.043  2.7859 -1.3325 -1.3477
 3811SOL     OW22891   4.318   4.345   9.189  0.8160  0.2081 -0.2251
 3811SOL    HW122892   4.283   4.348   9.100 -0.0292 -2.4033  0.0097
 3811SOL    HW222893   4.319   4.250   9.202 -1.1407  0.2432  0.2842
 3812SOL     OW22894   4.098   3.990  10.954  0.5648 -0.2394  0.2520
 3812SOL    HW122895   4.185   4.011  10.986  0.3397  1.7364 -0.3692
 3812SOL    HW222896   4.109   3.937  10.875 -0.8493  0.3050 -0.3158
 3813SOL     OW22897   2.887   3.991   6.971  0.7763  0.1853  0.0124
 3813SOL    HW122898   2.825   3.955   7.035  0.5942 -0.4474 -0.5137
 3813SOL    HW222899   2.836   4.067   6.944 -0.5412 -1.3030 -1.7126
 3814SOL     OW22900   3.179   2.783   3.944 -0.4066  0.0006  0.9289
 3814SOL    HW122901   3.099   2.791   3.892  0.6220  0.3893 -0.5982
 3814SOL    HW222902   3.163   2.841   4.018  0.0284  1.5813 -0.2185
 3815SOL     OW22903   3.881   3.692   5.926  0.0911 -0.5117 -0.4795
 3815SOL    HW122904   3.844   3.603   5.925 -0.3846 -0.3109 -0.6498
 3815SOL    HW222905   3.847   3.734   5.847 -0.1707  0.5305  0.1945
 3816SOL     OW22906   3.757   0.278   5.779  0.0857  0.5047 -0.1783
 3816SOL    HW122907   3.716   0.350   5.731 -1.0980 -0.6329 -0.8911
 3816SOL    HW222908   3.683   0.219   5.796  1.7739 -0.6537  3.2081
 3817SOL     OW22909   2.106   4.524  11.451 -0.2155 -0.2760 -0.0697
 3817SOL    HW122910   2.128   4.518  11.358  0.0370  1.3966 -0.1284
 3817SOL    HW222911   2.150   4.606  11.474  0.3169 -0.3290 -0.8957
 3818SOL     OW22912   0.456   1.705   8.034 -0.2324 -0.0144 -0.5011
 3818SOL    HW122913   0.540   1.712   7.988 -0.8829 -0.4495 -1.7581
 3818SOL    HW222914   0.409   1.775   7.990 -0.7323  0.9449  1.5436
 3819SOL     OW22915   3.663   0.614   2.296  0.5875 -0.1635  0.1693
 3819SOL    HW122916   3.680   0.549   2.365 -1.9862  2.2111  3.0401
 3819SOL    HW222917   3.588   0.658   2.337  1.2547  2.7034 -1.6835
 3820SOL     OW22918   0.532   2.880   5.233  0.0869  0.0700 -0.0424
 3820SOL    HW122919   0.501   2.849   5.148  0.3975 -2.3905  0.7506
 3820SOL    HW222920   0.607   2.932   5.204 -0.1863  1.3134  1.4577
 3821SOL     OW22921   4.053   1.964  10.411 -0.6253  0.0151  0.4293
 3821SOL    HW122922   3.963   1.996  10.409 -1.3944 -2.1676  0.1548
 3821SOL    HW222923   4.081   1.981  10.321  2.2448 -0.1718  1.2970
 3822SOL     OW22924   0.847   0.470   1.300  0.3760 -0.0360  0.0871
 3822SOL    HW122925   0.847   0.503   1.390 -0.0484  1.7369 -0.5689
 3822SOL    HW222926   0.838   0.375   1.308  0.7873 -0.1695 -1.0006
 3823SOL     OW22927   4.458   0.712  15.221 -0.4504  0.3350  0.3030
 3823SOL    HW122928   4.439   0.767  15.145  2.8508  1.3422  0.2354
 3823SOL    HW222929   4.452   0.622  15.188  1.2534  0.9396 -1.6778
 3824SOL     OW22930   3.959   3.033   3.138 -0.2586  0.5527  0.0884
 3824SOL    HW122931   4.026   2.967   3.121 -0.0273  0.6816  0.5101
 3824SOL    HW222932   4.014   3.111   3.129  1.8002 -0.8861  0.2731
 3825SOL     OW22933   1.693   0.251   8.738 -0.4674  0.2860 -0.1137
 3825SOL    HW122934   1.609   0.210   8.759 -0.8489  1.2505  0.2714
 3825SOL    HW222935   1.692   0.344   8.763 -1.9689  0.4261 -0.6801
 3826SOL     OW22936   1.502   4.247  15.285  0.1443  0.7002 -0.2609
 3826SOL    HW122937   1.472   4.325  15.238 -1.8375 -0.6840 -1.3112
 3826SOL    HW222938   1.479   4.177  15.224  1.1083 -0.5381  0.8075
 3827SOL     OW22939   2.002   1.130  11.167  0.2256  0.3512 -0.1988
 3827SOL    HW122940   2.036   1.095  11.085 -0.8738 -0.6824 -0.2146
 3827SOL    HW222941   2.036   1.064  11.227 -0.5057  0.9537  0.8784
 3828SOL     OW22942   4.667   3.143   3.696  0.2237 -0.0443 -0.2388
 3828SOL    HW122943   4.659   3.098   3.612  2.0057 -2.3566  0.8404
 3828SOL    HW222944   4.582   3.187   3.703  0.9809  0.9968  2.6439
 3829SOL     OW22945   0.202   4.265  10.213  0.3426 -0.2218  0.1454
 3829SOL    HW122946   0.289   4.258  10.252  0.0332  0.4717  0.9471
 3829SOL    HW222947   0.154   4.255  10.295  0.1427 -2.2725 -0.2084
 3830SOL     OW22948   0.286   2.890  13.275 -0.4658 -0.1038  0.5513
 3830SOL    HW122949   0.314   2.929  13.192 -1.9229 -0.3617 -0.0719
 3830SOL    HW222950   0.336   2.809  13.285 -0.7206 -0.5855 -2.2185
 3831SOL     OW22951   1.094   1.769   3.164  0.8575 -0.5438 -0.3047
 3831SOL    HW122952   1.054   1.693   3.122 -2.6218  0.4688  1.1842
 3831SOL    HW222953   1.068   1.830   3.094 -2.3242  0.5185  1.8278
 3832SOL     OW22954   0.501   3.418  15.557  0.6407  0.3878  0.0400
 3832SOL    HW122955   0.506   3.352  15.626  1.6245 -0.5908 -0.9651
 3832SOL    HW222956   0.568   3.481  15.585 -0.5008  0.9385  1.4684
 3833SOL     OW22957   3.229   0.595   2.373 -0.2148 -0.2278  0.0968
 3833SOL    HW122958   3.193   0.508   2.389  2.0177 -1.1581  0.0451
 3833SOL    HW222959   3.158   0.649   2.409 -0.8323 -0.6840 -0.4249
 3834SOL     OW22960   2.490   1.755   9.382  0.5164 -0.8924  0.1003
 3834SOL    HW122961   2.472   1.697   9.308  0.5901  1.3957 -1.6877
 3834SOL    HW222962   2.506   1.687   9.447  0.4891 -0.6127  0.3991
 3835SOL     OW22963   0.158   2.698   2.731  0.7435 -0.4225 -0.1285
 3835SOL    HW122964   0.110   2.616   2.723  3.5033 -2.0850  0.5478
 3835SOL    HW222965   0.236   2.674   2.781  0.7180 -1.4354 -0.5862
 3836SOL     OW22966   0.158   3.355  15.528  0.3597 -0.2596  0.0227
 3836SOL    HW122967   0.191   3.309  15.605 -2.2031 -3.0881 -0.5516
 3836SOL    HW222968   0.072   3.316  15.512  0.9538 -0.9661 -1.4423
 3837SOL     OW22969   2.651   3.851   3.624  0.0840  0.3835  0.0621
 3837SOL    HW122970   2.666   3.810   3.709  0.9785  2.2030  0.7738
 3837SOL    HW222971   2.737   3.885   3.599  0.9194 -1.4252  0.4793
 3838SOL     OW22972   4.171   1.497  16.959  0.2347 -0.4368 -0.6149
 3838SOL    HW122973   4.079   1.513  16.938  0.2400  1.6800  0.9240
 3838SOL    HW222974   4.182   1.420  16.903  1.6027 -0.5210 -0.2287
 3839SOL     OW22975   0.413   3.184  14.924  0.8027  0.3642  0.0290
 3839SOL    HW122976   0.364   3.151  14.848 -0.7642  1.2556  0.6501
 3839SOL    HW222977   0.424   3.102  14.973 -1.6805 -0.0217 -0.0564
 3840SOL     OW22978   0.919   1.846   7.259 -0.0565  0.6907  0.1197
 3840SOL    HW122979   0.840   1.894   7.238 -0.0198  0.2661 -0.9862
 3840SOL    HW222980   0.992   1.882   7.209  0.8267 -1.2687 -0.0401
 3841SOL     OW22981   3.714   3.465   4.521  0.1836  0.2351  0.2921
 3841SOL    HW122982   3.695   3.379   4.484  1.6825 -0.5835  1.4057
 3841SOL    HW222983   3.641   3.516   4.487  0.1196  1.1098  1.7811
 3842SOL     OW22984   0.344   3.236  12.194  0.1130  0.0426  0.1310
 3842SOL    HW122985   0.304   3.151  12.178 -0.6326  0.0942  1.8085
 3842SOL    HW222986   0.296   3.301  12.143  3.9046  2.5657 -0.3016
 3843SOL     OW22987   1.031   1.912   2.932  0.3627  0.1146 -0.3749
 3843SOL    HW122988   0.962   1.878   2.874  0.0283  1.2620 -0.6414
 3843SOL    HW222989   1.032   2.006   2.913  2.7285  0.3369  0.8397
 3844SOL     OW22990   0.992   2.302  16.529  0.0557 -0.1425 -0.4187
 3844SOL    HW122991   1.071   2.254  16.504 -0.3968 -0.8774 -0.4320
 3844SOL    HW222992   1.018   2.394  16.529  2.5591 -0.8532  1.1236
 3845SOL     OW22993   4.648   4.234   8.708 -0.3524  0.6182 -0.0616
 3845SOL    HW122994   4.597   4.206   8.632 -0.7522 -0.8841  0.7607
 3845SOL    HW222995   4.606   4.172   8.769  1.6603  0.0726  0.7628
 3846SOL     OW22996   4.369   3.950   7.846 -0.2441 -0.0550  0.5501
 3846SOL    HW122997   4.447   3.904   7.876 -1.8511 -2.0127  1.6773
 3846SOL    HW222998   4.302   3.905   7.897 -1.3183  0.4566 -0.3791
 3847SOL     OW22999   0.544   1.479   5.435 -0.6881 -0.4953 -0.1074
 3847SOL    HW123000   0.560   1.492   5.528  2.1154  1.4498 -0.8626
 3847SOL    HW223001   0.625   1.519   5.403 -1.9142  1.4186 -0.8117
 3848SOL     OW23002   1.051   2.997  12.823  0.5281  0.0008 -0.6030
 3848SOL    HW123003   1.074   2.927  12.761 -1.9852 -1.3469  0.0019
 3848SOL    HW223004   1.047   3.064  12.754  1.8664  0.2296 -0.4596
 3849SOL     OW23005   1.460   2.848   4.501 -0.6612 -0.0895  0.3717
 3849SOL    HW123006   1.427   2.787   4.434 -0.3764 -0.9211  0.9787
 3849SOL    HW223007   1.475   2.777   4.564 -2.5941 -0.8352 -0.0091
 3850SOL     OW23008   0.762   0.965   7.839 -0.0072 -0.2391  0.3905
 3850SOL    HW123009   0.703   1.029   7.878 -0.3929 -1.6481  2.0967
 3850SOL    HW223010   0.704   0.891   7.824 -0.4961 -0.0694  1.4608
 3851SOL     OW23011   1.605   2.965   4.757  0.1006  0.5036  0.1084
 3851SOL    HW123012   1.605   3.020   4.835 -0.4217  2.9904 -1.6689
 3851SOL    HW223013   1.626   3.027   4.687  1.9242 -1.9968 -1.5718
 3852SOL     OW23014   4.636   3.053   8.140  0.0338 -1.0764  0.7190
 3852SOL    HW123015   4.542   3.047   8.157 -0.0188 -1.8813  0.1569
 3852SOL    HW223016   4.675   3.047   8.227  2.3275  1.0812 -0.1523
 3853SOL     OW23017   3.618   4.341   1.202  0.7555 -0.2303  0.1344
 3853SOL    HW123018   3.535   4.389   1.205  0.2385 -1.2448  1.8873
 3853SOL    HW223019   3.671   4.401   1.255  0.7522  1.3858 -1.6934
 3854SOL     OW23020   2.228   2.706   0.684 -0.1574  0.3456 -0.3734
 3854SOL    HW123021   2.299   2.769   0.694 -1.4080  1.8059 -0.7553
 3854SOL    HW223022   2.277   2.627   0.707 -1.0464  0.5748  2.2735
 3855SOL     OW23023   4.029   3.025   2.853  0.8134 -0.3184 -0.0155
 3855SOL    HW123024   4.114   2.986   2.832  0.2005  0.6579 -4.2965
 3855SOL    HW223025   3.968   3.004   2.783 -0.4978  1.2949  0.6331
 3856SOL     OW23026   2.564   2.404   7.810 -0.3262  0.1221  0.1292
 3856SOL    HW123027   2.589   2.408   7.718 -2.6716  1.4852 -0.4534
 3856SOL    HW223028   2.622   2.470   7.848 -0.6575 -0.0629  0.9741
 3857SOL     OW23029   2.689   4.346   9.732  1.1935 -0.1444 -0.1203
 3857SOL    HW123030   2.766   4.307   9.774  1.3371  2.0024  1.6117
 3857SOL    HW223031   2.662   4.287   9.663 -2.3466  1.1708  0.1103
 3858SOL     OW23032   2.889   4.502  13.693 -0.4644 -0.0306 -0.2756
 3858SOL    HW123033   2.810   4.518  13.746 -0.6179 -0.3171 -0.4131
 3858SOL    HW223034   2.960   4.546  13.739 -0.0237 -0.9855 -0.0422
 3859SOL     OW23035   0.386   0.945  11.232  0.2064 -0.0376 -0.5256
 3859SOL    HW123036   0.376   0.854  11.204  0.0075 -0.0176 -0.5178
 3859SOL    HW223037   0.335   0.988  11.164 -0.7831  0.6342  0.6469
 3860SOL     OW23038   1.338   0.967   2.681  0.1295 -0.3224 -0.6662
 3860SOL    HW123039   1.336   1.015   2.598 -0.4885 -0.8351 -0.9533
 3860SOL    HW223040   1.303   1.035   2.738 -0.0532  0.1793 -1.3717
 3861SOL     OW23041   1.396   0.594   6.196 -0.2099 -0.1611  0.1329
 3861SOL    HW123042   1.414   0.567   6.106  0.3269  2.5801 -0.5703
 3861SOL    HW223043   1.453   0.669   6.209 -0.0600 -0.0903 -0.9410
 3862SOL     OW23044   0.599   1.768  16.913  0.4179  0.4466  0.2235
 3862SOL    HW123045   0.678   1.737  16.869  1.5977  1.0525  1.9178
 3862SOL    HW223046   0.566   1.680  16.929  1.8955 -0.4917 -1.8953
 3863SOL     OW23047   1.264   4.558   7.704 -0.0636 -0.0257 -0.1724
 3863SOL    HW123048   1.258   4.652   7.722 -0.2485 -0.4355  1.8887
 3863SOL    HW223049   1.338   4.538   7.762  0.3084  1.0017 -0.2922
 3864SOL     OW23050   3.142   4.257   8.985 -0.5745 -0.0249  0.4362
 3864SOL    HW123051   3.173   4.219   8.902  1.6313  0.6588  0.9423
 3864SOL    HW223052   3.046   4.261   8.979 -0.5656 -0.8799 -0.2404
 3865SOL     OW23053   3.479   2.919  17.038  0.6442 -0.0977 -0.0785
 3865SOL    HW123054   3.558   2.951  16.996  0.5378 -0.9677 -0.9649
 3865SOL    HW223055   3.448   2.856  16.972  0.3846 -0.9553  0.8537
 3866SOL     OW23056   1.609   4.320   7.475 -0.6424  0.0587  0.4066
 3866SOL    HW123057   1.523   4.358   7.488  0.5128  3.3453 -1.4564
 3866SOL    HW223058   1.658   4.395   7.440 -0.1541  1.2421  3.6101
 3867SOL     OW23059   0.924   4.007   5.170 -0.1136  0.0423  0.0583
 3867SOL    HW123060   0.866   4.008   5.094  0.1642 -0.5808 -0.1559
 3867SOL    HW223061   1.009   3.991   5.129 -0.9361 -0.6578 -1.4022
 3868SOL     OW23062   2.390   0.005   3.552 -0.2576  0.0713 -0.1507
 3868SOL    HW123063   2.295   0.008   3.558 -0.2153 -0.3786  0.7095
 3868SOL    HW223064   2.409   0.066   3.622 -1.0665 -1.1122  1.0887
 3869SOL     OW23065   2.740   2.696  15.467 -0.1791 -0.3009  0.0605
 3869SOL    HW123066   2.647   2.718  15.468 -0.1436 -0.1398 -0.0735
 3869SOL    HW223067   2.752   2.701  15.562 -2.0141  3.3308  0.0747
 3870SOL     OW23068   4.334   1.176   6.281  0.3955  0.6333 -0.2110
 3870SOL    HW123069   4.366   1.092   6.249  4.0225  2.4229 -1.2586
 3870SOL    HW223070   4.239   1.162   6.286  0.4876  0.3250  0.6821
 3871SOL     OW23071   0.056   1.679   5.176 -0.6589  0.4060  0.3368
 3871SOL    HW123072   0.099   1.717   5.099 -0.1974 -1.6074 -0.4111
 3871SOL    HW223073   0.030   1.756   5.226 -0.9830  0.2564  0.3995
 3872SOL     OW23074   3.925   1.570  16.875 -0.4167 -0.0740  0.5332
 3872SOL    HW123075   3.853   1.518  16.910 -0.1937 -0.4142  0.4812
 3872SOL    HW223076   3.891   1.657  16.897  0.1784  0.1486  0.5780
 3873SOL     OW23077   1.501   0.850  14.960 -0.3458  1.1280  0.0372
 3873SOL    HW123078   1.526   0.874  14.871 -0.2415  0.3118 -0.1576
 3873SOL    HW223079   1.567   0.784  14.984 -1.7871 -0.3897 -0.1521
 3874SOL     OW23080   0.642   3.393  14.789  0.7069 -0.6544  0.0050
 3874SOL    HW123081   0.733   3.404  14.764  0.1798  1.8499 -0.7728
 3874SOL    HW223082   0.615   3.318  14.736 -0.6246 -0.7849  0.8450
 3875SOL     OW23083   4.111   0.318  17.167  0.1949  0.4297 -0.5684
 3875SOL    HW123084   4.073   0.360  17.244  1.0457  0.6684 -0.2722
 3875SOL    HW223085   4.167   0.388  17.132 -1.2947  1.6279 -0.5529
 3876SOL     OW23086   3.338   3.114   8.799  0.1078 -0.0087  0.2644
 3876SOL    HW123087   3.422   3.073   8.820 -0.0555  0.0366  0.9943
 3876SOL    HW223088   3.374   3.197   8.768 -2.0133  1.1921  1.0075
 3877SOL     OW23089   2.664   3.344   4.526  0.1308 -0.0299 -0.0113
 3877SOL    HW123090   2.708   3.280   4.581  0.7870  0.3883 -0.0381
 3877SOL    HW223091   2.685   3.421   4.579  1.7758 -0.7307  0.3677
 3878SOL     OW23092   3.249   2.771   8.453 -0.0080 -0.4445  0.0377
 3878SOL    HW123093   3.272   2.741   8.541 -0.1376  0.7992  0.4992
 3878SOL    HW223094   3.185   2.843   8.455  0.4271 -0.1047  1.5193
 3879SOL     OW23095   4.069   1.133   3.349 -0.2451 -0.2674  0.2979
 3879SOL    HW123096   4.091   1.114   3.258  2.1702  0.9845  0.6130
 3879SOL    HW223097   4.126   1.205   3.377 -0.8468  0.5836 -0.6792
 3880SOL     OW23098   0.525   4.281   4.118 -0.2940  0.0702 -0.3544
 3880SOL    HW123099   0.578   4.360   4.133 -0.5736  0.1276  0.3575
 3880SOL    HW223100   0.571   4.254   4.039  0.4355  0.2426  0.0097
 3881SOL     OW23101   4.189   2.952   4.520  0.2291 -0.5697  0.6957
 3881SOL    HW123102   4.238   2.871   4.509 -0.8987 -1.1886  0.1227
 3881SOL    HW223103   4.255   3.012   4.485 -1.6336 -0.5899 -2.9543
 3882SOL     OW23104   3.090   0.968   7.136 -0.0263 -0.0366  0.9152
 3882SOL    HW123105   3.027   1.021   7.185  1.7258  1.5959  1.4375
 3882SOL    HW223106   3.078   0.880   7.172 -0.6616 -0.7859 -1.1513
 3883SOL     OW23107   4.717   2.285   3.587 -0.7416  0.2638 -0.3345
 3883SOL    HW123108   0.068   2.277   3.647 -0.2641 -1.3157 -1.1271
 3883SOL    HW223109   0.020   2.368   3.546 -2.1383  1.7109  1.7496
 3884SOL     OW23110   2.079   3.827   8.490 -0.2787  0.3556 -0.2991
 3884SOL    HW123111   2.020   3.762   8.527  0.3148 -0.9029 -1.5651
 3884SOL    HW223112   2.038   3.837   8.403  3.0861 -2.4265 -2.1999
 3885SOL     OW23113   0.857   2.752  10.115  0.0583  0.2228 -0.1454
 3885SOL    HW123114   0.895   2.681  10.065 -0.9151 -0.4755  0.1014
 3885SOL    HW223115   0.891   2.830  10.071  1.1191 -0.6071 -0.7721
 3886SOL     OW23116   1.720   3.439   3.073  0.2709 -0.2229 -0.1738
 3886SOL    HW123117   1.760   3.408   3.155 -0.5134 -0.6757  0.0344
 3886SOL    HW223118   1.654   3.504   3.095  1.2238  0.9242 -0.7008
 3887SOL     OW23119   4.174   2.122   8.080  0.0201  0.8489  0.2489
 3887SOL    HW123120   4.149   2.030   8.075  0.5691  0.7110  0.1219
 3887SOL    HW223121   4.098   2.164   8.121 -1.2260 -1.3183  0.1455
 3888SOL     OW23122   1.566   0.795   7.150 -0.7616  0.9565 -0.4302
 3888SOL    HW123123   1.511   0.834   7.218  0.1572 -0.2735  1.0213
 3888SOL    HW223124   1.519   0.814   7.069 -1.6240  0.5944 -0.0183
 3889SOL     OW23125   0.585   1.685   3.498  0.7117  0.1022  0.1161
 3889SOL    HW123126   0.538   1.661   3.419 -1.0089  2.0613  0.5357
 3889SOL    HW223127   0.675   1.692   3.465  0.6702 -0.4360 -0.1010
 3890SOL     OW23128   3.846   0.427   6.882  0.1794 -0.4170 -0.0365
 3890SOL    HW123129   3.915   0.433   6.948 -2.4248  2.4485  2.4624
 3890SOL    HW223130   3.781   0.489   6.914  1.6032  0.5452  1.0336
 3891SOL     OW23131   0.061   4.276   9.915 -0.4624 -0.3813  0.4004
 3891SOL    HW123132   0.080   4.235   9.830  2.9559 -0.0191  0.9983
 3891SOL    HW223133   4.700   4.321   9.899  0.2402  0.9324  0.4612
 3892SOL     OW23134   3.221   0.337   8.947  0.0579  0.1331  0.4491
 3892SOL    HW123135   3.188   0.390   8.874 -0.1604 -0.6447 -0.0202
 3892SOL    HW223136   3.176   0.374   9.023  0.4498  1.3604  0.0887
 3893SOL     OW23137   3.057   2.802   2.517 -0.7800  0.2724 -0.3051
 3893SOL    HW123138   3.007   2.790   2.598 -0.8439  0.6914 -0.2859
 3893SOL    HW223139   3.053   2.897   2.508 -3.5433  0.3032  1.2981
 3894SOL     OW23140   4.279   2.943   7.172 -0.0035 -0.4192 -0.2988
 3894SOL    HW123141   4.307   2.934   7.081 -2.3202  0.7841 -1.1346
 3894SOL    HW223142   4.217   3.016   7.176 -0.2225 -0.5797 -0.7605
 3895SOL     OW23143   3.583   0.254   9.167 -0.1732  0.1948  0.2046
 3895SOL    HW123144   3.634   0.182   9.205 -1.8337 -0.4292  1.2284
 3895SOL    HW223145   3.502   0.244   9.217 -0.1077 -0.2374  0.2320
 3896SOL     OW23146   2.726   1.677  10.803 -0.1066  0.1034  0.2596
 3896SOL    HW123147   2.713   1.768  10.831  2.4571  0.1543  1.2707
 3896SOL    HW223148   2.817   1.667  10.831  0.0834 -2.4427 -1.3301
 3897SOL     OW23149   0.808   0.321  12.115 -0.4487  0.1711 -0.2171
 3897SOL    HW123150   0.787   0.294  12.204 -1.9689 -0.3545 -0.7293
 3897SOL    HW223151   0.834   0.412  12.126  0.3667  0.0258 -0.9028
 3898SOL     OW23152   0.540   4.365  17.100  0.3375  0.6861 -0.3500
 3898SOL    HW123153   0.511   4.453  17.127 -1.1124 -0.5543  2.1125
 3898SOL    HW223154   0.508   4.353  17.011  0.1313 -0.7504 -0.0778
 3899SOL     OW23155   3.696   2.674  16.787 -0.1805  0.3755 -0.3308
 3899SOL    HW123156   3.631   2.669  16.717  0.6078  0.3887 -1.0678
 3899SOL    HW223157   3.733   2.760  16.770  1.1884 -0.5273 -1.9204
 3900SOL     OW23158   0.561   3.253   9.427 -0.2320  0.6651  0.0130
 3900SOL    HW123159   0.593   3.163   9.428  0.8190  1.0282 -1.4517
 3900SOL    HW223160   0.588   3.285   9.514 -0.8217 -0.3170  0.5555
 3901SOL     OW23161   3.590   1.352   9.844  0.1808  0.2197  0.3488
 3901SOL    HW123162   3.655   1.366   9.912  1.0447 -2.2889  0.0177
 3901SOL    HW223163   3.552   1.268   9.868 -0.4547 -0.0435 -1.5576
 3902SOL     OW23164   1.829   2.427   4.081  0.3889 -0.2254  0.5567
 3902SOL    HW123165   1.840   2.437   3.986 -0.9786 -1.2929  0.2824
 3902SOL    HW223166   1.734   2.438   4.083  0.3591  0.0536 -2.2298
 3903SOL     OW23167   1.265   3.551   1.149 -0.0931  0.0570 -0.0816
 3903SOL    HW123168   1.246   3.632   1.101  0.9540 -1.0199 -2.2907
 3903SOL    HW223169   1.330   3.507   1.095 -0.1748 -0.9578  0.6459
 3904SOL     OW23170   3.166   1.231  17.274  0.6848 -0.1492 -0.4384
 3904SOL    HW123171   3.168   1.322  17.244  1.3796 -0.1479 -0.3882
 3904SOL    HW223172   3.137   1.182  17.197 -0.4677  1.8108 -1.2502
 3905SOL     OW23173   1.569   2.465   4.817 -0.2933 -0.4188  0.3761
 3905SOL    HW123174   1.568   2.447   4.723 -0.2166  0.8593  0.1233
 3905SOL    HW223175   1.477   2.489   4.820  0.3131  1.7939  1.5313
 3906SOL     OW23176   1.610   0.069   5.305 -0.2911  0.0166 -0.3985
 3906SOL    HW123177   1.618   0.033   5.216 -0.3589 -1.6484  0.2663
 3906SOL    HW223178   1.686   0.029   5.346  0.6446  4.2337  1.9968
 3907SOL     OW23179   0.486   0.627  14.985 -0.1642 -0.6895  0.1333
 3907SOL    HW123180   0.393   0.605  14.974  0.3594 -1.3936 -2.8641
 3907SOL    HW223181   0.532   0.546  14.968  1.0191 -0.5608  2.7226
 3908SOL     OW23182   0.446   3.630   5.734 -0.4028  0.4865 -0.2429
 3908SOL    HW123183   0.448   3.580   5.816 -0.8641  1.2679  0.2395
 3908SOL    HW223184   0.367   3.683   5.745  0.0335  1.3185 -1.1769
 3909SOL     OW23185   1.759   1.291  12.317  0.4175 -0.2399  0.3631
 3909SOL    HW123186   1.712   1.207  12.313 -0.3654  0.1494  1.5153
 3909SOL    HW223187   1.827   1.270  12.252 -1.0498 -0.1434 -1.2020
 3910SOL     OW23188   0.059   1.953   3.732 -0.0564 -0.0846 -0.1417
 3910SOL    HW123189   4.721   1.884   3.760 -0.4410  0.0859 -0.5574
 3910SOL    HW223190   0.003   1.981   3.660 -0.4738  2.2429  1.1109
 3911SOL     OW23191   0.217   3.369  14.089  0.1200  0.1982 -0.0157
 3911SOL    HW123192   0.288   3.306  14.073  0.2029  0.5058 -0.8486
 3911SOL    HW223193   0.257   3.456  14.088  0.0100  0.2956  3.0230
 3912SOL     OW23194   1.716   4.208   7.817 -0.4156 -0.0174 -0.6127
 3912SOL    HW123195   1.637   4.153   7.817  0.2420 -0.9542  0.2929
 3912SOL    HW223196   1.684   4.285   7.769 -3.2749 -1.7421 -1.5133
 3913SOL     OW23197   1.818   4.615   7.905 -0.0432  0.1736 -0.6955
 3913SOL    HW123198   1.867   4.697   7.900 -1.8444  1.3586  0.6563
 3913SOL    HW223199   1.766   4.632   7.984  0.1762 -0.7164 -0.3620
 3914SOL     OW23200   1.316   3.937   0.213  0.1077  0.4358  0.3721
 3914SOL    HW123201   1.281   4.025   0.223  0.7079  0.8990 -1.6463
 3914SOL    HW223202   1.342   3.940   0.121 -0.0740  2.3220  0.3857
 3915SOL     OW23203   0.454   0.836   7.627 -0.0943  0.0665 -0.1649
 3915SOL    HW123204   0.484   0.795   7.709 -3.4831 -0.6454  0.7329
 3915SOL    HW223205   0.516   0.794   7.569 -0.1726 -0.7447  0.3292
 3916SOL     OW23206   0.570   3.502   0.850  0.5577  0.1576  0.5858
 3916SOL    HW123207   0.576   3.444   0.926 -2.3488  1.8399  2.0721
 3916SOL    HW223208   0.478   3.496   0.823  0.7587 -1.2416  0.1794
 3917SOL     OW23209   4.397   3.658   9.791 -0.3526  0.0725 -0.1295
 3917SOL    HW123210   4.450   3.727   9.751  2.0196 -1.3011  0.6659
 3917SOL    HW223211   4.333   3.633   9.724  2.2924  1.0364 -2.9913
 3918SOL     OW23212   2.698   2.063   0.304 -0.3031  0.7908 -0.0520
 3918SOL    HW123213   2.778   2.054   0.355 -0.3890 -0.1073 -0.0860
 3918SOL    HW223214   2.701   1.985   0.249  1.1642 -0.8863  2.4277
 3919SOL     OW23215   2.362   2.485   9.768 -0.5268  0.0412 -0.1107
 3919SOL    HW123216   2.448   2.448   9.787  0.1072  1.3022 -0.4819
 3919SOL    HW223217   2.384   2.571   9.805 -3.1528  0.7799 -0.2518
 3920SOL     OW23218   0.320   3.958   9.875 -0.7747 -0.1170  0.4371
 3920SOL    HW123219   0.253   3.918   9.929 -2.6122 -1.8755 -3.1527
 3920SOL    HW223220   0.273   4.017   9.815 -0.6223 -1.8336 -1.3764
 3921SOL     OW23221   2.274   2.062  12.825  0.1241 -0.1909 -0.1803
 3921SOL    HW123222   2.351   2.038  12.773  0.1655  1.1896 -0.7675
 3921SOL    HW223223   2.264   1.992  12.890  0.6448 -0.4738 -0.4040
 3922SOL     OW23224   2.051   2.693   7.923  0.6029 -0.1356 -0.3379
 3922SOL    HW123225   2.089   2.737   7.999  0.5945 -3.2831  1.5274
 3922SOL    HW223226   1.992   2.627   7.959  1.7702 -0.2598  1.3910
 3923SOL     OW23227   3.688   4.272  15.935  0.0298 -0.8333 -0.4141
 3923SOL    HW123228   3.629   4.223  15.992  1.2139 -1.1838  0.5001
 3923SOL    HW223229   3.641   4.295  15.854 -1.3413 -1.2933  0.2512
 3924SOL     OW23230   3.133   4.354   5.476  0.2780 -0.2985 -0.0985
 3924SOL    HW123231   3.128   4.450   5.467  0.2999 -0.5465 -2.7962
 3924SOL    HW223232   3.087   4.335   5.558 -0.9601  0.2965 -0.6689
 3925SOL     OW23233   0.445   3.440   7.682  0.9617  0.8310  0.1557
 3925SOL    HW123234   0.536   3.420   7.704  1.0401 -0.6187 -1.5926
 3925SOL    HW223235   0.389   3.443   7.761  1.7089 -1.7163  0.7841
 3926SOL     OW23236   3.023   2.790   4.827 -0.3266 -0.1599 -0.7070
 3926SOL    HW123237   2.947   2.832   4.868 -2.1317 -2.4774 -1.6434
 3926SOL    HW223238   3.014   2.825   4.738  0.2108 -1.7682 -1.4121
 3927SOL     OW23239   0.362   0.878   3.864  0.3886 -0.0008 -0.5522
 3927SOL    HW123240   0.378   0.961   3.818 -1.5807  1.0894  0.7586
 3927SOL    HW223241   0.342   0.918   3.948 -1.2175  2.9510 -2.2958
 3928SOL     OW23242   3.053   1.486   5.970 -0.1292 -0.7900 -0.7018
 3928SOL    HW123243   3.035   1.571   5.930  0.4277  0.4795  1.7408
 3928SOL    HW223244   3.125   1.463   5.911  0.5018  1.2046 -0.7377
 3929SOL     OW23245   4.262   2.702   4.616 -0.0662 -0.3828 -0.1525
 3929SOL    HW123246   4.170   2.707   4.642 -0.4761 -3.7181 -0.9730
 3929SOL    HW223247   4.299   2.737   4.697 -0.0308 -0.6401 -0.0586
 3930SOL     OW23248   0.664   3.631   8.225 -0.1865  0.4606 -0.1039
 3930SOL    HW123249   0.588   3.638   8.283  0.8986 -1.0885  1.5450
 3930SOL    HW223250   0.716   3.707   8.249  0.7256  0.4397 -2.0692
 3931SOL     OW23251   0.306   4.144   6.730 -0.0323  0.6444 -0.3244
 3931SOL    HW123252   0.329   4.093   6.808 -0.5799  0.8409 -0.0341
 3931SOL    HW223253   0.239   4.203   6.765 -0.7377 -0.1425 -0.3477
 3932SOL     OW23254   1.838   3.218   8.148  0.5629  0.4580  0.1333
 3932SOL    HW123255   1.858   3.312   8.156 -1.6300  0.8356  1.2037
 3932SOL    HW223256   1.915   3.185   8.101  0.5626  1.7486 -0.7697
 3933SOL     OW23257   3.302   2.366   4.962 -0.3833  0.5141 -0.0220
 3933SOL    HW123258   3.321   2.458   4.947 -0.9442  1.0185  2.3383
 3933SOL    HW223259   3.298   2.335   4.872  3.5494  0.7697 -0.2890
 3934SOL     OW23260   0.143   0.346   3.375  0.0520  0.0140  0.6010
 3934SOL    HW123261   0.116   0.284   3.443 -0.4412 -0.5743 -0.1368
 3934SOL    HW223262   0.064   0.344   3.321  1.3616 -0.3511 -1.3010
 3935SOL     OW23263   2.411   2.309  11.040 -0.3514 -0.3159  0.5296
 3935SOL    HW123264   2.471   2.257  10.986  1.4185 -0.9453  3.1200
 3935SOL    HW223265   2.347   2.333  10.973 -0.2775  1.4300  1.0892
 3936SOL     OW23266   4.460   2.119   7.355 -0.4788 -0.1934 -0.3162
 3936SOL    HW123267   4.497   2.030   7.354  0.9557  0.4393 -4.0284
 3936SOL    HW223268   4.405   2.114   7.277 -1.2018 -0.9520  0.2458
 3937SOL     OW23269   1.135   3.058   8.835  0.3178 -0.0432 -0.0234
 3937SOL    HW123270   1.110   3.081   8.746 -1.2712 -1.5960  0.0139
 3937SOL    HW223271   1.062   3.002   8.861  0.4845  0.4096  1.4394
 3938SOL     OW23272   1.280   0.365   3.435 -1.1482 -0.7095  0.1630
 3938SOL    HW123273   1.268   0.270   3.441  0.1575 -0.9564 -0.9858
 3938SOL    HW223274   1.374   0.375   3.419 -1.0133 -1.2750  0.6252
 3939SOL     OW23275   0.530   1.197   7.147  0.2282 -0.3397 -0.5400
 3939SOL    HW123276   0.447   1.237   7.120  0.6026  0.5620 -0.3523
 3939SOL    HW223277   0.563   1.164   7.063 -1.1377  0.8065 -1.5243
 3940SOL     OW23278   2.906   0.601   6.634  0.0829  0.5941 -0.4481
 3940SOL    HW123279   2.975   0.662   6.608  0.9751  0.8638  2.5623
 3940SOL    HW223280   2.823   0.636   6.602 -0.7043 -2.1405 -1.3602
 3941SOL     OW23281   0.502   0.080   5.460  0.0586  0.7863 -0.5568
 3941SOL    HW123282   0.548   4.718   5.457  1.1115  1.4253 -2.1959
 3941SOL    HW223283   0.411   0.052   5.472  0.5229 -1.2188 -1.7880
 3942SOL     OW23284   4.403   1.562   4.417 -0.1106  0.5564 -0.2405
 3942SOL    HW123285   4.469   1.571   4.349  2.4466 -0.7903  2.0337
 3942SOL    HW223286   4.356   1.482   4.394 -0.4080  0.1670  1.6602
 3943SOL     OW23287   0.303   3.501   7.896 -0.5047  0.0104 -0.0557
 3943SOL    HW123288   0.302   3.408   7.922 -0.4696  0.2311  0.7483
 3943SOL    HW223289   0.238   3.540   7.955 -0.8283  1.4829 -1.4197
 3944SOL     OW23290   2.438   0.936   5.212 -0.4732  0.3280  0.1851
 3944SOL    HW123291   2.368   0.957   5.275  0.3840  1.6440  0.6981
 3944SOL    HW223292   2.417   0.982   5.131  1.5289  0.3778 -0.3059
 3945SOL     OW23293   3.686   3.475  16.664  0.4457  1.0552 -0.1612
 3945SOL    HW123294   3.717   3.422  16.738 -1.6353  0.3829  0.2107
 3945SOL    HW223295   3.754   3.543  16.664  0.4290  1.0809  1.4093
 3946SOL     OW23296   2.280   1.012   5.405  0.2030  0.3807 -0.1040
 3946SOL    HW123297   2.306   1.094   5.447  1.3659 -0.8901  1.6378
 3946SOL    HW223298   2.195   0.990   5.445 -0.2252  0.6198 -0.8841
 3947SOL     OW23299   2.753   4.448   7.405  0.1531  0.0781 -0.0909
 3947SOL    HW123300   2.671   4.483   7.441  0.6225  0.3185  0.7571
 3947SOL    HW223301   2.779   4.508   7.336 -0.2307 -0.7552 -0.9595
 3948SOL     OW23302   3.303   1.595   1.359  0.2582  0.2081 -0.0357
 3948SOL    HW123303   3.381   1.544   1.340  0.2434  0.3286 -0.4112
 3948SOL    HW223304   3.317   1.673   1.305  1.6178  0.0186  0.0624
 3949SOL     OW23305   0.314   0.596  12.204 -0.6472 -0.4156 -0.4193
 3949SOL    HW123306   0.314   0.571  12.296 -0.7620 -0.2673 -0.3796
 3949SOL    HW223307   0.355   0.517  12.167  0.5505  0.8882 -1.8730
 3950SOL     OW23308   1.114   0.258   5.818  0.1292 -0.3415  0.2666
 3950SOL    HW123309   1.200   0.252   5.778 -1.4510 -0.7358 -3.1272
 3950SOL    HW223310   1.089   0.165   5.815 -0.0111 -0.2554 -1.6143
 3951SOL     OW23311   2.056   4.695   2.842 -0.4952 -0.1734 -0.0976
 3951SOL    HW123312   2.082   4.667   2.930  1.8147  2.4462  0.0772
 3951SOL    HW223313   2.146   4.715   2.817  0.0427 -1.1457  1.0443
 3952SOL     OW23314   3.399   2.621   6.623 -0.3409 -0.2927  0.6478
 3952SOL    HW123315   3.426   2.559   6.691  0.0196  0.6767  1.3843
 3952SOL    HW223316   3.367   2.558   6.557 -2.4022  1.1631  0.2536
 3953SOL     OW23317   3.269   3.524   3.428 -0.0543 -0.0355 -0.1504
 3953SOL    HW123318   3.238   3.463   3.495 -0.7749  0.4329 -0.0502
 3953SOL    HW223319   3.304   3.467   3.360  0.4422 -0.0492  0.1198
 3954SOL     OW23320   1.557   3.591   6.944  0.5507 -0.0960  0.7060
 3954SOL    HW123321   1.465   3.616   6.941  0.3135 -1.0987 -0.4820
 3954SOL    HW223322   1.564   3.535   7.021  1.7363 -0.0861  0.6106
 3955SOL     OW23323   0.184   4.582   6.776 -0.3964  0.1779  0.3230
 3955SOL    HW123324   0.135   4.661   6.753 -0.1732  0.4592  0.8250
 3955SOL    HW223325   0.238   4.577   6.697 -0.0214 -0.5496  0.6268
 3956SOL     OW23326   2.992   3.622   6.763 -0.2422 -0.2018 -0.0988
 3956SOL    HW123327   2.900   3.608   6.786 -0.8071  2.8663 -0.5266
 3956SOL    HW223328   3.029   3.534   6.766 -0.3283 -0.2269  0.2241
 3957SOL     OW23329   4.491   0.094   7.086  0.5916  0.3038  0.5385
 3957SOL    HW123330   4.478   4.722   7.075  1.7412 -0.0178  1.8918
 3957SOL    HW223331   4.468   0.129   7.001 -2.1359  1.2944  1.7046
 3958SOL     OW23332   2.142   2.965   9.466  0.0635 -0.3068 -0.3493
 3958SOL    HW123333   2.206   2.927   9.407  1.1865  0.6808  0.2446
 3958SOL    HW223334   2.140   2.904   9.540 -1.1307  1.1192  0.7934
 3959SOL     OW23335   3.391   0.468   1.048 -0.3736 -0.6673 -0.0012
 3959SOL    HW123336   3.398   0.540   0.986 -1.9509  0.8387  1.5553
 3959SOL    HW223337   3.311   0.437   1.006 -0.7957  2.1071 -1.2374
 3960SOL     OW23338   0.610   3.291   8.520  0.0809 -0.2241  0.5525
 3960SOL    HW123339   0.536   3.327   8.471  0.1951 -2.4406 -1.2190
 3960SOL    HW223340   0.688   3.305   8.467  0.0072  0.0708  0.5175
 3961SOL     OW23341   4.098   3.383   5.725 -0.6580 -0.1128  0.0872
 3961SOL    HW123342   4.083   3.318   5.793  1.6121 -0.6655  0.0316
 3961SOL    HW223343   4.026   3.444   5.744  1.7062  2.5253  0.5091
 3962SOL     OW23344   2.616   4.599   1.706  0.2484 -0.3802  0.6004
 3962SOL    HW123345   2.677   4.525   1.702  0.3370 -0.2682 -0.1022
 3962SOL    HW223346   2.667   4.669   1.745 -0.4809  1.3505 -1.5906
 3963SOL     OW23347   3.499   4.523   3.584  0.1141 -0.1844  0.8779
 3963SOL    HW123348   3.483   4.440   3.628 -2.3926 -0.1136  0.0916
 3963SOL    HW223349   3.419   4.573   3.599  0.9396  0.1700  4.2491
 3964SOL     OW23350   1.681   3.009   8.701 -0.0637  0.0426 -0.1746
 3964SOL    HW123351   1.635   2.926   8.708 -2.2726  1.2674 -0.1517
 3964SOL    HW223352   1.621   3.059   8.756 -0.6994 -1.6272  0.6596
 3965SOL     OW23353   2.964   2.806  13.584 -0.3949  0.3227  0.2235
 3965SOL    HW123354   3.024   2.812  13.510  1.4733 -1.2600  1.6053
 3965SOL    HW223355   2.882   2.837  13.546  0.5925 -1.0170 -3.0343
 3966SOL     OW23356   3.761   2.271   1.463 -0.1613 -0.5377  0.0295
 3966SOL    HW123357   3.801   2.191   1.497  0.1912  0.0754  1.0452
 3966SOL    HW223358   3.674   2.240   1.435  0.1447 -1.1544 -0.2405
 3967SOL     OW23359   2.700   0.732   1.360 -0.0821 -0.0120  0.0760
 3967SOL    HW123360   2.736   0.735   1.449 -1.5952 -3.2393  0.7890
 3967SOL    HW223361   2.641   0.658   1.373 -1.4960  0.5560 -3.1153
 3968SOL     OW23362   2.585   2.046   0.788 -0.4596 -0.2568 -0.5655
 3968SOL    HW123363   2.646   2.098   0.841 -1.1540  1.5765 -1.5581
 3968SOL    HW223364   2.566   1.976   0.851  2.7801  2.0333  3.0072
 3969SOL     OW23365   2.019   2.782   8.445 -0.0975  0.1768 -0.1664
 3969SOL    HW123366   1.957   2.854   8.455 -1.0751 -0.7835  0.6830
 3969SOL    HW223367   1.963   2.714   8.482 -0.8256  0.2570 -1.1175
 3970SOL     OW23368   1.913   0.895  12.241 -0.0945 -0.1676 -0.5373
 3970SOL    HW123369   1.830   0.913  12.286  0.2020 -0.1720  0.0111
 3970SOL    HW223370   1.975   0.926  12.307 -0.4864 -0.9536  0.2142
 3971SOL     OW23371   1.064   2.743   9.095  0.4038 -0.1147 -0.3382
 3971SOL    HW123372   1.012   2.689   9.035 -1.7313  1.0943  0.4092
 3971SOL    HW223373   1.150   2.728   9.056  0.4405  0.7687 -0.5987
 3972SOL     OW23374   3.872   1.022  16.943  0.6670  0.2649 -0.1831
 3972SOL    HW123375   3.963   1.051  16.949  0.2607  1.2062  1.2646
 3972SOL    HW223376   3.834   1.046  17.027  0.2360  0.9377 -0.5731
 3973SOL     OW23377   3.726   4.378   0.843 -0.2347 -0.0267  0.3632
 3973SOL    HW123378   3.790   4.430   0.893  1.7639 -0.7472 -1.4385
 3973SOL    HW223379   3.702   4.442   0.776  1.2792 -1.8227 -1.8894
 3974SOL     OW23380   4.083   0.424   3.552  0.4562 -0.6360  0.7527
 3974SOL    HW123381   4.077   0.386   3.464 -2.4126  0.8272  0.3065
 3974SOL    HW223382   4.122   0.350   3.599 -2.1308 -0.7403  2.6944
 3975SOL     OW23383   0.241   4.286   6.382 -0.0859 -0.6150 -0.6297
 3975SOL    HW123384   0.191   4.339   6.444  1.3244  1.3134 -1.1455
 3975SOL    HW223385   0.172   4.228   6.351 -0.3505 -0.5117 -0.2397
 3976SOL     OW23386   2.827   3.767   2.649  0.2363 -0.0345  0.5633
 3976SOL    HW123387   2.880   3.706   2.701  0.4268 -0.9798 -0.7382
 3976SOL    HW223388   2.810   3.833   2.716  0.8360 -0.6308  1.3001
 3977SOL     OW23389   1.706   0.648   0.803  0.2772  0.0462 -0.4031
 3977SOL    HW123390   1.632   0.634   0.862  0.0245  1.3358 -0.4167
 3977SOL    HW223391   1.691   0.583   0.734  0.6880  0.0698 -0.5101
 3978SOL     OW23392   3.293   3.898  10.947 -0.4730  0.4141  0.4081
 3978SOL    HW123393   3.225   3.873  10.883  2.5601 -1.4999 -2.0519
 3978SOL    HW223394   3.362   3.925  10.887 -0.7129 -2.1329 -1.0311
 3979SOL     OW23395   2.359   0.342  13.890  0.4402  0.1360 -0.9778
 3979SOL    HW123396   2.376   0.424  13.843 -0.9017  0.4838 -0.8577
 3979SOL    HW223397   2.350   0.289  13.811  0.1801  0.3879 -1.1135
 3980SOL     OW23398   2.646   2.472   7.579 -0.4726  0.0940  0.2543
 3980SOL    HW123399   2.731   2.456   7.539 -1.3177  2.4990 -2.5297
 3980SOL    HW223400   2.588   2.469   7.503  0.3067  0.6722 -0.3626
 3981SOL     OW23401   1.557   2.919   9.801 -0.1780 -0.4210 -0.3588
 3981SOL    HW123402   1.646   2.891   9.779  0.6796  0.6865  1.7022
 3981SOL    HW223403   1.575   2.994   9.858  1.6929 -0.9004 -0.3078
 3982SOL     OW23404   4.167   3.018   6.831 -0.0057 -0.2035  0.3272
 3982SOL    HW123405   4.147   3.068   6.752  0.1246  0.3663  0.6581
 3982SOL    HW223406   4.078   3.021   6.865 -0.7854 -2.0781 -1.5701
 3983SOL     OW23407   3.847   1.592   2.892  0.0438 -0.3836 -0.3470
 3983SOL    HW123408   3.765   1.579   2.939 -0.8842  1.4601 -1.4368
 3983SOL    HW223409   3.883   1.671   2.932 -1.0267  0.0585 -0.2501
 3984SOL     OW23410   4.552   3.614   1.063  0.3077 -0.6036 -0.0974
 3984SOL    HW123411   4.529   3.669   0.988 -0.5614  0.7779  1.1879
 3984SOL    HW223412   4.597   3.686   1.109  0.2352  0.6324 -1.9477
 3985SOL     OW23413   2.508   0.469   0.551  0.2222 -1.0417 -0.0767
 3985SOL    HW123414   2.585   0.414   0.535  0.7582 -0.5915  0.9068
 3985SOL    HW223415   2.509   0.481   0.646 -1.0611 -0.9130 -0.0753
 3986SOL     OW23416   0.167   3.721   1.048  0.4399 -0.1436  0.3208
 3986SOL    HW123417   0.195   3.759   0.964 -0.3365  0.1236  0.1872
 3986SOL    HW223418   0.095   3.778   1.075 -0.6658 -1.9454  1.1881
 3987SOL     OW23419   1.117   1.259   9.516  0.8159  0.4503 -0.3041
 3987SOL    HW123420   1.069   1.180   9.489 -1.8042  2.1384 -0.6107
 3987SOL    HW223421   1.198   1.210   9.524  0.8620  0.9331  1.9156
 3988SOL     OW23422   1.643   0.176  13.641 -0.0170 -0.2014  0.0342
 3988SOL    HW123423   1.613   0.184  13.550  1.1920 -1.2989 -0.4508
 3988SOL    HW223424   1.713   0.241  13.642  0.0155 -0.2469  0.5965
 3989SOL     OW23425   1.959   1.323   1.942 -0.6621 -0.1785  0.1586
 3989SOL    HW123426   1.976   1.254   2.006 -1.0942 -0.1587  0.2973
 3989SOL    HW223427   2.007   1.295   1.864  1.7265  1.4595  1.0274
 3990SOL     OW23428   3.776   0.118   1.318 -0.0622 -0.5477  0.6575
 3990SOL    HW123429   3.738   0.062   1.250  0.6736  0.3439 -0.4925
 3990SOL    HW223430   3.809   0.193   1.269 -0.6085 -0.3580  0.5857
 3991SOL     OW23431   0.917   4.700   6.173 -0.6092 -0.2963  0.1095
 3991SOL    HW123432   0.945   0.063   6.140  1.8562 -1.5235 -0.9592
 3991SOL    HW223433   0.972   4.643   6.119  1.1910 -1.0857  2.7461
 3992SOL     OW23434   2.033   2.136  17.364 -0.6197 -0.0065  0.4395
 3992SOL    HW123435   2.038   2.150  17.459 -1.1270  1.2959  0.2768
 3992SOL    HW223436   1.965   2.198  17.339 -1.0214 -1.0435 -1.0447
 3993SOL     OW23437   2.835   1.963  10.293  0.0824  0.6432  0.3682
 3993SOL    HW123438   2.847   1.995  10.382 -1.9224  0.7245  0.6040
 3993SOL    HW223439   2.847   2.045  10.245  0.6498 -0.9599 -2.2334
 3994SOL     OW23440   0.736   1.001  15.153 -0.3971 -0.2156  0.2600
 3994SOL    HW123441   0.677   0.926  15.158 -1.2903  0.4835  0.2152
 3994SOL    HW223442   0.799   0.988  15.224 -2.4979 -0.0285  2.1316
 3995SOL     OW23443   2.682   2.860   9.104 -0.0355  0.1273 -0.6593
 3995SOL    HW123444   2.628   2.878   9.027 -0.7279 -3.5439 -1.0755
 3995SOL    HW223445   2.636   2.782   9.138 -0.5773  0.8750  0.3305
 3996SOL     OW23446   0.112   3.847   6.351 -0.1054  0.1023  0.0144
 3996SOL    HW123447   0.183   3.784   6.363 -0.5446 -0.3856  0.0499
 3996SOL    HW223448   0.032   3.794   6.349  1.0754 -1.6704 -0.4258
 3997SOL     OW23449   4.336   1.254   2.357  0.3534  0.1336 -0.2573
 3997SOL    HW123450   4.310   1.216   2.273  0.6739  0.4569 -0.5055
 3997SOL    HW223451   4.277   1.329   2.364  0.7527  0.3104  1.0593
 3998SOL     OW23452   4.298   4.625   8.489 -0.0934 -0.8025  0.3109
 3998SOL    HW123453   4.248   4.699   8.456  1.3735 -0.1568 -0.4817
 3998SOL    HW223454   4.363   4.609   8.421 -1.4644 -0.7750 -0.9804
 3999SOL     OW23455   1.576   0.995   6.676 -0.1822 -0.6214  0.3880
 3999SOL    HW123456   1.664   0.988   6.639 -0.4012  0.8586 -0.3962
 3999SOL    HW223457   1.528   0.929   6.628  0.8295 -0.0347 -1.4397
 4000SOL     OW23458   0.346   1.151   5.836  0.2522  0.7350 -0.1486
 4000SOL    HW123459   0.337   1.077   5.896  3.9141  0.3686 -0.0388
 4000SOL    HW223460   0.293   1.132   5.759  2.5240 -1.3804 -1.1952
 4001SOL     OW23461   4.649   0.231  12.797  0.1891  0.4391 -0.3342
 4001SOL    HW123462   4.583   0.269  12.738  0.1460  0.2910 -0.3828
 4001SOL    HW223463   4.600   0.230  12.879 -2.0191 -0.5359 -1.6538
 4002SOL     OW23464   3.129   1.895  13.156 -0.4951  0.4463 -0.2815
 4002SOL    HW123465   3.159   1.810  13.126  0.5138  0.2175  1.3989
 4002SOL    HW223466   3.036   1.877  13.169 -0.1249 -1.0178  0.3467
 4003SOL     OW23467   1.634   0.526   8.479 -0.2564 -0.3998 -0.1544
 4003SOL    HW123468   1.588   0.518   8.562  0.3378  1.2614  0.3342
 4003SOL    HW223469   1.589   0.455   8.433 -1.4677  1.9301 -2.5536
 4004SOL     OW23470   1.067   1.489   3.292  0.0572  0.1875  0.1182
 4004SOL    HW123471   1.128   1.421   3.262  1.5367  1.3881  0.4006
 4004SOL    HW223472   0.997   1.430   3.320  1.7030 -1.1315  1.4955
 4005SOL     OW23473   0.329   2.296   7.843 -0.0450 -0.5272 -0.4957
 4005SOL    HW123474   0.348   2.367   7.782  3.3015 -2.8207 -2.1219
 4005SOL    HW223475   0.418   2.272   7.869  0.1065  0.7095  0.1257
 4006SOL     OW23476   0.444   2.491   5.757  0.1055  0.2320 -0.4484
 4006SOL    HW123477   0.431   2.585   5.754  2.8000  0.5751 -1.0832
 4006SOL    HW223478   0.454   2.466   5.849 -3.1484  1.1482  0.1361
 4007SOL     OW23479   1.333   3.129   2.150  0.0663  0.4361  0.2748
 4007SOL    HW123480   1.359   3.045   2.112  1.0783  1.4280 -1.2233
 4007SOL    HW223481   1.385   3.130   2.230  1.1279 -1.2907 -0.3851
 4008SOL     OW23482   0.786   2.951   4.248 -0.4844 -0.1107 -0.5079
 4008SOL    HW123483   0.771   2.879   4.186  0.1965  2.0950 -3.2079
 4008SOL    HW223484   0.700   2.981   4.278 -0.0871  1.8762 -1.3829
 4009SOL     OW23485   2.066   3.429   7.583  0.3128 -0.1126 -0.3463
 4009SOL    HW123486   2.092   3.340   7.606  1.3687  0.0297 -0.9735
 4009SOL    HW223487   2.136   3.453   7.522 -0.3775  0.6900 -0.8257
 4010SOL     OW23488   0.829   1.814   1.463 -0.2603 -0.4317 -0.1328
 4010SOL    HW123489   0.862   1.896   1.425 -2.2454  0.6831  0.5983
 4010SOL    HW223490   0.796   1.768   1.386  1.8879 -1.8828 -0.1967
 4011SOL     OW23491   2.920   4.411  12.399 -0.2898 -0.0507 -0.0564
 4011SOL    HW123492   2.965   4.438  12.478 -0.4054 -0.3052  0.0977
 4011SOL    HW223493   2.882   4.328  12.428 -0.4031 -0.2813 -0.8573
 4012SOL     OW23494   3.475   0.917  11.960  0.0582  0.0523 -0.5842
 4012SOL    HW123495   3.474   0.963  12.044 -0.7125  0.8227 -1.0177
 4012SOL    HW223496   3.501   0.988  11.901  0.9147 -0.0365 -0.3159
 4013SOL     OW23497   4.189   3.755   3.696  0.0716 -0.0005 -0.2686
 4013SOL    HW123498   4.158   3.845   3.688  0.8026  0.1989 -0.8866
 4013SOL    HW223499   4.155   3.730   3.782  0.4319 -1.3762 -0.5191
 4014SOL     OW23500   2.349   0.934   4.113 -0.3635 -0.1659  0.0415
 4014SOL    HW123501   2.261   0.970   4.105 -0.6153 -0.7570  0.1779
 4014SOL    HW223502   2.405   1.011   4.103 -0.4780 -0.1973 -0.8073
 4015SOL     OW23503   4.415   3.865   6.816  0.4922  0.7689 -0.1580
 4015SOL    HW123504   4.326   3.875   6.781  0.1940 -0.1034  0.3610
 4015SOL    HW223505   4.468   3.899   6.744  2.2665  0.0754  0.8239
 4016SOL     OW23506   3.620   0.342   3.146  0.2350 -0.3659 -0.6406
 4016SOL    HW123507   3.639   0.432   3.173  1.0945 -1.0914  1.1307
 4016SOL    HW223508   3.710   0.310   3.138 -0.2857 -2.5761  2.4187
 4017SOL     OW23509   0.623   1.052   4.765 -0.1081 -0.0634 -0.5276
 4017SOL    HW123510   0.694   1.111   4.742  1.9457 -0.8954  3.7064
 4017SOL    HW223511   0.620   1.062   4.860 -0.8557  1.0804 -0.6690
 4018SOL     OW23512   3.720   2.997   0.434  0.1093 -0.1026 -0.3471
 4018SOL    HW123513   3.756   2.947   0.361  0.1124 -0.2203 -0.2645
 4018SOL    HW223514   3.641   3.029   0.389 -1.0813  0.1689  1.9656
 4019SOL     OW23515   0.425   0.068  16.510  0.1949 -0.3921  0.4199
 4019SOL    HW123516   0.354   0.014  16.474  1.0936 -1.0956 -0.2887
 4019SOL    HW223517   0.381   0.106  16.586  0.1644  0.1494  0.1277
 4020SOL     OW23518   2.509   3.265   0.533 -0.0268 -0.0631 -0.1202
 4020SOL    HW123519   2.518   3.209   0.456 -0.7639 -0.2323 -0.0870
 4020SOL    HW223520   2.545   3.347   0.500  1.5978 -1.2684 -1.3052
 4021SOL     OW23521   2.554   1.213   8.515  0.2225 -0.1795  0.6661
 4021SOL    HW123522   2.622   1.156   8.550  0.6603 -0.7195 -1.0501
 4021SOL    HW223523   2.602   1.275   8.459  0.1060  0.9710  1.8425
 4022SOL     OW23524   2.048   4.407   9.706 -0.3861 -0.5640 -0.1935
 4022SOL    HW123525   2.050   4.338   9.641  0.7059 -1.3921  0.7190
 4022SOL    HW223526   2.103   4.373   9.776 -1.1699 -0.6892  0.3657
 4023SOL     OW23527   0.698   3.288  12.356  0.2802  0.3106  0.3785
 4023SOL    HW123528   0.631   3.305  12.422 -1.4392 -1.2286 -0.9713
 4023SOL    HW223529   0.689   3.365  12.300  0.3901  1.7286  2.2822
 4024SOL     OW23530   1.459   3.647   3.205 -0.0714  0.2970 -0.4689
 4024SOL    HW123531   1.437   3.733   3.171 -0.4519 -0.7379 -2.8323
 4024SOL    HW223532   1.390   3.593   3.169 -0.8504  0.0875  1.3293
 4025SOL     OW23533   4.144   0.166   4.653 -0.3636 -0.5041 -0.3952
 4025SOL    HW123534   4.211   0.164   4.721 -0.0554  0.3078 -0.6786
 4025SOL    HW223535   4.139   0.255   4.619  2.4514 -0.5224 -0.8651
 4026SOL     OW23536   2.080   3.137   3.706 -0.3601 -0.0054  0.2082
 4026SOL    HW123537   2.047   3.081   3.776 -1.3320  1.3674  0.8559
 4026SOL    HW223538   2.092   3.216   3.760 -1.7577  1.6676 -1.9118
 4027SOL     OW23539   4.387   3.988  10.640  0.3390  0.0448 -0.2434
 4027SOL    HW123540   4.389   4.054  10.571 -0.9067 -0.0970 -0.4106
 4027SOL    HW223541   4.299   3.952  10.634 -0.0526  0.9668  0.0295
 4028SOL     OW23542   2.473   0.128   6.879  0.1298  0.6766 -0.2673
 4028SOL    HW123543   2.416   0.199   6.848  0.4384  0.8708 -0.3807
 4028SOL    HW223544   2.420   0.099   6.954  0.4704 -0.8136 -0.5875
 4029SOL     OW23545   2.812   1.651   9.267 -0.1833  0.0582  0.2886
 4029SOL    HW123546   2.741   1.587   9.268 -0.4764  0.3612 -0.8742
 4029SOL    HW223547   2.885   1.589   9.267  1.1294  1.5877 -2.0621
 4030SOL     OW23548   2.549   3.626  10.099  0.1873  0.6207  0.2894
 4030SOL    HW123549   2.621   3.690  10.097  0.5778  0.1561 -0.3970
 4030SOL    HW223550   2.535   3.617  10.193  1.1233  1.4719  0.5217
 4031SOL     OW23551   4.599   1.634   4.603  0.5029 -0.4217 -0.1685
 4031SOL    HW123552   4.536   1.638   4.531 -0.0062  1.6454  0.3723
 4031SOL    HW223553   4.607   1.542   4.628 -0.0077  0.2035  2.3269
 4032SOL     OW23554   1.544   1.983   4.925 -0.3481 -0.5376  0.0842
 4032SOL    HW123555   1.594   1.924   4.981  0.3579 -1.2751 -1.3157
 4032SOL    HW223556   1.587   2.068   4.929 -0.7312 -0.3598  0.4652
 4033SOL     OW23557   4.152   3.525   7.724  0.1609  0.3147 -0.2170
 4033SOL    HW123558   4.204   3.445   7.717 -4.0636 -2.2630 -2.3681
 4033SOL    HW223559   4.208   3.587   7.677  0.3523  0.9764  0.8938
 4034SOL     OW23560   3.259   0.202   4.261 -0.1638  0.4926  0.3911
 4034SOL    HW123561   3.252   0.187   4.167  0.7960 -1.2488  0.5889
 4034SOL    HW223562   3.354   0.203   4.274 -0.2212 -1.8240  0.9604
 4035SOL     OW23563   1.830   3.434   2.206 -0.3605 -0.0273 -0.2181
 4035SOL    HW123564   1.892   3.450   2.135  0.4312 -1.1970  0.2087
 4035SOL    HW223565   1.776   3.513   2.215 -0.0942  0.0086  1.0161
 4036SOL     OW23566   4.020   0.517   1.449 -0.1145  0.0663 -0.3344
 4036SOL    HW123567   4.056   0.445   1.396 -2.0703 -0.7918 -0.5033
 4036SOL    HW223568   3.931   0.510   1.417 -0.4081  1.1134  0.2709
 4037SOL     OW23569   3.227   2.500   6.872 -0.1973  0.2760 -0.1181
 4037SOL    HW123570   3.200   2.445   6.798 -0.2509 -1.2110  1.0030
 4037SOL    HW223571   3.136   2.526   6.888  0.1439  0.7915  0.9389
 4038SOL     OW23572   0.943   1.045   4.511 -0.1437  0.1639 -0.2305
 4038SOL    HW123573   0.858   1.016   4.479 -0.2209  0.9161 -0.7007
 4038SOL    HW223574   0.973   1.110   4.448  0.9965 -0.1164  0.0259
 4039SOL     OW23575   2.741   0.425   6.728 -0.1165  0.1744  0.4497
 4039SOL    HW123576   2.741   0.376   6.646 -2.7884 -0.2994  0.7348
 4039SOL    HW223577   2.798   0.500   6.713 -1.0491  0.5594 -1.1557
 4040SOL     OW23578   0.663   4.596   8.992 -0.8672  0.3514 -0.3745
 4040SOL    HW123579   0.709   4.679   8.976 -0.7637  0.2624 -0.5415
 4040SOL    HW223580   0.731   4.532   8.971 -1.9623 -0.6408 -0.8113
 4041SOL     OW23581   0.814   4.044   6.323  0.0021  0.3252  0.4017
 4041SOL    HW123582   0.778   4.120   6.369  0.1324  1.2904 -1.1069
 4041SOL    HW223583   0.882   4.086   6.271 -0.4937  1.3688  0.5821
 4042SOL     OW23584   4.708   0.365   7.812 -0.1325  0.6884 -0.0935
 4042SOL    HW123585   0.028   0.281   7.830 -1.7548 -0.1976 -0.3574
 4042SOL    HW223586   4.632   0.365   7.869  2.1554 -0.7210  2.9176
 4043SOL     OW23587   2.165   1.235   5.968 -0.1235  0.0100 -1.0660
 4043SOL    HW123588   2.205   1.241   6.055 -1.7653 -1.0401 -0.2325
 4043SOL    HW223589   2.115   1.154   5.977 -0.1172 -0.0622 -1.7403
 4044SOL     OW23590   2.169   0.328   1.666 -0.5659 -0.0037 -0.2822
 4044SOL    HW123591   2.121   0.352   1.745  1.3908 -0.7387  1.1282
 4044SOL    HW223592   2.135   0.383   1.595  2.0178  0.8569 -0.8460
 4045SOL     OW23593   3.339   2.177  11.306 -0.0353 -0.2133 -0.1680
 4045SOL    HW123594   3.266   2.150  11.362 -0.9355 -0.4112 -1.4544
 4045SOL    HW223595   3.341   2.272  11.323 -1.5272 -0.3755  0.9893
 4046SOL     OW23596   4.053   0.497  10.385  0.2776 -0.3018 -0.2295
 4046SOL    HW123597   3.996   0.509  10.310 -0.4974 -0.6355  0.3017
 4046SOL    HW223598   4.131   0.493  10.330 -0.2628 -2.3114 -0.8335
 4047SOL     OW23599   3.414   2.513  10.854 -0.3524 -0.7917  0.3184
 4047SOL    HW123600   3.327   2.552  10.847  0.4857  1.2336  1.1278
 4047SOL    HW223601   3.419   2.505  10.949  0.1991 -3.5648  0.0535
 4048SOL     OW23602   2.153   2.301   9.811  0.0759 -0.1070  0.3698
 4048SOL    HW123603   2.178   2.261   9.895  2.3476  1.4554  0.4256
 4048SOL    HW223604   2.236   2.335   9.777 -0.3868  2.8033  2.1454
 4049SOL     OW23605   0.410   0.294   7.022  0.0528 -0.4236 -0.1285
 4049SOL    HW123606   0.426   0.382   7.055 -3.5912  0.0135  0.4919
 4049SOL    HW223607   0.434   0.320   6.934  1.8489 -0.1136  0.4544
 4050SOL     OW23608   0.957   1.903  13.950 -0.3814 -0.2948  0.0398
 4050SOL    HW123609   0.883   1.849  13.978 -1.4232  0.8196 -0.5962
 4050SOL    HW223610   0.980   1.873  13.862 -0.9580  0.8122 -0.4794
 4051SOL     OW23611   2.332   1.690  15.494  0.6660 -0.5842  0.1592
 4051SOL    HW123612   2.273   1.648  15.557 -1.4160 -1.2820 -2.2516
 4051SOL    HW223613   2.412   1.641  15.509  1.2366  0.9297  2.2340
 4052SOL     OW23614   2.720   2.698   8.522  0.2793 -0.2408  0.2786
 4052SOL    HW123615   2.773   2.633   8.475 -1.3483  1.4614 -3.8550
 4052SOL    HW223616   2.638   2.695   8.474  2.2151  0.5817 -3.0812
 4053SOL     OW23617   3.613   1.411  11.790 -0.4281 -0.5174  0.0821
 4053SOL    HW123618   3.587   1.490  11.743  0.2526 -0.0551  0.4807
 4053SOL    HW223619   3.546   1.409  11.857  1.4737  0.1234  2.0015
 4054SOL     OW23620   2.662   0.873  15.314  0.1099  0.0324  0.0186
 4054SOL    HW123621   2.710   0.833  15.386 -0.5373 -2.7536 -1.0618
 4054SOL    HW223622   2.640   0.957  15.354 -0.7430 -0.0010 -0.3699
 4055SOL     OW23623   1.015   2.655   3.688  0.3195  0.3078  0.0486
 4055SOL    HW123624   1.006   2.720   3.617 -2.0558 -0.6738 -0.5643
 4055SOL    HW223625   0.936   2.685   3.734 -0.0723  1.2622 -1.2308
 4056SOL     OW23626   2.036   1.632   7.179 -0.1672  0.5789  0.2011
 4056SOL    HW123627   1.951   1.595   7.153 -0.1779 -0.0695  1.1283
 4056SOL    HW223628   2.007   1.703   7.237 -0.0050 -0.2144  1.2655
 4057SOL     OW23629   3.043   2.134  13.925 -0.4208 -0.3959  0.0388
 4057SOL    HW123630   3.114   2.074  13.946 -1.2553 -0.7560  1.8311
 4057SOL    HW223631   3.003   2.117  13.839  2.7302 -3.0282 -0.9193
 4058SOL     OW23632   4.463   3.130   2.288  0.6940  0.4453 -0.3823
 4058SOL    HW123633   4.400   3.190   2.247 -0.9315 -0.4132  0.8803
 4058SOL    HW223634   4.402   3.070   2.331 -0.1031  1.0369 -0.6919
 4059SOL     OW23635   3.359   2.862   0.690 -0.1643  0.4706  0.0373
 4059SOL    HW123636   3.295   2.897   0.628 -0.8572 -2.4082 -0.8730
 4059SOL    HW223637   3.419   2.935   0.706  0.3285  0.4298 -1.6417
 4060SOL     OW23638   1.681   3.594   3.376  0.2958  0.0264  0.3874
 4060SOL    HW123639   1.594   3.595   3.336  0.4696 -1.9056 -0.0154
 4060SOL    HW223640   1.714   3.505   3.381  1.1227  0.4019  1.5531
 4061SOL     OW23641   0.329   0.748   8.123 -0.0433  0.0905 -0.3076
 4061SOL    HW123642   0.302   0.659   8.147  0.4266 -0.2223 -0.9386
 4061SOL    HW223643   0.399   0.770   8.184 -0.4852  0.1591  0.1750
 4062SOL     OW23644   4.605   0.661   1.528 -0.1321  0.1491  0.7656
 4062SOL    HW123645   4.514   0.685   1.510 -0.3767 -0.1860  1.5278
 4062SOL    HW223646   4.589   0.569   1.509 -2.3409  0.3599  1.5793
 4063SOL     OW23647   1.693   1.698  12.758  0.3331 -0.2346  0.4145
 4063SOL    HW123648   1.750   1.648  12.816  0.0721  1.6838  2.3296
 4063SOL    HW223649   1.627   1.717  12.825 -0.6407  1.5687 -1.0540
 4064SOL     OW23650   1.918   3.790   6.646  0.2184  0.3629  0.0814
 4064SOL    HW123651   1.938   3.865   6.590  0.6637  1.7665  2.1057
 4064SOL    HW223652   1.826   3.799   6.670 -0.1834  2.4472 -2.2540
 4065SOL     OW23653   1.264   3.638   3.967 -0.6493 -0.0322  0.2076
 4065SOL    HW123654   1.233   3.704   3.905  0.3749  1.0517  0.8630
 4065SOL    HW223655   1.242   3.560   3.916  2.4621 -0.2013 -0.8523
 4066SOL     OW23656   2.968   2.719   8.857 -0.0912 -0.2154 -0.1302
 4066SOL    HW123657   2.976   2.785   8.926 -1.4445 -0.0058 -0.1680
 4066SOL    HW223658   3.017   2.772   8.794 -0.2977  0.2114  0.0646
 4067SOL     OW23659   4.229   0.083   3.137  0.1472 -0.4207  0.0767
 4067SOL    HW123660   4.319   0.090   3.169  0.7017 -1.2117 -1.3234
 4067SOL    HW223661   4.206   0.031   3.215  0.4941 -0.2390  0.2982
 4068SOL     OW23662   0.510   1.548  17.314 -0.0697 -0.1315 -0.0198
 4068SOL    HW123663   0.513   1.577  17.222  1.1364 -0.5980 -0.1273
 4068SOL    HW223664   0.474   1.460  17.311  1.1883 -0.6834  1.1085
 4069SOL     OW23665   1.730   0.153   8.464  0.1472 -0.5124  0.4500
 4069SOL    HW123666   1.744   0.211   8.539 -0.4435 -0.5196  0.5647
 4069SOL    HW223667   1.634   0.153   8.456  0.1131  1.8501  0.8841
 4070SOL     OW23668   4.463   2.769   6.688 -0.6944  0.1147  0.1321
 4070SOL    HW123669   4.553   2.792   6.664 -0.3887  0.8963  2.0822
 4070SOL    HW223670   4.444   2.694   6.631  2.3525 -0.1566 -0.5398
 4071SOL     OW23671   1.036   1.968   2.491  0.2157 -0.0828  0.4742
 4071SOL    HW123672   0.944   1.943   2.482 -0.6753  2.6537  1.9032
 4071SOL    HW223673   1.052   2.031   2.420  0.3543  0.1969  0.7518
 4072SOL     OW23674   0.113   0.328   5.811  0.3060 -0.3366  1.4718
 4072SOL    HW123675   0.164   0.378   5.748  1.2265 -2.2934  0.6615
 4072SOL    HW223676   0.077   0.405   5.854 -2.6217 -3.1623  4.0761
 4073SOL     OW23677   3.923   3.957   5.434  0.1327 -0.3868 -0.1550
 4073SOL    HW123678   3.887   3.899   5.367  0.0417  1.7375 -1.9635
 4073SOL    HW223679   3.998   3.994   5.388 -0.9792  1.7421 -0.2634
 4074SOL     OW23680   4.174   2.317  11.760 -0.1145  0.7169 -0.0519
 4074SOL    HW123681   4.213   2.265  11.690  0.1944  0.1005  0.5764
 4074SOL    HW223682   4.128   2.249  11.809 -2.2704  1.3614 -1.1762
 4075SOL     OW23683   4.703   0.701   9.176 -0.1021  0.2650  0.0868
 4075SOL    HW123684   4.618   0.659   9.161 -0.2694  0.1422  1.3463
 4075SOL    HW223685   0.034   0.627   9.203  0.1205 -0.1071 -1.4096
 4076SOL     OW23686   3.943   3.093   8.834 -0.3819 -0.5568 -0.6109
 4076SOL    HW123687   4.009   3.100   8.904  0.5165  1.3430 -1.6700
 4076SOL    HW223688   3.914   3.002   8.835 -1.6374 -0.1457 -0.6053
 4077SOL     OW23689   3.924   0.304   8.356  0.0778 -0.0981  0.1702
 4077SOL    HW123690   3.876   0.353   8.423 -1.3051  0.9861 -1.5932
 4077SOL    HW223691   3.936   0.374   8.292  1.2678 -0.4835 -0.0132
 4078SOL     OW23692   0.909   1.210  14.349  0.0219 -0.0892 -0.7118
 4078SOL    HW123693   0.869   1.255  14.423 -1.1776 -2.9189  0.3939
 4078SOL    HW223694   0.999   1.201  14.381  0.2166 -2.2054 -1.8500
 4079SOL     OW23695   3.971   3.998   3.658  0.5999  0.5036  0.0470
 4079SOL    HW123696   3.877   3.990   3.639  0.7319  1.5542 -1.0502
 4079SOL    HW223697   3.981   4.015   3.751  0.0344  0.6756  0.0784
 4080SOL     OW23698   0.781   4.229  12.866  0.1650 -0.1326  0.0839
 4080SOL    HW123699   0.872   4.204  12.850 -0.0348  0.2123 -1.6032
 4080SOL    HW223700   0.776   4.317  12.829 -1.0110  0.4548  1.6307
 4081SOL     OW23701   4.101   0.731   7.110  0.0893 -0.2075  0.2133
 4081SOL    HW123702   4.052   0.785   7.172 -1.6981 -0.7178 -0.7680
 4081SOL    HW223703   4.184   0.733   7.156 -1.0553  0.5732  2.2195
 4082SOL     OW23704   3.384   3.789   5.797  0.7494  0.1229 -0.2839
 4082SOL    HW123705   3.453   3.723   5.798  1.2493  0.6620  1.8679
 4082SOL    HW223706   3.399   3.833   5.881  2.2049  1.6706 -1.3576
 4083SOL     OW23707   0.283   3.486   0.871  0.0536 -0.1809  0.5800
 4083SOL    HW123708   0.264   3.573   0.835 -1.4678 -1.2727 -1.2174
 4083SOL    HW223709   0.211   3.443   0.825  0.1071 -0.7167  1.0035
 4084SOL     OW23710   1.175   3.079   6.277 -0.2155 -0.1548  0.1799
 4084SOL    HW123711   1.144   3.105   6.190 -1.3932  1.0629  0.9565
 4084SOL    HW223712   1.097   3.028   6.297  0.6315 -0.9688  1.4373
 4085SOL     OW23713   2.962   2.224   7.857 -0.5665 -0.3469  0.0396
 4085SOL    HW123714   2.879   2.201   7.900  0.0946 -3.5502 -0.4103
 4085SOL    HW223715   2.932   2.245   7.769  1.1093 -0.8951 -0.6461
 4086SOL     OW23716   2.779   4.538   4.167  0.1412 -0.7136 -0.0189
 4086SOL    HW123717   2.795   4.507   4.257  2.6678 -1.1959 -0.6245
 4086SOL    HW223718   2.685   4.553   4.172  0.1095 -1.2486  1.1743
 4087SOL     OW23719   0.773   4.695   7.243  0.0265 -0.4875 -0.0197
 4087SOL    HW123720   0.710   4.623   7.234  1.0477 -1.4370  0.4881
 4087SOL    HW223721   0.746   0.012   7.326  0.1831 -0.9100  0.2289
 4088SOL     OW23722   3.314   4.211  11.680 -0.2952 -0.6053 -0.3235
 4088SOL    HW123723   3.239   4.271  11.677  0.2031  0.0503  0.1475
 4088SOL    HW223724   3.268   4.129  11.666  0.9555 -1.3892  0.1768
 4089SOL     OW23725   2.533   4.285  15.499  0.1697  0.5189 -0.7489
 4089SOL    HW123726   2.556   4.342  15.425  0.2015  1.9341  0.3472
 4089SOL    HW223727   2.604   4.222  15.484 -0.7759 -0.6414 -0.2805
 4090SOL     OW23728   0.685   3.290  16.536 -0.0439 -0.8221  0.1647
 4090SOL    HW123729   0.774   3.256  16.550  0.6796  0.0811 -2.1958
 4090SOL    HW223730   0.642   3.245  16.463 -0.3851  3.0083 -2.0019
 4091SOL     OW23731   2.930   0.093  10.549 -0.1177  0.6760  0.4806
 4091SOL    HW123732   2.966   0.100  10.461  0.5493  0.7782  0.7592
 4091SOL    HW223733   3.003   0.114  10.608 -0.3491  2.1991  0.2269
 4092SOL     OW23734   2.538   3.896   5.350 -0.3000 -0.4235  0.4970
 4092SOL    HW123735   2.623   3.862   5.377 -0.8696 -1.7448  0.6295
 4092SOL    HW223736   2.478   3.850   5.408  0.3975 -2.0091 -0.0582
 4093SOL     OW23737   0.800   4.451   2.634 -0.1330 -0.2195 -0.9407
 4093SOL    HW123738   0.757   4.398   2.701 -0.7314 -0.3922 -1.4533
 4093SOL    HW223739   0.725   4.505   2.607 -0.3291 -0.4331 -0.8165
 4094SOL     OW23740   0.695   3.112   7.265 -0.2834  0.7790  0.2296
 4094SOL    HW123741   0.631   3.183   7.272 -0.2847  0.9682 -1.6435
 4094SOL    HW223742   0.749   3.148   7.195  1.0238  1.2656  1.4846
 4095SOL     OW23743   1.362   2.167   8.816 -0.2077 -0.2107  0.6386
 4095SOL    HW123744   1.427   2.221   8.772  1.7041 -0.5744  3.0752
 4095SOL    HW223745   1.419   2.144   8.889 -1.3440 -1.7956  1.0319
 4096SOL     OW23746   1.174   0.971   7.660 -0.4536  0.2471 -0.7381
 4096SOL    HW123747   1.131   1.056   7.669  0.7847  0.7904  0.0904
 4096SOL    HW223748   1.147   0.933   7.743 -1.5811 -0.6109 -1.4965
 4097SOL     OW23749   3.679   1.785   6.033  0.6035  0.5625  0.3030
 4097SOL    HW123750   3.647   1.867   5.996  0.4216  0.3486 -0.0095
 4097SOL    HW223751   3.735   1.761   5.959 -0.3318  0.5329 -0.3999
 4098SOL     OW23752   3.851   2.794   6.527 -0.5488  0.0545  0.6321
 4098SOL    HW123753   3.827   2.887   6.525  2.0622  0.7333 -0.6552
 4098SOL    HW223754   3.773   2.750   6.495 -0.0089 -1.3058  1.2127
 4099SOL     OW23755   3.779   1.444  14.263 -0.0824  0.2176 -0.3870
 4099SOL    HW123756   3.761   1.365  14.211 -0.9515 -0.5696  1.1232
 4099SOL    HW223757   3.691   1.461  14.295 -0.3714  0.2849 -1.2125
 4100SOL     OW23758   2.029   1.719   2.763 -0.2677 -0.5818  0.3490
 4100SOL    HW123759   1.967   1.755   2.700 -2.0981 -0.3922  2.2741
 4100SOL    HW223760   1.969   1.656   2.803  1.1824 -1.0004  1.8847
 4101SOL     OW23761   2.747   3.298  10.326 -0.1205  0.0695  0.5878
 4101SOL    HW123762   2.806   3.240  10.279 -0.0380 -0.6177  1.5510
 4101SOL    HW223763   2.811   3.356  10.367  1.7598 -1.0978 -0.7129
 4102SOL     OW23764   0.849   4.061   3.794 -0.1805  0.1743  0.1934
 4102SOL    HW123765   0.886   3.982   3.835 -0.2989 -0.6079 -1.2001
 4102SOL    HW223766   0.919   4.125   3.798  0.0906 -0.1201  0.1183
 4103SOL     OW23767   3.857   4.075   2.107 -0.0891  0.6549  0.6189
 4103SOL    HW123768   3.864   4.112   2.195 -2.4169  0.2780  0.9631
 4103SOL    HW223769   3.940   4.027   2.098  0.1155  0.9635  0.8516
 4104SOL     OW23770   1.512   4.556   8.468  0.2691  0.0042  0.1740
 4104SOL    HW123771   1.509   4.469   8.428 -2.2091 -0.2808  0.9561
 4104SOL    HW223772   1.601   4.552   8.502 -0.2257  2.2702  1.6935
 4105SOL     OW23773   1.791   4.141   6.604  0.0886  0.0027  0.7896
 4105SOL    HW123774   1.725   4.146   6.674  0.7787 -0.9522  1.5075
 4105SOL    HW223775   1.866   4.166   6.658  0.4827  0.5386 -0.0051
 4106SOL     OW23776   2.315   4.040  17.205 -0.0448 -0.1973 -0.4666
 4106SOL    HW123777   2.346   4.124  17.173 -0.1265 -0.1029 -0.2977
 4106SOL    HW223778   2.350   4.038  17.294 -0.2185 -0.4587 -0.4034
 4107SOL     OW23779   2.430   1.824   2.628 -0.4313 -0.1625  0.2050
 4107SOL    HW123780   2.432   1.790   2.539  0.5269  3.1181 -1.0357
 4107SOL    HW223781   2.335   1.835   2.631 -0.1695  1.5767  2.6819
 4108SOL     OW23782   1.491   3.232   4.384  0.4646  0.0131  0.1527
 4108SOL    HW123783   1.455   3.246   4.471 -1.4793  1.8713 -0.9491
 4108SOL    HW223784   1.434   3.267   4.315  0.4035 -1.4409 -0.5322
 4109SOL     OW23785   2.338   2.956   9.058  0.1067 -0.1641  0.4362
 4109SOL    HW123786   2.272   3.003   9.007 -0.2412 -0.1986  0.8512
 4109SOL    HW223787   2.400   2.930   8.989 -2.9830  0.4542 -2.5641
 4110SOL     OW23788   4.609   1.325   4.529  0.0935 -0.0657 -0.1051
 4110SOL    HW123789   4.584   1.345   4.439 -2.7824  0.8186  0.8848
 4110SOL    HW223790   4.551   1.250   4.540 -1.2177  0.7247 -1.6261
 4111SOL     OW23791   4.277   3.119   8.648  0.2854  0.5200 -0.5263
 4111SOL    HW123792   4.225   3.047   8.683  1.5767 -0.1365  0.0595
 4111SOL    HW223793   4.250   3.185   8.711 -1.0274  0.6565 -1.2372
 4112SOL     OW23794   3.353   0.256   9.318 -0.3118 -0.1057  0.0748
 4112SOL    HW123795   3.266   0.223   9.340  0.1007 -1.2706 -0.0645
 4112SOL    HW223796   3.415   0.198   9.363 -0.4482 -1.9375 -2.0903
 4113SOL     OW23797   0.143   0.144   8.210  0.1030  0.1249 -0.3604
 4113SOL    HW123798   0.088   0.220   8.225 -1.1208 -0.5178 -1.6232
 4113SOL    HW223799   0.130   0.148   8.116 -0.5947  1.4042 -0.2012
 4114SOL     OW23800   1.960   1.819   7.366 -0.3611  0.6117 -0.2046
 4114SOL    HW123801   1.915   1.878   7.426  1.8689 -0.0292  2.1246
 4114SOL    HW223802   1.935   1.853   7.280 -0.8776  1.7534  0.3918
 4115SOL     OW23803   3.394   3.807   5.529 -0.2194 -0.2295  0.5200
 4115SOL    HW123804   3.386   3.714   5.509  0.9543 -0.1487 -0.3391
 4115SOL    HW223805   3.380   3.809   5.624 -2.6563 -1.4191  0.1829
 4116SOL     OW23806   3.784   0.796   0.915  0.1705  0.2429  0.3856
 4116SOL    HW123807   3.791   0.852   0.838 -1.8356 -0.5953 -0.3838
 4116SOL    HW223808   3.842   0.847   0.972 -2.2069  2.6324  0.6970
 4117SOL     OW23809   1.349   0.487   7.343 -0.4546  0.0432 -0.0674
 4117SOL    HW123810   1.260   0.513   7.367 -0.7056 -0.0445 -0.9195
 4117SOL    HW223811   1.355   0.512   7.251  1.0504 -0.9551 -0.2334
 4118SOL     OW23812   3.150   3.032  12.223 -0.6092 -0.0082 -0.2558
 4118SOL    HW123813   3.074   3.090  12.219 -0.6073  0.1072  1.2814
 4118SOL    HW223814   3.105   2.947  12.230 -1.5977  0.6309  1.1842
 4119SOL     OW23815   3.271   3.749  11.593  0.8818 -0.5186  0.2702
 4119SOL    HW123816   3.199   3.709  11.642  0.6817  0.1617  0.5262
 4119SOL    HW223817   3.251   3.836  11.627  0.8558 -0.0909 -0.8211
 4120SOL     OW23818   3.543   2.822   1.790  0.0144  0.4779 -0.0688
 4120SOL    HW123819   3.550   2.901   1.736 -0.6852 -0.1746 -1.1193
 4120SOL    HW223820   3.617   2.777   1.749 -2.6782 -3.9951 -0.0088
 4121SOL     OW23821   0.143   2.640  14.143  0.3581 -0.8674  0.2695
 4121SOL    HW123822   0.190   2.558  14.131  1.8052 -0.0246  0.2375
 4121SOL    HW223823   0.180   2.674  14.224 -3.1251  0.0405  1.5139
 4122SOL     OW23824   3.311   0.742  13.521  0.1789  0.0872  0.0905
 4122SOL    HW123825   3.286   0.784  13.603  1.4361 -2.0975  1.5900
 4122SOL    HW223826   3.343   0.654  13.541 -0.2864 -0.3204 -0.9575
 4123SOL     OW23827   1.184   0.639   6.374 -0.5447 -0.0018 -0.0150
 4123SOL    HW123828   1.185   0.555   6.420 -1.4172  1.0093  1.8455
 4123SOL    HW223829   1.244   0.620   6.301  0.4949  1.1469  0.5558
 4124SOL     OW23830   1.674   1.126   8.180  0.0381  0.3245 -0.3790
 4124SOL    HW123831   1.691   1.194   8.245 -2.4682  0.4663  0.1282
 4124SOL    HW223832   1.595   1.087   8.217 -0.5037  1.4924 -0.3229
 4125SOL     OW23833   1.584   1.790  12.996 -0.1050 -0.5313 -0.0450
 4125SOL    HW123834   1.618   1.866  13.043  1.0462 -0.3657 -1.1233
 4125SOL    HW223835   1.492   1.815  12.983 -0.1934 -0.5767  0.5256
 4126SOL     OW23836   0.684   0.686   8.760 -0.4375  0.1565  0.1328
 4126SOL    HW123837   0.590   0.686   8.778 -0.8890 -0.2582 -2.1871
 4126SOL    HW223838   0.696   0.592   8.769 -1.0398 -0.2573 -3.2973
 4127SOL     OW23839   1.412   3.903   5.663 -0.3961  0.6328  0.1237
 4127SOL    HW123840   1.461   3.961   5.604  0.9938  0.5428  1.1814
 4127SOL    HW223841   1.323   3.917   5.633 -0.8144  0.0056  1.0917
 4128SOL     OW23842   1.655   2.192   7.684  0.3191 -0.3167  0.2265
 4128SOL    HW123843   1.670   2.273   7.733 -0.6013 -1.7831  2.9331
 4128SOL    HW223844   1.580   2.212   7.629  0.1033  0.3524  0.7632
 4129SOL     OW23845   1.205   3.451   2.294  0.4365 -0.4577 -0.6278
 4129SOL    HW123846   1.145   3.525   2.294  0.2495 -0.6203  2.1077
 4129SOL    HW223847   1.208   3.432   2.387  0.4696  0.2878 -0.4756
 4130SOL     OW23848   4.275   3.586   2.082 -0.3002 -0.0049 -0.2445
 4130SOL    HW123849   4.347   3.646   2.098  1.0418 -1.5860 -0.3266
 4130SOL    HW223850   4.317   3.516   2.031  0.0310 -0.9249  1.2833
 4131SOL     OW23851   1.993   4.262   6.735 -0.0643  0.7121 -0.2779
 4131SOL    HW123852   2.083   4.261   6.703 -0.9497  2.0386 -2.8380
 4131SOL    HW223853   2.009   4.270   6.829 -2.1372 -3.5824  0.4461
 4132SOL     OW23854   1.585   4.479   4.961  0.0712 -0.0157 -0.7936
 4132SOL    HW123855   1.665   4.464   5.012  0.0173 -1.4913 -1.1517
 4132SOL    HW223856   1.589   4.403   4.903  0.1870  0.4004 -1.3324
 4133SOL     OW23857   3.394   3.718   6.153 -0.0834  0.3776 -0.0294
 4133SOL    HW123858   3.401   3.799   6.102  1.7370 -0.1881 -0.7060
 4133SOL    HW223859   3.452   3.754   6.219  2.1825  0.0035 -1.7911
 4134SOL     OW23860   1.822   3.469   4.167  0.2893 -0.1320  0.6719
 4134SOL    HW123861   1.840   3.562   4.154 -0.3519 -0.0547  0.3341
 4134SOL    HW223862   1.754   3.447   4.103 -1.0307 -1.3092  2.4947
 4135SOL     OW23863   1.003   3.160  14.370 -0.3018  0.1610  0.2451
 4135SOL    HW123864   0.958   3.244  14.361 -1.4508 -0.4235  0.5080
 4135SOL    HW223865   0.938   3.095  14.343  1.1568 -1.0604 -0.3294
 4136SOL     OW23866   3.655   1.052  11.409 -0.0683  0.0087  0.9088
 4136SOL    HW123867   3.621   1.053  11.320  2.8557  1.9745 -0.1900
 4136SOL    HW223868   3.630   0.966  11.441 -0.7909 -0.6896 -1.5912
 4137SOL     OW23869   2.162   1.078  15.033  0.1521  0.1662  0.1213
 4137SOL    HW123870   2.143   1.163  14.992  0.4853  0.1695 -0.0276
 4137SOL    HW223871   2.148   1.020  14.958  1.5578 -0.3000  0.2332
 4138SOL     OW23872   1.044   3.463   1.475 -0.9624 -0.4185  0.4360
 4138SOL    HW123873   1.131   3.437   1.506 -1.0664  1.3609  2.1813
 4138SOL    HW223874   1.044   3.428   1.385  1.4623 -0.2530  0.3628
 4139SOL     OW23875   0.543   3.637   3.081 -0.0798 -0.5555  0.2355
 4139SOL    HW123876   0.471   3.585   3.116 -0.1427  1.2073  2.7424
 4139SOL    HW223877   0.492   3.691   3.021  1.2287  0.3782 -0.0400
 4140SOL     OW23878   0.676   2.885   1.104 -0.1377 -0.3400 -0.1477
 4140SOL    HW123879   0.635   2.943   1.169 -0.6955 -0.0548 -0.7555
 4140SOL    HW223880   0.617   2.912   1.034 -1.4749  0.6596  1.3711
 4141SOL     OW23881   1.240   0.910   8.308 -0.5102 -0.2206  0.2782
 4141SOL    HW123882   1.197   0.888   8.391  0.7409 -2.3100  0.3752
 4141SOL    HW223883   1.179   0.871   8.246  0.0670 -0.6356 -0.0358
 4142SOL     OW23884   1.397   2.627   9.303 -0.2376 -0.3179 -0.0303
 4142SOL    HW123885   1.337   2.701   9.309  0.6917  0.3528  0.9888
 4142SOL    HW223886   1.464   2.658   9.365  0.4501 -1.7018 -0.0818
 4143SOL     OW23887   2.627   1.459   9.231  0.2264  0.4580  0.2059
 4143SOL    HW123888   2.535   1.483   9.227  0.3684  0.8316 -0.8340
 4143SOL    HW223889   2.641   1.445   9.137  1.1516 -0.1296  0.4366
 4144SOL     OW23890   3.859   2.654   3.571 -0.4057  0.0879 -0.1865
 4144SOL    HW123891   3.911   2.605   3.634  0.5570  1.6554  0.2515
 4144SOL    HW223892   3.892   2.744   3.579 -0.0466  0.0831 -1.5183
 4145SOL     OW23893   4.312   4.093   9.268  0.0043  0.4099 -0.2418
 4145SOL    HW123894   4.406   4.082   9.280 -0.4050 -2.4806  0.3259
 4145SOL    HW223895   4.284   4.027   9.332  0.2976  1.8303  1.3508
 4146SOL     OW23896   1.017   0.101  13.781 -0.0390 -0.4168  0.5555
 4146SOL    HW123897   0.954   0.040  13.743 -0.0944  0.1100 -0.1816
 4146SOL    HW223898   0.963   0.154  13.840 -1.8554 -2.5302  0.7583
 4147SOL     OW23899   2.875   3.753   8.307 -0.4339  0.2339 -0.0279
 4147SOL    HW123900   2.894   3.707   8.225 -0.0744  2.7485 -1.3342
 4147SOL    HW223901   2.815   3.690   8.347 -0.0723 -0.7235 -1.0062
 4148SOL     OW23902   0.569   1.289   4.555  0.5688  0.4028 -0.0537
 4148SOL    HW123903   0.489   1.323   4.594  0.2398 -1.4351  0.8686
 4148SOL    HW223904   0.621   1.266   4.632 -1.0371  0.3377  0.9980
 4149SOL     OW23905   1.852   1.540   2.851 -0.3791 -0.2940  0.1528
 4149SOL    HW123906   1.820   1.504   2.933 -0.0760 -3.2738 -1.0155
 4149SOL    HW223907   1.774   1.589   2.828  1.7603  2.3991 -1.3812
 4150SOL     OW23908   1.101   4.644   1.000 -0.5696  0.6679  0.5040
 4150SOL    HW123909   1.088   0.017   0.998  0.1488  0.7083 -3.8149
 4150SOL    HW223910   1.158   4.635   0.924  0.8931  1.2687  1.5360
 4151SOL     OW23911   3.879   2.855   2.333  0.0245  0.1714  0.1285
 4151SOL    HW123912   3.839   2.930   2.376 -0.9067 -0.0444 -0.3599
 4151SOL    HW223913   3.816   2.784   2.345 -1.8433  1.8913  0.4544
 4152SOL     OW23914   4.708   3.589   9.019 -0.1104 -0.0510  0.0981
 4152SOL    HW123915   4.670   3.553   9.099  0.1366  0.0537  0.2631
 4152SOL    HW223916   4.685   3.682   9.014 -4.4711 -1.1928 -0.6340
 4153SOL     OW23917   0.230   4.201  11.269 -0.1178  0.5041 -0.0149
 4153SOL    HW123918   0.261   4.136  11.333  0.9424  0.2504 -0.7861
 4153SOL    HW223919   0.308   4.204  11.214 -0.1613 -2.7190 -0.2430
 4154SOL     OW23920   1.172   0.103   6.815  0.3833 -0.0493  0.3490
 4154SOL    HW123921   1.109   0.163   6.776  0.6315  0.5176  0.8154
 4154SOL    HW223922   1.164   0.034   6.750 -0.6754  0.2033  0.2118
 4155SOL     OW23923   0.619   0.699   7.824  0.1868  0.5452  0.1895
 4155SOL    HW123924   0.706   0.701   7.865  0.2454  0.8935  0.0492
 4155SOL    HW223925   0.566   0.659   7.893 -0.8579 -0.3261 -1.1174
 4156SOL     OW23926   2.515   3.704   0.918  0.8396 -0.2591 -0.2762
 4156SOL    HW123927   2.462   3.751   0.854 -1.5557 -0.7696  1.3404
 4156SOL    HW223928   2.599   3.749   0.925 -1.3837  3.6529  0.9191
 4157SOL     OW23929   1.559   1.640   8.249 -0.1553 -0.6548  1.1280
 4157SOL    HW123930   1.499   1.712   8.269 -1.5331 -0.7957 -2.6328
 4157SOL    HW223931   1.540   1.613   8.160  0.9470 -0.2588  0.7633
 4158SOL     OW23932   2.528   0.554  10.977 -0.3963  0.0589 -0.4293
 4158SOL    HW123933   2.581   0.583  10.903 -0.2863 -1.4509 -0.9541
 4158SOL    HW223934   2.585   0.600  11.038  0.8456 -2.2199  0.1375
 4159SOL     OW23935   2.403   4.318   4.091  0.1216  0.1464 -0.1681
 4159SOL    HW123936   2.387   4.230   4.125 -2.5088  0.5806 -0.2521
 4159SOL    HW223937   2.335   4.330   4.025  0.4463 -1.6514 -0.8430
 4160SOL     OW23938   1.513   1.366   4.617  0.8935 -0.6602  0.2333
 4160SOL    HW123939   1.496   1.371   4.711  1.9776  0.4574  0.3638
 4160SOL    HW223940   1.557   1.450   4.605 -0.0848 -0.3225 -0.9062
 4161SOL     OW23941   4.035   0.665   8.589 -0.0990  0.1796  0.6031
 4161SOL    HW123942   3.965   0.667   8.654 -1.0605 -0.3802 -0.4238
 4161SOL    HW223943   4.002   0.630   8.507  0.1545 -0.2808  0.7015
 4162SOL     OW23944   3.906   4.528   7.463 -1.1973 -0.4670 -0.0553
 4162SOL    HW123945   3.986   4.502   7.509 -1.4554 -1.4026 -0.1302
 4162SOL    HW223946   3.830   4.495   7.512 -0.8084  0.1497  0.9466
 4163SOL     OW23947   3.056   3.878   2.241  0.5043 -0.4419 -0.3744
 4163SOL    HW123948   3.066   3.783   2.238  0.3472 -0.5440  2.6260
 4163SOL    HW223949   3.057   3.897   2.335  1.2405 -0.3315 -0.4047
 4164SOL     OW23950   3.734   3.043   6.491  0.4376  0.7363  0.0490
 4164SOL    HW123951   3.717   3.133   6.462  2.2683  0.8587 -0.6788
 4164SOL    HW223952   3.680   2.989   6.433  1.0811  0.2574 -0.1131
 4165SOL     OW23953   3.909   2.692   6.856  0.3660  0.1562  0.3430
 4165SOL    HW123954   3.888   2.740   6.776 -1.4497 -3.3636 -1.2746
 4165SOL    HW223955   3.913   2.763   6.920 -2.0154 -0.7330  1.4393
 4166SOL     OW23956   4.390   0.804   1.355 -0.0349  0.1817  0.0457
 4166SOL    HW123957   4.332   0.812   1.279  1.7333 -0.4545 -1.3723
 4166SOL    HW223958   4.328   0.746   1.400 -0.8229  2.3065  1.6732
 4167SOL     OW23959   2.935   1.656   7.010  0.0295 -0.0638 -0.6859
 4167SOL    HW123960   2.966   1.694   7.092  1.2268  0.9312 -1.5945
 4167SOL    HW223961   2.840   1.646   7.020  0.1115 -0.2126 -0.0899
 4168SOL     OW23962   1.153   2.130   6.652 -0.0133  0.6834  0.8428
 4168SOL    HW123963   1.114   2.154   6.736  4.1144  1.6063  2.4558
 4168SOL    HW223964   1.201   2.051   6.675  0.3312  0.1800 -1.6038
 4169SOL     OW23965   0.568   0.727   3.746  0.0749 -0.0127  0.0975
 4169SOL    HW123966   0.495   0.786   3.766  0.2102  0.9499 -2.2443
 4169SOL    HW223967   0.540   0.648   3.791  0.6669  0.9121  2.1064
 4170SOL     OW23968   1.929   3.201   8.904  0.3778 -0.0047  0.4598
 4170SOL    HW123969   1.846   3.213   8.858 -1.2408 -2.8712  2.6438
 4170SOL    HW223970   1.905   3.131   8.965  0.6523 -0.0858  0.4718
 4171SOL     OW23971   2.821   1.518  17.005 -0.3295 -0.2111 -0.8595
 4171SOL    HW123972   2.833   1.566  16.923  1.7014  3.4343  1.5882
 4171SOL    HW223973   2.911   1.494  17.028  0.0788  2.7991  0.6800
 4172SOL     OW23974   0.519   3.284  16.965 -0.2614  0.4188 -0.3087
 4172SOL    HW123975   0.448   3.223  16.946  0.1770 -0.0244 -0.5269
 4172SOL    HW223976   0.500   3.358  16.907  0.4758  0.8134 -0.0539
 4173SOL     OW23977   2.863   4.460   3.130  0.0299 -0.5304 -0.5223
 4173SOL    HW123978   2.809   4.455   3.209  0.6865 -1.8126 -0.1462
 4173SOL    HW223979   2.934   4.516   3.161 -0.0109 -1.9083  2.1352
 4174SOL     OW23980   2.705   0.186   7.118  0.4205 -0.1424 -1.1215
 4174SOL    HW123981   2.649   0.109   7.124 -0.4033  0.6943  1.8684
 4174SOL    HW223982   2.758   0.190   7.197  1.0131  3.8524 -1.7172
 4175SOL     OW23983   0.091   0.321  13.882 -0.1577 -0.1170 -0.3992
 4175SOL    HW123984   0.145   0.301  13.958  0.2431  0.3381 -0.5700
 4175SOL    HW223985   0.015   0.352  13.931  0.2791 -1.5383  1.1583
 4176SOL     OW23986   1.432   0.014   1.665  0.1279  0.8910  0.2506
 4176SOL    HW123987   1.431   4.653   1.714 -0.5320 -0.2530 -1.7081
 4176SOL    HW223988   1.521   0.024   1.631 -0.4172 -0.1565 -1.4863
 4177SOL     OW23989   0.799   0.557   6.676 -0.6390  0.4408 -0.1870
 4177SOL    HW123990   0.730   0.622   6.667  0.6654  1.7859 -0.5229
 4177SOL    HW223991   0.828   0.573   6.766  0.2531 -0.2194 -0.3493
 4178SOL     OW23992   2.934   0.132  16.348  0.8055  0.1083  0.2588
 4178SOL    HW123993   2.908   0.215  16.389 -0.8411 -1.7981  3.0709
 4178SOL    HW223994   2.966   0.081  16.423 -2.8067 -0.6600  1.2673
 4179SOL     OW23995   1.335   0.514   8.595  0.1509  0.2672  0.4193
 4179SOL    HW123996   1.315   0.524   8.502 -0.9493 -1.3989  0.4711
 4179SOL    HW223997   1.371   0.425   8.593  0.2768  0.3100  0.7177
 4180SOL     OW23998   3.092   2.267   1.865 -0.6305 -0.5329  0.3245
 4180SOL    HW123999   3.180   2.297   1.840  0.0764 -2.2974  0.7062
 4180SOL    HW224000   3.108   2.266   1.959 -1.3103  1.3120  0.4664
 4181SOL     OW24001   2.173   2.804  12.835  0.5867 -0.1721 -0.4136
 4181SOL    HW124002   2.191   2.759  12.918 -2.1299 -0.6344 -0.0580
 4181SOL    HW224003   2.150   2.727  12.782 -1.3267 -0.4332  0.7839
 4182SOL     OW24004   0.611   4.167  11.468 -0.5231 -0.2961 -0.2873
 4182SOL    HW124005   0.643   4.080  11.492  2.2985  0.2053 -2.3121
 4182SOL    HW224006   0.538   4.182  11.529 -1.1238  0.1493 -1.1244
 4183SOL     OW24007   2.331   3.158  11.734  0.1807  0.3506 -0.0724
 4183SOL    HW124008   2.300   3.237  11.780  0.6264 -0.4825  1.6575
 4183SOL    HW224009   2.422   3.139  11.755 -0.0380 -2.2458 -1.6009
 4184SOL     OW24010   1.127   0.998   4.996 -0.1941  0.7782 -0.0304
 4184SOL    HW124011   1.194   1.065   4.988  1.1260 -0.8043 -2.1123
 4184SOL    HW224012   1.099   0.989   4.905 -1.0897 -0.5859  0.3851
 4185SOL     OW24013   3.395   4.428   7.081  0.2497 -0.3365 -0.7725
 4185SOL    HW124014   3.382   4.513   7.040 -1.8723 -0.7637 -1.0172
 4185SOL    HW224015   3.475   4.404   7.036  1.6882 -1.1316  2.1636
 4186SOL     OW24016   1.354   3.181   5.430 -0.2122  0.2023  0.2226
 4186SOL    HW124017   1.314   3.236   5.497 -1.8048 -1.6524  0.8043
 4186SOL    HW224018   1.443   3.167   5.462 -0.0334 -0.3588 -0.5107
 4187SOL     OW24019   4.684   2.012  14.540  0.5986  0.1330  0.3344
 4187SOL    HW124020   4.661   1.956  14.614  0.2122 -0.7764 -0.4907
 4187SOL    HW224021   4.613   1.991  14.480  1.5465 -0.1732 -0.6618
 4188SOL     OW24022   3.672   3.601  14.736 -0.6694  0.0303  0.0110
 4188SOL    HW124023   3.743   3.633  14.680  0.1723  2.0370  2.1811
 4188SOL    HW224024   3.649   3.687  14.772  0.7082 -0.0148  1.0070
 4189SOL     OW24025   2.049   2.150  12.703 -0.1641  0.6306 -0.5608
 4189SOL    HW124026   2.132   2.139  12.749  1.0642  1.0546 -2.6683
 4189SOL    HW224027   2.006   2.201  12.772 -1.2582 -0.5968 -0.3544
 4190SOL     OW24028   0.851   1.523   4.263  0.4675  0.0751  0.1480
 4190SOL    HW124029   0.800   1.603   4.273  1.6023  0.7708  0.3525
 4190SOL    HW224030   0.890   1.536   4.177 -1.4124  2.0814 -0.3743
 4191SOL     OW24031   4.285   2.763   4.186 -0.5229  0.1339  0.0392
 4191SOL    HW124032   4.363   2.767   4.131 -1.3162  2.8583 -0.8613
 4191SOL    HW224033   4.225   2.713   4.131  1.3815 -2.5865  0.4197
 4192SOL     OW24034   2.085   3.507   1.647  0.4277 -0.5262 -0.4464
 4192SOL    HW124035   2.115   3.473   1.731 -0.3771 -0.4215 -0.1181
 4192SOL    HW224036   1.991   3.518   1.664  0.6586 -0.7155  0.9651
 4193SOL     OW24037   3.892   2.290   6.517  0.2302  0.3707 -0.6181
 4193SOL    HW124038   3.892   2.362   6.579 -0.0358 -1.1951  1.2112
 4193SOL    HW224039   3.985   2.288   6.494  0.7970  3.0603  1.4700
 4194SOL     OW24040   3.265   1.870  12.341  0.1543  0.2723  0.0078
 4194SOL    HW124041   3.355   1.877  12.372  1.1685 -1.9521 -2.3734
 4194SOL    HW224042   3.256   1.948  12.287  1.9193 -1.0129 -2.1656
 4195SOL     OW24043   3.637   1.596   8.574 -0.4548  0.5337 -0.2363
 4195SOL    HW124044   3.558   1.572   8.624  0.2058 -0.0972  0.5173
 4195SOL    HW224045   3.650   1.684   8.609 -0.7731  0.1479  0.8780
 4196SOL     OW24046   3.037   4.298   8.256 -0.0509 -0.3017 -0.9737
 4196SOL    HW124047   3.071   4.311   8.167  1.6918  0.0279 -0.2661
 4196SOL    HW224048   2.948   4.331   8.262  0.1501 -0.0241  0.4617
 4197SOL     OW24049   2.581   1.385   7.455 -0.5140  0.0046  0.5138
 4197SOL    HW124050   2.639   1.445   7.408 -0.2447  0.3719  1.3031
 4197SOL    HW224051   2.611   1.296   7.439 -0.0636  0.0162  1.3224
 4198SOL     OW24052   2.295   0.235   9.971 -0.8740 -0.0937  0.4879
 4198SOL    HW124053   2.374   0.181   9.967 -1.6548 -1.1693 -0.5824
 4198SOL    HW224054   2.225   0.169   9.970 -1.1824  0.2841 -2.8061
 4199SOL     OW24055   1.572   1.133   4.811 -0.3479 -0.0692 -0.4125
 4199SOL    HW124056   1.611   1.219   4.826 -0.2349 -0.0113 -1.0443
 4199SOL    HW224057   1.630   1.101   4.743 -0.4980 -1.2866  0.0314
 4200SOL     OW24058   0.553   0.207  12.562  0.1855  0.1059 -0.2999
 4200SOL    HW124059   0.526   0.298  12.575  0.4674  0.5423 -2.7602
 4200SOL    HW224060   0.492   0.149  12.608 -0.8469  1.5828  0.2350
 4201SOL     OW24061   2.021   0.228   3.979  0.1428 -0.1463  0.1563
 4201SOL    HW124062   1.979   0.268   3.903 -2.7189 -0.8871  1.3512
 4201SOL    HW224063   1.944   0.190   4.020 -0.5020 -0.0456 -0.9540
 4202SOL     OW24064   0.173   2.990  15.664  0.4829 -0.2362 -0.2938
 4202SOL    HW124065   0.238   2.953  15.603  0.2177 -1.7980  0.3776
 4202SOL    HW224066   0.161   2.903  15.701 -1.0266  1.2978  2.8060
 4203SOL     OW24067   3.028   3.842  16.953 -0.6907  0.3812  0.5257
 4203SOL    HW124068   2.983   3.863  16.871 -1.0754  1.6610  1.0576
 4203SOL    HW224069   3.009   3.749  16.962 -2.3217  1.0239  4.1786
 4204SOL     OW24070   0.587   3.176  15.814 -0.1454  0.1799  0.1528
 4204SOL    HW124071   0.554   3.111  15.751  0.6539 -0.2637  0.1963
 4204SOL    HW224072   0.522   3.160  15.883 -0.3684 -0.7818 -0.2689
 4205SOL     OW24073   3.636   1.837   7.742 -0.0196  0.0793  0.8336
 4205SOL    HW124074   3.717   1.879   7.768 -0.6692  1.4530  0.6137
 4205SOL    HW224075   3.604   1.814   7.830 -0.4137 -1.2368  0.3566
 4206SOL     OW24076   1.773   2.174   0.038 -0.1556  0.4228 -0.0467
 4206SOL    HW124077   1.802   2.196  17.642 -1.1132  3.2350  0.3315
 4206SOL    HW224078   1.713   2.101   0.021  1.5386 -0.7036 -1.1886
 4207SOL     OW24079   4.561   4.561  15.484  0.5442  0.2743  0.7300
 4207SOL    HW124080   4.537   4.636  15.430 -2.9099 -1.0455  0.4241
 4207SOL    HW224081   4.520   4.579  15.569  1.8152  1.7834  1.0102
 4208SOL     OW24082   3.121   1.404   9.964 -0.1907 -0.1527 -0.2198
 4208SOL    HW124083   3.120   1.482  10.019 -1.1351 -0.7128  0.5671
 4208SOL    HW224084   3.203   1.367   9.996  0.3157 -0.8589 -2.3078
 4209SOL     OW24085   1.916   0.556   8.807 -0.2734 -0.0526  0.0583
 4209SOL    HW124086   1.953   0.481   8.760 -1.1226 -0.0602 -0.5963
 4209SOL    HW224087   1.821   0.551   8.811 -0.1873 -2.8037 -0.9781
 4210SOL     OW24088   1.939   1.054   2.545 -0.2921  0.1163 -0.3673
 4210SOL    HW124089   1.907   0.980   2.596 -0.1845  0.4765  0.2165
 4210SOL    HW224090   1.943   1.008   2.461 -1.6765  0.9330 -0.8867
 4211SOL     OW24091   2.006   0.788   3.345  0.5916  0.4167  0.3989
 4211SOL    HW124092   2.076   0.760   3.286 -2.3033 -2.8547 -1.5027
 4211SOL    HW224093   2.055   0.843   3.406 -0.4745  0.3043  1.3486
 4212SOL     OW24094   3.598   2.475   0.683 -0.4311  0.2102  0.2997
 4212SOL    HW124095   3.602   2.536   0.609 -0.9891  2.2779  1.9655
 4212SOL    HW224096   3.527   2.507   0.739 -0.1431  0.6360  0.4213
 4213SOL     OW24097   2.397   0.535   4.277  0.0363 -0.1818  0.8278
 4213SOL    HW124098   2.338   0.598   4.235  1.8856 -0.4400 -2.2009
 4213SOL    HW224099   2.440   0.495   4.202  0.2485  0.7957  0.4171
 4214SOL     OW24100   4.244   2.430   6.998  0.2267 -0.4120 -0.0354
 4214SOL    HW124101   4.250   2.513   6.951 -1.7526  0.9831  2.2169
 4214SOL    HW224102   4.281   2.360   6.944  0.0142 -0.9163  0.4783
 4215SOL     OW24103   4.174   0.753  15.375  0.4264  0.8361  0.0721
 4215SOL    HW124104   4.173   0.735  15.281  0.8434 -0.5120  0.3264
 4215SOL    HW224105   4.098   0.811  15.385 -1.5941 -1.1709 -3.6603
 4216SOL     OW24106   4.026   4.135   5.113  0.5337 -0.1937  0.2031
 4216SOL    HW124107   4.054   4.110   5.202  3.4587  0.2099 -0.6019
 4216SOL    HW224108   3.934   4.158   5.124  0.4107 -1.8380  2.9023
 4217SOL     OW24109   2.263   0.605   7.528 -0.3427  0.2115 -0.1956
 4217SOL    HW124110   2.320   0.644   7.462 -0.7566  2.6381  0.8866
 4217SOL    HW224111   2.207   0.680   7.544  0.1835  0.6895 -0.6053
 4218SOL     OW24112   1.265   4.162  16.409  0.2452  0.3330  0.4898
 4218SOL    HW124113   1.300   4.073  16.418  3.3108  1.2868 -2.3088
 4218SOL    HW224114   1.337   4.205  16.364 -0.0455 -0.7973 -1.0476
 4219SOL     OW24115   4.431   2.198   3.491  0.4928 -0.2184 -0.1765
 4219SOL    HW124116   4.513   2.155   3.467  0.0128 -2.1710  1.6188
 4219SOL    HW224117   4.462   2.285   3.515  0.2899  0.1219 -1.1786
 4220SOL     OW24118   0.779   2.681   8.055 -0.3306 -0.0556  0.2175
 4220SOL    HW124119   0.791   2.618   8.126  0.6538  0.0983  0.1901
 4220SOL    HW224120   0.810   2.626   7.983  0.6225 -0.7071  1.1254
 4221SOL     OW24121   0.669   2.077   3.932  0.1449  0.4207 -0.4129
 4221SOL    HW124122   0.742   2.042   3.984 -0.9817 -0.1695  0.7642
 4221SOL    HW224123   0.645   1.999   3.882 -0.6694  1.7297 -2.0374
 4222SOL     OW24124   1.277   0.733  12.587  0.1756 -1.1364  0.2358
 4222SOL    HW124125   1.363   0.724  12.545 -1.1089 -1.0990 -2.4076
 4222SOL    HW224126   1.298   0.723  12.679 -0.5563 -2.2322  0.2855
 4223SOL     OW24127   0.118   1.506   8.329  0.7911  0.5660 -0.0337
 4223SOL    HW124128   0.050   1.564   8.295 -1.2268 -3.0892 -2.2970
 4223SOL    HW224129   0.152   1.466   8.249  1.1213  1.1557 -0.1889
 4224SOL     OW24130   4.223   4.058   4.597 -0.5405  0.2336  0.0494
 4224SOL    HW124131   4.279   3.997   4.549 -2.8076 -1.3392 -0.6126
 4224SOL    HW224132   4.235   4.141   4.550  1.3912  0.3390  0.7361
 4225SOL     OW24133   2.534   1.316  10.866 -0.1835  0.4871 -0.1504
 4225SOL    HW124134   2.474   1.323  10.941 -0.5996 -2.1846 -0.2284
 4225SOL    HW224135   2.612   1.273  10.902  0.7517  1.9565 -0.4726
 4226SOL     OW24136   3.073   2.062   4.699 -0.1784  0.4761  0.0831
 4226SOL    HW124137   3.044   1.996   4.636 -0.1563  2.0455 -1.5722
 4226SOL    HW224138   3.113   2.127   4.641 -0.9134  2.7769  2.1483
 4227SOL     OW24139   4.441   4.047   4.752 -0.0173 -0.5354  0.7986
 4227SOL    HW124140   4.368   4.037   4.692  1.5568 -1.1495 -0.9862
 4227SOL    HW224141   4.511   4.004   4.703 -0.1456 -0.8643  0.9026
 4228SOL     OW24142   2.486   0.641   3.610  0.3877  0.3066  0.1101
 4228SOL    HW124143   2.479   0.635   3.515 -2.3734  0.6631  0.2950
 4228SOL    HW224144   2.528   0.727   3.622 -0.9152  0.8138  0.9685
 4229SOL     OW24145   2.235   2.700   6.302  0.4345 -0.0593 -0.1270
 4229SOL    HW124146   2.179   2.743   6.238  1.5930  1.3551 -0.1849
 4229SOL    HW224147   2.285   2.636   6.250  2.0623 -0.2758  1.7066
 4230SOL     OW24148   1.909   0.798   2.696 -0.1268  0.4430 -0.3453
 4230SOL    HW124149   1.917   0.794   2.791 -3.7088 -0.1121 -0.0518
 4230SOL    HW224150   1.840   0.733   2.685 -0.8408  1.2376 -0.5656
 4231SOL     OW24151   4.272   1.626   6.128  0.1626 -0.3132  0.7122
 4231SOL    HW124152   4.366   1.608   6.131  0.3313  0.1998 -2.1294
 4231SOL    HW224153   4.272   1.697   6.065  2.9381  1.4860  2.7224
 4232SOL     OW24154   0.072   0.666  15.438  0.2962  0.3615  0.0441
 4232SOL    HW124155   0.043   0.618  15.361  0.4293 -1.7790  1.3231
 4232SOL    HW224156   0.078   0.595  15.502 -0.4732  0.0908 -0.1984
 4233SOL     OW24157   3.556   0.037   3.949  0.1398 -0.9048 -0.1906
 4233SOL    HW124158   3.469   0.012   3.981 -1.1953  1.5879 -1.8337
 4233SOL    HW224159   3.546   0.028   3.854  0.0231 -0.6146 -0.2054
 4234SOL     OW24160   1.155   3.600   0.154 -0.1510 -0.1784  0.0750
 4234SOL    HW124161   1.133   3.514   0.120 -0.9909  0.5053 -1.1060
 4234SOL    HW224162   1.101   3.596   0.233 -0.0564 -2.1370  0.0215
 4235SOL     OW24163   2.452   1.022  15.012 -0.6410  0.3710 -0.0906
 4235SOL    HW124164   2.417   0.944  15.054  1.3501  0.1938  1.2518
 4235SOL    HW224165   2.373   1.067  14.982 -1.1927 -2.5689 -3.0584
 4236SOL     OW24166   4.028   3.366   2.003 -0.2255 -0.6040 -0.2956
 4236SOL    HW124167   3.948   3.397   2.044  0.3968 -0.8070  1.0737
 4236SOL    HW224168   4.014   3.394   1.913  2.5839  1.1793 -0.1822
 4237SOL     OW24169   3.210   3.544   7.742 -0.4493 -0.8604  0.4089
 4237SOL    HW124170   3.235   3.630   7.775 -0.7318 -0.2021 -1.1266
 4237SOL    HW224171   3.242   3.494   7.818  0.5163 -0.0628  0.5173
 4238SOL     OW24172   4.130   3.827   6.512 -0.0975  0.6243  0.3001
 4238SOL    HW124173   4.095   3.898   6.566  1.0557  0.7362  0.8956
 4238SOL    HW224174   4.225   3.837   6.517 -0.1611  1.1842  0.3717
 4239SOL     OW24175   4.019   1.663   7.722  0.5415  0.2943 -0.2824
 4239SOL    HW124176   4.037   1.655   7.815 -2.5072  1.2041  0.3897
 4239SOL    HW224177   4.038   1.757   7.715  1.6945  0.2098  1.6850
 4240SOL     OW24178   3.624   3.681   7.760  0.5134  0.3950  0.1881
 4240SOL    HW124179   3.641   3.747   7.827  1.0505  1.8781 -1.4118
 4240SOL    HW224180   3.713   3.655   7.736 -0.4428 -1.5959 -1.2674
 4241SOL     OW24181   4.691   2.013   5.700 -0.1792  0.8178 -0.5367
 4241SOL    HW124182   4.687   1.968   5.616 -1.0467  0.6367 -0.4024
 4241SOL    HW224183   0.039   1.964   5.743 -0.2803  0.9707 -0.1963
 4242SOL     OW24184   0.381   2.720   1.077 -0.2885 -0.7411 -0.3516
 4242SOL    HW124185   0.428   2.782   1.022 -0.7934  0.4211  0.5239
 4242SOL    HW224186   0.296   2.710   1.034  0.0735  1.4416 -1.5479
 4243SOL     OW24187   0.012   0.955   3.927  0.1997 -0.4453  0.3333
 4243SOL    HW124188   4.661   1.014   3.910  1.2767  0.9568  0.6240
 4243SOL    HW224189   0.075   1.019   3.958  0.5386 -0.6293  0.0305
 4244SOL     OW24190   1.470   3.404   5.327  0.2518 -0.2904  0.1101
 4244SOL    HW124191   1.441   3.320   5.362  1.5946 -1.3366 -1.3058
 4244SOL    HW224192   1.530   3.437   5.394  2.0755 -2.9182 -0.2431
 4245SOL     OW24193   1.556   2.415   6.327 -0.0545 -0.3061 -0.6421
 4245SOL    HW124194   1.645   2.408   6.294  0.7737  1.1574  1.2752
 4245SOL    HW224195   1.515   2.335   6.293  3.0300 -1.8054 -0.8098
 4246SOL     OW24196   2.340   1.545   6.913 -0.3489 -0.5820  0.3406
 4246SOL    HW124197   2.410   1.609   6.898 -1.8817  1.0137 -0.0720
 4246SOL    HW224198   2.270   1.606   6.936 -1.1813 -1.6171  0.5611
 4247SOL     OW24199   1.775   1.926  15.359 -0.3467 -0.3264  0.2727
 4247SOL    HW124200   1.798   1.997  15.418  0.8007 -1.5000  1.2535
 4247SOL    HW224201   1.863   1.910  15.325 -0.8519 -0.0767 -1.1571
 4248SOL     OW24202   1.299   2.027   3.564 -1.0409  0.1538 -0.2607
 4248SOL    HW124203   1.241   2.096   3.597  0.7865  0.8365  1.5254
 4248SOL    HW224204   1.246   1.998   3.490  0.6199 -1.9782 -0.6091
 4249SOL     OW24205   3.147   1.609   6.761  0.5836  0.2581 -0.0404
 4249SOL    HW124206   3.158   1.693   6.806 -0.9137 -0.3886  1.5054
 4249SOL    HW224207   3.242   1.595   6.753  0.6574 -0.0212  1.4548
 4250SOL     OW24208   3.979   3.682   8.081  0.4777  0.4652  0.1115
 4250SOL    HW124209   4.049   3.746   8.092  3.4646 -2.6360 -0.6977
 4250SOL    HW224210   3.971   3.656   8.173  0.1533  0.6685  0.1426
 4251SOL     OW24211   3.792   3.736   5.321 -0.3517 -0.8209  0.2660
 4251SOL    HW124212   3.771   3.689   5.240 -1.8931 -0.7451  0.6166
 4251SOL    HW224213   3.830   3.661   5.366  1.0853  0.2239  0.7987
 4252SOL     OW24214   0.343   3.058   3.487 -0.1921 -0.1693 -0.1970
 4252SOL    HW124215   0.345   3.021   3.399  1.6115  1.6018 -0.9062
 4252SOL    HW224216   0.422   3.019   3.524  0.0510  0.6490  0.1509
 4253SOL     OW24217   4.667   1.656   8.174  0.5789 -0.5610  0.3360
 4253SOL    HW124218   4.589   1.710   8.189 -1.0072 -3.2280  1.6521
 4253SOL    HW224219   4.693   1.693   8.090 -0.1426 -0.4287  0.1687
 4254SOL     OW24220   2.619   1.868   5.481 -0.2502  0.5842 -0.5273
 4254SOL    HW124221   2.647   1.827   5.563 -0.5172  0.7472 -0.3570
 4254SOL    HW224222   2.692   1.927   5.464  0.3953 -0.0062  0.1658
 4255SOL     OW24223   4.366   3.317   1.935 -0.1803  0.0698  0.8166
 4255SOL    HW124224   4.352   3.248   1.871 -0.5188 -0.3023  1.2941
 4255SOL    HW224225   4.351   3.277   2.021  0.1714 -1.4823  0.1457
 4256SOL     OW24226   1.807   1.922   7.559 -0.0391  0.8968  0.3294
 4256SOL    HW124227   1.758   1.978   7.499  2.8445 -0.9966 -3.7839
 4256SOL    HW224228   1.780   1.944   7.649 -2.1912 -0.5501  0.0142
 4257SOL     OW24229   1.057   3.159   6.790  0.1674  0.1114 -0.5824
 4257SOL    HW124230   1.102   3.236   6.755  2.0192 -1.1933 -1.0982
 4257SOL    HW224231   1.091   3.093   6.729 -0.5200 -1.9735  1.2788
 4258SOL     OW24232   4.151   3.968   5.291  0.4958 -0.4758  0.3989
 4258SOL    HW124233   4.164   3.885   5.244 -0.6930 -0.7124  0.5039
 4258SOL    HW224234   4.242   3.994   5.308  1.1694 -1.5768 -1.4232
 4259SOL     OW24235   1.338   3.208   0.664 -0.9806  0.6091 -0.6924
 4259SOL    HW124236   1.259   3.210   0.718 -0.3188  1.9395  0.2311
 4259SOL    HW224237   1.329   3.286   0.610 -3.4572  0.9770  0.2517
 4260SOL     OW24238   0.576   2.016   8.291  0.2706 -0.3781  0.0369
 4260SOL    HW124239   0.492   2.040   8.329  0.8090  0.0602  0.9548
 4260SOL    HW224240   0.626   1.977   8.363  0.8619 -0.8169 -0.6040
 4261SOL     OW24241   1.874   2.555   7.688  0.2966  0.1677  0.1338
 4261SOL    HW124242   1.948   2.606   7.655  0.6468 -0.2288  0.2981
 4261SOL    HW224243   1.878   2.487   7.621  1.6239 -0.3605  0.7301
 4262SOL     OW24244   2.236   2.773   3.322 -0.7194 -0.1625  0.6345
 4262SOL    HW124245   2.225   2.866   3.303 -1.5250 -0.6396 -1.2082
 4262SOL    HW224246   2.269   2.746   3.237  2.9632  1.2279  1.6240
 4263SOL     OW24247   3.909   1.240  15.053 -0.0814 -0.1499 -0.3781
 4263SOL    HW124248   4.004   1.234  15.064 -0.0399  0.2275 -0.5142
 4263SOL    HW224249   3.887   1.329  15.081 -0.7811 -0.2381 -0.6423
 4264SOL     OW24250   0.568   3.644  17.597 -0.1419 -0.4887  0.1007
 4264SOL    HW124251   0.496   3.642  17.661 -0.4253  3.3015 -0.1145
 4264SOL    HW224252   0.585   3.550  17.588 -0.0508 -0.4005 -0.6160
 4265SOL     OW24253   1.856   2.133   2.411 -0.2910  0.0204  0.1585
 4265SOL    HW124254   1.820   2.124   2.500 -2.1065 -3.3788 -0.9356
 4265SOL    HW224255   1.944   2.169   2.422 -0.6077  0.6398  0.6666
 4266SOL     OW24256   2.320   1.993   5.153  0.4489 -0.0367 -0.3612
 4266SOL    HW124257   2.321   1.898   5.143  2.8869 -0.1527  1.0648
 4266SOL    HW224258   2.263   1.996   5.230 -0.9220  1.0153 -1.4150
 4267SOL     OW24259   1.137   1.711  15.137 -0.7119 -0.1644  0.4368
 4267SOL    HW124260   1.191   1.664  15.073  0.4105  2.2553 -0.4147
 4267SOL    HW224261   1.196   1.739  15.207 -2.1734 -1.0856  2.0360
 4268SOL     OW24262   4.109   0.287   5.716  0.6555  0.2354 -0.1986
 4268SOL    HW124263   4.059   0.207   5.698 -0.3853  0.8238  0.0845
 4268SOL    HW224264   4.200   0.258   5.724  0.4260 -0.8452 -1.5204
 4269SOL     OW24265   1.221   1.786   2.366  0.4060 -0.7540 -0.2012
 4269SOL    HW124266   1.177   1.764   2.283 -1.1479  0.3815  0.3230
 4269SOL    HW224267   1.149   1.809   2.425  0.1877 -0.3053 -0.6346
 4270SOL     OW24268   1.420   0.627   7.772 -0.5697  0.3549  0.0392
 4270SOL    HW124269   1.385   0.703   7.725 -0.5142  0.9812  1.0184
 4270SOL    HW224270   1.408   0.665   7.858 -1.8499 -0.6625  0.3078
 4271SOL     OW24271   2.802   0.081   2.996 -0.2773 -0.1829  0.0063
 4271SOL    HW124272   2.715   0.105   3.028  0.9416 -0.5750  3.6540
 4271SOL    HW224273   2.793   4.712   2.969  2.6148  0.1246 -2.0449
 4272SOL     OW24274   0.471   0.245   6.330  0.5858  0.2286 -0.0210
 4272SOL    HW124275   0.510   0.209   6.410 -1.6075 -0.7104  0.6094
 4272SOL    HW224276   0.382   0.219   6.353  0.6789 -0.3529 -0.3023
 4273SOL     OW24277   1.367   2.923  10.917 -0.0304  0.6281  0.2732
 4273SOL    HW124278   1.428   2.970  10.974  0.2006 -0.0228  0.5654
 4273SOL    HW224279   1.406   2.934  10.831  0.2926 -1.7879  0.1277
 4274SOL     OW24280   0.247   2.986  10.805 -0.2797 -0.1243 -0.4438
 4274SOL    HW124281   0.158   3.002  10.776 -0.2614  2.3055  0.8593
 4274SOL    HW224282   0.272   3.078  10.797  0.6706 -0.4623 -1.4039
 4275SOL     OW24283   4.032   2.584   3.017 -0.0522  0.6461  0.8746
 4275SOL    HW124284   4.020   2.498   2.976  0.0408  1.5156 -0.9595
 4275SOL    HW224285   4.100   2.564   3.082  0.1880 -2.2210 -0.2455
 4276SOL     OW24286   0.129   0.078   0.824 -0.0027 -0.2679  0.2066
 4276SOL    HW124287   0.215   0.038   0.833  0.2390  0.6988  2.1391
 4276SOL    HW224288   0.090   0.023   0.755 -1.4868 -0.5048  1.2276
 4277SOL     OW24289   1.562   1.063   4.039 -0.0671 -0.1604 -0.5974
 4277SOL    HW124290   1.581   1.154   4.020  0.6482 -0.3722 -0.9027
 4277SOL    HW224291   1.623   1.005   3.994 -0.2457 -4.9725  5.2858
 4278SOL     OW24292   4.066   4.559   1.071 -0.2563 -0.4604 -0.1427
 4278SOL    HW124293   4.142   4.531   1.019  0.8402  0.2494  1.0738
 4278SOL    HW224294   4.052   4.480   1.123  1.1539 -1.1352 -0.7916
 4279SOL     OW24295   1.730   4.712   1.960 -0.0555 -0.1653 -0.0284
 4279SOL    HW124296   1.662   4.673   2.015 -1.2536 -0.4069 -1.6767
 4279SOL    HW224297   1.791   4.640   1.950  0.8306  0.7045 -0.8756
 4280SOL     OW24298   2.508   0.352   9.786  0.2416  0.0595  0.0484
 4280SOL    HW124299   2.471   0.386   9.867 -0.2443  1.0594 -0.5970
 4280SOL    HW224300   2.474   0.417   9.726 -1.2797  1.0516  1.9861
 4281SOL     OW24301   1.165   0.311   7.591  0.4414  0.2083  0.5090
 4281SOL    HW124302   1.106   0.265   7.532  0.7084 -1.4480  1.5394
 4281SOL    HW224303   1.191   0.381   7.531 -2.1151 -0.1000 -0.9633
 4282SOL     OW24304   0.004   0.903   2.214  0.9349  0.2920 -0.2222
 4282SOL    HW124305   0.041   0.976   2.263 -0.0740 -0.7660  2.1102
 4282SOL    HW224306   0.015   0.929   2.122  0.0219 -0.3360 -0.5140
 4283SOL     OW24307   4.331   3.706   7.577 -0.3387 -0.2172 -0.2852
 4283SOL    HW124308   4.269   3.752   7.521 -0.9117 -0.7104 -0.0519
 4283SOL    HW224309   4.327   3.767   7.651 -0.1283  0.3641 -0.7606
 4284SOL     OW24310   1.231   3.837   3.208 -0.2202  0.4668  0.2193
 4284SOL    HW124311   1.248   3.884   3.126  0.8398 -1.1766 -0.5018
 4284SOL    HW224312   1.147   3.792   3.196  0.5397 -0.7354 -0.4723
 4285SOL     OW24313   3.339   4.659   1.973  0.3222  0.0012  0.2584
 4285SOL    HW124314   3.381   4.606   1.906  1.3419 -0.8832  1.5912
 4285SOL    HW224315   3.387   0.014   1.941 -0.9608  0.4280 -0.6615
 4286SOL     OW24316   1.853   3.291  14.727  0.5900  0.4394  0.9943
 4286SOL    HW124317   1.818   3.308  14.815  1.5108 -0.6758  1.5873
 4286SOL    HW224318   1.821   3.369  14.683 -0.2064 -0.3404  0.2064
 4287SOL     OW24319   1.050   1.610   8.318 -0.3120  0.4311  0.2728
 4287SOL    HW124320   1.071   1.703   8.313 -0.8392  0.3559 -3.0282
 4287SOL    HW224321   1.136   1.581   8.349  0.5263  1.9370 -0.6755
 4288SOL     OW24322   0.893   2.124   8.405  0.6945  0.3107  0.0734
 4288SOL    HW124323   0.913   2.209   8.444 -0.6314  0.1948  1.0283
 4288SOL    HW224324   0.864   2.147   8.316 -0.5713  1.4020  0.7707
 4289SOL     OW24325   0.402   0.459  17.563  0.3699  0.1556 -0.1716
 4289SOL    HW124326   0.432   0.415  17.642  1.0394  0.5322 -0.2179
 4289SOL    HW224327   0.313   0.423  17.562  0.2668  0.4614 -1.7639
 4290SOL     OW24328   4.519   4.385   4.661  0.0669  0.3442  0.3600
 4290SOL    HW124329   4.542   4.359   4.572 -0.9317  0.8107 -0.0294
 4290SOL    HW224330   4.604   4.366   4.701  0.0125  1.1984  0.8669
 4291SOL     OW24331   2.991   1.998   2.956 -0.1966  0.6946  0.0472
 4291SOL    HW124332   3.075   1.955   2.965 -0.1926  0.5227 -0.8543
 4291SOL    HW224333   2.928   1.926   2.961  0.0682  0.4672  0.0384
 4292SOL     OW24334   4.455   0.407  15.563 -0.1473 -0.4570  0.1237
 4292SOL    HW124335   4.403   0.370  15.491 -0.9960 -2.1026  1.5869
 4292SOL    HW224336   4.543   0.376  15.545 -0.4403  1.4330 -4.6324
 4293SOL     OW24337   0.794   2.119  14.081 -0.5106  0.2381  0.5762
 4293SOL    HW124338   0.789   2.026  14.063 -0.2198  0.3498 -0.0760
 4293SOL    HW224339   0.749   2.129  14.165 -1.0806 -0.6756  0.3758
 4294SOL     OW24340   0.532   0.201   7.267  0.1032  0.6168 -0.4771
 4294SOL    HW124341   0.523   0.211   7.172  2.0125  0.0842 -0.7106
 4294SOL    HW224342   0.490   0.278   7.305  0.8607  1.2142 -0.8382
 4295SOL     OW24343   2.861   2.233   4.850 -0.4782  0.1499  0.7126
 4295SOL    HW124344   2.768   2.211   4.852 -0.4139 -0.2463 -0.7600
 4295SOL    HW224345   2.888   2.143   4.832  2.4173  1.1130  0.2874
 4296SOL     OW24346   0.701   3.441   7.829  0.1809 -0.0819 -0.4620
 4296SOL    HW124347   0.747   3.414   7.749  1.5389 -0.5153  0.4710
 4296SOL    HW224348   0.697   3.359   7.879  1.1785  0.9698  1.3462
 4297SOL     OW24349   0.553   1.336  14.672  0.3981  0.0856 -0.0870
 4297SOL    HW124350   0.551   1.365  14.763 -2.5548 -0.4302  0.0124
 4297SOL    HW224351   0.522   1.246  14.673  1.3221 -0.2430 -1.2123
 4298SOL     OW24352   1.565   3.643   2.098 -0.3093  0.0906 -0.5546
 4298SOL    HW124353   1.533   3.733   2.096 -2.3069 -0.5863  1.4539
 4298SOL    HW224354   1.552   3.627   2.192  2.0811 -0.5517 -0.3395
 4299SOL     OW24355   4.047   3.114   4.012 -0.2937  0.6334 -0.5106
 4299SOL    HW124356   4.136   3.147   4.017 -0.4193  1.0962 -1.3814
 4299SOL    HW224357   4.037   3.057   4.088  0.1248  0.4169 -0.6206
 4300SOL     OW24358   1.136   0.653  12.352 -0.3221  0.0685  0.6326
 4300SOL    HW124359   1.200   0.616  12.413  0.5927  3.5736  1.8146
 4300SOL    HW224360   1.057   0.655  12.407  0.2822 -2.7649  1.6107
 4301SOL     OW24361   3.512   1.290   4.908  0.5380  0.2866 -0.2524
 4301SOL    HW124362   3.584   1.338   4.950 -0.7774  3.4275 -1.5816
 4301SOL    HW224363   3.441   1.313   4.968  1.4006 -1.8259  1.5772
 4302SOL     OW24364   2.201   3.927   1.984 -0.1830  1.2598 -0.0765
 4302SOL    HW124365   2.256   3.971   1.918  1.0873  2.7941  2.0048
 4302SOL    HW224366   2.115   3.929   1.943 -0.6927  2.9959  1.0750
 4303SOL     OW24367   0.135   1.373   2.362 -0.0622  0.2566  0.0691
 4303SOL    HW124368   0.230   1.384   2.372  0.1519 -0.4268 -1.3734
 4303SOL    HW224369   0.113   1.460   2.329 -0.1406  0.6893  1.2521
 4304SOL     OW24370   0.787   1.019   3.681  0.0618 -0.3282 -0.1281
 4304SOL    HW124371   0.787   0.967   3.761 -2.2790 -1.9745 -1.1961
 4304SOL    HW224372   0.875   1.003   3.646  0.6904 -0.2640  1.4403
 4305SOL     OW24373   3.067   2.804  13.305  0.0807 -0.0362 -0.6108
 4305SOL    HW124374   3.056   2.717  13.343 -0.2827 -0.1776 -1.0424
 4305SOL    HW224375   3.039   2.772  13.219  0.1647 -0.8556 -0.3349
 4306SOL     OW24376   2.400   4.305   1.474  0.0964 -0.2893 -0.1625
 4306SOL    HW124377   2.460   4.285   1.546 -4.1224 -2.2144  2.8523
 4306SOL    HW224378   2.457   4.346   1.409  0.5561 -2.1630 -0.9241
 4307SOL     OW24379   4.606   4.249   1.582  0.0533 -0.0772  0.1740
 4307SOL    HW124380   4.530   4.301   1.611  0.9561  0.3688  1.7653
 4307SOL    HW224381   4.558   4.166   1.581 -2.4784  1.3229  1.7621
 4308SOL     OW24382   0.249   1.857   7.523 -0.2999 -0.0900 -0.2444
 4308SOL    HW124383   0.285   1.846   7.435  0.8603  1.2416  0.0639
 4308SOL    HW224384   0.248   1.952   7.533 -0.0683 -0.1708  0.5784
 4309SOL     OW24385   1.259   4.329   8.595 -0.9112 -0.1253 -0.1874
 4309SOL    HW124386   1.166   4.306   8.600 -0.9308  0.2446  1.0896
 4309SOL    HW224387   1.250   4.424   8.598  0.7330  0.0140  0.2703
 4310SOL     OW24388   4.110   3.730   3.970  0.0649 -0.0903  0.0197
 4310SOL    HW124389   4.172   3.760   4.036 -2.2884  1.4962  1.5089
 4310SOL    HW224390   4.048   3.689   4.031 -0.8323 -0.1645 -0.9420
 4311SOL     OW24391   4.466   4.648   7.866 -0.2410 -0.3533  0.1960
 4311SOL    HW124392   4.387   4.622   7.914 -0.8866  0.1404 -0.5929
 4311SOL    HW224393   4.537   4.638   7.929  0.7821  0.9046 -0.7437
 4312SOL     OW24394   0.829   3.995   4.891 -0.0205  0.4050 -0.6411
 4312SOL    HW124395   0.842   3.901   4.877  0.4222  0.3338  0.2003
 4312SOL    HW224396   0.809   4.031   4.805  1.3468 -0.4026 -1.3007
 4313SOL     OW24397   1.755   3.055   5.702  0.3016  0.0056 -0.6225
 4313SOL    HW124398   1.731   2.967   5.729  0.1192  0.3371  0.2726
 4313SOL    HW224399   1.732   3.103   5.781 -0.0785 -0.8419 -0.2233
 4314SOL     OW24400   3.691   2.622   5.292  0.4730  0.1178 -0.0008
 4314SOL    HW124401   3.598   2.641   5.304  0.2331 -0.5607 -0.7600
 4314SOL    HW224402   3.687   2.541   5.240 -1.0411  0.7199 -0.8207
 4315SOL     OW24403   0.663   4.327   3.621 -0.3711  0.4538  0.2637
 4315SOL    HW124404   0.631   4.401   3.569  0.4782  1.7395  1.5614
 4315SOL    HW224405   0.713   4.382   3.682 -1.7627  0.9485  0.9839
 4316SOL     OW24406   3.773   2.439   5.034 -0.5415 -0.1897  0.1651
 4316SOL    HW124407   3.854   2.415   5.079 -0.7846 -0.9886  0.1835
 4316SOL    HW224408   3.782   2.532   5.015 -0.0473 -0.3608 -0.4497
 4317SOL     OW24409   3.459   3.841   2.492 -0.0980  0.0309  0.3144
 4317SOL    HW124410   3.407   3.882   2.560 -0.0476 -0.8982  0.9180
 4317SOL    HW224411   3.407   3.871   2.418  0.9720  0.6587 -0.1891
 4318SOL     OW24412   2.618   4.601   0.941 -0.2034 -0.1234  0.2054
 4318SOL    HW124413   2.552   4.592   1.010 -2.3429 -1.7625 -2.0571
 4318SOL    HW224414   2.606   4.692   0.913  1.7660  0.3497  0.8746
 4319SOL     OW24415   3.358   4.514  11.544 -0.1862 -0.5615 -0.1943
 4319SOL    HW124416   3.281   4.501  11.488  0.8878 -2.1608 -1.2924
 4319SOL    HW224417   3.351   4.604  11.576 -0.1910 -0.3537 -0.7912
 4320SOL     OW24418   0.087   0.128   7.928 -0.1514 -0.0311 -0.1915
 4320SOL    HW124419   0.021   0.068   7.963  0.6102 -1.4294 -1.1412
 4320SOL    HW224420   0.136   0.067   7.872 -3.9120 -0.2465 -3.2642
 4321SOL     OW24421   0.535   0.507   3.916  0.3418  0.0835  0.8504
 4321SOL    HW124422   0.562   0.532   4.004  1.0247 -3.4707  1.6609
 4321SOL    HW224423   0.526   0.412   3.927 -0.5281  0.0043 -0.4333
 4322SOL     OW24424   3.821   2.425  15.512  0.0337  0.3886  0.0177
 4322SOL    HW124425   3.893   2.402  15.453  2.7206  1.2507  3.0045
 4322SOL    HW224426   3.814   2.520  15.509 -1.1658  0.2352 -2.4636
 4323SOL     OW24427   2.286   4.364   2.391 -0.1376  0.0776 -0.2464
 4323SOL    HW124428   2.371   4.349   2.434 -0.6015  0.8597  0.9456
 4323SOL    HW224429   2.233   4.383   2.468  1.2629  1.0968  0.4664
 4324SOL     OW24430   1.260   2.364   9.001  0.0618  0.1547 -0.7026
 4324SOL    HW124431   1.283   2.293   8.941 -0.6669  0.7574 -1.6759
 4324SOL    HW224432   1.347   2.395   9.026 -0.2162  0.3928 -0.0376
 4325SOL     OW24433   3.866   0.098  13.875 -0.1001  0.2004 -0.0064
 4325SOL    HW124434   3.837   0.025  13.931 -0.2915 -0.0032 -0.3761
 4325SOL    HW224435   3.960   0.082  13.878 -0.3667 -1.1966  1.1461
 4326SOL     OW24436   1.479   0.370   7.862  0.3513 -0.1204  0.2963
 4326SOL    HW124437   1.440   0.448   7.822  0.7316  0.0113  0.1894
 4326SOL    HW224438   1.516   0.347   7.777  1.0106  0.1297  0.5181
 4327SOL     OW24439   2.699   4.389   0.787  0.3461 -0.0306 -0.8086
 4327SOL    HW124440   2.652   4.457   0.834 -1.3740 -1.8813  0.1417
 4327SOL    HW224441   2.737   4.437   0.713  0.0339  0.3587 -0.7120
 4328SOL     OW24442   2.590   2.980   3.954 -0.5080  0.1613  0.2064
 4328SOL    HW124443   2.578   3.022   3.869  0.3602 -1.8472 -0.9086
 4328SOL    HW224444   2.625   2.893   3.933 -1.4124  0.2958 -1.8337
 4329SOL     OW24445   2.664   4.274  12.179 -0.5408 -0.5919  0.2612
 4329SOL    HW124446   2.721   4.285  12.255  1.4550  0.1681 -1.3556
 4329SOL    HW224447   2.612   4.201  12.214 -1.3364  0.0920  0.5136
 4330SOL     OW24448   1.827   2.431  11.808  0.3635  0.3325 -0.1104
 4330SOL    HW124449   1.822   2.371  11.734  1.3253 -1.5730  1.3617
 4330SOL    HW224450   1.916   2.417  11.841  0.1173 -0.1928  0.3355
 4331SOL     OW24451   3.271   2.334   4.684  0.0668  0.5802  0.0847
 4331SOL    HW124452   3.176   2.340   4.678 -0.0018 -1.7447 -1.1677
 4331SOL    HW224453   3.294   2.314   4.593 -1.1422  0.7494 -0.2501
 4332SOL     OW24454   2.600   4.129   1.202 -0.2608 -0.7692  0.4932
 4332SOL    HW124455   2.629   4.061   1.263  1.5469 -1.4012 -1.0850
 4332SOL    HW224456   2.509   4.128   1.231 -0.1231 -1.6613  0.8947
 4333SOL     OW24457   1.745   0.555   4.666  0.2640 -0.3984 -0.1464
 4333SOL    HW124458   1.750   0.582   4.758 -1.0061  0.9373 -0.4856
 4333SOL    HW224459   1.767   0.640   4.627  0.6658 -1.6951 -2.7592
 4334SOL     OW24460   1.077   2.793  13.266 -0.0869 -0.2199 -0.8181
 4334SOL    HW124461   1.006   2.779  13.329 -0.6434  1.2417 -1.0983
 4334SOL    HW224462   1.120   2.708  13.266  0.8384  0.2485  1.7478
 4335SOL     OW24463   3.502   2.788   5.857 -0.5371  0.1000  0.0546
 4335SOL    HW124464   3.494   2.730   5.781  1.7297  1.4547 -1.2216
 4335SOL    HW224465   3.592   2.815   5.841 -0.5121 -0.2405 -0.3664
 4336SOL     OW24466   3.636   1.768   4.578 -0.1675 -0.1110  0.0757
 4336SOL    HW124467   3.685   1.779   4.497 -1.0067  1.7449 -0.1834
 4336SOL    HW224468   3.585   1.688   4.566 -0.7587  0.3592 -0.5942
 4337SOL     OW24469   2.047   2.257   3.469 -0.4242 -0.6498  1.1913
 4337SOL    HW124470   1.956   2.227   3.466 -0.7057  0.4032 -1.0380
 4337SOL    HW224471   2.095   2.174   3.476 -0.3370 -0.7948 -1.1931
 4338SOL     OW24472   0.476   3.637   5.013 -0.1476  0.0035  0.1236
 4338SOL    HW124473   0.506   3.696   5.082  1.6423 -0.5812 -0.1671
 4338SOL    HW224474   0.390   3.664   4.980 -0.6366 -0.3577  1.1251
 4339SOL     OW24475   1.093   1.145   5.977  0.4025 -0.6913  0.4851
 4339SOL    HW124476   1.097   1.074   6.040 -1.8182 -1.5968 -0.3988
 4339SOL    HW224477   1.160   1.205   6.009  0.1435 -0.8797  1.3565
 4340SOL     OW24478   0.607   3.745  14.861  0.4797 -0.2426  0.4196
 4340SOL    HW124479   0.590   3.816  14.924 -1.1631 -0.2468 -0.0197
 4340SOL    HW224480   0.530   3.710  14.817 -0.2574  0.6611  0.9822
 4341SOL     OW24481   2.363   1.496   4.713 -0.4657 -0.6743  0.4675
 4341SOL    HW124482   2.456   1.504   4.693 -0.6329 -0.2834 -0.1533
 4341SOL    HW224483   2.346   1.403   4.696 -0.1681 -0.5714 -0.3826
 4342SOL     OW24484   0.379   4.314   3.716  0.0474 -0.5220 -0.1075
 4342SOL    HW124485   0.397   4.281   3.628 -1.4923 -0.3402 -0.4906
 4342SOL    HW224486   0.446   4.382   3.717 -0.5219  0.0337  0.0624
 4343SOL     OW24487   3.640   3.319  15.329  0.2110  0.2060 -0.0062
 4343SOL    HW124488   3.728   3.329  15.367  0.3963  0.8517 -0.6173
 4343SOL    HW224489   3.612   3.409  15.316 -2.4293 -0.7559 -0.8825
 4344SOL     OW24490   3.073   1.841  12.526 -0.0131  0.3501  0.6876
 4344SOL    HW124491   3.023   1.765  12.556  1.0476  0.0286  1.6354
 4344SOL    HW224492   3.137   1.797  12.471  2.1086  3.6590  0.5159
 4345SOL     OW24493   3.433   4.140  11.969 -0.2402  0.1604  0.0740
 4345SOL    HW124494   3.394   4.061  11.932  1.0244 -1.5440  2.3947
 4345SOL    HW224495   3.519   4.140  11.926  0.9561 -0.3929  2.4655
 4346SOL     OW24496   4.232   3.256  15.827  0.3235  0.7026 -0.4616
 4346SOL    HW124497   4.195   3.190  15.768  0.0492  0.6444 -0.2244
 4346SOL    HW224498   4.160   3.319  15.819 -1.3849 -1.1633  0.2189
 4347SOL     OW24499   4.546   1.987   2.359 -0.1435  0.1914  0.3114
 4347SOL    HW124500   4.471   1.931   2.378 -0.0429  0.9827  3.0590
 4347SOL    HW224501   4.611   1.918   2.355  0.7609  1.0295  0.5467
 4348SOL     OW24502   4.500   0.501   2.194 -0.5605 -0.2326  0.6622
 4348SOL    HW124503   4.458   0.449   2.125 -0.3568  0.3899  0.0659
 4348SOL    HW224504   4.560   0.436   2.230 -0.3107  0.5182  1.5788
 4349SOL     OW24505   2.843   4.671   5.378  0.2115 -0.4773  0.0334
 4349SOL    HW124506   2.797   0.030   5.397 -1.9676 -1.7007  0.0217
 4349SOL    HW224507   2.773   4.608   5.394 -0.0298 -0.2034  0.0467
 4350SOL     OW24508   0.042   0.219   5.548 -0.3323 -0.0622  0.0078
 4350SOL    HW124509   0.036   0.272   5.468  1.3407  0.5273  0.2747
 4350SOL    HW224510   0.040   0.294   5.607 -2.5435  1.2315 -1.7107
 4351SOL     OW24511   3.349   3.134   7.086  0.2640  0.4684 -0.6074
 4351SOL    HW124512   3.330   3.093   7.001 -0.4297  1.8365 -1.1086
 4351SOL    HW224513   3.270   3.185   7.103  0.1617  0.1603 -0.1455
 4352SOL     OW24514   4.159   2.308   5.615 -0.7678  0.2731 -0.2237
 4352SOL    HW124515   4.065   2.325   5.618 -0.6920  1.0457 -2.1996
 4352SOL    HW224516   4.198   2.382   5.568  0.1154  1.9840  3.2377
 4353SOL     OW24517   4.307   1.182   7.338 -0.5613 -0.0403 -0.1762
 4353SOL    HW124518   4.350   1.262   7.306 -0.2456 -0.1969 -0.1414
 4353SOL    HW224519   4.330   1.157   7.427  0.1864 -2.1799 -0.9711
 4354SOL     OW24520   1.116   0.379  12.138  0.2122 -0.2001 -0.0024
 4354SOL    HW124521   1.058   0.332  12.198  0.0837 -1.7615 -1.3572
 4354SOL    HW224522   1.137   0.453  12.195 -1.0282 -0.5786  0.9398
 4355SOL     OW24523   1.164   2.538   8.248  0.0903 -0.5056  0.1209
 4355SOL    HW124524   1.255   2.530   8.220 -1.0391 -2.3287 -2.9536
 4355SOL    HW224525   1.175   2.528   8.343 -1.9743  1.8591  0.6214
 4356SOL     OW24526   3.104   0.044  17.162 -0.4262  0.0128 -0.2407
 4356SOL    HW124527   3.032   0.003  17.210  2.1058 -0.3945  3.1743
 4356SOL    HW224528   3.056   0.089  17.092 -2.3855  0.6645  1.5443
 4357SOL     OW24529   2.177   1.903   2.530  0.0012  0.0043 -0.4878
 4357SOL    HW124530   2.164   1.970   2.463  2.1981 -0.8985 -1.7864
 4357SOL    HW224531   2.087   1.891   2.559 -0.2216  0.7543 -0.8790
 4358SOL     OW24532   3.483   1.082  13.415  0.1557 -0.4520  0.4621
 4358SOL    HW124533   3.445   1.090  13.503  1.4867 -0.9264  1.0942
 4358SOL    HW224534   3.515   1.172  13.407  1.0994 -0.7347  0.9416
 4359SOL     OW24535   4.179   2.065   1.271 -0.1494  0.3808 -0.0087
 4359SOL    HW124536   4.112   2.132   1.258  0.6505  1.2797  0.4678
 4359SOL    HW224537   4.149   1.983   1.231 -1.5137  0.7510  0.2647
 4360SOL     OW24538   3.480   3.094   3.399 -0.1647  0.0080 -0.2298
 4360SOL    HW124539   3.531   3.013   3.396 -2.1614 -1.1627 -2.4661
 4360SOL    HW224540   3.423   3.078   3.474 -0.0639 -0.2050 -0.1986
 4361SOL     OW24541   0.543   0.212   5.099  0.3000  0.7542 -0.4481
 4361SOL    HW124542   0.491   0.152   5.045  0.0364  0.5784  0.0103
 4361SOL    HW224543   0.594   0.147   5.147  0.5630  0.7525 -0.7228
 4362SOL     OW24544   3.108   1.516   2.812 -0.2624  0.0453  0.4316
 4362SOL    HW124545   3.167   1.590   2.823 -0.7516  0.3666  0.8934
 4362SOL    HW224546   3.038   1.531   2.876  0.2804 -0.3254  1.1117
 4363SOL     OW24547   4.586   1.896  13.138 -0.0280 -0.5040 -0.0910
 4363SOL    HW124548   4.644   1.836  13.093  0.3782 -0.3573  0.2386
 4363SOL    HW224549   4.611   1.877  13.228  2.0529  2.3400 -0.0803
 4364SOL     OW24550   0.536   0.810  15.179  0.3004  0.4818 -0.3477
 4364SOL    HW124551   0.501   0.743  15.121 -2.1360 -0.7435  2.5746
 4364SOL    HW224552   0.619   0.768  15.201 -0.3534  0.0667  1.3364
 4365SOL     OW24553   2.102   2.486   6.860 -0.1895 -0.6407 -0.0223
 4365SOL    HW124554   2.049   2.473   6.939  0.6000  0.5122  0.6963
 4365SOL    HW224555   2.103   2.396   6.827 -1.8003  0.0535 -1.9270
 4366SOL     OW24556   4.190   3.671   5.475  0.1641 -0.2610  0.1050
 4366SOL    HW124557   4.149   3.742   5.524 -0.2754 -0.7504  0.4577
 4366SOL    HW224558   4.117   3.647   5.418  0.7361  0.8148 -1.0894
 4367SOL     OW24559   1.522   1.870   5.454 -0.8319  0.1926 -0.4274
 4367SOL    HW124560   1.503   1.961   5.432  1.6415  0.8906  0.3772
 4367SOL    HW224561   1.594   1.881   5.517  0.9066 -0.8866 -2.2515
 4368SOL     OW24562   3.544   3.184   2.898  0.2922  0.0522 -0.0739
 4368SOL    HW124563   3.587   3.238   2.965  1.1187 -1.0412  0.2959
 4368SOL    HW224564   3.522   3.243   2.827 -1.2959 -0.4969 -0.0394
 4369SOL     OW24565   3.807   1.267   3.882 -0.6177 -0.0971 -0.5911
 4369SOL    HW124566   3.871   1.285   3.813  1.1884 -0.9581  0.8589
 4369SOL    HW224567   3.827   1.181   3.917  0.6779 -0.2277 -1.6339
 4370SOL     OW24568   4.541   4.104  12.806 -0.7535 -0.2044  0.2447
 4370SOL    HW124569   4.461   4.136  12.849  0.1253 -0.8858  2.3864
 4370SOL    HW224570   4.601   4.092  12.879  1.0590 -0.1942 -1.2630
 4371SOL     OW24571   4.548   4.647   4.759  0.2789 -0.0624 -0.0762
 4371SOL    HW124572   4.530   4.562   4.720  1.1181 -0.9056  1.3644
 4371SOL    HW224573   4.626   4.633   4.813  1.4250 -1.9581 -2.2309
 4372SOL     OW24574   0.074   3.014  13.619 -0.0759 -0.3951  0.1113
 4372SOL    HW124575   0.072   3.084  13.684  0.4636 -0.8623  0.6318
 4372SOL    HW224576   0.036   3.053  13.540  2.0803  1.2801 -0.1131
 4373SOL     OW24577   3.040   2.296   9.208  0.3635 -0.3328  0.2692
 4373SOL    HW124578   2.982   2.372   9.208  1.3510  0.4218 -0.0590
 4373SOL    HW224579   3.035   2.268   9.299 -0.5889  0.2815  0.4044
 4374SOL     OW24580   0.618   0.980   5.060 -0.2101  0.2497  0.3645
 4374SOL    HW124581   0.628   1.033   5.139 -4.2873  1.1047  0.2986
 4374SOL    HW224582   0.522   0.987   5.058 -0.1160  1.1020 -1.3077
 4375SOL     OW24583   0.402   0.723  16.294  0.1821 -0.5684  0.3580
 4375SOL    HW124584   0.367   0.797  16.244  1.1334 -1.1100 -1.1185
 4375SOL    HW224585   0.435   0.676  16.218  0.6038  0.0059  0.1860
 4376SOL     OW24586   3.766   3.318  16.885 -0.4502 -0.3551  0.4471
 4376SOL    HW124587   3.790   3.247  16.825 -2.4711 -2.6258  2.3109
 4376SOL    HW224588   3.698   3.271  16.933  0.2892 -0.6525  1.2075
 4377SOL     OW24589   2.295   2.484   5.280 -0.3101 -0.1368  0.1966
 4377SOL    HW124590   2.330   2.532   5.205 -1.1576 -0.7204 -0.5753
 4377SOL    HW224591   2.364   2.427   5.314  1.5196  0.9785 -1.6771
 4378SOL     OW24592   1.415   3.257   9.700 -0.2382 -0.4610  0.0032
 4378SOL    HW124593   1.352   3.276   9.630 -0.5712 -2.1045 -0.1284
 4378SOL    HW224594   1.446   3.345   9.723  1.4701 -0.4765 -2.1814
 4379SOL     OW24595   1.233   0.736  10.926 -0.1927 -0.4023  0.4330
 4379SOL    HW124596   1.295   0.672  10.892  0.4386  0.3526  0.1947
 4379SOL    HW224597   1.207   0.704  11.013  0.7712 -1.1625  0.4370
 4380SOL     OW24598   3.553   1.030   4.632 -0.2821 -0.0041  0.0710
 4380SOL    HW124599   3.486   1.022   4.700  0.5994 -0.7803  0.8488
 4380SOL    HW224600   3.609   1.101   4.662 -0.2473  0.1669 -0.3984
 4381SOL     OW24601   2.016   3.982   5.724 -0.6043 -0.7009 -0.7331
 4381SOL    HW124602   2.048   3.972   5.814  0.7041 -0.3099 -1.1490
 4381SOL    HW224603   1.954   3.910   5.714 -2.8846  1.5762 -3.0358
 4382SOL     OW24604   3.743   2.613   2.355 -0.2849  0.3198  0.2539
 4382SOL    HW124605   3.812   2.562   2.313 -0.9297 -0.4120  0.0975
 4382SOL    HW224606   3.696   2.550   2.409 -0.2349  0.2506  0.2167
 4383SOL     OW24607   1.735   4.126   7.155  0.0230  0.2426 -0.0506
 4383SOL    HW124608   1.708   4.218   7.147  0.9319  0.3468 -1.8000
 4383SOL    HW224609   1.700   4.084   7.233  0.5623 -0.2469 -0.0799
 4384SOL     OW24610   3.773   2.542   9.540  0.4489 -0.1726 -0.0565
 4384SOL    HW124611   3.782   2.455   9.580  0.0696  0.0667  0.5620
 4384SOL    HW224612   3.679   2.543   9.527  0.5377  0.3004 -0.6462
 4385SOL     OW24613   3.575   1.977   5.887 -0.7008  0.2143 -0.1490
 4385SOL    HW124614   3.571   1.938   5.800  2.2787  0.7359 -0.5182
 4385SOL    HW224615   3.633   2.049   5.862 -0.5623 -0.2097 -1.0466
 4386SOL     OW24616   4.442   3.670   3.853 -0.3549  0.1512  0.4474
 4386SOL    HW124617   4.436   3.660   3.948 -2.2019 -1.2174  0.1976
 4386SOL    HW224618   4.427   3.764   3.845 -0.9840  0.0640  0.6154
 4387SOL     OW24619   2.383   3.440   4.415  0.7829 -0.2737 -0.3120
 4387SOL    HW124620   2.468   3.420   4.454  0.4261 -1.2331 -0.0373
 4387SOL    HW224621   2.402   3.462   4.324 -2.4069 -1.8953 -1.3772
 4388SOL     OW24622   1.370   1.352   2.914 -0.0820  0.3127  0.0560
 4388SOL    HW124623   1.417   1.376   2.994 -1.1686  3.8615 -0.3631
 4388SOL    HW224624   1.437   1.366   2.847 -1.0777  1.0367 -0.7932
 4389SOL     OW24625   1.748   4.494  14.668  0.2881 -0.0039 -0.1025
 4389SOL    HW124626   1.735   4.464  14.758  0.3251  1.5168  0.4003
 4389SOL    HW224627   1.663   4.478  14.626 -0.1668  0.4140  0.6656
 4390SOL     OW24628   1.328   1.138   2.460  0.5645  0.2556  0.4975
 4390SOL    HW124629   1.328   1.102   2.371  0.3642  1.9889 -0.2072
 4390SOL    HW224630   1.375   1.221   2.458  2.2843 -0.7231  0.9115
 4391SOL     OW24631   4.579   2.246   4.679  0.0889 -0.3143  0.1690
 4391SOL    HW124632   4.517   2.270   4.747 -0.3296  0.1244 -0.3682
 4391SOL    HW224633   4.540   2.174   4.629 -1.3676  0.4945  0.1385
 4392SOL     OW24634   4.017   4.310  10.885 -0.4122  0.0458 -0.2523
 4392SOL    HW124635   4.053   4.304  10.973 -0.4052  1.0811 -0.1847
 4392SOL    HW224636   3.941   4.366  10.901 -0.6347 -0.6460  1.0873
 4393SOL     OW24637   3.218   3.436  16.242 -0.6626 -0.4066  0.0882
 4393SOL    HW124638   3.165   3.466  16.315 -0.4014 -0.9078  0.4849
 4393SOL    HW224639   3.277   3.511  16.230 -1.6592  0.4614  0.5894
 4394SOL     OW24640   4.131   3.351   8.780 -0.3277  0.8302  0.2613
 4394SOL    HW124641   4.044   3.363   8.743 -0.2668 -2.5753 -1.0391
 4394SOL    HW224642   4.109   3.364   8.872 -0.5218  0.3234  0.2885
 4395SOL     OW24643   2.991   1.767   7.254  0.0158 -0.1010  0.1468
 4395SOL    HW124644   3.082   1.775   7.282  0.7327 -0.5074 -2.0921
 4395SOL    HW224645   2.949   1.832   7.309 -0.8291  0.1787 -0.8277
 4396SOL     OW24646   0.048   0.181   7.024  0.1773 -0.0044  0.7287
 4396SOL    HW124647   0.070   0.105   7.078 -1.1154  1.4492  3.2964
 4396SOL    HW224648   4.676   0.176   7.034  0.2590 -1.3131  0.8295
 4397SOL     OW24649   0.455   2.434  13.127  0.5849 -0.3257  0.6371
 4397SOL    HW124650   0.440   2.466  13.038  0.6920 -1.5749  0.1723
 4397SOL    HW224651   0.507   2.357  13.105  3.1241  2.2346 -2.2061
 4398SOL     OW24652   2.307   3.029   3.216 -0.3746  0.6078 -0.0931
 4398SOL    HW124653   2.382   3.015   3.158  1.2101  2.5697  1.4534
 4398SOL    HW224654   2.236   3.028   3.153  0.6537  1.1117 -1.2608
 4399SOL     OW24655   1.609   2.040   9.419 -0.6024 -1.1774 -0.7667
 4399SOL    HW124656   1.546   2.055   9.348 -1.3070  0.7251  0.2694
 4399SOL    HW224657   1.556   1.999   9.488  0.5763 -1.1139  0.1683
 4400SOL     OW24658   1.164   3.474   7.920  0.0334  0.2009  0.4730
 4400SOL    HW124659   1.237   3.490   7.981  1.7354 -3.1473 -0.6709
 4400SOL    HW224660   1.177   3.546   7.859 -2.3939  0.0985 -0.1474
 4401SOL     OW24661   1.443   4.643   6.377  0.0873 -0.2144 -0.3310
 4401SOL    HW124662   1.486   4.708   6.432  0.3629 -0.0081 -0.7837
 4401SOL    HW224663   1.463   4.563   6.424  1.6574  1.8651  2.5385
 4402SOL     OW24664   1.864   4.653   9.738  0.2482 -0.4500 -0.1779
 4402SOL    HW124665   1.883   4.567   9.699 -2.4651 -0.9723 -0.3169
 4402SOL    HW224666   1.918   4.642   9.816  0.1650  1.3240  0.1173
 4403SOL     OW24667   3.561   2.516  11.894  0.1008 -1.3281  0.1600
 4403SOL    HW124668   3.546   2.582  11.826  2.3346  2.1775  3.1139
 4403SOL    HW224669   3.572   2.578  11.966 -0.8797  0.7409 -1.4529
 4404SOL     OW24670   2.028   3.689  16.628  0.2222  0.1239 -0.4952
 4404SOL    HW124671   1.945   3.648  16.604  0.4982 -1.4416  1.2310
 4404SOL    HW224672   2.005   3.776  16.595  1.8098  0.8451  0.2910
 4405SOL     OW24673   0.452   3.398   5.348 -0.0836 -0.6722 -0.0208
 4405SOL    HW124674   0.509   3.371   5.276  0.6837  2.4464 -0.5839
 4405SOL    HW224675   0.513   3.463   5.382  0.6049 -0.2699 -2.0266
 4406SOL     OW24676   1.448   1.764   9.643  0.7034  0.8519 -0.5331
 4406SOL    HW124677   1.543   1.769   9.628  0.8007 -3.3462 -1.4256
 4406SOL    HW224678   1.432   1.704   9.715 -1.5579 -0.0019 -1.7400
 4407SOL     OW24679   0.705   1.009   7.256  0.4371  0.4113 -0.2817
 4407SOL    HW124680   0.732   1.042   7.341  0.6892  0.6993 -0.4747
 4407SOL    HW224681   0.640   1.072   7.225 -1.8129 -1.1224  1.3355
 4408SOL     OW24682   2.471   2.314   8.495 -0.0432  0.9528 -0.0177
 4408SOL    HW124683   2.518   2.339   8.415 -0.6138 -1.2913 -1.0310
 4408SOL    HW224684   2.389   2.289   8.453 -0.0820 -0.3475  0.8471
 4409SOL     OW24685   4.521   3.915   9.736  0.1390  0.0914  0.1569
 4409SOL    HW124686   4.442   3.919   9.681  0.5389 -1.3209 -0.5014
 4409SOL    HW224687   4.579   3.976   9.691 -1.6398  0.5033 -1.5589
 4410SOL     OW24688   1.773   3.330  12.110 -0.3311  0.1515 -0.6809
 4410SOL    HW124689   1.851   3.376  12.141 -1.2434 -0.4072  2.4383
 4410SOL    HW224690   1.801   3.308  12.021  0.7185  3.3529 -1.1394
 4411SOL     OW24691   3.873   3.556   2.103  0.3463  0.5478  0.3569
 4411SOL    HW124692   3.888   3.603   2.021 -1.7054  1.5291  0.5248
 4411SOL    HW224693   3.924   3.608   2.165  0.0594 -0.2159  1.2374
 4412SOL     OW24694   1.623   3.743  13.971  0.8752 -0.0585 -0.5264
 4412SOL    HW124695   1.651   3.667  14.021  2.7003  1.6225  0.9836
 4412SOL    HW224696   1.700   3.766  13.919  2.7519 -3.1708  0.9728
 4413SOL     OW24697   1.373   0.330   8.115  0.0060 -0.0672  0.3365
 4413SOL    HW124698   1.300   0.271   8.099  0.5417 -0.5042 -0.5063
 4413SOL    HW224699   1.414   0.350   8.030  2.0683 -1.7658  0.9521
 4414SOL     OW24700   0.685   0.436   5.059  0.0927 -1.0856 -0.2036
 4414SOL    HW124701   0.757   0.386   5.097  1.4384 -0.2397 -1.6334
 4414SOL    HW224702   0.629   0.359   5.045 -0.4647 -0.7110 -0.0189
 4415SOL     OW24703   1.570   1.301   6.395  0.0228 -0.3804 -0.1449
 4415SOL    HW124704   1.627   1.295   6.472 -1.4634 -0.4440  0.9338
 4415SOL    HW224705   1.623   1.361   6.342  1.0173 -0.4096  0.8065
 4416SOL     OW24706   3.807   0.872   7.140 -0.7461  0.5545 -0.0539
 4416SOL    HW124707   3.754   0.870   7.220 -1.7561 -1.4041 -0.7835
 4416SOL    HW224708   3.892   0.895   7.177 -0.2218  0.9811 -1.5224
 4417SOL     OW24709   2.188   2.723  13.702 -0.0194  0.2195 -0.3085
 4417SOL    HW124710   2.132   2.688  13.633 -0.6588 -0.9106  0.7590
 4417SOL    HW224711   2.135   2.800  13.724  0.3850  0.2284  0.6617
 4418SOL     OW24712   0.911   1.531   7.302  0.2065  0.6583  0.4302
 4418SOL    HW124713   0.884   1.565   7.217 -0.3138  1.3555  0.8727
 4418SOL    HW224714   0.824   1.520   7.340  1.1947 -3.4051  1.5281
 4419SOL     OW24715   1.338   0.971   6.315 -0.5538  0.4839  0.5116
 4419SOL    HW124716   1.308   1.060   6.336  0.8621  1.4816 -1.6938
 4419SOL    HW224717   1.261   0.942   6.267  0.7079 -3.7969  1.0745
 4420SOL     OW24718   3.125   4.226  10.068  0.2197  0.5310  0.1259
 4420SOL    HW124719   3.114   4.134  10.092  3.0992  0.2427  0.3378
 4420SOL    HW224720   3.212   4.239  10.106 -0.3861  1.3903  1.1905
 4421SOL     OW24721   3.480   3.068  15.253  0.3899  0.4064 -0.2901
 4421SOL    HW124722   3.539   3.091  15.181 -0.7159 -0.0416 -1.3457
 4421SOL    HW224723   3.484   3.146  15.308 -0.1007 -0.6560  1.2406
 4422SOL     OW24724   3.147   3.004  14.619 -0.7490  0.5560 -1.0334
 4422SOL    HW124725   3.165   3.002  14.713 -1.3898  1.3363 -0.8928
 4422SOL    HW224726   3.190   3.087  14.600 -1.0179  1.0221  0.4406
 4423SOL     OW24727   3.969   0.515  10.117 -0.0181  0.0322 -0.2959
 4423SOL    HW124728   3.955   0.457  10.042  1.1253 -2.1298  1.1808
 4423SOL    HW224729   3.989   0.601  10.081  0.4513 -0.1137 -0.3843
 4424SOL     OW24730   1.711   1.017   2.874 -0.1905 -0.0939 -0.7100
 4424SOL    HW124731   1.710   1.046   2.782  0.6063 -1.5412 -1.1711
 4424SOL    HW224732   1.618   1.017   2.896  0.0151 -0.9053  0.1270
 4425SOL     OW24733   1.829   0.166   2.857 -0.5855  0.1087  0.7679
 4425SOL    HW124734   1.880   0.090   2.888 -1.1284 -0.3216  0.5992
 4425SOL    HW224735   1.769   0.175   2.931  0.7958  0.4112  1.8456
 4426SOL     OW24736   2.564   4.596   2.701 -0.2798 -0.1687  0.5528
 4426SOL    HW124737   2.579   4.691   2.705  0.3616 -0.2857  0.8697
 4426SOL    HW224738   2.614   4.574   2.780 -0.7251  1.2405  1.2378
 4427SOL     OW24739   0.975   0.265   4.118  0.0232 -0.1865  0.1827
 4427SOL    HW124740   1.017   0.311   4.045  0.1263 -1.0081 -0.2745
 4427SOL    HW224741   0.975   0.337   4.181 -4.4965 -1.2872  1.4544
 4428SOL     OW24742   4.123   0.600  11.350 -0.1251 -0.1969  0.4618
 4428SOL    HW124743   4.192   0.664  11.331 -0.2856  0.7653  3.0412
 4428SOL    HW224744   4.061   0.616  11.279  0.7150  1.7384  0.1500
 4429SOL     OW24745   1.650   4.259   3.507 -0.0643 -0.1978  0.5283
 4429SOL    HW124746   1.743   4.239   3.495  0.0394  0.7161 -0.2141
 4429SOL    HW224747   1.658   4.354   3.500 -0.7847 -0.2050 -0.4818
 4430SOL     OW24748   1.247   0.527   8.854  0.7960 -0.7093  0.4788
 4430SOL    HW124749   1.240   0.507   8.761 -1.7083 -0.3313  0.5737
 4430SOL    HW224750   1.264   0.621   8.853 -1.3469 -0.3510 -2.7110
 4431SOL     OW24751   1.222   3.366   1.741 -0.0529  0.2504  0.0965
 4431SOL    HW124752   1.168   3.302   1.789 -0.6406  0.0835 -0.7906
 4431SOL    HW224753   1.204   3.443   1.794 -1.8939 -0.3597  0.3742
 4432SOL     OW24754   1.840   0.921   6.253  0.6136  0.3411 -0.7601
 4432SOL    HW124755   1.842   1.005   6.297  0.0953  0.8126 -1.6296
 4432SOL    HW224756   1.823   0.953   6.164  0.7140 -0.6065 -1.1252
 4433SOL     OW24757   1.538   3.006   8.007  0.1869 -0.1268 -0.9957
 4433SOL    HW124758   1.626   2.970   7.998 -0.1089 -0.6895 -1.5846
 4433SOL    HW224759   1.564   3.098   7.998 -1.9448  0.6605  0.7610
 4434SOL     OW24760   3.645   3.260   1.692  0.0491  0.0096 -0.6045
 4434SOL    HW124761   3.596   3.195   1.640 -2.0575  0.9605  0.2068
 4434SOL    HW224762   3.603   3.339   1.660 -1.0620  0.2838  1.5729
 4435SOL     OW24763   2.135   1.141   4.607  0.4251 -0.1691  0.0544
 4435SOL    HW124764   2.113   1.054   4.575 -3.0517  0.8724 -0.3379
 4435SOL    HW224765   2.075   1.197   4.558  2.8168  1.2107 -1.3328
 4436SOL     OW24766   1.225   0.114  16.668 -0.0192 -0.1303  0.6646
 4436SOL    HW124767   1.247   0.100  16.760  1.4674  0.8968  0.4621
 4436SOL    HW224768   1.286   0.060  16.617 -1.0926 -1.8262  1.1752
 4437SOL     OW24769   0.218   3.938   7.435 -0.1291  0.0945  0.0581
 4437SOL    HW124770   0.151   3.986   7.485  0.2855  0.1438  0.5632
 4437SOL    HW224771   0.273   3.924   7.511 -0.0660 -0.5023 -0.1008
 4438SOL     OW24772   3.282   2.064   7.480 -0.2202  0.4095  0.2474
 4438SOL    HW124773   3.321   2.017   7.554 -0.7752 -0.2504  0.1230
 4438SOL    HW224774   3.344   2.135   7.462  1.1347 -0.5571  1.1377
 4439SOL     OW24775   4.422   3.522  14.075  0.0568  0.1172  0.0893
 4439SOL    HW124776   4.508   3.481  14.075 -0.1896 -0.3874 -0.8518
 4439SOL    HW224777   4.412   3.526  14.170  3.0019  1.9491  0.3293
 4440SOL     OW24778   4.350   4.242  10.535  0.7316 -0.5856 -0.1243
 4440SOL    HW124779   4.410   4.295  10.588  0.0307  1.5927 -1.4707
 4440SOL    HW224780   4.271   4.259  10.585  2.6337  1.3349  2.1962
 4441SOL     OW24781   2.327   2.477   9.501  0.5993 -0.5747 -0.6132
 4441SOL    HW124782   2.339   2.500   9.593  0.0830  0.7919 -0.8835
 4441SOL    HW224783   2.254   2.416   9.498  2.3934 -2.6920 -1.8338
 4442SOL     OW24784   3.085   2.469   9.971  0.5118 -0.1282  0.1343
 4442SOL    HW124785   3.088   2.456  10.066 -1.4427 -0.5932  0.1364
 4442SOL    HW224786   3.003   2.517   9.961  1.4582  1.7626  1.3979
 4443SOL     OW24787   2.593   1.743   6.433  0.4610  0.2369  0.0605
 4443SOL    HW124788   2.533   1.669   6.426  1.0516 -0.2496  0.1129
 4443SOL    HW224789   2.584   1.770   6.525  0.7906 -0.7226  0.3756
 4444SOL     OW24790   2.660   0.562  16.074 -0.1471  0.1449  0.3976
 4444SOL    HW124791   2.692   0.547  15.985 -2.8985 -0.6396 -0.4846
 4444SOL    HW224792   2.680   0.655  16.087 -0.0982 -0.2437  3.0784
 4445SOL     OW24793   0.875   1.175   6.229  0.0943  0.0238  0.8874
 4445SOL    HW124794   0.881   1.236   6.302 -0.2078 -0.9824  1.7601
 4445SOL    HW224795   0.862   1.230   6.151  0.4206  0.1590  0.9308
 4446SOL     OW24796   2.621   0.295   0.097 -0.2008 -0.4106  0.0593
 4446SOL    HW124797   2.620   0.387   0.123  0.9260 -0.7335  1.2141
 4446SOL    HW224798   2.567   0.257   0.167 -1.5948 -2.8618 -2.3416
 4447SOL     OW24799   2.321   2.227   6.376 -0.6592  0.2011 -0.1303
 4447SOL    HW124800   2.237   2.272   6.387  0.4308  2.5513 -1.6285
 4447SOL    HW224801   2.384   2.299   6.378 -0.7549  0.2911 -0.4162
 4448SOL     OW24802   1.212   4.354   2.979  0.3394 -0.0169 -0.3469
 4448SOL    HW124803   1.238   4.394   2.895 -0.2902  1.1759  0.0329
 4448SOL    HW224804   1.196   4.264   2.950 -1.4838  0.0559  0.4499
 4449SOL     OW24805   0.076   1.559   4.280 -0.3458  0.1224  0.0635
 4449SOL    HW124806   4.709   1.560   4.247  0.6567  1.3752 -2.6206
 4449SOL    HW224807   0.118   1.589   4.199 -1.8771  0.1866 -0.7096
 4450SOL     OW24808   1.471   2.828   8.745  0.7814 -0.2557  0.2531
 4450SOL    HW124809   1.490   2.750   8.797 -2.3305 -0.2985  1.2948
 4450SOL    HW224810   1.388   2.809   8.701  0.7510 -1.0000  0.6334
 4451SOL     OW24811   4.351   2.841   7.757 -0.0257 -0.9510 -0.1434
 4451SOL    HW124812   4.362   2.843   7.662 -2.3724  4.2937 -0.3221
 4451SOL    HW224813   4.260   2.868   7.769 -0.2866 -1.2447 -1.3990
 4452SOL     OW24814   1.205   2.552   7.361 -0.6161  0.3751 -0.7168
 4452SOL    HW124815   1.264   2.627   7.359 -1.5437  1.2042  3.3055
 4452SOL    HW224816   1.146   2.564   7.436 -0.5680  0.0707 -0.6299
 4453SOL     OW24817   2.511   0.059   1.186 -0.4127 -0.7487 -0.1707
 4453SOL    HW124818   2.438   0.111   1.219  0.1210 -0.9404  1.3552
 4453SOL    HW224819   2.531   4.714   1.252 -1.0450  0.8943  1.7063
 4454SOL     OW24820   1.991   0.364   2.228 -1.0784 -0.5172  0.2422
 4454SOL    HW124821   1.911   0.314   2.217 -1.6751  0.7551 -1.1594
 4454SOL    HW224822   1.963   0.452   2.204 -1.2066 -0.0170  2.1802
 4455SOL     OW24823   3.734   3.195   8.446  0.2572  0.2080  0.3984
 4455SOL    HW124824   3.686   3.118   8.415  1.6805 -0.6648  0.3499
 4455SOL    HW224825   3.663   3.258   8.442  1.8547  2.0596  1.3143
 4456SOL     OW24826   0.785   0.261   6.618 -0.2636 -0.0868  0.0090
 4456SOL    HW124827   0.800   0.309   6.537 -0.3214  0.5526  0.3709
 4456SOL    HW224828   0.868   0.275   6.665  0.3313 -2.9149 -0.2168
 4457SOL     OW24829   1.998   3.459  12.223 -0.1990  0.7050 -0.5762
 4457SOL    HW124830   2.091   3.446  12.202 -0.3410  1.4722 -1.7041
 4457SOL    HW224831   1.990   3.554  12.236  0.9234  0.8720 -1.0984
 4458SOL     OW24832   0.838   0.534  17.485 -0.2510  0.1873  0.3100
 4458SOL    HW124833   0.752   0.567  17.459 -0.6533 -1.2761 -0.1753
 4458SOL    HW224834   0.857   0.602  17.550  0.3713 -1.4510  1.8361
 4459SOL     OW24835   4.150   3.614   5.994  0.1507  0.0027  0.0350
 4459SOL    HW124836   4.059   3.640   5.979  0.4209  1.9686  1.8308
 4459SOL    HW224837   4.139   3.519   5.999 -0.5593  0.1225  0.7134
 4460SOL     OW24838   0.301   0.827  12.028  0.0940 -0.6098 -0.0877
 4460SOL    HW124839   0.260   0.817  11.942  0.3916 -2.1782 -0.0475
 4460SOL    HW224840   0.255   0.768  12.086 -0.0602 -0.9959 -0.6081
 4461SOL     OW24841   2.469   3.614   4.147  0.1657  0.0228  0.2810
 4461SOL    HW124842   2.437   3.698   4.115 -1.0008 -0.0140  1.3559
 4461SOL    HW224843   2.558   3.603   4.112 -0.5237 -0.8936 -1.1870
 4462SOL     OW24844   1.691   2.321   9.341 -0.7023  0.1800 -0.0272
 4462SOL    HW124845   1.743   2.375   9.401  0.3916  1.6565 -2.2844
 4462SOL    HW224846   1.650   2.262   9.404 -1.2162 -2.9814 -3.3025
 4463SOL     OW24847   0.539   2.844   1.990  0.1410  0.2363  0.0741
 4463SOL    HW124848   0.490   2.889   1.921  0.9600 -1.8883 -1.8892
 4463SOL    HW224849   0.543   2.911   2.057 -2.6208 -0.0652  0.5534
 4464SOL     OW24850   1.778   1.702   8.488 -0.1040  0.2760  0.3611
 4464SOL    HW124851   1.834   1.721   8.413 -1.0247  0.4903 -0.2712
 4464SOL    HW224852   1.702   1.756   8.465  1.3437  1.1357 -2.3909
 4465SOL     OW24853   3.800   3.564  15.017 -0.2369  0.1674 -0.2219
 4465SOL    HW124854   3.756   3.557  14.932 -0.3469  2.5739 -0.3816
 4465SOL    HW224855   3.836   3.653  15.016 -2.1901  0.9949  1.8647
 4466SOL     OW24856   2.888   1.686   5.894  0.2764  0.1721  0.5437
 4466SOL    HW124857   2.852   1.722   5.812 -0.8696 -2.1837  0.0122
 4466SOL    HW224858   2.965   1.741   5.905 -0.2642  0.8226  1.0664
 4467SOL     OW24859   3.168   4.530   6.533  0.0350  0.8951 -0.6181
 4467SOL    HW124860   3.108   4.557   6.603  0.8377 -1.2006  0.8804
 4467SOL    HW224861   3.117   4.450   6.516  1.5836  0.2640 -2.2186
 4468SOL     OW24862   1.164   1.014  10.965 -0.6658  0.4969 -0.0182
 4468SOL    HW124863   1.217   0.934  10.969 -1.9288 -0.4468 -2.6891
 4468SOL    HW224864   1.105   0.985  10.896 -0.0688 -0.9900  0.1108
 4469SOL     OW24865   0.454   3.454  16.765 -0.2761 -0.2708  0.0115
 4469SOL    HW124866   0.428   3.546  16.770  0.5386 -0.0715  0.6557
 4469SOL    HW224867   0.366   3.422  16.745 -0.6689 -0.5551  2.2312
 4470SOL     OW24868   3.546   2.978   1.560 -0.1108 -0.2545 -0.3668
 4470SOL    HW124869   3.594   2.895   1.553 -0.4639 -0.5032  0.2341
 4470SOL    HW224870   3.557   3.011   1.470  0.4914  2.1220  0.5941
 4471SOL     OW24871   0.092   4.270   5.665  0.1834  0.0693  0.0400
 4471SOL    HW124872   0.057   4.249   5.751  0.4317  0.0930  0.1473
 4471SOL    HW224873   0.014   4.312   5.630  0.1486 -2.3757 -2.8868
 4472SOL     OW24874   2.002   4.543   8.701  0.4558 -0.0982  0.0570
 4472SOL    HW124875   1.960   4.605   8.761  1.8780  0.3805  0.5718
 4472SOL    HW224876   1.995   4.462   8.753 -0.6644  0.3659  0.6210
 4473SOL     OW24877   1.681   1.449  11.437 -0.1131  0.2877  0.0392
 4473SOL    HW124878   1.729   1.367  11.421  0.5210  1.1046 -2.1369
 4473SOL    HW224879   1.685   1.447  11.533 -0.5387 -0.9688  0.0411
 4474SOL     OW24880   2.389   1.575   8.904  0.2896  0.2313 -0.2827
 4474SOL    HW124881   2.297   1.553   8.889  0.1705  1.7398 -1.7749
 4474SOL    HW224882   2.383   1.666   8.874  1.7933 -0.5175 -2.8168
 4475SOL     OW24883   1.216   1.272   8.845  0.0272  0.1621 -0.1265
 4475SOL    HW124884   1.140   1.249   8.899 -1.0730  1.5586 -1.0926
 4475SOL    HW224885   1.212   1.210   8.772 -1.8841 -1.0530  1.0187
 4476SOL     OW24886   0.889   0.144  16.154  0.2898 -0.1984 -0.0847
 4476SOL    HW124887   0.888   0.127  16.060  1.0313  1.5947 -0.4078
 4476SOL    HW224888   0.978   0.124  16.181  0.6560  2.1675  0.4320
 4477SOL     OW24889   3.272   3.871  14.014  0.1549  0.2332  0.1359
 4477SOL    HW124890   3.192   3.908  14.052 -0.6037 -1.9445  0.6778
 4477SOL    HW224891   3.253   3.870  13.920  0.2579  0.1100  0.1162
 4478SOL     OW24892   3.623   1.880   5.635  0.5526  0.4356 -0.6534
 4478SOL    HW124893   3.560   1.920   5.575  0.6288  0.3918 -0.7608
 4478SOL    HW224894   3.694   1.853   5.578  0.5605 -2.7614  0.9057
 4479SOL     OW24895   4.601   4.701   3.500  0.1955  0.4239  0.3032
 4479SOL    HW124896   4.509   0.005   3.499  0.3604  1.0129  0.8082
 4479SOL    HW224897   4.610   4.657   3.416  2.1063  1.2377  0.0787
 4480SOL     OW24898   1.058   0.462   9.043 -0.3433  0.1396  0.4275
 4480SOL    HW124899   1.129   0.481   8.981 -0.0107  0.5304  0.9276
 4480SOL    HW224900   1.022   0.380   9.009  1.0743 -0.7715  1.1654
 4481SOL     OW24901   2.208   3.713  11.576 -0.4224 -0.2107 -0.4044
 4481SOL    HW124902   2.124   3.694  11.533 -0.7942 -1.5984  0.9509
 4481SOL    HW224903   2.248   3.626  11.580 -1.9127 -0.8651  0.0374
 4482SOL     OW24904   1.623   3.146   9.968 -0.0145 -0.1354  0.3646
 4482SOL    HW124905   1.657   3.188  10.047 -0.9906  0.9293  0.2185
 4482SOL    HW224906   1.679   3.168   9.894 -0.7949 -2.1844 -0.8559
 4483SOL     OW24907   4.084   4.712   4.279 -0.7466 -0.2736 -0.1745
 4483SOL    HW124908   4.121   4.679   4.197 -2.0648  1.5796 -1.5199
 4483SOL    HW224909   4.113   0.081   4.270  1.6974 -1.4076 -3.6576
 4484SOL     OW24910   1.486   3.105   2.724  0.5654  0.1893  0.5752
 4484SOL    HW124911   1.485   3.181   2.783  0.5644  0.0756  0.7198
 4484SOL    HW224912   1.566   3.115   2.672  0.3279  1.9890  0.5278
 4485SOL     OW24913   4.591   3.626   1.391 -0.0490 -0.0355  0.1206
 4485SOL    HW124914   4.672   3.676   1.384  0.2904 -0.4302  1.2155
 4485SOL    HW224915   4.567   3.618   1.299  3.1036 -1.5589 -0.5727
 4486SOL     OW24916   1.083   1.945   4.375  0.4472  0.2664 -0.2887
 4486SOL    HW124917   1.056   1.930   4.466  1.8283 -1.2779 -0.1503
 4486SOL    HW224918   1.053   1.873   4.320 -0.9131  0.8404 -0.3123
 4487SOL     OW24919   3.967   4.402   6.617  0.6776  0.0793 -1.0648
 4487SOL    HW124920   3.932   4.316   6.641 -0.4284  1.0202  0.7358
 4487SOL    HW224921   3.888   4.438   6.576 -0.4874 -1.1488  0.0762
 4488SOL     OW24922   0.312   0.429   5.641 -0.3480 -0.2539  0.0258
 4488SOL    HW124923   0.371   0.355   5.627 -0.6683 -0.0109 -2.5664
 4488SOL    HW224924   0.314   0.481   5.561 -2.1003  0.0914  0.2139
 4489SOL     OW24925   1.658   0.965  15.636 -0.2390  0.4711 -0.0758
 4489SOL    HW124926   1.599   0.992  15.565  1.0596  1.1062 -0.9164
 4489SOL    HW224927   1.617   1.010  15.709 -0.1825  0.1149  0.1747
 4490SOL     OW24928   3.291   1.176   0.975  0.0083 -0.2750 -0.7562
 4490SOL    HW124929   3.256   1.265   0.980 -1.2514 -0.8514  0.5919
 4490SOL    HW224930   3.225   1.112   1.001  0.8670 -0.3733  1.1992
 4491SOL     OW24931   0.908   3.132   4.085 -0.4150  0.1808 -0.1228
 4491SOL    HW124932   0.869   3.051   4.118 -1.5017 -0.0742 -2.0146
 4491SOL    HW224933   0.894   3.106   3.993  0.9263 -0.4162 -0.1584
 4492SOL     OW24934   1.650   1.377   8.718 -0.3394 -0.5899 -0.2778
 4492SOL    HW124935   1.579   1.338   8.769 -1.1157  1.2510  0.0255
 4492SOL    HW224936   1.606   1.409   8.640  1.7923  2.5095 -0.2140
 4493SOL     OW24937   3.268   3.122   1.455  0.2803  0.7381 -0.2155
 4493SOL    HW124938   3.267   3.052   1.389 -1.1253  0.8378 -0.3023
 4493SOL    HW224939   3.308   3.191   1.402  1.5650  0.1263 -0.0351
 4494SOL     OW24940   3.956   1.726   7.409  0.5085  0.3428  0.1759
 4494SOL    HW124941   3.922   1.639   7.430 -0.8125  0.9337  0.4484
 4494SOL    HW224942   3.876   1.776   7.425  0.7354  0.8365 -0.2442
 4495SOL     OW24943   1.460   1.934  10.468 -0.7363  0.1723  0.3826
 4495SOL    HW124944   1.494   1.856  10.422  1.2724 -0.0536  2.2183
 4495SOL    HW224945   1.538   1.951  10.521  0.2009 -0.4405 -0.7871
 4496SOL     OW24946   0.336   2.801   0.136 -0.8229 -0.4878  0.1037
 4496SOL    HW124947   0.367   2.763   0.218  3.0393  1.7391 -0.3271
 4496SOL    HW224948   0.248   2.831   0.160  0.3565  2.1362  1.1665
 4497SOL     OW24949   1.856   2.403   9.118 -0.1747  0.0923  0.3653
 4497SOL    HW124950   1.815   2.388   9.203  1.2179 -1.0847  0.8367
 4497SOL    HW224951   1.855   2.499   9.112 -1.1716  0.0876  0.4081
 4498SOL     OW24952   3.861   0.843   3.117 -0.2042 -0.3172 -0.1176
 4498SOL    HW124953   3.794   0.797   3.168 -0.7008 -0.5720 -0.9962
 4498SOL    HW224954   3.851   0.935   3.140 -0.3119  0.1217 -1.8865
 4499SOL     OW24955   2.192   0.775  12.421  0.4515 -0.2726 -0.0683
 4499SOL    HW124956   2.156   0.695  12.460 -0.1320  0.1420  0.2305
 4499SOL    HW224957   2.252   0.736  12.356  1.7498  0.3001  0.7754
 4500SOL     OW24958   2.497   0.497   6.499  0.5941  0.2245 -0.2003
 4500SOL    HW124959   2.534   0.585   6.487  1.7898 -0.2702 -0.1346
 4500SOL    HW224960   2.433   0.498   6.427 -0.1136  1.0709  0.4416
 4501SOL     OW24961   4.685   2.859   6.963  0.0194 -0.4191 -0.0126
 4501SOL    HW124962   4.602   2.875   7.009  0.6510 -1.0262  1.3582
 4501SOL    HW224963   0.020   2.909   7.022  0.6760  0.2519 -1.2349
 4502SOL     OW24964   1.907   4.481  12.445  0.1282  0.2732  0.3344
 4502SOL    HW124965   1.909   4.484  12.349  0.9367 -1.7131  0.2978
 4502SOL    HW224966   1.858   4.405  12.477 -0.0770 -0.7636 -2.4227
 4503SOL     OW24967   4.246   4.527   5.466 -0.0241  0.0265 -0.5980
 4503SOL    HW124968   4.289   4.550   5.548  1.3751 -1.0107 -1.0457
 4503SOL    HW224969   4.199   4.610   5.454  1.9697  0.7283 -3.4299
 4504SOL     OW24970   2.250   2.281   9.193  0.5429 -0.6918 -0.4855
 4504SOL    HW124971   2.192   2.246   9.125  0.7272  0.4524 -1.2208
 4504SOL    HW224972   2.205   2.285   9.277  2.7534 -1.7505  0.7403
 4505SOL     OW24973   3.630   2.047   3.946 -0.1557 -0.2466 -0.4207
 4505SOL    HW124974   3.719   2.015   3.931  0.3473  0.7726  0.4103
 4505SOL    HW224975   3.586   2.021   3.864  2.0317 -2.0215 -1.0156
 4506SOL     OW24976   3.892   4.510   7.178  0.1870  0.3171  0.1512
 4506SOL    HW124977   3.951   4.524   7.252 -2.1018  0.2399  1.9873
 4506SOL    HW224978   3.857   4.597   7.158 -0.7991 -0.2813 -0.7898
 4507SOL     OW24979   1.802   0.626   6.601 -0.3613 -0.1558 -0.0769
 4507SOL    HW124980   1.892   0.656   6.589 -0.5608  0.9935  1.2407
 4507SOL    HW224981   1.795   0.568   6.526  1.8464  0.8067 -1.0399
 4508SOL     OW24982   0.674   1.392   8.801  0.1736 -0.4151 -0.5451
 4508SOL    HW124983   0.740   1.324   8.820 -0.7386 -0.9265  0.7633
 4508SOL    HW224984   0.734   1.465   8.819 -0.2301  0.2086 -1.7442
 4509SOL     OW24985   2.745   3.231   3.545 -0.2870 -0.3295 -0.1614
 4509SOL    HW124986   2.795   3.276   3.614 -2.5716 -1.4869  2.2361
 4509SOL    HW224987   2.688   3.169   3.590 -0.5178  0.8379  1.1649
 4510SOL     OW24988   0.037   0.390  16.151  0.6378 -0.0707  0.2252
 4510SOL    HW124989   0.130   0.386  16.171  0.7002  0.6270  0.0699
 4510SOL    HW224990   4.719   0.340  16.222  0.2617  0.1517  0.1719
 4511SOL     OW24991   1.068   1.619   6.752 -0.2517  0.3970  0.1495
 4511SOL    HW124992   1.115   1.570   6.684  1.4033  0.2170  1.4294
 4511SOL    HW224993   1.008   1.679   6.708 -2.6385 -2.6306 -0.7040
 4512SOL     OW24994   1.070   1.729   1.115  0.2710  0.5342 -0.5004
 4512SOL    HW124995   1.133   1.706   1.047  2.2293  0.4720  1.3403
 4512SOL    HW224996   1.120   1.764   1.188 -1.4901  1.2246  0.3677
 4513SOL     OW24997   2.393   2.513  11.427 -0.1652 -0.7914 -0.2467
 4513SOL    HW124998   2.366   2.580  11.364 -2.2970  0.0502  1.5570
 4513SOL    HW224999   2.307   2.489  11.462 -0.8043 -1.5636 -2.3427
 4514SOL     OW25000   0.387   1.684   1.004 -0.0779 -0.1230 -0.2053
 4514SOL    HW125001   0.404   1.597   0.968  0.2825  0.1797 -0.7589
 4514SOL    HW225002   0.299   1.703   0.970 -0.4826  2.1092  2.1179
 4515SOL     OW25003   0.353   0.472   3.260  0.1441 -0.2755 -0.0808
 4515SOL    HW125004   0.275   0.440   3.306  0.0745  0.7602  0.5357
 4515SOL    HW225005   0.372   0.547   3.318 -0.3223 -0.9693  0.9693
 4516SOL     OW25006   4.019   1.057  15.646 -0.5165 -0.9220  0.3770
 4516SOL    HW125007   3.956   1.128  15.658  1.2152  0.9682 -1.7232
 4516SOL    HW225008   4.009   1.024  15.557  1.3109 -0.4069 -0.0192
 4517SOL     OW25009   1.355   3.045   0.198  0.3495 -0.3658 -0.4852
 4517SOL    HW125010   1.416   3.036   0.272 -0.3280 -0.2398  0.0879
 4517SOL    HW225011   1.277   3.065   0.249  1.0533 -1.1791  0.9405
 4518SOL     OW25012   4.136   2.056   0.267  0.1365 -0.1054  0.2508
 4518SOL    HW125013   4.107   1.998   0.338 -1.1776 -0.0541 -0.2302
 4518SOL    HW225014   4.085   2.033   0.189  1.0301 -0.1153 -0.3213
 4519SOL     OW25015   3.125   4.079  14.615 -0.6159 -0.1684  0.3988
 4519SOL    HW125016   3.031   4.094  14.629 -1.1456 -2.8483 -0.3382
 4519SOL    HW225017   3.146   3.998  14.660  0.7703  1.1735  2.1595
 4520SOL     OW25018   4.238   4.551  10.964 -0.6895  0.1567  0.1544
 4520SOL    HW125019   4.235   4.456  10.977 -1.8609  0.5028  2.2656
 4520SOL    HW225020   4.312   4.574  11.019  0.9017 -1.9119 -1.0647
 4521SOL     OW25021   1.933   0.978   7.192  0.2859  0.6150  0.4536
 4521SOL    HW125022   2.014   0.937   7.222  0.9794  0.8421 -1.0992
 4521SOL    HW225023   1.871   0.906   7.203  1.8971 -1.3442 -3.1392
 4522SOL     OW25024   2.363   4.479   5.761  0.3275 -0.2469 -0.3535
 4522SOL    HW125025   2.317   4.504   5.681  0.7763 -1.5078 -1.0054
 4522SOL    HW225026   2.438   4.427   5.731  0.0332 -0.5326 -0.5941
 4523SOL     OW25027   0.797   2.925   0.166 -0.3943 -0.2033  0.3199
 4523SOL    HW125028   0.736   2.860   0.132  1.6161 -0.2441 -3.2134
 4523SOL    HW225029   0.867   2.875   0.207  0.2764 -0.6889 -1.4403
 4524SOL     OW25030   2.900   1.466   7.790 -0.9415 -0.5254  0.1877
 4524SOL    HW125031   2.808   1.449   7.809 -0.7391 -1.7111  0.0621
 4524SOL    HW225032   2.901   1.562   7.781 -0.1957 -0.6805 -1.4920
 4525SOL     OW25033   3.929   0.901   4.248  0.4571  0.0103  0.4631
 4525SOL    HW125034   3.846   0.873   4.288  0.4685  0.3192  0.7008
 4525SOL    HW225035   3.987   0.918   4.322 -0.9555  2.0115  1.1035
 4526SOL     OW25036   4.152   4.437  15.455  0.3193  0.5234 -0.5219
 4526SOL    HW125037   4.239   4.430  15.414 -0.6701  0.4440 -2.6196
 4526SOL    HW225038   4.115   4.503  15.396 -0.5611  0.8801  0.4510
 4527SOL     OW25039   0.715   2.842   7.287  0.1927  0.3889 -0.7664
 4527SOL    HW125040   0.706   2.932   7.258  1.0398  0.4961 -0.7179
 4527SOL    HW225041   0.765   2.851   7.369  0.3102  2.2089 -1.0417
 4528SOL     OW25042   4.229   3.366   7.337 -0.0844 -0.1709 -0.2148
 4528SOL    HW125043   4.314   3.405   7.315 -1.3027  1.9694 -1.1556
 4528SOL    HW225044   4.262   3.290   7.384  2.3789  0.8726 -0.2696
 4529SOL     OW25045   2.164   1.086   8.364  0.1529 -0.3722 -0.2654
 4529SOL    HW125046   2.070   1.089   8.382  0.4875  0.2607  1.3542
 4529SOL    HW225047   2.196   1.103   8.453 -0.7528  0.2817 -0.0692
 4530SOL     OW25048   1.844   0.863   6.922 -0.4952 -0.3906 -0.2435
 4530SOL    HW125049   1.859   0.914   7.002 -2.5724 -1.4208  0.7962
 4530SOL    HW225050   1.862   0.923   6.849 -2.0198 -0.2524 -0.5101
 4531SOL     OW25051   1.271   0.847  13.965  0.0368 -0.5323 -1.0248
 4531SOL    HW125052   1.299   0.909  14.032  0.4817  0.1195 -1.8180
 4531SOL    HW225053   1.324   0.771  13.991 -0.3722 -0.9339 -1.3749
 4532SOL     OW25054   4.662   0.082  15.675  0.8819 -0.5854  0.2201
 4532SOL    HW125055   4.717   0.022  15.726  0.6064 -1.7294 -0.8279
 4532SOL    HW225056   4.575   0.057  15.706  1.1731 -1.7118  0.1186
 4533SOL     OW25057   1.553   3.715   4.051 -0.2263 -0.1805  0.3238
 4533SOL    HW125058   1.618   3.671   3.997 -1.5052  1.4113 -2.5175
 4533SOL    HW225059   1.474   3.681   4.010 -0.9120  1.7524  0.0501
 4534SOL     OW25060   3.708   4.034   6.271 -0.0399  0.1959 -0.0091
 4534SOL    HW125061   3.796   4.000   6.259 -0.2911 -0.4728  0.0864
 4534SOL    HW225062   3.721   4.098   6.342 -3.7914 -1.0347  1.7925
 4535SOL     OW25063   0.338   4.598   4.413  0.1699 -0.0457  0.5066
 4535SOL    HW125064   0.300   4.686   4.412 -0.7422 -0.4410 -1.2920
 4535SOL    HW225065   0.256   4.548   4.422  0.3722 -0.6641 -1.0476
 4536SOL     OW25066   3.398   0.331   2.567  0.3567  0.1129  0.4503
 4536SOL    HW125067   3.319   0.300   2.523  1.8508 -2.7963 -0.1893
 4536SOL    HW225068   3.370   0.404   2.622 -1.0039 -1.2244  1.5257
 4537SOL     OW25069   0.082   4.647   2.460 -0.3288 -0.3716 -0.6869
 4537SOL    HW125070   0.022   4.588   2.415  1.0566 -0.6558 -2.1430
 4537SOL    HW225071   0.063   0.003   2.408  1.2924  1.2053  1.1161
 4538SOL     OW25072   2.353   2.453   8.009 -0.4138 -0.1122  0.2035
 4538SOL    HW125073   2.407   2.400   7.951  0.2749  2.2640 -1.3462
 4538SOL    HW225074   2.283   2.487   7.953 -1.1624 -0.1144  1.1212
 4539SOL     OW25075   4.348   4.336   2.655  0.1047  0.4562 -0.3539
 4539SOL    HW125076   4.430   4.332   2.605 -0.5644  1.0281 -1.5085
 4539SOL    HW225077   4.331   4.430   2.650  0.0931  0.4289 -0.8260
 4540SOL     OW25078   0.720   2.607   6.908 -0.1421 -0.4950 -0.4443
 4540SOL    HW125079   0.696   2.682   6.963 -2.9189 -1.5315 -0.2563
 4540SOL    HW225080   0.692   2.535   6.965 -0.3898 -1.6803 -2.0605
 4541SOL     OW25081   1.116   0.743   7.795  0.3202  0.8452 -0.0351
 4541SOL    HW125082   1.089   0.664   7.841  0.7739  0.1759 -0.9180
 4541SOL    HW225083   1.109   0.716   7.704 -0.3520 -0.5870  0.4425
 4542SOL     OW25084   3.115   1.146   3.395  0.3724 -0.0647  0.2252
 4542SOL    HW125085   3.073   1.071   3.437 -1.1337 -0.0205 -1.2212
 4542SOL    HW225086   3.036   1.199   3.388 -1.2917 -2.6269 -0.1510
 4543SOL     OW25087   1.381   1.996  10.090  0.9467 -0.4025 -0.3177
 4543SOL    HW125088   1.409   2.081  10.124 -0.3248 -0.7141  1.4837
 4543SOL    HW225089   1.285   1.999  10.088  0.9752  1.8679  1.2286
 4544SOL     OW25090   1.600   0.686   2.704 -0.4760  0.0366 -0.3255
 4544SOL    HW125091   1.546   0.736   2.766 -0.0279 -1.6035  1.3729
 4544SOL    HW225092   1.533   0.682   2.635  0.3495 -1.7645 -1.0380
 4545SOL     OW25093   2.497   3.651  10.363  0.7149 -0.4866  0.2521
 4545SOL    HW125094   2.559   3.708  10.317 -0.5060 -0.6857 -1.6031
 4545SOL    HW225095   2.553   3.616  10.432  1.1388  1.7288  1.0415
 4546SOL     OW25096   0.695   4.229   8.769  0.7309 -0.2447  0.2140
 4546SOL    HW125097   0.706   4.273   8.853  0.8872  0.2633 -0.0696
 4546SOL    HW225098   0.677   4.137   8.783 -1.5267  0.2345  0.4685
 4547SOL     OW25099   2.514   4.581   4.164  0.2639  0.4458 -0.8355
 4547SOL    HW125100   2.485   4.491   4.177 -1.2370  1.1867  1.0704
 4547SOL    HW225101   2.451   4.618   4.227  0.2281  0.5353 -0.9225
 4548SOL     OW25102   3.270   1.932   8.048  0.4326  0.2583  0.5605
 4548SOL    HW125103   3.264   2.006   7.987 -1.5733  0.1273  0.6029
 4548SOL    HW225104   3.311   1.965   8.127 -0.0805 -0.6066  1.1974
 4549SOL     OW25105   2.737   4.570   0.558  0.0504  0.1744 -0.0572
 4549SOL    HW125106   2.699   4.607   0.479 -4.0629 -3.8037  0.0621
 4549SOL    HW225107   2.822   4.613   0.555  0.5993 -0.7786  1.9102
 4550SOL     OW25108   4.582   2.504   7.989 -0.0890  0.0728  0.7482
 4550SOL    HW125109   4.545   2.590   7.973 -0.2690 -0.7207 -3.0003
 4550SOL    HW225110   4.522   2.457   7.931 -0.5791  3.1766 -1.2111
 4551SOL     OW25111   0.880   0.839  17.501 -0.1385  0.2168 -0.4041
 4551SOL    HW125112   0.840   0.923  17.523  0.7778  1.4753 -3.4404
 4551SOL    HW225113   0.972   0.858  17.520 -0.1063 -0.8278  0.4471
 4552SOL     OW25114   4.648   2.590   7.217 -0.3997  0.0917  0.8230
 4552SOL    HW125115   4.633   2.501   7.248  0.0803 -0.8430 -1.5793
 4552SOL    HW225116   4.557   2.617   7.206 -0.4452 -1.0036 -1.5645
 4553SOL     OW25117   3.448   0.788  11.215 -0.3807  0.2640  0.0604
 4553SOL    HW125118   3.489   0.768  11.299 -0.9072 -0.9499  0.0224
 4553SOL    HW225119   3.493   0.867  11.183  0.5547 -0.2397  0.1476
 4554SOL     OW25120   3.044   0.750   2.491  0.0812  0.1600 -0.0596
 4554SOL    HW125121   3.004   0.826   2.534  0.4803  0.9257 -1.0416
 4554SOL    HW225122   2.977   0.700   2.445  0.6182  0.3322 -1.0167
 4555SOL     OW25123   1.314   4.099   5.166  0.0899  0.0168  0.0485
 4555SOL    HW125124   1.263   4.029   5.126  1.4975  0.8499 -3.2106
 4555SOL    HW225125   1.338   4.060   5.251  0.3871  0.6830  0.2679
 4556SOL     OW25126   2.687   2.750   3.907  0.7967  0.8074  0.1252
 4556SOL    HW125127   2.684   2.657   3.882  1.5090 -0.0019  3.0920
 4556SOL    HW225128   2.775   2.773   3.879  0.8036 -0.9018 -1.3095
 4557SOL     OW25129   3.202   2.764   7.933 -0.8230 -0.0114  0.6036
 4557SOL    HW125130   3.135   2.710   7.891 -1.4439  0.2792  1.2137
 4557SOL    HW225131   3.267   2.701   7.963  0.2435 -0.2643 -2.3057
 4558SOL     OW25132   0.025   4.461   7.069  0.1781 -0.1467  0.0370
 4558SOL    HW125133   4.704   4.434   7.150 -0.7320 -0.7999 -0.6763
 4558SOL    HW225134   4.683   4.525   7.040 -0.5504 -0.9834 -0.1770
 4559SOL     OW25135   4.617   2.872  10.256  0.2026 -0.2306 -0.1146
 4559SOL    HW125136   4.655   2.831  10.178 -0.6657  1.8035 -1.5857
 4559SOL    HW225137   4.626   2.810  10.329  0.9935  1.0479  0.8659
 4560SOL     OW25138   4.547   1.405   6.283  0.3579 -0.0056 -0.5794
 4560SOL    HW125139   4.561   1.464   6.209 -0.1682 -2.2302 -2.4174
 4560SOL    HW225140   4.454   1.390   6.268  0.0516  1.0396  0.2383
 4561SOL     OW25141   2.573   2.341   9.834  0.1185  0.1493 -0.3692
 4561SOL    HW125142   2.612   2.285   9.765 -2.6416 -1.6820 -0.4374
 4561SOL    HW225143   2.606   2.289   9.907 -2.6998  1.3110  1.6878
 4562SOL     OW25144   0.037   1.870  16.495 -0.3944 -0.3607 -0.0042
 4562SOL    HW125145   0.107   1.849  16.556  2.1926  1.8242 -2.2504
 4562SOL    HW225146   4.693   1.885  16.562  0.1480 -0.9683  0.6644
 4563SOL     OW25147   4.311   2.016   4.547  0.5693  0.2909 -0.5916
 4563SOL    HW125148   4.268   1.942   4.506 -0.0071  0.2294  0.1196
 4563SOL    HW225149   4.275   2.091   4.500  2.4938  1.1513 -0.6908
 4564SOL     OW25150   1.653   3.613   3.799 -0.0576  0.0174 -0.2276
 4564SOL    HW125151   1.617   3.674   3.735 -0.1380 -0.7608 -0.9392
 4564SOL    HW225152   1.696   3.547   3.743  1.7744 -1.7786  3.3115
 4565SOL     OW25153   3.670   4.256  10.053 -0.2449  0.4485 -0.0266
 4565SOL    HW125154   3.678   4.278   9.960 -3.6269 -0.6146 -0.5543
 4565SOL    HW225155   3.761   4.238  10.077  0.7784 -0.8379 -4.8341
 4566SOL     OW25156   0.261   4.618   5.783 -0.0691 -0.0609  0.2551
 4566SOL    HW125157   0.342   4.584   5.743 -1.7222 -1.9907 -1.4407
 4566SOL    HW225158   0.241   4.557   5.854  0.7070 -2.0095 -1.1812
 4567SOL     OW25159   2.116   3.348   4.641  0.5911 -0.0268 -1.0483
 4567SOL    HW125160   2.196   3.399   4.653 -1.1437  2.0377  1.7393
 4567SOL    HW225161   2.050   3.418   4.641  1.6403  0.9431  1.4360
 4568SOL     OW25162   4.562   0.864   4.975  0.1154 -0.0215 -0.4908
 4568SOL    HW125163   4.566   0.785   5.029 -1.2289 -1.2038 -2.1306
 4568SOL    HW225164   4.578   0.927   5.046  0.7428 -0.3859 -0.3019
 4569SOL     OW25165   4.082   2.906   7.458  0.1213  0.0635  0.2128
 4569SOL    HW125166   4.100   2.908   7.551 -0.9035  2.3400  0.3468
 4569SOL    HW225167   3.988   2.888   7.461 -0.5213  3.1924 -1.0472
 4570SOL     OW25168   2.349   4.066   1.293 -0.6758  0.0649 -0.2864
 4570SOL    HW125169   2.312   4.109   1.369  2.8132 -0.4865  1.7480
 4570SOL    HW225170   2.382   3.980   1.320 -1.3288 -0.2735 -0.5746
 4571SOL     OW25171   2.889   0.798  15.481 -0.4737 -0.8415 -0.6866
 4571SOL    HW125172   2.866   0.706  15.470  0.3014 -1.2659  1.3153
 4571SOL    HW225173   2.979   0.784  15.452 -0.0235  3.1104 -1.2418
 4572SOL     OW25174   3.228   1.870  14.010  0.4363  0.0720 -0.5173
 4572SOL    HW125175   3.158   1.870  14.075  0.1325  0.6615 -0.8425
 4572SOL    HW225176   3.311   1.888  14.053  0.9504  2.0608 -2.3243
 4573SOL     OW25177   0.523   4.635   8.703 -0.2816 -0.2134  0.0047
 4573SOL    HW125178   0.590   4.579   8.743 -0.5382 -0.5775 -0.0704
 4573SOL    HW225179   0.442   4.593   8.735 -1.8824  0.9107 -2.6170
 4574SOL     OW25180   2.675   0.256  11.762  0.4623 -0.5190 -0.1160
 4574SOL    HW125181   2.747   0.272  11.822 -1.0335  1.1221  1.2412
 4574SOL    HW225182   2.625   0.184  11.799 -0.3804 -0.7203 -1.6316
 4575SOL     OW25183   2.552   2.806   2.866 -0.1667  0.2107  0.4986
 4575SOL    HW125184   2.569   2.714   2.848 -1.7201 -0.2193  1.2474
 4575SOL    HW225185   2.626   2.855   2.829  2.5167 -1.8493  3.0979
 4576SOL     OW25186   3.139   1.762   5.928 -0.1886 -0.1443  0.1112
 4576SOL    HW125187   3.183   1.842   5.957  1.5412 -1.5599  1.4887
 4576SOL    HW225188   3.171   1.700   5.995 -0.0754 -0.0440  0.1511
 4577SOL     OW25189   1.567   3.639  13.226 -0.1516 -0.2875 -0.1809
 4577SOL    HW125190   1.537   3.658  13.315 -1.3638  0.1344 -0.6715
 4577SOL    HW225191   1.552   3.545  13.216  2.0875 -0.6698  0.1367
 4578SOL     OW25192   3.853   3.794   7.473 -0.4164 -0.1785  0.3653
 4578SOL    HW125193   3.801   3.845   7.535 -0.1725 -0.0809  0.4902
 4578SOL    HW225194   3.854   3.709   7.518 -0.6302  0.6901  2.0439
 4579SOL     OW25195   2.106   0.712   0.198 -0.8278  0.0406 -0.3475
 4579SOL    HW125196   2.183   0.657   0.212  0.7453  2.1374 -0.8256
 4579SOL    HW225197   2.112   0.776   0.268 -1.9639 -0.0391 -0.1669
 4580SOL     OW25198   4.417   0.206   4.405  0.3303  0.0579  0.9552
 4580SOL    HW125199   4.387   0.124   4.446 -2.1465  0.0264 -0.9061
 4580SOL    HW225200   4.440   0.171   4.319 -2.8982 -1.4681  0.7202
 4581SOL     OW25201   1.890   3.427  17.610 -0.2729  0.2205  0.8464
 4581SOL    HW125202   1.855   3.423   0.007 -2.7446  2.4428 -0.0454
 4581SOL    HW225203   1.915   3.335  17.599 -0.6040  0.0533  1.5088
 4582SOL     OW25204   0.409   1.598   4.238  0.3967 -0.4245  0.2655
 4582SOL    HW125205   0.403   1.556   4.324 -0.2483 -0.9800 -0.0496
 4582SOL    HW225206   0.430   1.522   4.185  2.3046  0.2298  0.0875
 4583SOL     OW25207   0.078   4.165  14.258 -0.1937  0.5542  0.1608
 4583SOL    HW125208   0.079   4.230  14.328 -2.0356 -1.0035  1.6370
 4583SOL    HW225209   0.160   4.120  14.274 -1.2602 -1.6007 -0.4093
 4584SOL     OW25210   0.624   0.964   2.639  0.1043  0.0708 -0.0778
 4584SOL    HW125211   0.668   1.031   2.587 -0.4452 -0.2821 -1.0035
 4584SOL    HW225212   0.574   0.909   2.579 -1.7812  1.3037  0.3358
 4585SOL     OW25213   2.303   3.536  16.969 -0.3267 -0.2538  0.2879
 4585SOL    HW125214   2.230   3.557  17.028 -0.9004  0.9561 -0.8584
 4585SOL    HW225215   2.268   3.519  16.882  1.4979 -2.0230 -0.0928
 4586SOL     OW25216   1.747   1.438   3.076 -0.5607  0.2027 -0.4477
 4586SOL    HW125217   1.652   1.428   3.068 -0.3978 -0.4721 -1.6779
 4586SOL    HW225218   1.757   1.515   3.132  2.8180 -1.9983  1.9662
 4587SOL     OW25219   3.859   2.814  16.542 -0.3682  0.3083  0.3884
 4587SOL    HW125220   3.955   2.816  16.545 -0.4407 -0.8954  3.8182
 4587SOL    HW225221   3.849   2.872  16.466  1.1447 -2.0302 -1.6012
 4588SOL     OW25222   3.639   1.630   3.094 -0.0820  0.1026  0.0434
 4588SOL    HW125223   3.602   1.614   3.181  0.2927 -1.1334 -0.0162
 4588SOL    HW225224   3.654   1.724   3.093  0.3486  0.0209 -0.7075
 4589SOL     OW25225   0.324   0.937  10.110 -0.0760  0.4390  0.1257
 4589SOL    HW125226   0.369   0.889  10.180 -0.0259 -0.1036 -0.2794
 4589SOL    HW225227   0.237   0.947  10.149 -0.0556 -0.1954  0.3396
 4590SOL     OW25228   2.212   0.659   3.219 -0.3575  0.2547  0.4911
 4590SOL    HW125229   2.212   0.685   3.127 -2.4544  2.4950  1.1079
 4590SOL    HW225230   2.285   0.718   3.241 -0.5627  0.3313  0.9693
 4591SOL     OW25231   4.660   4.322  14.736 -0.2710 -0.3629  0.2417
 4591SOL    HW125232   4.637   4.392  14.674  1.2765  0.5006  0.6280
 4591SOL    HW225233   4.621   4.248  14.690  0.0586 -0.1010 -0.4644
 4592SOL     OW25234   2.193   0.022   4.853  0.1941  0.0278 -0.0409
 4592SOL    HW125235   2.240   0.090   4.901 -0.5730 -0.2540  1.1013
 4592SOL    HW225236   2.161   0.087   4.790 -0.4384  0.4488  0.7094
 4593SOL     OW25237   0.968   4.153   9.144 -0.1179  0.1196 -0.0422
 4593SOL    HW125238   0.938   4.076   9.192 -0.9362  1.5320  1.7492
 4593SOL    HW225239   0.994   4.119   9.059  0.8631  1.1338 -0.1486
 4594SOL     OW25240   3.167   1.438   0.955  0.4472  0.1226  0.4771
 4594SOL    HW125241   3.092   1.488   0.987 -0.3094 -0.0371 -1.0664
 4594SOL    HW225242   3.207   1.510   0.907  0.2080 -0.5474 -0.7141
 4595SOL     OW25243   2.085   2.044   1.380 -0.8089 -0.3256 -0.4380
 4595SOL    HW125244   2.145   2.045   1.306  0.6739 -0.3732  0.7676
 4595SOL    HW225245   2.119   1.977   1.440 -0.0958 -1.4102 -2.0822
 4596SOL     OW25246   3.796   0.425  11.698  0.3309 -0.4532  0.2926
 4596SOL    HW125247   3.857   0.493  11.669 -1.1944  0.1368 -1.5312
 4596SOL    HW225248   3.855   0.354  11.720  1.7268  0.9283  1.0173
 4597SOL     OW25249   0.015   1.796  16.220  0.0882 -0.2496  0.1681
 4597SOL    HW125250   0.039   1.824  16.309 -2.0385  1.3643  0.2087
 4597SOL    HW225251   0.038   1.704  16.234 -0.4542 -0.4995 -0.6192
 4598SOL     OW25252   3.520   1.885   0.610  0.0746  0.8466  0.4669
 4598SOL    HW125253   3.588   1.875   0.543 -1.7380 -1.1737 -1.0903
 4598SOL    HW225254   3.567   1.938   0.674  1.9843 -2.1361  1.5203
 4599SOL     OW25255   0.815   4.682  10.167 -0.2614 -0.0626 -0.4627
 4599SOL    HW125256   0.888   4.711  10.223 -0.2606  0.1450 -0.5710
 4599SOL    HW225257   0.804   4.591  10.194  0.3687 -0.2657 -0.8690
 4600SOL     OW25258   3.458   2.708   6.107  0.0253  0.4079 -0.1005
 4600SOL    HW125259   3.473   2.739   6.018 -2.3492  2.9333  0.3857
 4600SOL    HW225260   3.538   2.655   6.112  1.2509  2.5069  2.7236
 4601SOL     OW25261   3.533   3.054   5.576  0.4998 -0.6082 -0.2439
 4601SOL    HW125262   3.442   3.050   5.546  0.3608 -2.4964  0.4198
 4601SOL    HW225263   3.517   3.083   5.666 -0.3095 -0.3489 -0.4692
 4602SOL     OW25264   0.742   1.068  17.595  0.0161 -0.3199  0.4843
 4602SOL    HW125265   0.782   1.146  17.632  1.5408 -0.9633  0.1706
 4602SOL    HW225266   0.771   1.005  17.662 -1.4127  0.0722  1.4854
 4603SOL     OW25267   4.128   2.715   3.457  0.4255  0.8738  0.4203
 4603SOL    HW125268   4.154   2.797   3.500  0.5175  0.4082  1.2485
 4603SOL    HW225269   4.044   2.742   3.420  0.9351  2.5346  0.4803
 4604SOL     OW25270   3.708   4.415   4.638  0.5360 -0.2934 -0.2272
 4604SOL    HW125271   3.800   4.437   4.655  0.6905 -2.1301  1.3372
 4604SOL    HW225272   3.692   4.340   4.696 -0.3963 -0.8147 -1.1604
 4605SOL     OW25273   4.343   2.307   4.365 -0.2212  0.9418  0.2820
 4605SOL    HW125274   4.262   2.335   4.408  0.5374  0.5252  1.9936
 4605SOL    HW225275   4.376   2.382   4.315 -3.6477  0.9693 -1.9421
 4606SOL     OW25276   2.846   0.222   4.286 -0.0787 -0.4056 -0.6760
 4606SOL    HW125277   2.930   0.258   4.257  0.5411  0.0735  1.7633
 4606SOL    HW225278   2.803   0.287   4.230  0.4240  0.2772 -0.2737
 4607SOL     OW25279   3.905   1.034   1.589  0.6610  0.4651  0.2302
 4607SOL    HW125280   3.903   0.938   1.600  0.4453  0.7363  2.5959
 4607SOL    HW225281   3.814   1.035   1.561  1.6281  1.2985 -2.8602
 4608SOL     OW25282   2.994   0.436  10.738 -0.9769  0.6209 -0.1927
 4608SOL    HW125283   3.074   0.386  10.720  0.0535  2.4787 -0.7355
 4608SOL    HW225284   2.995   0.498  10.665  0.8518 -0.7041 -1.2879
 4609SOL     OW25285   2.987   2.868  16.218  0.0142  0.8167  0.4628
 4609SOL    HW125286   2.908   2.898  16.174  0.0671 -1.0378 -0.9081
 4609SOL    HW225287   3.056   2.886  16.154  1.7234  1.9015  2.6026
 4610SOL     OW25288   0.776   2.613   3.270  0.0539  0.0676 -0.4999
 4610SOL    HW125289   0.703   2.571   3.225  1.3930 -1.9542 -0.7676
 4610SOL    HW225290   0.846   2.599   3.206  0.9233  0.6351  0.3235
 4611SOL     OW25291   3.138   2.930  14.156 -0.2898 -0.0621  0.4276
 4611SOL    HW125292   3.096   2.857  14.200  1.1855 -2.0298 -1.4423
 4611SOL    HW225293   3.115   2.906  14.066 -1.3431 -1.8190  1.1864
 4612SOL     OW25294   4.171   3.483  13.972  0.1063 -0.2187 -0.3828
 4612SOL    HW125295   4.251   3.503  14.021  0.1899  0.2018 -0.6836
 4612SOL    HW225296   4.158   3.391  13.993 -2.3039  0.4176  0.9370
 4613SOL     OW25297   1.922   0.728   5.999 -0.6335  0.0920 -0.7477
 4613SOL    HW125298   1.905   0.714   6.092 -0.4572 -1.6191 -0.9817
 4613SOL    HW225299   1.958   0.646   5.964 -0.4167 -0.0997 -0.0882
 4614SOL     OW25300   1.813   0.765  13.281 -0.5957 -0.0501  0.4496
 4614SOL    HW125301   1.835   0.715  13.360  1.5625  0.3597  0.1119
 4614SOL    HW225302   1.722   0.749  13.258 -0.7495  1.5531 -0.0484
 4615SOL     OW25303   3.419   2.949   2.965 -0.2124  0.1379 -0.3417
 4615SOL    HW125304   3.496   2.916   3.011 -0.4562  0.4696  0.2911
 4615SOL    HW225305   3.444   3.041   2.974  0.1107  0.1079 -0.8915
 4616SOL     OW25306   2.144   4.015   4.936  0.1084  0.1719 -0.0791
 4616SOL    HW125307   2.067   4.056   4.975 -2.2698 -2.3949 -2.0858
 4616SOL    HW225308   2.205   4.015   5.010 -2.4993  0.6265  2.0676
 4617SOL     OW25309   0.172   2.840   9.560 -0.1580  0.0912  0.5797
 4617SOL    HW125310   0.194   2.931   9.577 -0.8833  0.1869  1.0108
 4617SOL    HW225311   0.099   2.827   9.621  0.1239 -1.6476  0.5471
 4618SOL     OW25312   1.104   0.524   7.434  0.1462  0.0949 -0.9439
 4618SOL    HW125313   1.102   0.614   7.466 -0.3629  0.2586 -1.4465
 4618SOL    HW225314   1.017   0.511   7.397 -0.4365  0.3235  0.3347
 4619SOL     OW25315   1.923   1.545   2.431 -0.0547  0.3836  0.3630
 4619SOL    HW125316   1.882   1.496   2.502 -0.8657  0.4913 -0.0377
 4619SOL    HW225317   2.016   1.533   2.449 -0.4465 -1.9674  0.7812
 4620SOL     OW25318   0.771   2.629  15.251 -0.1563 -0.2604 -0.4927
 4620SOL    HW125319   0.821   2.646  15.331  2.3151 -1.1073 -1.8514
 4620SOL    HW225320   0.709   2.702  15.245 -0.3177 -0.4715 -1.3727
 4621SOL     OW25321   2.605   1.409   8.969 -0.5533 -0.0696 -0.6347
 4621SOL    HW125322   2.674   1.464   8.932 -2.6223  1.2798 -2.4476
 4621SOL    HW225323   2.527   1.458   8.943 -1.8623 -0.2740  2.7979
 4622SOL     OW25324   2.933   0.524   6.909  0.5079  0.2643  0.5274
 4622SOL    HW125325   2.846   0.554   6.938 -0.9236 -1.9183 -1.4920
 4622SOL    HW225326   2.946   0.576   6.830  0.9659  0.8048  0.9617
 4623SOL     OW25327   0.100   3.916   4.772 -0.1789 -0.5299 -0.4778
 4623SOL    HW125328   0.041   3.904   4.847 -1.1033  2.8738 -0.6451
 4623SOL    HW225329   0.093   4.011   4.760 -0.6942 -0.5537 -0.3766
 4624SOL     OW25330   3.884   0.474   4.235  0.2831  0.5720 -0.3405
 4624SOL    HW125331   3.934   0.505   4.159  1.3379 -0.7757 -0.1928
 4624SOL    HW225332   3.825   0.406   4.201  2.8203 -0.9080 -1.8049
 4625SOL     OW25333   3.643   3.178  15.061  0.2020 -0.1455 -0.8337
 4625SOL    HW125334   3.595   3.252  15.024  0.9520  1.2313  0.9949
 4625SOL    HW225335   3.728   3.217  15.082 -0.3457  0.2316  0.6558
 4626SOL     OW25336   1.544   3.933  13.306 -0.1193  0.1336  0.4381
 4626SOL    HW125337   1.523   3.872  13.377  0.7711 -2.1446 -1.2543
 4626SOL    HW225338   1.528   4.014  13.354  0.2770  1.9502 -2.5344
 4627SOL     OW25339   3.856   0.242  15.036 -0.3500 -0.5502  0.4690
 4627SOL    HW125340   3.771   0.202  15.022  0.1360 -0.5878 -2.3353
 4627SOL    HW225341   3.868   0.295  14.957 -2.0070 -2.4403 -1.0307
 4628SOL     OW25342   2.770   3.002   7.209 -0.1894  0.4183  0.7520
 4628SOL    HW125343   2.848   2.986   7.157 -0.5062 -1.3026  0.8069
 4628SOL    HW225344   2.800   3.067   7.273  1.7481 -0.9514  1.2087
 4629SOL     OW25345   3.705   1.219   1.530 -0.3873 -0.4665  0.6720
 4629SOL    HW125346   3.747   1.305   1.525 -1.2333 -0.1269 -0.5719
 4629SOL    HW225347   3.636   1.228   1.464 -1.2251 -2.5518  1.2810
 4630SOL     OW25348   4.413   4.506   6.312 -0.2560 -0.1834  0.0134
 4630SOL    HW125349   4.409   4.548   6.226  1.6629  3.8050  1.8706
 4630SOL    HW225350   4.324   4.530   6.341  0.2347 -0.2823  1.5952
 4631SOL     OW25351   4.301   2.239   5.834  0.5008  0.5060 -0.4761
 4631SOL    HW125352   4.266   2.252   5.745 -1.4427  2.5152  0.5966
 4631SOL    HW225353   4.326   2.147   5.830 -0.0822  0.3591 -0.7268
 4632SOL     OW25354   3.627   4.700   4.853 -0.3546  0.2900  0.1722
 4632SOL    HW125355   3.631   4.717   4.759  0.7210  0.9171  0.3300
 4632SOL    HW225356   3.645   4.606   4.853 -1.1130  0.1489  0.5733
 4633SOL     OW25357   1.966   2.193   7.633 -0.1191  0.3227  0.0815
 4633SOL    HW125358   1.873   2.167   7.637  0.4855 -1.6764  1.4346
 4633SOL    HW225359   1.976   2.235   7.548 -2.3130  0.1095 -0.2954
 4634SOL     OW25360   4.024   4.403   9.190 -0.0312  0.0643 -0.3389
 4634SOL    HW125361   4.083   4.414   9.115  2.3286 -0.1129  1.4777
 4634SOL    HW225362   3.941   4.377   9.150  0.0655  1.4394 -1.4232
 4635SOL     OW25363   2.392   4.597   9.146  0.2746 -0.1242  0.9109
 4635SOL    HW125364   2.430   4.510   9.129  0.4187 -0.1707  1.4931
 4635SOL    HW225365   2.472   4.648   9.137  1.7439 -2.5818  0.0937
 4636SOL     OW25366   2.013   3.747   9.379 -0.1022  0.2279 -0.2624
 4636SOL    HW125367   2.023   3.667   9.431 -1.8150 -1.9542 -3.3000
 4636SOL    HW225368   1.993   3.714   9.291  1.7683  0.4980 -0.7831
 4637SOL     OW25369   4.581   0.537   3.454 -0.4924  0.3465 -0.1262
 4637SOL    HW125370   4.607   0.478   3.383 -0.1711 -0.8535  1.0020
 4637SOL    HW225371   4.614   0.621   3.422 -0.0176  0.4719  0.7046
 4638SOL     OW25372   2.156   0.567   1.900 -0.6094 -0.1864  0.1875
 4638SOL    HW125373   2.078   0.512   1.893 -0.8590  0.0702  0.9840
 4638SOL    HW225374   2.144   0.618   1.819 -0.6749  1.4504  1.2383
 4639SOL     OW25375   2.952   0.417   2.494 -0.4411 -0.0762 -0.8269
 4639SOL    HW125376   2.908   0.480   2.437 -0.4812  1.0648  0.4409
 4639SOL    HW225377   2.941   0.452   2.583 -2.6261 -1.9539 -0.3581
 4640SOL     OW25378   2.523   0.035   9.942 -0.9190 -0.4847 -0.2833
 4640SOL    HW125379   2.575   0.066  10.017 -1.3722 -4.4784  1.6555
 4640SOL    HW225380   2.493   4.674   9.978 -0.4270 -1.0090 -1.1127
 4641SOL     OW25381   0.801   4.529   3.768  0.3395 -0.6610 -0.2773
 4641SOL    HW125382   0.840   4.540   3.855  0.7635 -1.3878 -0.3745
 4641SOL    HW225383   0.786   4.622   3.750  0.3074 -1.0681 -2.3286
 4642SOL     OW25384   4.556   4.497   0.317  0.4391 -0.1782  0.2642
 4642SOL    HW125385   4.489   4.547   0.269  0.2301 -0.3748  0.3576
 4642SOL    HW225386   4.569   4.426   0.254 -2.7150 -1.1010  0.6963
 4643SOL     OW25387   2.159   1.830  10.880 -0.3109 -0.8416  0.6266
 4643SOL    HW125388   2.243   1.820  10.835 -2.5195  0.3680 -3.7093
 4643SOL    HW225389   2.129   1.739  10.886 -1.7068 -0.2059  3.1371
 4644SOL     OW25390   2.644   2.018  15.893  0.3742 -0.2363 -0.0963
 4644SOL    HW125391   2.568   1.960  15.891  0.4274 -0.2508 -1.4988
 4644SOL    HW225392   2.704   1.989  15.825 -1.1245  1.0027 -1.9587
 4645SOL     OW25393   1.074   1.882   8.341  0.2065 -0.1690  0.0583
 4645SOL    HW125394   1.003   1.946   8.344 -0.1315 -0.6376  2.0320
 4645SOL    HW225395   1.145   1.938   8.309 -0.1485  1.0799  1.4497
 4646SOL     OW25396   0.615   1.876   8.534 -0.5242 -0.1998 -0.0933
 4646SOL    HW125397   0.705   1.900   8.557 -1.5951  3.1592  0.5087
 4646SOL    HW225398   0.566   1.903   8.612 -1.4572 -0.8837 -0.4513
 4647SOL     OW25399   1.813   2.084  12.870 -0.6335 -0.1371 -0.1791
 4647SOL    HW125400   1.901   2.081  12.907 -0.7437  3.4327  0.3808
 4647SOL    HW225401   1.805   2.010  12.810  2.1383 -0.0916 -0.5722
 4648SOL     OW25402   0.574   0.558  16.410  0.2981  0.4400  0.3137
 4648SOL    HW125403   0.573   0.501  16.333  3.1560 -0.9268  1.3012
 4648SOL    HW225404   0.517   0.628  16.378  0.0388 -1.1915 -2.7739
 4649SOL     OW25405   1.174   2.121   1.097 -0.3068  0.1862 -0.3627
 4649SOL    HW125406   1.215   2.110   1.011  0.0297  0.3353 -0.2197
 4649SOL    HW225407   1.084   2.152   1.090 -0.2974 -0.2268 -2.2197
 4650SOL     OW25408   1.158   1.893  14.105  0.5522  0.6107  0.3418
 4650SOL    HW125409   1.081   1.902  14.049 -0.0176 -1.9945  0.7488
 4650SOL    HW225410   1.135   1.824  14.167  0.2842  1.1215  0.8138
 4651SOL     OW25411   4.284   2.383   1.212 -0.0086  0.3437  0.1927
 4651SOL    HW125412   4.245   2.296   1.208  3.5821 -1.2258  0.3639
 4651SOL    HW225413   4.313   2.390   1.121 -0.0591 -2.6851 -0.0513
 4652SOL     OW25414   2.330   2.004  14.581  0.1759  0.3893  0.1517
 4652SOL    HW125415   2.324   2.080  14.640  0.4441  1.7832 -1.6124
 4652SOL    HW225416   2.425   2.002  14.568 -0.0200  0.5859 -1.3180
 4653SOL     OW25417   3.034   2.622   5.609 -0.2770  0.3258  0.1033
 4653SOL    HW125418   3.031   2.549   5.671  0.9760 -1.0438 -1.4511
 4653SOL    HW225419   3.016   2.575   5.528 -1.1269 -0.0457  0.5089
 4654SOL     OW25420   0.940   1.295   3.802  0.0232 -0.6322 -0.1938
 4654SOL    HW125421   1.001   1.221   3.806  1.6930  0.7438 -0.3139
 4654SOL    HW225422   0.993   1.362   3.758 -1.2392 -0.3900 -1.3738
 4655SOL     OW25423   0.339   0.108   3.203 -0.5787  0.4112 -0.2919
 4655SOL    HW125424   0.271   0.113   3.271 -2.4390  1.9884 -2.2715
 4655SOL    HW225425   0.319   0.024   3.162  0.6837  1.3277 -2.7549
 4656SOL     OW25426   3.986   0.391  12.920 -0.2269  0.3716 -0.4811
 4656SOL    HW125427   3.959   0.335  12.847 -0.4849 -0.1638  0.0264
 4656SOL    HW225428   4.029   0.462  12.872  3.3603  0.2688  2.6115
 4657SOL     OW25429   0.588   4.088   2.259  0.1129  0.0509  0.7025
 4657SOL    HW125430   0.547   4.020   2.312  1.3086 -1.1719  0.0565
 4657SOL    HW225431   0.519   4.154   2.249 -0.8078 -1.2512 -1.3261
 4658SOL     OW25432   0.798   1.204   4.016 -0.5031  0.3965 -0.1397
 4658SOL    HW125433   0.859   1.265   3.975 -0.5782 -0.1706 -1.1034
 4658SOL    HW225434   0.816   1.238   4.103  2.6858 -0.8678 -0.3320
 4659SOL     OW25435   0.009   0.277   9.067 -0.3729  0.0932  0.4807
 4659SOL    HW125436   4.678   0.349   9.034  2.0396  1.0174 -1.4196
 4659SOL    HW225437   4.654   0.222   9.079 -0.6763  0.3201 -0.3928
 4660SOL     OW25438   3.506   1.995   4.501 -0.0653 -0.1240 -0.0651
 4660SOL    HW125439   3.532   1.905   4.522 -0.1560 -0.5446 -1.8369
 4660SOL    HW225440   3.482   2.022   4.590 -1.5099 -1.2665 -0.1131
 4661SOL     OW25441   2.683   3.526   6.129 -0.3858  0.0407  0.2624
 4661SOL    HW125442   2.660   3.544   6.220  2.3193  0.2543  0.9097
 4661SOL    HW225443   2.778   3.510   6.135 -0.5271 -1.0602 -0.4211
 4662SOL     OW25444   3.536   1.220  16.384 -0.0601 -0.0984 -0.0144
 4662SOL    HW125445   3.608   1.265  16.429  0.8852 -2.5561  0.8755
 4662SOL    HW225446   3.543   1.133  16.422 -0.4791 -1.0324 -2.0312
 4663SOL     OW25447   0.688   3.201   6.018  0.1103  0.3527 -0.2934
 4663SOL    HW125448   0.728   3.230   5.936 -0.5734  0.8471 -0.4467
 4663SOL    HW225449   0.723   3.269   6.075 -0.8846 -0.3921  1.2163
 4664SOL     OW25450   0.977   3.054   7.734 -0.0495  0.3303 -0.0222
 4664SOL    HW125451   0.993   3.012   7.818  0.9743  0.8003  0.0110
 4664SOL    HW225452   1.044   3.122   7.743  0.4623 -0.2950  0.8662
 4665SOL     OW25453   3.949   3.221   3.621  0.1693 -0.0554 -0.5447
 4665SOL    HW125454   3.900   3.302   3.631  0.7498  0.4350 -1.6277
 4665SOL    HW225455   4.031   3.240   3.575  0.5019  0.8193  0.4071
 4666SOL     OW25456   0.913   1.377   7.043 -0.3883 -0.3156 -0.2109
 4666SOL    HW125457   0.894   1.466   7.015 -0.2236 -0.5017 -0.9154
 4666SOL    HW225458   0.911   1.390   7.138 -0.0134  2.6445 -0.6134
 4667SOL     OW25459   0.162   0.207   4.987 -0.1250  0.6140  0.0471
 4667SOL    HW125460   0.195   0.295   5.005 -0.6954  0.7821  0.2393
 4667SOL    HW225461   0.085   0.221   4.932 -0.1780 -2.9476 -0.8035
 4668SOL     OW25462   4.116   4.535  11.395 -0.1180 -0.6165  0.5821
 4668SOL    HW125463   4.142   4.443  11.405 -0.4739 -0.7248  0.5096
 4668SOL    HW225464   4.141   4.546  11.303 -0.0431  0.6355  0.7565
 4669SOL     OW25465   4.080   2.479  14.568  0.0241 -0.0787 -0.0804
 4669SOL    HW125466   4.046   2.390  14.574  1.7445 -0.8179 -1.1780
 4669SOL    HW225467   4.163   2.459  14.611  1.5982  0.7285 -2.7311
 4670SOL     OW25468   0.343   2.555   7.365  0.2580 -0.1694 -0.5459
 4670SOL    HW125469   0.422   2.549   7.313 -0.0237  0.8640 -1.0869
 4670SOL    HW225470   0.288   2.590   7.295  0.1145  0.4755 -0.1102
 4671SOL     OW25471   3.527   0.134   0.591 -0.2991  0.4749 -0.0402
 4671SOL    HW125472   3.563   0.150   0.678 -0.2745 -0.9485  0.2165
 4671SOL    HW225473   3.432   0.141   0.603 -0.2040 -1.8184  2.1090
 4672SOL     OW25474   0.714   0.548   3.538  0.2532  0.2286  0.5379
 4672SOL    HW125475   0.698   0.563   3.631  0.8217 -0.1056  0.6900
 4672SOL    HW225476   0.686   0.633   3.504 -1.8164 -1.1943 -1.3032
 4673SOL     OW25477   2.778   4.396  13.325  0.6238  0.8975 -0.3249
 4673SOL    HW125478   2.843   4.389  13.395 -1.1234 -0.8655  1.1243
 4673SOL    HW225479   2.718   4.333  13.365  1.7275  0.1843  0.2312
 4674SOL     OW25480   2.282   3.077   5.273  0.6637  0.0572 -0.2501
 4674SOL    HW125481   2.257   3.115   5.189  1.1552  1.0992  0.0804
 4674SOL    HW225482   2.244   3.146   5.327  0.0459 -1.5110  1.3056
 4675SOL     OW25483   0.126   3.275   3.163  0.2925 -0.0015  0.2658
 4675SOL    HW125484   0.098   3.195   3.208  0.9258  0.1522  0.9348
 4675SOL    HW225485   0.065   3.281   3.090  0.1749 -0.1630  0.3490
 4676SOL     OW25486   1.808   1.718   3.176 -0.0839 -0.0011  0.5052
 4676SOL    HW125487   1.756   1.773   3.235  1.6332 -0.0203  2.0164
 4676SOL    HW225488   1.868   1.782   3.139 -1.0321 -0.4519 -1.8334
 4677SOL     OW25489   1.119   4.586   1.375 -0.2924  0.3262 -0.1712
 4677SOL    HW125490   1.095   4.505   1.420  0.9319  0.7717  1.2678
 4677SOL    HW225491   1.127   4.539   1.292 -3.3034  0.1841 -0.3706
 4678SOL     OW25492   1.700   0.400   6.036  0.1354  0.4802 -0.2633
 4678SOL    HW125493   1.719   0.482   6.080  0.6306  1.2612 -1.9556
 4678SOL    HW225494   1.785   0.360   6.019  0.4526  1.3797 -0.7660
 4679SOL     OW25495   1.088   2.010   7.859  0.2488 -0.1126  0.0100
 4679SOL    HW125496   1.157   2.057   7.906 -3.5321  3.5198  1.9409
 4679SOL    HW225497   1.050   1.952   7.925 -0.0003 -1.4813 -1.3587
 4680SOL     OW25498   2.645   4.123   9.567 -0.0081 -0.2028 -0.0266
 4680SOL    HW125499   2.706   4.166   9.507 -0.9837  1.4521  0.1811
 4680SOL    HW225500   2.689   4.044   9.596  0.6487  0.9418  2.0872
 4681SOL     OW25501   0.681   0.563   8.076 -0.7253  0.0939 -0.2190
 4681SOL    HW125502   0.659   0.472   8.094  1.5771 -0.0219  1.9619
 4681SOL    HW225503   0.668   0.604   8.161 -0.0085  0.5141 -0.3163
 4682SOL     OW25504   2.003   4.593   7.145 -0.8136 -0.0657  0.2288
 4682SOL    HW125505   1.974   4.681   7.122 -1.8379  0.2365  2.5923
 4682SOL    HW225506   1.921   4.545   7.144 -0.4269 -0.6958 -1.3785
 4683SOL     OW25507   2.625   1.245   9.407  0.0879 -0.2286  0.0496
 4683SOL    HW125508   2.613   1.322   9.351  1.2712  0.3006  0.5180
 4683SOL    HW225509   2.665   1.284   9.485  0.0560  2.2383 -1.1515
 4684SOL     OW25510   1.666   0.768   8.319  0.2534 -0.0599  0.7964
 4684SOL    HW125511   1.672   0.725   8.233  0.8132  1.8675 -0.1399
 4684SOL    HW225512   1.666   0.694   8.379 -3.0993  0.2344  1.1568
 4685SOL     OW25513   2.223   0.863   3.828 -0.1128  0.6682 -0.2827
 4685SOL    HW125514   2.304   0.844   3.781  0.5003 -2.9463  2.2167
 4685SOL    HW225515   2.255   0.947   3.861 -1.7074  1.9605 -2.0756
 4686SOL     OW25516   3.952   0.407   5.912 -0.4444  0.1844  0.2310
 4686SOL    HW125517   3.889   0.369   5.850  0.8768 -0.2007 -0.8960
 4686SOL    HW225518   4.030   0.375   5.866 -0.7850 -0.0320 -0.2027
 4687SOL     OW25519   4.117   2.151   6.791 -0.2081  0.3646  0.2046
 4687SOL    HW125520   4.062   2.170   6.716  1.2359 -0.6621 -1.1104
 4687SOL    HW225521   4.189   2.212   6.773 -1.6583  1.8371 -0.5019
 4688SOL     OW25522   1.196   1.538   9.490 -0.1376  0.4089 -1.1417
 4688SOL    HW125523   1.144   1.460   9.510  0.2858  0.5408  0.4201
 4688SOL    HW225524   1.284   1.511   9.514 -0.2358 -2.0548 -3.4860
 4689SOL     OW25525   3.335   1.029   3.173 -0.2159  0.0332  0.2002
 4689SOL    HW125526   3.242   1.004   3.165  0.1933 -1.6674  0.6517
 4689SOL    HW225527   3.334   1.121   3.196  0.8263  0.1270 -0.1397
 4690SOL     OW25528   1.666   4.246   2.922 -0.3013 -0.7905  0.3424
 4690SOL    HW125529   1.620   4.260   2.839 -0.1946  2.8822  0.8991
 4690SOL    HW225530   1.719   4.325   2.929 -0.1941 -0.9822  1.7550
 4691SOL     OW25531   0.722   1.762   4.285  0.2096  0.3171 -0.9259
 4691SOL    HW125532   0.637   1.782   4.246 -0.8872 -2.6400 -0.0797
 4691SOL    HW225533   0.694   1.760   4.377  2.1668  1.5773 -0.2953
 4692SOL     OW25534   0.160   4.248   2.399  0.0070 -0.5396 -0.1234
 4692SOL    HW125535   0.223   4.293   2.342  0.9245 -1.6480  0.0178
 4692SOL    HW225536   0.187   4.156   2.397 -0.1015 -0.6113  2.1334
 4693SOL     OW25537   0.547   0.012  10.239  0.7998 -0.7274  0.4018
 4693SOL    HW125538   0.620   0.006  10.178 -0.1229  0.7165 -0.8390
 4693SOL    HW225539   0.526   0.106  10.236  3.2578 -0.2120 -0.3293
 4694SOL     OW25540   4.280   2.946   6.021 -0.2769  0.2291  0.3153
 4694SOL    HW125541   4.273   2.851   6.025  3.6863 -0.1031  0.0884
 4694SOL    HW225542   4.370   2.952   5.988 -0.2445  0.7139  0.4906
 4695SOL     OW25543   1.914   0.745  15.417  0.0588 -0.1105  0.0058
 4695SOL    HW125544   1.906   0.797  15.337  0.0131 -1.7102 -1.0240
 4695SOL    HW225545   1.995   0.695  15.407  0.9070  1.4469 -1.0124
 4696SOL     OW25546   1.225   0.972   2.950  0.4961 -0.4070  0.4091
 4696SOL    HW125547   1.211   1.042   2.886 -0.8726 -1.7029 -0.6986
 4696SOL    HW225548   1.139   0.942   2.980 -1.2060  3.0802 -0.9880
 4697SOL     OW25549   3.273   2.942   5.907 -0.3044 -0.0367 -0.2375
 4697SOL    HW125550   3.338   2.873   5.889  0.7518  1.0385 -0.5442
 4697SOL    HW225551   3.311   3.019   5.864  0.5111 -1.9101 -2.9221
 4698SOL     OW25552   4.297   0.507   6.199  0.2923 -0.2680  0.2039
 4698SOL    HW125553   4.326   0.416   6.207 -2.4095 -1.1768 -0.1979
 4698SOL    HW225554   4.208   0.498   6.234 -0.2304  0.6663 -0.8925
 4699SOL     OW25555   4.176   4.358   8.946  0.3818  0.0728 -0.0152
 4699SOL    HW125556   4.163   4.266   8.921  3.9128 -0.5724  0.4834
 4699SOL    HW225557   4.185   4.398   8.859 -0.7792 -2.6192 -1.3796
 4700SOL     OW25558   2.462   1.610   8.095 -0.0119  0.0269 -0.2485
 4700SOL    HW125559   2.466   1.515   8.092  0.4590 -0.0177  1.7053
 4700SOL    HW225560   2.432   1.618   8.186 -0.6462 -1.7309 -0.3013
 4701SOL     OW25561   0.589   1.059   2.250  0.1416  0.4746 -0.1469
 4701SOL    HW125562   0.609   1.150   2.230  0.7136  0.5146  0.6149
 4701SOL    HW225563   0.499   1.075   2.278 -0.0826  1.7696 -1.5725
 4702SOL     OW25564   0.250   2.332   3.861  0.3776  0.9619  0.0934
 4702SOL    HW125565   0.232   2.426   3.848  0.6842  1.0627  0.3986
 4702SOL    HW225566   0.345   2.336   3.851  0.3989  1.6924  0.5731
 4703SOL     OW25567   3.424   4.518   7.604 -0.3488 -0.1726 -0.0428
 4703SOL    HW125568   3.396   4.600   7.564  0.5874 -0.9986 -2.3874
 4703SOL    HW225569   3.405   4.461   7.529 -3.4516 -1.2934  1.5534
 4704SOL     OW25570   0.317   0.459   5.015 -0.2033 -0.1657  0.7325
 4704SOL    HW125571   0.333   0.553   5.017 -0.4835 -0.1166  0.6488
 4704SOL    HW225572   0.368   0.429   5.090  0.8053 -1.9927 -0.6646
 4705SOL     OW25573   3.694   4.596   6.841 -0.4887 -0.5046 -0.4820
 4705SOL    HW125574   3.739   4.633   6.917 -0.2432  0.1703 -0.9539
 4705SOL    HW225575   3.628   4.662   6.818  0.8568  0.6308 -1.0928
 4706SOL     OW25576   3.980   4.212   2.856  0.0067 -0.2027  0.5095
 4706SOL    HW125577   4.053   4.236   2.913  0.4245 -2.7089  1.0354
 4706SOL    HW225578   3.963   4.123   2.889 -2.3151  0.3381  0.7923
 4707SOL     OW25579   0.767   1.765   5.065  0.2794 -0.3387 -0.0914
 4707SOL    HW125580   0.784   1.748   4.973 -1.5470 -1.4677 -0.2341
 4707SOL    HW225581   0.714   1.844   5.062  1.7806  0.6122 -1.1966
 4708SOL     OW25582   4.250   2.815   5.221  0.4753 -0.0740  0.4806
 4708SOL    HW125583   4.225   2.799   5.312  0.1798 -1.9559  0.0724
 4708SOL    HW225584   4.329   2.869   5.229  1.0606 -0.8892  0.3323
 4709SOL     OW25585   1.991   3.894   1.822  0.5078  0.1220 -0.5184
 4709SOL    HW125586   1.905   3.927   1.849  0.6527  0.9396 -1.0803
 4709SOL    HW225587   1.978   3.871   1.730  0.6061  0.7297 -0.6840
 4710SOL     OW25588   0.874   1.359   8.388 -0.1850  0.0452  0.0515
 4710SOL    HW125589   0.929   1.329   8.460 -0.5303 -0.1265  0.2444
 4710SOL    HW225590   0.924   1.435   8.357  1.2331 -0.8690  0.1521
 4711SOL     OW25591   1.982   1.265   7.150 -0.0277  0.0768  0.0155
 4711SOL    HW125592   1.958   1.172   7.143  0.5232 -0.0890  0.2880
 4711SOL    HW225593   2.030   1.280   7.069  0.8193 -1.3169  0.2628
 4712SOL     OW25594   0.346   1.783   2.806  0.0628  0.1826  0.1236
 4712SOL    HW125595   0.289   1.719   2.849  1.6086  0.0813  2.0019
 4712SOL    HW225596   0.377   1.731   2.732 -1.4489 -2.4063  1.3022
 4713SOL     OW25597   3.081   2.713   8.211  0.0342  0.3291 -0.4218
 4713SOL    HW125598   3.084   2.781   8.144  1.1602  1.8990  1.2585
 4713SOL    HW225599   3.141   2.735   8.282 -0.0302  0.8670 -0.5353
 4714SOL     OW25600   0.124   2.259   8.016 -0.2591  0.4758 -0.5163
 4714SOL    HW125601   0.201   2.259   7.960 -1.2548  3.1877 -1.8915
 4714SOL    HW225602   0.125   2.175   8.062  2.4339  0.5037 -0.5373
 4715SOL     OW25603   2.831   0.642   8.705  0.1144 -0.3066 -0.1501
 4715SOL    HW125604   2.822   0.600   8.620  0.8103  0.3112 -0.5291
 4715SOL    HW225605   2.805   0.733   8.691 -1.1907 -1.2264 -3.6387
 4716SOL     OW25606   2.547   1.906  10.462 -0.1379  0.1294  0.3779
 4716SOL    HW125607   2.495   1.977  10.500  1.9111  1.1282  1.3065
 4716SOL    HW225608   2.638   1.930  10.480 -0.0844 -0.3323  0.7172
 4717SOL     OW25609   4.437   3.986   3.831  0.2933  0.2608  0.6320
 4717SOL    HW125610   4.390   4.044   3.891  1.8159  2.2414 -0.1044
 4717SOL    HW225611   4.520   3.982   3.877  1.1880  1.6566 -0.8477
 4718SOL     OW25612   2.485   0.795   0.113 -0.0522 -0.4231  0.0214
 4718SOL    HW125613   2.419   0.848   0.157 -0.5622 -1.3713  0.4186
 4718SOL    HW225614   2.447   0.775   0.027  2.4975  0.3760 -1.2813
 4719SOL     OW25615   3.616   3.826   0.871  0.8816  0.0799  0.5703
 4719SOL    HW125616   3.607   3.916   0.903 -1.6342  0.8046 -2.1991
 4719SOL    HW225617   3.566   3.779   0.938 -0.1492 -0.6063 -0.6785
 4720SOL     OW25618   4.071   3.684  10.941 -0.2430  0.4627 -0.4863
 4720SOL    HW125619   4.106   3.750  11.000  0.7452 -1.0736  0.6279
 4720SOL    HW225620   4.105   3.599  10.969  1.0431  1.1424 -0.0113
 4721SOL     OW25621   0.034   2.793   6.400 -0.4062  0.9756 -0.6881
 4721SOL    HW125622   0.031   2.885   6.374 -2.2214  1.3831  0.9924
 4721SOL    HW225623   4.677   2.758   6.360  0.7295  1.6664 -3.5385
 4722SOL     OW25624   2.660   2.879   7.521  0.2237 -0.2596 -0.7215
 4722SOL    HW125625   2.690   2.969   7.526  2.8347 -1.0320 -2.1481
 4722SOL    HW225626   2.746   2.838   7.510  0.1787 -0.7187  0.5914
 4723SOL     OW25627   3.205   3.032   9.114  0.5205 -0.3468  0.3081
 4723SOL    HW125628   3.170   3.055   9.027  2.2835  0.0997 -0.2895
 4723SOL    HW225629   3.133   2.976   9.141  0.7876  0.2118  2.1418
 4724SOL     OW25630   2.199   0.048  10.738  0.1200  0.1241 -0.1107
 4724SOL    HW125631   2.251   0.123  10.712 -1.2723  0.3631 -2.1503
 4724SOL    HW225632   2.111   0.080  10.718  0.5358  0.7686 -0.8975
 4725SOL     OW25633   2.628   2.161  13.190 -0.2914  0.2541 -0.2010
 4725SOL    HW125634   2.555   2.183  13.132  0.8201  0.4727 -1.5341
 4725SOL    HW225635   2.698   2.221  13.162 -0.2939  0.0215 -0.6991
 4726SOL     OW25636   1.004   0.836  13.977 -0.7779 -0.4426  0.4358
 4726SOL    HW125637   0.983   0.907  13.916 -1.9319 -1.2507 -0.1136
 4726SOL    HW225638   1.099   0.828  13.979 -1.0013 -3.4483 -0.4016
 4727SOL     OW25639   1.561   3.551   5.942  0.5048 -1.1169  0.2131
 4727SOL    HW125640   1.624   3.481   5.923 -0.2093 -1.2686 -1.6305
 4727SOL    HW225641   1.616   3.620   5.979 -0.9405  0.2299 -0.2050
 4728SOL     OW25642   3.589   2.527   8.450 -0.3447 -0.6333 -0.1311
 4728SOL    HW125643   3.619   2.437   8.438 -0.9518 -0.8595 -0.0030
 4728SOL    HW225644   3.597   2.555   8.359 -0.5069 -4.2417 -1.2787
 4729SOL     OW25645   3.809   1.948   2.202  0.1521 -0.8509  0.4220
 4729SOL    HW125646   3.721   1.927   2.233  0.4797 -5.0527 -1.5480
 4729SOL    HW225647   3.857   1.871   2.231 -0.1060 -1.0835  0.2304
 4730SOL     OW25648   4.666   3.699  14.287  0.0627 -0.1237 -0.1658
 4730SOL    HW125649   4.676   3.659  14.201  1.2404 -0.1746 -0.0057
 4730SOL    HW225650   0.005   3.642  14.335 -1.4569  0.9681  3.0631
 4731SOL     OW25651   0.752   1.749   9.066  0.1957  0.9400 -0.1989
 4731SOL    HW125652   0.824   1.809   9.046 -0.4128  2.7156  2.9814
 4731SOL    HW225653   0.757   1.727   9.159 -1.4592 -1.3029 -0.6372
 4732SOL     OW25654   0.318   0.746   4.279  0.0207  0.2308 -0.3790
 4732SOL    HW125655   0.388   0.790   4.325  0.9651 -0.3302 -1.2736
 4732SOL    HW225656   0.289   0.816   4.220  3.7257  0.9591 -1.3076
 4733SOL     OW25657   4.056   2.006   2.111  0.0790  0.1678 -0.1653
 4733SOL    HW125658   3.961   2.000   2.126  0.3912 -2.6626  0.6085
 4733SOL    HW225659   4.086   1.918   2.087  0.1032 -0.6280  2.7584
 4734SOL     OW25660   0.028   0.080   9.380  1.0326  0.3672  0.0668
 4734SOL    HW125661   0.053   0.045   9.465 -0.8502  1.5709  1.1257
 4734SOL    HW225662   4.660   0.104   9.399  1.0850 -0.5010  1.3736
 4735SOL     OW25663   2.149   3.907   5.944  1.2518  0.2458  0.3255
 4735SOL    HW125664   2.097   3.971   5.993  0.8047  0.7127 -0.7460
 4735SOL    HW225665   2.207   3.879   6.014 -0.0071 -1.1115  0.8463
 4736SOL     OW25666   1.836   4.637   4.818  0.4113  0.0427 -0.3677
 4736SOL    HW125667   1.898   4.690   4.768 -0.1091  1.4748  0.5023
 4736SOL    HW225668   1.810   4.565   4.759  1.4315 -1.1871  0.6876
 4737SOL     OW25669   3.124   1.398   6.568 -0.5157  0.4006 -0.3332
 4737SOL    HW125670   3.104   1.466   6.632 -0.0657 -0.3384  0.5871
 4737SOL    HW225671   3.040   1.358   6.544  0.1045 -1.6816  0.9338
 4738SOL     OW25672   4.368   4.008  17.543  0.6019  0.2254 -0.0305
 4738SOL    HW125673   4.306   4.023  17.613  0.6296 -2.3618  0.5568
 4738SOL    HW225674   4.339   3.920  17.519 -1.2888  0.9211 -0.2587
 4739SOL     OW25675   0.637   3.995  14.102  0.1774 -0.6967 -0.3794
 4739SOL    HW125676   0.599   3.939  14.170  2.2013 -0.5995  0.8199
 4739SOL    HW225677   0.587   3.983  14.020  0.4205  0.4092 -0.6962
 4740SOL     OW25678   0.272   3.541   6.209 -0.3968 -0.2336  0.0998
 4740SOL    HW125679   0.264   3.562   6.302 -0.0642  0.8437 -0.1147
 4740SOL    HW225680   0.355   3.582   6.184 -0.2309 -0.8303 -0.3453
 4741SOL     OW25681   2.106   1.933   1.841 -0.2818 -0.1388  0.3668
 4741SOL    HW125682   2.070   1.862   1.787 -0.3909  1.3544 -1.5400
 4741SOL    HW225683   2.165   1.987   1.788  0.8088 -2.2952 -0.6342
 4742SOL     OW25684   0.396   1.145   8.367  0.0130 -0.3007 -0.3485
 4742SOL    HW125685   0.337   1.195   8.423  1.2651  0.3163  0.4214
 4742SOL    HW225686   0.477   1.194   8.380  0.9527 -1.4197 -2.0641
 4743SOL     OW25687   3.048   2.552   7.846  0.6102 -0.2414  0.1469
 4743SOL    HW125688   3.099   2.522   7.921  2.1812  2.1176  0.0476
 4743SOL    HW225689   3.089   2.509   7.770 -1.7954  0.4976 -1.5651
 4744SOL     OW25690   3.531   2.683  14.890 -0.1699 -0.4698  0.2602
 4744SOL    HW125691   3.571   2.769  14.878  1.9996 -1.5030  0.0547
 4744SOL    HW225692   3.605   2.623  14.877 -0.9556 -1.2051 -0.7598
 4745SOL     OW25693   2.440   4.025  17.464 -0.4541  0.2813 -0.3299
 4745SOL    HW125694   2.513   3.988  17.414  0.4681  0.9734  0.4870
 4745SOL    HW225695   2.426   3.958  17.531 -1.1508  1.4788  0.7155
 4746SOL     OW25696   0.993   0.714  13.654 -0.0741  0.2408 -0.2370
 4746SOL    HW125697   0.994   0.656  13.731  1.8577  1.5199  0.7162
 4746SOL    HW225698   1.073   0.761  13.676  1.4227 -2.9784  1.2779
 4747SOL     OW25699   2.351   1.166  14.809 -0.7881  0.5076  0.2072
 4747SOL    HW125700   2.399   1.249  14.811  1.0433 -0.4987 -1.4410
 4747SOL    HW225701   2.286   1.166  14.739 -0.1734 -1.2953 -0.3652
 4748SOL     OW25702   2.096   2.666   7.546 -0.1698  0.1877  0.6577
 4748SOL    HW125703   2.170   2.623   7.591 -1.1479 -2.0988  0.1064
 4748SOL    HW225704   2.121   2.642   7.456  0.8570  0.6380  0.8178
 4749SOL     OW25705   1.392   0.562  10.817 -0.5882 -0.2807  0.5775
 4749SOL    HW125706   1.399   0.472  10.851  1.1676  0.7120  2.8243
 4749SOL    HW225707   1.430   0.552  10.730 -1.5001  0.5090  0.1015
 4750SOL     OW25708   3.107   0.417   3.235  0.3117  0.1179 -0.8068
 4750SOL    HW125709   3.167   0.425   3.161  1.1524  1.3690  0.0192
 4750SOL    HW225710   3.072   0.330   3.217  0.2343  0.2439 -1.2743
 4751SOL     OW25711   2.351   1.366   4.017  0.2755  1.1671 -0.5721
 4751SOL    HW125712   2.386   1.444   4.061 -1.1474  1.0540  0.7823
 4751SOL    HW225713   2.265   1.403   3.995 -0.2541  0.0391 -0.3987
 4752SOL     OW25714   1.546   1.399   1.767  0.1456  0.4171  0.0408
 4752SOL    HW125715   1.608   1.343   1.719 -1.4180  0.1428 -1.6623
 4752SOL    HW225716   1.602   1.425   1.840 -0.7342 -1.7693  1.4971
 4753SOL     OW25717   2.184   2.655   9.376  0.0239 -0.3529  0.0454
 4753SOL    HW125718   2.240   2.591   9.419 -0.2400 -0.5930  0.0350
 4753SOL    HW225719   2.233   2.736   9.387 -1.6174  0.6816 -0.3181
 4754SOL     OW25720   1.604   2.056   6.840  0.7711 -0.6230  0.0415
 4754SOL    HW125721   1.608   2.107   6.759  0.1006  1.1979  1.1531
 4754SOL    HW225722   1.574   2.117   6.907 -0.2015 -0.1109 -0.8648
 4755SOL     OW25723   1.043   4.608   3.279  0.0679 -0.4260 -0.4201
 4755SOL    HW125724   1.053   4.660   3.200  0.5187  1.5567  0.9477
 4755SOL    HW225725   1.132   4.575   3.288  0.2179 -0.1799 -0.9869
 4756SOL     OW25726   1.818   2.033   6.516 -0.2206 -0.5236 -0.0771
 4756SOL    HW125727   1.781   2.121   6.509 -0.6206 -0.8887 -2.2718
 4756SOL    HW225728   1.741   1.979   6.533 -1.6853  1.3216 -0.8652
 4757SOL     OW25729   0.803   2.397   7.249  0.9981  0.5245 -0.4634
 4757SOL    HW125730   0.815   2.350   7.332 -2.9454  1.6089  0.7071
 4757SOL    HW225731   0.813   2.328   7.184  0.9216  0.5490 -0.5005
 4758SOL     OW25732   4.003   3.438  15.713 -0.1642  0.3123  0.6029
 4758SOL    HW125733   4.031   3.517  15.666  1.6867 -1.2838 -0.9801
 4758SOL    HW225734   3.936   3.405  15.654  0.4064 -1.4482  0.9152
 4759SOL     OW25735   1.567   3.351  13.224 -0.0136  0.2956  0.2868
 4759SOL    HW125736   1.528   3.357  13.311 -1.1735  1.9061 -0.3442
 4759SOL    HW225737   1.564   3.260  13.196 -0.1812 -0.0340  1.3610
 4760SOL     OW25738   1.764   1.763   5.987 -0.3112 -0.2672 -0.2616
 4760SOL    HW125739   1.823   1.835   6.011 -0.9790 -0.5632  2.2167
 4760SOL    HW225740   1.811   1.739   5.907 -0.9290 -1.9397 -0.1267
 4761SOL     OW25741   1.812   3.877   9.037  0.6718  0.5525  0.2775
 4761SOL    HW125742   1.739   3.867   8.976 -0.5498 -0.4384  1.8988
 4761SOL    HW225743   1.774   3.917   9.115 -2.1967  4.3613 -3.0135
 4762SOL     OW25744   0.670   4.349   0.669 -0.3454 -0.5565  0.4200
 4762SOL    HW125745   0.640   4.335   0.759 -0.4612 -0.5506  0.3824
 4762SOL    HW225746   0.688   4.258   0.645  1.0921 -0.1275 -0.1602
 4763SOL     OW25747   1.786   2.874  15.117 -0.2389  0.1029  0.1285
 4763SOL    HW125748   1.728   2.912  15.052 -0.6250 -0.8355 -0.0762
 4763SOL    HW225749   1.780   2.781  15.093 -3.2292  0.5788 -0.9705
 4764SOL     OW25750   0.933   2.657  15.468 -0.0498  0.0526 -0.1111
 4764SOL    HW125751   0.900   2.726  15.526 -2.3929  0.2360 -1.6606
 4764SOL    HW225752   1.011   2.623  15.511 -0.4761  0.0366  0.6411
 4765SOL     OW25753   1.739   2.210  12.541  0.1899  0.2605 -0.6508
 4765SOL    HW125754   1.757   2.119  12.561  1.1518  0.2675 -1.4667
 4765SOL    HW225755   1.673   2.202  12.473  0.0392 -1.3433 -0.3171
 4766SOL     OW25756   4.268   2.841   3.733  0.4241 -0.4362  0.1994
 4766SOL    HW125757   4.355   2.849   3.773  0.6485 -0.7954 -0.2240
 4766SOL    HW225758   4.295   2.867   3.645 -0.3173 -0.0528  0.0813
 4767SOL     OW25759   2.862   3.427  10.032 -0.7119 -0.1476 -0.5363
 4767SOL    HW125760   2.796   3.469  10.087 -0.2999 -0.9971  0.5908
 4767SOL    HW225761   2.808   3.350  10.015 -3.8138  2.3070 -1.9708
 4768SOL     OW25762   1.645   3.946   5.864 -0.1781 -0.7170 -0.0770
 4768SOL    HW125763   1.572   3.952   5.802 -0.2990  0.6243  0.1953
 4768SOL    HW225764   1.719   3.948   5.804  0.7282 -1.4235  1.0206
 4769SOL     OW25765   0.956   2.891  11.748  0.1578 -0.7751  0.2264
 4769SOL    HW125766   1.047   2.895  11.778  0.4223 -1.7610 -0.4677
 4769SOL    HW225767   0.929   2.983  11.756 -1.0193 -1.0627 -0.3691
 4770SOL     OW25768   2.074   3.199   4.853  0.6804  0.3161 -0.2953
 4770SOL    HW125769   2.108   3.252   4.781  2.2329 -2.5711 -1.6981
 4770SOL    HW225770   1.984   3.192   4.820  1.0046 -0.0295 -1.1081
 4771SOL     OW25771   3.283   1.984   1.701 -0.3135  0.1196  0.1071
 4771SOL    HW125772   3.317   1.903   1.663  2.1654  1.5929 -0.8990
 4771SOL    HW225773   3.211   2.013   1.646  0.0107  1.4431  0.3579
 4772SOL     OW25774   4.535   2.817   4.098  0.0053 -0.8672  0.0695
 4772SOL    HW125775   4.603   2.809   4.031  1.2237  1.4280  1.0002
 4772SOL    HW225776   4.577   2.777   4.174  1.4789 -0.5432 -0.5799
 4773SOL     OW25777   1.669   3.280   8.862  0.0667 -0.3440  0.2723
 4773SOL    HW125778   1.658   3.338   8.938  1.6173  1.6693 -1.0500
 4773SOL    HW225779   1.579   3.255   8.839  0.5471 -1.1218 -0.7099
 4774SOL     OW25780   0.852   4.457   7.650  0.3427 -0.1180  0.2284
 4774SOL    HW125781   0.774   4.461   7.706 -0.5797 -0.7128 -1.0138
 4774SOL    HW225782   0.828   4.379   7.599  1.4723  0.6637 -1.4828
 4775SOL     OW25783   1.022   2.707   3.045 -0.0388  0.4973 -0.8176
 4775SOL    HW125784   1.064   2.705   2.959  0.3036  1.6494 -0.6736
 4775SOL    HW225785   1.052   2.626   3.085 -0.5421  0.8113  0.1949
 4776SOL     OW25786   3.389   2.947   6.348 -0.3369  0.0519  0.0970
 4776SOL    HW125787   3.381   3.037   6.316  1.1371  0.2665  0.3258
 4776SOL    HW225788   3.472   2.927   6.304  0.0066 -0.2186  0.8696
 4777SOL     OW25789   4.516   0.322   9.969 -0.1568  0.1648 -0.6689
 4777SOL    HW125790   4.556   0.326   9.882  0.3827  0.2446 -0.4216
 4777SOL    HW225791   4.427   0.352   9.952 -0.2823 -0.0021 -0.3006
 4778SOL     OW25792   2.146   4.694   1.841  0.3791 -0.0014  0.0606
 4778SOL    HW125793   2.173   4.622   1.785  0.5072  0.7716 -0.8720
 4778SOL    HW225794   2.199   4.678   1.920  0.2233  0.5822  0.2907
 4779SOL     OW25795   4.611   3.985   9.294 -0.1116  0.1087 -0.4184
 4779SOL    HW125796   4.618   4.059   9.233 -2.7817  1.9094  1.4550
 4779SOL    HW225797   4.703   3.988   9.319 -0.4904  2.8890  0.5955
 4780SOL     OW25798   4.005   1.729   5.081  0.4803 -0.4048  1.3311
 4780SOL    HW125799   4.001   1.671   5.006 -1.5054 -0.1674  1.2442
 4780SOL    HW225800   4.072   1.681   5.129 -0.0277 -1.8513  0.5763
 4781SOL     OW25801   2.919   4.118   3.825  0.0406  0.4296 -0.1512
 4781SOL    HW125802   2.879   4.130   3.739 -0.0829 -0.7199 -0.2614
 4781SOL    HW225803   2.862   4.165   3.886 -0.8704 -1.2620  0.3185
 4782SOL     OW25804   0.366   0.516   9.076 -0.2948  0.6136  0.0585
 4782SOL    HW125805   0.303   0.477   9.136 -0.2722  1.7217  0.7940
 4782SOL    HW225806   0.381   0.436   9.025  1.3460  0.6056  0.5618
 4783SOL     OW25807   2.606   1.024   1.161  0.1107 -0.3146  0.0306
 4783SOL    HW125808   2.541   1.040   1.094  0.8378 -2.0080 -1.0821
 4783SOL    HW225809   2.595   1.100   1.219  1.6388 -1.1644  1.4612
 4784SOL     OW25810   4.225   3.801  10.020 -0.1205  1.0921  0.2970
 4784SOL    HW125811   4.150   3.843  10.063 -1.1523 -0.3317 -0.1256
 4784SOL    HW225812   4.193   3.716   9.990  3.7776 -0.6992  1.2131
 4785SOL     OW25813   2.192   0.200   7.383  0.0376  0.0722 -0.7253
 4785SOL    HW125814   2.202   0.111   7.348 -0.4092 -0.0507 -0.5381
 4785SOL    HW225815   2.100   0.206   7.408 -0.4858  0.2135 -2.6884
 4786SOL     OW25816   2.461   2.656  16.781 -0.0546 -0.4727 -0.1149
 4786SOL    HW125817   2.400   2.729  16.777 -0.1176 -0.4669  0.8149
 4786SOL    HW225818   2.449   2.607  16.863  0.0431 -0.4732 -0.1000
 4787SOL     OW25819   2.245   2.220  12.340 -0.1553 -0.4014 -0.1128
 4787SOL    HW125820   2.282   2.212  12.428  1.2593  1.1776 -0.5683
 4787SOL    HW225821   2.155   2.194  12.359 -0.3669 -0.4884 -1.2292
 4788SOL     OW25822   3.819   1.171   3.103 -0.0772  0.1342  0.7544
 4788SOL    HW125823   3.792   1.172   3.194 -1.7577  1.4582  0.2403
 4788SOL    HW225824   3.914   1.159   3.104 -0.0076  0.7644  1.4641
 4789SOL     OW25825   0.336   1.343   4.739 -0.1686 -0.3604  0.1141
 4789SOL    HW125826   0.263   1.378   4.688 -1.5053  0.8062  2.8611
 4789SOL    HW225827   0.317   1.249   4.747 -1.8593 -0.1321 -1.2988
 4790SOL     OW25828   0.045   1.323   7.635 -0.0307  0.0158  0.3703
 4790SOL    HW125829   0.139   1.323   7.621 -0.5817  1.8175 -3.2628
 4790SOL    HW225830   0.039   1.322   7.730 -0.2526 -0.4868  0.3522
 4791SOL     OW25831   1.352   4.264   1.682  0.1155 -0.7163  0.6303
 4791SOL    HW125832   1.307   4.245   1.764  1.2840 -2.2156  0.9303
 4791SOL    HW225833   1.406   4.336   1.716 -0.7719  0.3051 -0.1559
 4792SOL     OW25834   2.232   0.163   1.299 -0.6156  0.3193  0.1113
 4792SOL    HW125835   2.218   0.070   1.283  0.0668  0.1715  0.3570
 4792SOL    HW225836   2.219   0.173   1.393  2.0356  3.0605  0.1948
 4793SOL     OW25837   2.283   4.164   7.335  0.3091  0.6297 -0.7700
 4793SOL    HW125838   2.311   4.231   7.398  0.2696  0.8422 -0.9778
 4793SOL    HW225839   2.246   4.216   7.263 -0.2261 -0.8037 -1.5271
 4794SOL     OW25840   0.357   4.247   9.047 -0.9320  0.6449 -0.1465
 4794SOL    HW125841   0.374   4.325   9.099 -0.5125  0.6490 -0.2853
 4794SOL    HW225842   0.432   4.193   9.071 -1.0209  0.4120 -0.3857
 4795SOL     OW25843   2.630   4.405  15.732 -0.0210  0.1729  0.5263
 4795SOL    HW125844   2.552   4.395  15.787  1.1891 -1.4330  1.9269
 4795SOL    HW225845   2.606   4.364  15.649  0.5380  1.5351 -0.3079
 4796SOL     OW25846   4.426   2.282   2.711 -0.0048 -0.4643 -0.1629
 4796SOL    HW125847   4.360   2.272   2.642  0.7415  0.7060 -1.0472
 4796SOL    HW225848   4.497   2.223   2.685  1.1801  0.3454  1.2105
 4797SOL     OW25849   1.156   4.697   2.680  0.5664 -0.2345 -0.7286
 4797SOL    HW125850   1.198   4.620   2.718 -1.4354 -1.0853 -0.2369
 4797SOL    HW225851   1.178   4.685   2.587  0.7713 -1.1177 -0.5620
 4798SOL     OW25852   0.029   2.260   8.444 -0.3140  0.0999 -0.5856
 4798SOL    HW125853   0.091   2.228   8.509 -1.3398 -0.0917  0.3081
 4798SOL    HW225854   0.043   2.354   8.445  1.6080 -0.1850 -0.8357
 4799SOL     OW25855   4.499   2.282   7.581 -0.0320  0.3645 -0.2009
 4799SOL    HW125856   4.483   2.251   7.671 -0.7630 -0.8642 -0.7577
 4799SOL    HW225857   4.502   2.205   7.524  2.0617  1.1304 -1.1205
 4800SOL     OW25858   1.700   2.426  13.647 -0.2094 -0.0953 -0.4814
 4800SOL    HW125859   1.753   2.364  13.698 -0.3315 -0.8520 -1.2797
 4800SOL    HW225860   1.733   2.512  13.672 -0.6844 -0.4148  1.2450
 4801SOL     OW25861   1.190   4.122   4.543 -0.1677 -0.0360  0.5575
 4801SOL    HW125862   1.114   4.067   4.525 -1.8892  2.9007 -1.1055
 4801SOL    HW225863   1.141   4.200   4.566 -1.2563 -1.1784  2.0706
 4802SOL     OW25864   3.250   0.542   2.831  0.1066  0.0293 -0.6468
 4802SOL    HW125865   3.162   0.507   2.819  0.8700 -2.2812  0.4178
 4802SOL    HW225866   3.267   0.513   2.921  2.1456 -0.8778 -1.3092
 4803SOL     OW25867   2.754   0.399   2.153 -0.1541 -0.6423  0.3293
 4803SOL    HW125868   2.745   0.304   2.150 -0.3662 -0.6418  0.9490
 4803SOL    HW225869   2.713   0.415   2.068  1.9974 -0.8893 -0.7408
 4804SOL     OW25870   0.142   4.466   9.622  0.3097  0.1871 -0.1723
 4804SOL    HW125871   0.229   4.428   9.630 -0.3560 -1.1167  0.7360
 4804SOL    HW225872   0.133   4.477   9.527 -1.1312 -2.7591 -0.3603
 4805SOL     OW25873   4.705   4.328   4.825  0.0804 -0.3455 -0.0682
 4805SOL    HW125874   0.071   4.330   4.788  0.1069  0.6188  0.0512
 4805SOL    HW225875   0.007   4.359   4.913 -0.4657  1.1487 -0.4459
 4806SOL     OW25876   2.576   2.164   7.616 -0.1014  0.1194  0.2511
 4806SOL    HW125877   2.586   2.073   7.644  1.8724  0.1273 -0.4219
 4806SOL    HW225878   2.482   2.175   7.632  0.3165  1.6608  1.5842
 4807SOL     OW25879   3.448   1.301  16.124  0.0323  0.3032  0.5340
 4807SOL    HW125880   3.489   1.382  16.155  0.9215  0.8231 -2.0512
 4807SOL    HW225881   3.441   1.253  16.207  0.2717 -1.5900 -0.5420
 4808SOL     OW25882   3.126   4.065   5.042  0.1108  0.4398 -0.2501
 4808SOL    HW125883   3.136   4.122   5.118  1.5778 -1.2570  0.8158
 4808SOL    HW225884   3.183   4.111   4.980  1.4850 -0.8704  0.0572
 4809SOL     OW25885   2.619   2.369   4.228  0.1509 -0.2479 -0.2240
 4809SOL    HW125886   2.565   2.294   4.251 -1.5361  1.2817  0.8244
 4809SOL    HW225887   2.693   2.354   4.287  0.2424  2.2967  0.3288
 4810SOL     OW25888   0.023   3.527   7.566  0.4303  0.0382 -0.1476
 4810SOL    HW125889   0.086   3.583   7.611 -0.6902 -0.7650  2.4445
 4810SOL    HW225890   0.077   3.449   7.554  1.3918  0.8707 -1.1696
 4811SOL     OW25891   3.092   3.229   8.881  0.3560 -0.0628 -0.7132
 4811SOL    HW125892   3.169   3.201   8.831  1.1478  2.2712 -0.7864
 4811SOL    HW225893   3.131   3.302   8.928 -1.4431  1.1029 -1.0360
 4812SOL     OW25894   0.294   0.236  15.661 -0.3428 -0.3501  0.6800
 4812SOL    HW125895   0.298   0.326  15.630  0.7287  0.6712  3.7763
 4812SOL    HW225896   0.352   0.185  15.605 -0.4217 -2.2628  2.3565
 4813SOL     OW25897   3.670   1.944   3.095  0.1695 -0.3347  0.3519
 4813SOL    HW125898   3.579   1.949   3.124 -0.2287 -1.4678 -0.7222
 4813SOL    HW225899   3.718   1.963   3.176 -0.2577 -1.7032  0.9244
 4814SOL     OW25900   2.377   2.846   4.305 -0.3590  0.4108  0.0729
 4814SOL    HW125901   2.460   2.862   4.259 -0.1777  1.0363  0.6216
 4814SOL    HW225902   2.332   2.928   4.323  2.1987  1.7266  0.4493
 4815SOL     OW25903   4.393   4.002   5.838 -0.1299 -0.4323 -0.2376
 4815SOL    HW125904   4.376   3.910   5.856  0.0837 -0.3318  0.4536
 4815SOL    HW225905   4.467   4.034   5.890 -0.1664  2.4014 -1.9176
 4816SOL     OW25906   0.596   1.875   2.889  0.3279  0.1467  0.1059
 4816SOL    HW125907   0.589   1.956   2.939 -0.8169  0.1193 -0.0097
 4816SOL    HW225908   0.506   1.856   2.864  0.6723  0.4890 -1.3891
 4817SOL     OW25909   0.816   3.436   4.647 -0.5419  0.3714 -0.6363
 4817SOL    HW125910   0.777   3.410   4.731 -0.2839 -0.2876 -0.7277
 4817SOL    HW225911   0.780   3.525   4.648 -2.2428 -0.3249  4.0806
 4818SOL     OW25912   3.522   2.829   5.043 -0.4683  0.0500 -0.5845
 4818SOL    HW125913   3.460   2.755   5.046  1.6231 -1.6991 -0.3938
 4818SOL    HW225914   3.470   2.906   5.066 -1.1269 -0.3243 -0.8083
 4819SOL     OW25915   0.852   0.549   7.653 -0.0088  0.5305  0.3220
 4819SOL    HW125916   0.780   0.546   7.591  0.8697 -0.4528 -0.6517
 4819SOL    HW225917   0.921   0.506   7.602  0.1008  0.9457  0.1276
 4820SOL     OW25918   3.173   0.748   3.966 -0.0191 -0.4921 -0.3271
 4820SOL    HW125919   3.262   0.781   3.977 -0.9744  1.0793  2.7110
 4820SOL    HW225920   3.125   0.819   4.010 -2.4225 -0.4437 -3.0186
 4821SOL     OW25921   3.974   3.713   8.618  0.8205 -0.2003  0.1685
 4821SOL    HW125922   4.056   3.729   8.665  0.8486 -0.9377  0.3745
 4821SOL    HW225923   3.919   3.686   8.692 -1.3329  0.2452 -1.2802
 4822SOL     OW25924   1.208   1.374   6.110 -0.2904 -0.0042 -0.2186
 4822SOL    HW125925   1.296   1.352   6.077 -1.4107 -2.6407 -1.4229
 4822SOL    HW225926   1.197   1.468   6.100  1.2327  0.3261  1.1407
 4823SOL     OW25927   3.586   1.123   7.413  0.5631  0.0482  0.0747
 4823SOL    HW125928   3.534   1.114   7.493  0.1682  0.4300 -0.1348
 4823SOL    HW225929   3.644   1.196   7.435  0.7431 -0.4786  1.3721
 4824SOL     OW25930   0.718   3.654   6.732 -0.6503  0.2703  0.5368
 4824SOL    HW125931   0.646   3.718   6.729 -0.6318  0.2952  0.6170
 4824SOL    HW225932   0.760   3.670   6.648 -0.5660  3.1972  1.1128
 4825SOL     OW25933   1.578   0.171   3.031 -0.1707  0.1133 -0.1716
 4825SOL    HW125934   1.521   0.113   2.981 -1.1674  1.2799 -0.4111
 4825SOL    HW225935   1.518   0.242   3.055  0.2756 -0.6704  3.2774
 4826SOL     OW25936   0.228   0.015   5.497 -0.5682  0.1638  0.5287
 4826SOL    HW125937   0.224   4.681   5.574  2.2257 -0.8105 -0.0552
 4826SOL    HW225938   0.176   0.093   5.520 -0.7390  0.1187  0.3000
 4827SOL     OW25939   1.788   1.233   8.894  0.3392  0.7296 -0.0787
 4827SOL    HW125940   1.757   1.143   8.893  1.4994  0.2929  2.0790
 4827SOL    HW225941   1.750   1.276   8.818  1.2991  0.6679 -0.5964
 4828SOL     OW25942   0.087   3.719   9.757 -0.3636  0.0433  0.3421
 4828SOL    HW125943   0.044   3.795   9.797 -2.2668 -1.9848  2.1590
 4828SOL    HW225944   0.143   3.687   9.827 -0.3373 -0.9018 -0.1234
 4829SOL     OW25945   3.179   1.395   6.918  0.0427 -0.1364  0.5669
 4829SOL    HW125946   3.218   1.324   6.867  0.9057  1.7312 -1.3803
 4829SOL    HW225947   3.153   1.464   6.857 -0.5212  0.1988  1.1891
 4830SOL     OW25948   3.176   1.760   7.658  0.4631  0.4309  0.0582
 4830SOL    HW125949   3.094   1.808   7.675  0.5240 -0.0559  1.7109
 4830SOL    HW225950   3.244   1.827   7.650  0.0508  0.7100 -1.1683
 4831SOL     OW25951   0.798   2.754  11.207 -0.5368  0.1686 -0.0575
 4831SOL    HW125952   0.859   2.827  11.204 -1.9205  1.3448  0.6730
 4831SOL    HW225953   0.787   2.717  11.119  2.8823  1.5453 -1.0507
 4832SOL     OW25954   2.547   4.442   7.715  0.1763 -0.3224 -0.0480
 4832SOL    HW125955   2.578   4.517   7.663  3.4805 -1.2862  0.5214
 4832SOL    HW225956   2.625   4.410   7.762  0.9301 -0.1038 -1.1487
 4833SOL     OW25957   0.725   4.037   6.782  0.4686 -0.4114 -0.6379
 4833SOL    HW125958   0.717   4.010   6.874  2.6148 -0.1011 -0.3701
 4833SOL    HW225959   0.664   3.978   6.736  1.8722 -2.2104 -0.2197
 4834SOL     OW25960   4.591   1.791  17.341 -0.1305  0.5357  0.4711
 4834SOL    HW125961   4.515   1.751  17.298  0.3035 -0.2108  0.4061
 4834SOL    HW225962   4.571   1.765  17.431  2.5844 -2.5861  0.1647
 4835SOL     OW25963   0.708   4.557   5.550 -0.1819  0.6623  0.9821
 4835SOL    HW125964   0.666   4.476   5.521  0.0186  0.0566  2.3634
 4835SOL    HW225965   0.800   4.536   5.564 -0.7781 -1.0419  2.4809
 4836SOL     OW25966   0.606   2.575   7.214 -0.0857 -0.8116  0.1781
 4836SOL    HW125967   0.681   2.516   7.216  1.2501  0.8945  0.8288
 4836SOL    HW225968   0.638   2.658   7.252  4.0257 -1.8781 -0.9258
 4837SOL     OW25969   1.621   3.253   7.887  0.2559 -0.0253  0.1424
 4837SOL    HW125970   1.707   3.248   7.846  1.0194 -1.4811  1.9312
 4837SOL    HW225971   1.618   3.322   7.954  0.7612  0.7276 -0.6183
 4838SOL     OW25972   1.520   3.425  13.781  0.0259  0.1536 -0.0659
 4838SOL    HW125973   1.509   3.367  13.856  1.3613  1.1735  0.9139
 4838SOL    HW225974   1.449   3.396  13.724 -0.6040  0.9246  0.3202
 4839SOL     OW25975   4.502   2.450   3.484  0.6968 -0.1522 -0.4211
 4839SOL    HW125976   4.503   2.475   3.577  0.8514 -0.2056 -0.4079
 4839SOL    HW225977   4.541   2.525   3.439 -0.1770  0.0698 -0.8000
 4840SOL     OW25978   3.742   3.598   6.168  0.2806 -0.7677  0.3255
 4840SOL    HW125979   3.687   3.665   6.209  0.2361 -1.1558  0.8958
 4840SOL    HW225980   3.799   3.651   6.112 -1.1287  1.6287  1.1271
 4841SOL     OW25981   3.950   4.590   8.633 -0.1663  0.3240  0.4386
 4841SOL    HW125982   3.942   4.653   8.561  0.4947  0.6944  0.6813
 4841SOL    HW225983   3.972   4.514   8.578 -2.8325 -1.3547  1.7116
 4842SOL     OW25984   2.173   0.354   5.359 -0.2981  0.2285 -0.1896
 4842SOL    HW125985   2.241   0.418   5.341 -0.6033  0.2436 -1.3032
 4842SOL    HW225986   2.099   0.412   5.343 -0.3842  0.4906  1.1695
 4843SOL     OW25987   4.506   0.385  17.072 -0.5954 -0.1024  0.0502
 4843SOL    HW125988   4.465   0.346  17.149 -1.7471 -2.1489 -1.6010
 4843SOL    HW225989   4.442   0.450  17.043  0.3367  0.6232 -0.3851
 4844SOL     OW25990   2.433   0.553   6.806  0.0354 -0.3275  0.0061
 4844SOL    HW125991   2.468   0.488   6.867 -0.9092  0.3110  1.2356
 4844SOL    HW225992   2.488   0.522   6.735 -1.1993 -0.6194 -0.8335
 4845SOL     OW25993   0.499   4.306  16.823  0.3571 -0.6447 -0.5055
 4845SOL    HW125994   0.594   4.311  16.823  0.3853 -1.1875  0.9076
 4845SOL    HW225995   0.478   4.385  16.774  2.3826  1.6151  2.2301
 4846SOL     OW25996   0.336   2.030   9.581 -0.4884 -0.0357  0.1982
 4846SOL    HW125997   0.354   2.026   9.675 -3.4788  2.5682  0.8801
 4846SOL    HW225998   0.269   2.098   9.575  0.1053  0.4819 -0.5787
 4847SOL     OW25999   2.896   3.227   3.322 -0.3417 -0.3973 -0.1499
 4847SOL    HW126000   2.919   3.310   3.281  0.9957 -2.0221 -2.6545
 4847SOL    HW226001   2.857   3.260   3.403 -1.2671  0.7249 -1.0398
 4848SOL     OW26002   3.676   0.882   6.660  0.4665  0.4110 -0.4604
 4848SOL    HW126003   3.735   0.911   6.729 -1.8222  0.2136  1.5798
 4848SOL    HW226004   3.643   0.797   6.691  0.3049  0.9679  0.8766
 4849SOL     OW26005   2.284   4.509   4.649 -0.1431 -0.1526  0.0053
 4849SOL    HW126006   2.299   4.450   4.575 -0.2091  0.3508 -0.4087
 4849SOL    HW226007   2.214   4.561   4.608 -0.9055 -0.5650  0.7683
 4850SOL     OW26008   2.466   4.592  15.550 -0.2742 -0.1446  0.1793
 4850SOL    HW126009   2.406   4.522  15.524 -1.1137 -0.1994  2.2325
 4850SOL    HW226010   2.530   4.543  15.602  0.8503 -0.6919 -1.7163
 4851SOL     OW26011   2.335   3.748   8.720  0.5847  0.1042  0.0437
 4851SOL    HW126012   2.250   3.708   8.738  0.1402  0.7261 -0.6872
 4851SOL    HW226013   2.363   3.713   8.635  1.4092 -1.5687  1.0020
 4852SOL     OW26014   2.868   1.501   6.567 -0.0745 -0.1149 -0.1884
 4852SOL    HW126015   2.885   1.513   6.474  1.0920 -0.3309 -0.0070
 4852SOL    HW226016   2.777   1.524   6.582 -0.9112 -2.3724 -1.7886
 4853SOL     OW26017   2.915   0.467   0.773  0.2426  0.3421  0.5288
 4853SOL    HW126018   2.864   0.545   0.751 -1.8793 -0.8440  1.1406
 4853SOL    HW226019   2.851   0.396   0.779  0.7235  0.0358  1.9861
 4854SOL     OW26020   2.743   4.108   3.287 -0.2628 -0.3692 -0.2611
 4854SOL    HW126021   2.809   4.125   3.221  0.9503  0.0336  1.0498
 4854SOL    HW226022   2.720   4.016   3.272  1.4755 -1.0843  1.3237
 4855SOL     OW26023   3.344   0.655   7.818 -0.0506 -0.2219 -0.2726
 4855SOL    HW126024   3.279   0.592   7.787  1.3047 -0.6851 -2.1557
 4855SOL    HW226025   3.280   0.721   7.843  1.1070  0.3949  1.0538
 4856SOL     OW26026   0.384   2.058   6.712  0.0421  0.1342  0.4907
 4856SOL    HW126027   0.456   2.097   6.761 -0.3601 -0.5359  1.6034
 4856SOL    HW226028   0.402   2.095   6.625 -2.7429  0.3795  0.0239
 4857SOL     OW26029   1.208   1.172   9.239 -0.0247 -0.0279  0.5426
 4857SOL    HW126030   1.116   1.186   9.262  0.1171  0.1519  1.0165
 4857SOL    HW226031   1.218   1.080   9.261  0.5291 -0.5117 -1.7968
 4858SOL     OW26032   2.242   1.375   2.103 -0.2605 -0.1281 -0.1770
 4858SOL    HW126033   2.193   1.297   2.130 -0.6732  1.3783  3.4382
 4858SOL    HW226034   2.291   1.396   2.183  0.8869  0.5040 -1.0466
 4859SOL     OW26035   3.086   0.837   6.245  0.0384  0.4053 -0.3323
 4859SOL    HW126036   3.049   0.921   6.270  0.2626  0.3468  0.1917
 4859SOL    HW226037   3.049   0.831   6.157 -1.0948  2.1674  0.0221
 4860SOL     OW26038   1.688   3.949   6.931  0.0540  0.6936  0.0481
 4860SOL    HW126039   1.715   4.000   7.007 -0.7951  0.0673  0.7786
 4860SOL    HW226040   1.644   4.017   6.880  0.1098 -1.3222 -2.6895
 4861SOL     OW26041   1.525   1.843   3.292  0.6516  0.0211 -0.5234
 4861SOL    HW126042   1.467   1.772   3.263 -1.0574  1.8660 -1.6663
 4861SOL    HW226043   1.519   1.901   3.216  0.1354  1.7503  0.8350
 4862SOL     OW26044   1.942   1.872   1.168  0.0095 -0.4035  0.0828
 4862SOL    HW126045   1.947   1.913   1.255 -0.2051 -2.2199  0.9475
 4862SOL    HW226046   1.970   1.781   1.174 -0.0383 -0.4263 -0.0406
 4863SOL     OW26047   3.288   2.287   9.083  0.3899  0.2407 -0.1561
 4863SOL    HW126048   3.325   2.282   9.172  1.4079 -0.6233 -0.6287
 4863SOL    HW226049   3.200   2.303   9.117  0.2537  0.5585 -0.6555
 4864SOL     OW26050   1.625   4.434   3.788 -0.3503  0.3026 -0.5988
 4864SOL    HW126051   1.563   4.494   3.746 -1.1474  0.8237  1.3439
 4864SOL    HW226052   1.576   4.351   3.790  0.3547 -0.0662  0.7502
 4865SOL     OW26053   4.062   3.936   2.431  0.0454  0.0979  0.0937
 4865SOL    HW126054   4.141   3.976   2.397  0.0542 -1.6733 -2.0006
 4865SOL    HW226055   4.003   4.011   2.434 -0.7526 -0.4269 -2.4935
 4866SOL     OW26056   3.946   1.534  15.889 -0.2933 -0.1192 -0.1789
 4866SOL    HW126057   3.947   1.628  15.904  1.2425  0.2566 -2.6766
 4866SOL    HW226058   3.911   1.524  15.801 -0.2331 -2.9278  0.0973
 4867SOL     OW26059   3.461   0.637   7.432  0.1308  0.3863  0.2977
 4867SOL    HW126060   3.509   0.660   7.510  3.7235 -1.7329 -1.2978
 4867SOL    HW226061   3.380   0.600   7.468  0.6748  1.8097  2.9053
 4868SOL     OW26062   2.499   1.503   2.542 -0.3716  0.8135  0.0952
 4868SOL    HW126063   2.483   1.580   2.487  0.5972 -0.7572 -2.3671
 4868SOL    HW226064   2.587   1.482   2.510 -0.3914  2.4650 -1.0556
 4869SOL     OW26065   3.159   1.491   6.225  0.0368  0.4368  0.3422
 4869SOL    HW126066   3.177   1.398   6.237 -0.3525  0.3045 -0.0846
 4869SOL    HW226067   3.124   1.483   6.136 -2.9395 -3.0480  1.8316
 4870SOL     OW26068   3.213   1.666   4.098 -0.6804  0.1565 -0.4158
 4870SOL    HW126069   3.151   1.732   4.066 -0.2394  0.0449 -1.4786
 4870SOL    HW226070   3.217   1.607   4.023 -0.9750  0.3083 -0.5521
 4871SOL     OW26071   3.476   3.454   5.505 -0.1660  0.4153 -0.2396
 4871SOL    HW126072   3.465   3.401   5.427  3.8915 -1.3231  0.4008
 4871SOL    HW226073   3.406   3.419   5.560  1.2195 -1.3700  0.3946
 4872SOL     OW26074   0.632   3.354   9.671  0.1680 -0.3154  0.4562
 4872SOL    HW126075   0.663   3.267   9.694 -0.4677 -1.0557 -1.4521
 4872SOL    HW226076   0.595   3.397   9.748 -2.6732 -2.8895  0.5286
 4873SOL     OW26077   2.331   4.156   2.192  0.3100  0.2844 -0.2231
 4873SOL    HW126078   2.412   4.129   2.235  0.4975  0.4887 -0.4463
 4873SOL    HW226079   2.311   4.237   2.240 -1.0427 -0.8469  1.1010
 4874SOL     OW26080   4.049   4.547   2.530  0.1863 -0.3212  0.2251
 4874SOL    HW126081   4.056   4.452   2.527  2.2773 -0.1045 -1.5232
 4874SOL    HW226082   3.954   4.559   2.535  0.3782  0.9624  0.8043
 4875SOL     OW26083   1.899   0.601   1.295 -0.4269  0.2270 -0.0768
 4875SOL    HW126084   1.825   0.617   1.353 -1.2770 -0.3688 -0.9829
 4875SOL    HW226085   1.866   0.608   1.206  1.5143 -0.9858 -0.9082
 4876SOL     OW26086   2.900   3.226   7.078 -0.2852  0.1216  0.6335
 4876SOL    HW126087   2.918   3.299   7.019  0.6244 -2.5841 -2.4422
 4876SOL    HW226088   2.806   3.236   7.097 -0.9890 -2.7619 -1.4147
 4877SOL     OW26089   0.389   1.049   3.646  0.0511 -0.4852  0.1260
 4877SOL    HW126090   0.362   1.141   3.640  2.1325  0.0443 -1.0670
 4877SOL    HW226091   0.468   1.034   3.593  2.0352 -0.5459  3.1247
 4878SOL     OW26092   3.173   4.299   3.995 -0.0125  0.7602  0.1214
 4878SOL    HW126093   3.151   4.256   4.077 -0.1029 -0.9877 -0.8089
 4878SOL    HW226094   3.111   4.371   4.000 -1.9948 -0.9601  0.4972
 4879SOL     OW26095   1.083   0.046  13.478  0.5018  0.1842 -0.1386
 4879SOL    HW126096   1.027   4.699  13.442  1.2558 -0.2036 -0.5720
 4879SOL    HW226097   1.136   0.068  13.401 -0.5622 -0.4285 -1.0526
 4880SOL     OW26098   3.460   3.592   4.453  0.9895 -0.1316 -0.1560
 4880SOL    HW126099   3.380   3.628   4.416  2.0180  2.5549  0.2066
 4880SOL    HW226100   3.501   3.558   4.373  1.4721 -0.2571  0.1411
 4881SOL     OW26101   3.186   3.273   3.552  0.0214 -0.1494  0.1130
 4881SOL    HW126102   3.102   3.284   3.598  1.0021 -0.0941  1.8695
 4881SOL    HW226103   3.238   3.223   3.614  0.6077  0.1840 -0.1154
 4882SOL     OW26104   2.104   2.977   5.833 -0.0839 -0.2154  0.1943
 4882SOL    HW126105   2.036   2.963   5.899 -1.1626 -2.3582 -1.3816
 4882SOL    HW226106   2.177   2.954   5.891 -0.2587 -0.1775  0.4314
 4883SOL     OW26107   1.367   3.066  12.846 -0.3009  0.2452 -0.4546
 4883SOL    HW126108   1.371   3.016  12.765  0.0480 -1.7397  0.8004
 4883SOL    HW226109   1.290   3.118  12.821  0.9113  2.5939  0.6152
 4884SOL     OW26110   4.588   0.305   4.818 -0.2993  0.2490  0.7428
 4884SOL    HW126111   4.671   0.322   4.774 -0.9738  1.1012 -0.2033
 4884SOL    HW226112   4.536   0.339   4.745  0.6127  1.4390  0.6476
 4885SOL     OW26113   0.661   1.697   8.292  0.2888 -0.4980  0.1634
 4885SOL    HW126114   0.571   1.684   8.261 -0.3415 -0.0661  1.7843
 4885SOL    HW226115   0.650   1.765   8.358  3.0751  1.8030 -1.7898
 4886SOL     OW26116   4.030   1.155  13.039 -0.9158 -0.1430 -0.0520
 4886SOL    HW126117   4.117   1.194  13.047 -1.9340  1.7972  1.7434
 4886SOL    HW226118   3.994   1.210  12.970 -2.7792  0.9714  1.8021
 4887SOL     OW26119   4.266   2.383  14.738  1.1583  0.3362  0.3416
 4887SOL    HW126120   4.330   2.378  14.668 -0.1157 -0.3336 -0.7545
 4887SOL    HW226121   4.310   2.453  14.787  1.6533 -0.2166  0.6932
 4888SOL     OW26122   1.157   0.475   3.666 -0.0210  0.1094 -0.1620
 4888SOL    HW126123   1.082   0.524   3.632  0.1520 -0.2493 -1.0608
 4888SOL    HW226124   1.200   0.430   3.593  1.6059  2.6214 -0.7242
 4889SOL     OW26125   2.723   2.331   2.108  0.5145  0.4068  0.0028
 4889SOL    HW126126   2.691   2.274   2.178 -1.5477 -0.2439 -1.4785
 4889SOL    HW226127   2.794   2.378   2.152  0.0854  1.9232 -0.9238
 4890SOL     OW26128   0.336   3.016   6.354 -0.8140 -0.2505 -0.1888
 4890SOL    HW126129   0.262   3.070   6.383 -0.2820 -0.0313  0.7757
 4890SOL    HW226130   0.371   3.064   6.279  0.9202 -1.2112  0.0018
 4891SOL     OW26131   4.465   1.856   8.192  0.4025  0.5151 -0.2674
 4891SOL    HW126132   4.507   1.909   8.123  2.4473 -0.3744  0.2920
 4891SOL    HW226133   4.445   1.927   8.253  1.4255  1.9414 -1.5624
 4892SOL     OW26134   1.497   0.963   9.035  0.0154 -0.6383 -0.8836
 4892SOL    HW126135   1.516   0.932   9.124  0.1890 -0.1400 -0.7486
 4892SOL    HW226136   1.577   0.946   8.986  1.0430 -0.9686  0.9047
 4893SOL     OW26137   0.806   0.236   9.420 -0.2596  0.0866  0.2898
 4893SOL    HW126138   0.746   0.247   9.493  1.0677  1.1198  1.2287
 4893SOL    HW226139   0.805   0.141   9.406  2.2966  0.2574 -1.1799
 4894SOL     OW26140   0.965   3.561   2.268 -0.0917  0.1950  0.0192
 4894SOL    HW126141   0.996   3.568   2.178 -0.1612  1.5018  0.0996
 4894SOL    HW226142   0.880   3.519   2.251 -0.0609 -0.2526  0.9532
 4895SOL     OW26143   4.356   2.235  11.296  0.1166  0.1578  0.1087
 4895SOL    HW126144   4.338   2.273  11.211  0.1749 -1.0297 -0.4353
 4895SOL    HW226145   4.433   2.180  11.281 -0.2075 -0.1525 -0.4064
 4896SOL     OW26146   0.604   3.447   9.943 -0.1409 -0.7763 -0.2198
 4896SOL    HW126147   0.614   3.360   9.981 -1.0113 -0.1749  1.3560
 4896SOL    HW226148   0.688   3.489   9.963 -1.5700  1.1211  1.7961
 4897SOL     OW26149   4.007   0.611   4.445 -0.2317 -0.1769  0.2552
 4897SOL    HW126150   4.095   0.597   4.412 -0.8332 -1.0204 -0.9912
 4897SOL    HW226151   3.968   0.544   4.389 -0.6401  0.4978 -0.2699
 4898SOL     OW26152   4.602   3.192  16.847 -0.2266  0.8155  0.3938
 4898SOL    HW126153   4.524   3.141  16.872 -0.2943  0.6474 -0.1736
 4898SOL    HW226154   4.594   3.266  16.908 -0.1248  0.3632  0.9650
 4899SOL     OW26155   0.332   4.231   5.380  0.0898  0.5000  0.6428
 4899SOL    HW126156   0.417   4.241   5.337 -0.4493  1.2387 -0.2592
 4899SOL    HW226157   0.265   4.245   5.313 -0.5653 -1.6599  0.8434
 4900SOL     OW26158   4.069   0.152   8.137 -0.0864  0.2452  0.0288
 4900SOL    HW126159   4.133   0.150   8.207 -1.5378  1.1183  1.3800
 4900SOL    HW226160   4.030   0.234   8.168 -0.1479  0.0848  0.3762
 4901SOL     OW26161   0.966   3.958   3.022 -0.3618  0.0539  0.5336
 4901SOL    HW126162   0.931   3.934   2.937 -2.0563 -3.8978  2.3303
 4901SOL    HW226163   0.904   3.933   3.091  0.1154 -2.2214  0.1400
 4902SOL     OW26164   0.525   1.291   6.204  0.0094 -0.4079 -0.0660
 4902SOL    HW126165   0.563   1.294   6.292  0.6771  0.8550 -0.3956
 4902SOL    HW226166   0.594   1.244   6.158 -0.9534 -2.3833  0.5197
 4903SOL     OW26167   0.261   3.596  15.666  0.1342 -0.5110  0.0616
 4903SOL    HW126168   0.222   3.524  15.616  0.7064 -1.9205  1.6566
 4903SOL    HW226169   0.323   3.543  15.715 -0.2627 -1.4571 -0.4566
 4904SOL     OW26170   0.287   0.490   4.401 -0.4535 -0.1471 -0.0258
 4904SOL    HW126171   0.287   0.581   4.374  0.0119 -0.2903 -0.4998
 4904SOL    HW226172   0.193   0.470   4.402 -1.1323  3.0691  0.4825
 4905SOL     OW26173   3.110   1.980   1.931 -0.1480  0.0268  0.0563
 4905SOL    HW126174   3.181   1.956   1.871 -0.1454 -0.4476  0.2484
 4905SOL    HW226175   3.099   2.071   1.903 -0.2292 -0.4409 -1.4365
 4906SOL     OW26176   0.208   3.492   2.933  0.0169  0.3445 -0.0752
 4906SOL    HW126177   0.197   3.583   2.961 -0.2044  0.0514  0.8043
 4906SOL    HW226178   0.286   3.472   2.984 -0.3310  2.5301  1.3453
 4907SOL     OW26179   4.678   2.613   2.979  0.0459 -0.9420 -0.1100
 4907SOL    HW126180   4.625   2.642   2.904 -0.4000  1.4334  1.1315
 4907SOL    HW226181   4.713   2.526   2.962 -0.9298 -1.3451 -0.0887
 4908SOL     OW26182   2.195   4.420   1.866  0.2331  0.1243  0.2080
 4908SOL    HW126183   2.181   4.342   1.812  2.3713  0.7506 -1.2677
 4908SOL    HW226184   2.289   4.418   1.883  0.3207  0.4460 -0.2346
 4909SOL     OW26185   0.130   0.750   5.870  0.1324 -0.5057  0.5732
 4909SOL    HW126186   0.181   0.681   5.912 -1.1382 -0.6287  1.8900
 4909SOL    HW226187   0.042   0.736   5.905  0.0021  0.7596  0.7817
 4910SOL     OW26188   1.454   2.791   3.889  0.0419  0.0717 -0.7680
 4910SOL    HW126189   1.445   2.886   3.895  0.7374 -0.0376  1.9601
 4910SOL    HW226190   1.454   2.787   3.985 -2.1739  0.8268 -0.7421
 4911SOL     OW26191   4.398   2.877  10.052 -0.3025  0.2978 -0.1288
 4911SOL    HW126192   4.462   2.904  10.118 -1.2935  0.5379  0.7394
 4911SOL    HW226193   4.408   2.782  10.046 -1.6715  0.0527  1.3778
 4912SOL     OW26194   0.311   4.476   8.777 -0.0658  0.4120  0.5709
 4912SOL    HW126195   0.318   4.412   8.707  1.2878  2.3876 -1.1146
 4912SOL    HW226196   0.218   4.485   8.758 -0.5268 -1.9559  1.6781
 4913SOL     OW26197   3.595   0.666  14.842 -0.0931 -0.2226  0.4204
 4913SOL    HW126198   3.517   0.616  14.867  2.8794 -3.5716  2.9460
 4913SOL    HW226199   3.640   0.667  14.927  0.5171 -2.7035  0.1295
 4914SOL     OW26200   4.396   3.171   3.663 -0.2188 -0.1032  0.4551
 4914SOL    HW126201   4.326   3.235   3.647 -0.2019 -1.1186 -3.8136
 4914SOL    HW226202   4.355   3.127   3.737  0.6616 -1.6455  0.0333
 4915SOL     OW26203   3.694   0.004   5.112  0.0005 -0.1471  0.5539
 4915SOL    HW126204   3.765   4.663   5.111  0.1697  0.0404  0.6547
 4915SOL    HW226205   3.664   4.722   5.022  0.2797 -0.7752  0.4926
 4916SOL     OW26206   3.121   2.115   3.441  0.0633 -0.2427 -0.4395
 4916SOL    HW126207   3.076   2.153   3.366  0.2623 -0.3613 -0.6181
 4916SOL    HW226208   3.073   2.033   3.430 -0.7846 -0.1079  2.1867
 4917SOL     OW26209   1.251   0.820   5.196 -0.2268 -0.2828 -0.4061
 4917SOL    HW126210   1.193   0.877   5.145 -0.1622 -0.0921 -0.2662
 4917SOL    HW226211   1.270   0.867   5.277  1.0177 -2.6048  0.6187
 4918SOL     OW26212   3.452   0.967   1.312 -0.6657 -0.3726  0.4878
 4918SOL    HW126213   3.398   0.958   1.391 -1.5623 -1.0347 -0.2080
 4918SOL    HW226214   3.470   0.873   1.303 -0.9043 -0.2265 -1.3623
 4919SOL     OW26215   0.907   2.811   7.089 -0.2147 -0.1387 -0.2096
 4919SOL    HW126216   0.956   2.733   7.112 -1.0479  0.1185  2.4198
 4919SOL    HW226217   0.844   2.825   7.159  0.9772  0.4465  0.7466
 4920SOL     OW26218   1.688   0.524   2.902  0.0803 -0.0691 -0.4057
 4920SOL    HW126219   1.665   0.541   2.810  1.8713  4.1893 -0.0305
 4920SOL    HW226220   1.781   0.542   2.895  0.7948 -2.1720  4.0361
 4921SOL     OW26221   0.810   0.614   3.237  0.3248 -0.1349 -0.3108
 4921SOL    HW126222   0.844   0.577   3.156 -1.2497 -2.0730 -0.0806
 4921SOL    HW226223   0.757   0.545   3.277 -3.1297  0.5809 -3.6201
 4922SOL     OW26224   2.173   0.967   8.806  0.3681  0.2455 -0.4165
 4922SOL    HW126225   2.146   1.058   8.821 -2.3517 -0.8733  1.3309
 4922SOL    HW226226   2.232   0.971   8.882 -0.8274  0.3169  0.4996
 4923SOL     OW26227   2.794   0.206   0.286 -0.3840  0.0101 -0.1387
 4923SOL    HW126228   2.763   0.248   0.206  0.8518  2.4175  0.6841
 4923SOL    HW226229   2.878   0.247   0.305 -0.1744 -0.9259  0.9557
 4924SOL     OW26230   4.364   0.235  11.821 -0.2639 -0.1442  0.8284
 4924SOL    HW126231   4.285   0.289  11.814  0.1471  0.6424  2.3721
 4924SOL    HW226232   4.400   0.251  11.909  1.6739 -0.6995  0.1337
 4925SOL     OW26233   2.947   1.764   3.801  0.4059 -0.1398  0.1706
 4925SOL    HW126234   2.938   1.702   3.873 -1.3131  0.5416  0.5332
 4925SOL    HW226235   2.874   1.824   3.812 -0.6417 -1.3547 -0.1527
 4926SOL     OW26236   3.878   4.716   3.010 -0.2134 -0.2267  0.2990
 4926SOL    HW126237   3.844   4.641   3.058 -0.4055 -1.2720 -1.4755
 4926SOL    HW226238   3.961   4.681   2.977 -0.3451 -1.2478  1.0837
 4927SOL     OW26239   4.344   4.348   1.346  0.6683  0.5091  0.4298
 4927SOL    HW126240   4.395   4.278   1.386  4.0464  1.6762 -1.8530
 4927SOL    HW226241   4.282   4.304   1.288  2.3231 -1.3135  0.0569
 4928SOL     OW26242   1.480   2.458   3.346 -0.0322  0.6052  0.3207
 4928SOL    HW126243   1.499   2.544   3.310  1.0545  0.0322 -0.4715
 4928SOL    HW226244   1.444   2.415   3.268  0.4521 -1.6091  1.3146
 4929SOL     OW26245   0.112   3.242  14.329  0.3573  0.1300 -0.1257
 4929SOL    HW126246   0.154   3.158  14.345 -0.0627 -0.0165  0.2030
 4929SOL    HW226247   0.182   3.275  14.272  0.8667 -1.9120 -0.6772
 4930SOL     OW26248   2.393   0.251  13.607 -0.1883  0.1994  0.0244
 4930SOL    HW126249   2.478   0.276  13.572  0.6184  1.2836  2.8107
 4930SOL    HW226250   2.371   0.195  13.532  1.2736  1.7658 -1.5906
 4931SOL     OW26251   2.131   3.887   8.024 -0.0982  0.1533  0.2966
 4931SOL    HW126252   2.148   3.968   8.073  0.7918 -0.5235  1.1130
 4931SOL    HW226253   2.066   3.915   7.959  0.2522  2.1597  0.7843
 4932SOL     OW26254   2.927   0.229   7.867  0.2099  0.0577  0.3101
 4932SOL    HW126255   2.963   0.141   7.872 -2.9826 -1.3333 -0.8416
 4932SOL    HW226256   2.889   0.237   7.779  1.1290  1.0183  0.0003
 4933SOL     OW26257   0.442   1.893   3.532 -0.0106  0.0331 -0.0728
 4933SOL    HW126258   0.496   1.814   3.528 -1.4101 -0.8499 -1.4145
 4933SOL    HW226259   0.429   1.912   3.625  0.3162 -0.6077  0.1029
 4934SOL     OW26260   2.457   1.397   7.106 -0.3736  1.0545  0.3851
 4934SOL    HW126261   2.376   1.400   7.158 -1.0765  1.1887 -0.7319
 4934SOL    HW226262   2.436   1.457   7.035  0.2996  0.4367 -0.3336
 4935SOL     OW26263   1.590   0.882   4.917  0.2365  0.1681 -0.2087
 4935SOL    HW126264   1.605   0.969   4.880 -1.8918 -0.4790 -2.5859
 4935SOL    HW226265   1.506   0.851   4.882  1.0586 -0.4699 -1.5955
 4936SOL     OW26266   2.382   3.602   8.426  0.1342 -0.3960  0.3008
 4936SOL    HW126267   2.343   3.533   8.480 -1.3523  0.5117  0.3995
 4936SOL    HW226268   2.464   3.569   8.389  0.3973  0.0371  0.4865
 4937SOL     OW26269   2.806   0.080   5.117  0.1713  0.9048  0.2629
 4937SOL    HW126270   2.832   0.038   5.199  3.3075  0.6357 -0.9143
 4937SOL    HW226271   2.892   0.101   5.083  0.0751  0.6910 -0.1087
 4938SOL     OW26272   0.183   4.447   4.670  0.0455  0.5247  0.3940
 4938SOL    HW126273   0.130   4.508   4.618  0.6072 -0.3243 -1.1825
 4938SOL    HW226274   0.260   4.499   4.690  0.4176  1.0148 -2.2890
 4939SOL     OW26275   1.816   2.616   6.062  0.1782 -0.1564  0.3146
 4939SOL    HW126276   1.896   2.565   6.075  1.4195  1.8859  0.8313
 4939SOL    HW226277   1.858   2.698   6.034 -0.1983 -0.1125 -0.1202
 4940SOL     OW26278   2.148   4.199   1.638  0.1559 -0.1763  0.0655
 4940SOL    HW126279   2.211   4.229   1.572 -0.1789  0.9891  0.2786
 4940SOL    HW226280   2.062   4.229   1.607  0.3355  0.8064  0.5406
 4941SOL     OW26281   2.041   3.851  13.076 -0.1164  0.3615 -0.5049
 4941SOL    HW126282   2.097   3.779  13.046 -1.2593 -0.0834 -1.5530
 4941SOL    HW226283   2.102   3.923  13.061 -0.6556  0.8446 -0.3752
 4942SOL     OW26284   4.410   1.418   3.837 -0.5553 -0.8708  0.3441
 4942SOL    HW126285   4.361   1.353   3.786  0.8673 -0.2272 -1.8233
 4942SOL    HW226286   4.487   1.432   3.783 -1.0798  1.3590  0.1742
 4943SOL     OW26287   2.673   2.021  11.220  0.0251 -0.0437  0.2475
 4943SOL    HW126288   2.682   1.940  11.271 -2.9317  0.9056  2.3030
 4943SOL    HW226289   2.604   2.062  11.272 -0.0381  2.1233 -1.5736
 4944SOL     OW26290   1.767   0.869  12.597 -0.5447  0.2174  0.3343
 4944SOL    HW126291   1.821   0.947  12.588  1.9698 -1.4537  1.0562
 4944SOL    HW226292   1.816   0.819  12.662  0.5376  0.8155 -0.0294
 4945SOL     OW26293   1.653   2.775  12.194 -0.3647 -0.1538 -0.6795
 4945SOL    HW126294   1.659   2.679  12.193  0.8376 -0.0989  0.9922
 4945SOL    HW226295   1.625   2.795  12.104 -0.3614  2.7743 -0.0253
 4946SOL     OW26296   3.051   1.878   1.551  0.1821 -0.2435  0.1192
 4946SOL    HW126297   3.008   1.920   1.626 -0.7939 -2.4839  0.8109
 4946SOL    HW226298   3.035   1.784   1.562 -2.6952  0.3681  1.0410
 4947SOL     OW26299   0.992   0.651   3.865  0.0177  0.5797 -0.1181
 4947SOL    HW126300   0.938   0.718   3.907  0.1662  2.6091 -3.0982
 4947SOL    HW226301   1.066   0.710   3.852  0.5314  0.0287  0.3774
 4948SOL     OW26302   1.018   4.437  10.984 -0.4661  0.8172  0.2450
 4948SOL    HW126303   1.102   4.433  11.029 -1.4144 -1.6548  1.7780
 4948SOL    HW226304   0.965   4.456  11.061  0.1108 -0.1831  0.8874
 4949SOL     OW26305   0.603   0.221   1.503 -0.1027 -0.0767  0.6972
 4949SOL    HW126306   0.655   0.215   1.423 -1.5895  0.2337 -0.2870
 4949SOL    HW226307   0.652   0.160   1.559 -0.9152  0.0190  1.5043
 4950SOL     OW26308   1.386   3.853   5.298 -0.2334  0.4606  0.6721
 4950SOL    HW126309   1.424   3.855   5.210  0.1554 -0.5106  0.8195
 4950SOL    HW226310   1.466   3.843   5.349  0.9179  1.1875 -1.0087
 4951SOL     OW26311   0.549   3.546  11.863  0.1346  0.4779 -0.3426
 4951SOL    HW126312   0.538   3.576  11.953  0.9317  1.7660 -0.6805
 4951SOL    HW226313   0.605   3.615  11.828  0.0992 -0.8474 -3.0876
 4952SOL     OW26314   0.581   1.919   9.609 -0.8855 -0.2922  0.4210
 4952SOL    HW126315   0.614   2.009   9.607  1.2742 -1.1198 -0.9782
 4952SOL    HW226316   0.494   1.922   9.571 -0.1774  1.5005 -1.0414
 4953SOL     OW26317   4.077   1.317   7.926 -0.0487 -0.1791 -0.4487
 4953SOL    HW126318   4.011   1.362   7.979 -1.3471  1.1357 -3.1582
 4953SOL    HW226319   4.026   1.322   7.846 -0.1092 -0.1841 -0.4105
 4954SOL     OW26320   4.661   1.350  16.157  0.2509 -0.0071 -0.1358
 4954SOL    HW126321   4.714   1.362  16.079  1.1424 -0.7741  0.3539
 4954SOL    HW226322   4.601   1.424  16.145 -1.7980 -1.1781  2.6479
 4955SOL     OW26323   2.712   0.962   5.300 -0.0108  0.3438 -0.6489
 4955SOL    HW126324   2.621   0.934   5.286 -0.1501 -1.1645  3.1386
 4955SOL    HW226325   2.744   0.954   5.210  0.1991 -1.8262 -0.3812
 4956SOL     OW26326   2.713   0.867   0.239  0.5900  0.2317  0.3076
 4956SOL    HW126327   2.638   0.836   0.187  0.5797  1.3023 -0.3191
 4956SOL    HW226328   2.690   0.827   0.323  0.4351  0.7046  0.4933
 4957SOL     OW26329   0.839   4.084  13.762  0.3371  0.3288 -0.5456
 4957SOL    HW126330   0.832   4.167  13.714  0.6071  0.7714  0.1801
 4957SOL    HW226331   0.751   4.060  13.792  2.1472 -1.6690  3.1458
 4958SOL     OW26332   2.244   1.654   6.416 -0.0035 -0.7695 -0.8739
 4958SOL    HW126333   2.268   1.747   6.414  0.0417 -0.7004  3.4335
 4958SOL    HW226334   2.229   1.642   6.509  0.4987 -1.0473 -0.8303
 4959SOL     OW26335   0.111   0.597   7.136  0.1706  0.4833 -0.2672
 4959SOL    HW126336   0.108   0.623   7.229 -0.1473  0.1485 -0.1842
 4959SOL    HW226337   0.112   0.685   7.099 -0.5633  1.1360  1.2601
 4960SOL     OW26338   2.533   2.852   1.625  0.5972 -1.2671 -0.2883
 4960SOL    HW126339   2.551   2.808   1.543  0.5809 -1.5215 -0.1547
 4960SOL    HW226340   2.458   2.902   1.593 -0.9235 -2.3085  1.6149
 4961SOL     OW26341   0.569   0.586  17.398 -0.5059 -0.9662  0.0411
 4961SOL    HW126342   0.508   0.539  17.456 -1.5321  0.9985  0.5476
 4961SOL    HW226343   0.525   0.669  17.382  1.9722  0.2607 -0.2688
 4962SOL     OW26344   2.959   3.833   4.235 -0.1702  0.1623  0.0626
 4962SOL    HW126345   2.867   3.860   4.231  0.2913  2.1250  2.7238
 4962SOL    HW226346   2.946   3.746   4.274 -0.3250  0.4457  0.6432
 4963SOL     OW26347   0.997   0.959   0.437 -0.3838  0.6131 -0.4261
 4963SOL    HW126348   1.087   0.984   0.455  0.1266  0.4409 -2.6274
 4963SOL    HW226349   0.994   0.991   0.347  0.7400  1.2115 -0.2357
 4964SOL     OW26350   1.818   4.030  13.833  0.3180  0.4006  0.6446
 4964SOL    HW126351   1.834   3.936  13.820 -1.2724  0.4461 -1.6481
 4964SOL    HW226352   1.903   4.059  13.867 -0.0043  2.4960 -0.3519
 4965SOL     OW26353   4.691   3.616   6.243 -0.0542  0.2568  0.1049
 4965SOL    HW126354   0.037   3.626   6.177  0.8672 -1.2869  0.8081
 4965SOL    HW226355   4.623   3.565   6.200 -0.8242 -0.4850  2.1833
 4966SOL     OW26356   2.315   3.482   8.064  0.3089  1.1067 -0.7293
 4966SOL    HW126357   2.355   3.567   8.044  1.5724  1.0593  1.5372
 4966SOL    HW226358   2.336   3.437   7.983 -0.4985  0.6401 -0.6751
 4967SOL     OW26359   4.353   2.654   2.916 -0.1788  0.0031  0.0507
 4967SOL    HW126360   4.379   2.636   2.826 -1.6554  5.3206 -1.4557
 4967SOL    HW226361   4.350   2.566   2.953 -1.0699  1.1775  2.7688
 4968SOL     OW26362   0.440   4.197  11.888 -0.0900 -0.3491  0.1327
 4968SOL    HW126363   0.432   4.271  11.827 -1.2859 -0.5736  0.0133
 4968SOL    HW226364   0.477   4.234  11.968 -0.5967  0.0325  0.1920
 4969SOL     OW26365   1.306   2.168  10.454  0.8029 -0.8724  0.1137
 4969SOL    HW126366   1.339   2.078  10.453 -2.1364 -1.9781 -0.5212
 4969SOL    HW226367   1.374   2.218  10.410 -2.0653  3.2888  0.4549
 4970SOL     OW26368   4.054   4.574   0.137 -0.2780 -0.2860  0.2330
 4970SOL    HW126369   4.053   4.611   0.049  0.0463  0.8332  0.6941
 4970SOL    HW226370   4.035   4.651   0.191 -2.9551 -1.0345  0.3720
 4971SOL     OW26371   2.241   2.725   1.104  0.0317  0.1318 -0.2971
 4971SOL    HW126372   2.174   2.684   1.158  1.0609  1.3103  1.9149
 4971SOL    HW226373   2.295   2.649   1.083 -0.0161 -0.1670  0.6696
 4972SOL     OW26374   2.070   0.578   9.262  0.0694 -0.4364  0.3134
 4972SOL    HW126375   2.108   0.492   9.277  2.7050  0.9605  1.6542
 4972SOL    HW226376   2.080   0.577   9.167 -2.5818  3.3848 -0.0197
 4973SOL     OW26377   3.978   1.860  13.694 -0.2324 -0.0186  1.0061
 4973SOL    HW126378   3.951   1.907  13.773  1.4676  0.6102  1.2264
 4973SOL    HW226379   3.998   1.933  13.635 -2.0917 -0.8194 -0.6211
 4974SOL     OW26380   4.307   0.739   5.218  0.3241  0.0671 -0.1480
 4974SOL    HW126381   4.402   0.746   5.216  0.3361 -0.0603 -0.0036
 4974SOL    HW226382   4.303   0.646   5.192  1.6614 -0.8846  3.1116
 4975SOL     OW26383   2.269   3.933  10.116  0.0933 -0.0548  0.2248
 4975SOL    HW126384   2.360   3.963  10.122 -0.7933  2.9442 -1.3531
 4975SOL    HW226385   2.253   3.902  10.027  2.1118 -2.1226  0.5755
 4976SOL     OW26386   2.722   2.130   1.905  0.7125 -0.3863 -0.0989
 4976SOL    HW126387   2.683   2.075   1.973 -0.2009  0.5655  0.1519
 4976SOL    HW226388   2.725   2.213   1.951 -3.0246 -0.5676  0.5234
 4977SOL     OW26389   1.305   2.329  10.680  0.0400 -0.1791  0.0706
 4977SOL    HW126390   1.314   2.266  10.608 -1.7003 -0.6738  0.2879
 4977SOL    HW226391   1.287   2.274  10.756 -0.5023 -2.2414 -1.5694
 4978SOL     OW26392   3.601   3.590   0.129 -0.1523 -0.5279 -0.5401
 4978SOL    HW126393   3.590   3.603   0.223  0.8345 -1.4707 -0.2834
 4978SOL    HW226394   3.694   3.566   0.135 -0.2297 -1.2935 -2.2785
 4979SOL     OW26395   2.420   4.375  14.307 -0.3377 -0.0310 -0.3156
 4979SOL    HW126396   2.391   4.318  14.378  1.5531  0.5823  0.9840
 4979SOL    HW226397   2.472   4.317  14.253  1.0240  0.1115  0.8243
 4980SOL     OW26398   3.286   2.479   3.456 -0.7149  0.1747  0.2375
 4980SOL    HW126399   3.309   2.538   3.527 -0.8231  1.1256 -0.5180
 4980SOL    HW226400   3.242   2.404   3.496 -0.6187 -0.4407 -0.8029
 4981SOL     OW26401   2.734   0.355  16.229 -0.1357 -0.2583  0.3884
 4981SOL    HW126402   2.700   0.432  16.182  0.5590 -1.3785 -1.9583
 4981SOL    HW226403   2.779   0.404  16.298  0.4254 -0.5661  0.2355
 4982SOL     OW26404   2.945   2.808   3.780 -0.4454 -0.1766 -0.3531
 4982SOL    HW126405   2.977   2.718   3.782 -1.2654 -0.4206  3.4040
 4982SOL    HW226406   2.915   2.816   3.690 -0.3616  2.1097 -0.1793
 4983SOL     OW26407   1.548   3.661   5.685 -0.3094 -0.0938 -1.0279
 4983SOL    HW126408   1.521   3.633   5.773  0.2426  2.2456 -0.1205
 4983SOL    HW226409   1.508   3.747   5.671  0.9355  0.6130 -0.3249
 4984SOL     OW26410   2.534   2.001  17.105  0.8458  0.4200 -0.6377
 4984SOL    HW126411   2.539   1.905  17.103 -4.4399  0.1658 -0.8514
 4984SOL    HW226412   2.607   2.030  17.051  1.3022  1.2936  0.4440
 4985SOL     OW26413   3.580   4.708   1.136 -0.2103  0.1709 -0.2267
 4985SOL    HW126414   3.508   4.659   1.095 -1.5992  0.4353  1.8716
 4985SOL    HW226415   3.581   0.066   1.085  0.3460 -0.7723 -1.6749
 4986SOL     OW26416   0.478   1.077  14.718  0.2490 -0.8342  0.6923
 4986SOL    HW126417   0.483   0.994  14.766  1.5690  0.3348  2.5965
 4986SOL    HW226418   0.457   1.048  14.629  0.4758 -1.9597  1.0112
 4987SOL     OW26419   3.417   3.776   8.577  0.0722  0.1896 -0.6518
 4987SOL    HW126420   3.396   3.704   8.518 -0.5250  0.5703 -0.9008
 4987SOL    HW226421   3.364   3.756   8.653 -1.4526  2.3325 -1.1535
 4988SOL     OW26422   1.269   3.826   6.581 -0.6595 -0.2948  0.1407
 4988SOL    HW126423   1.200   3.791   6.524 -0.1676  1.2176 -1.3651
 4988SOL    HW226424   1.241   3.915   6.562 -1.2425 -0.6156 -0.5111
 4989SOL     OW26425   3.706   3.828   8.000 -0.4875  0.5060  0.3976
 4989SOL    HW126426   3.721   3.819   8.094 -2.5474 -0.2697  0.6452
 4989SOL    HW226427   3.792   3.807   7.964 -1.1184 -2.3916  0.5288
 4990SOL     OW26428   4.470   1.473   4.927  0.2857  0.2187  0.8406
 4990SOL    HW126429   4.402   1.408   4.907  0.6017 -0.2649  1.3375
 4990SOL    HW226430   4.430   1.552   4.889  0.8959 -0.5825 -1.5051
 4991SOL     OW26431   0.165   1.823   5.790 -0.1195  0.3088 -0.4493
 4991SOL    HW126432   0.133   1.747   5.742 -1.0440  0.9513 -0.8433
 4991SOL    HW226433   0.253   1.835   5.756 -0.7868  0.7032 -2.0340
 4992SOL     OW26434   3.012   0.782   0.798  0.4315  0.3066 -0.2657
 4992SOL    HW126435   2.958   0.803   0.875  0.9609  0.2475  0.1198
 4992SOL    HW226436   2.944   0.788   0.730 -0.7065  1.1014  0.9298
 4993SOL     OW26437   0.763   4.318   5.236  0.0469  0.5512  0.5962
 4993SOL    HW126438   0.780   4.377   5.162 -1.1839  1.4699  1.0332
 4993SOL    HW226439   0.836   4.336   5.296  2.9544 -3.4323 -1.8082
 4994SOL     OW26440   4.068   0.503   7.384 -0.0483 -0.3164 -0.1833
 4994SOL    HW126441   4.044   0.559   7.458 -1.5950 -2.9240  1.3258
 4994SOL    HW226442   3.991   0.482   7.330 -0.3996 -0.3705  0.3388
 4995SOL     OW26443   1.207   4.009   2.649  0.1621 -0.0358  0.7701
 4995SOL    HW126444   1.295   3.977   2.629 -0.6066 -0.6452 -1.6515
 4995SOL    HW226445   1.170   3.968   2.570  1.2365 -1.0481  0.8122
 4996SOL     OW26446   1.673   1.486   6.224  0.5012  0.1361 -0.3465
 4996SOL    HW126447   1.636   1.571   6.204  0.5972  0.3966  0.5873
 4996SOL    HW226448   1.741   1.523   6.280  0.6874  1.9552 -1.8145
 4997SOL     OW26449   2.558   4.141   6.426  0.0106  0.1785 -0.3480
 4997SOL    HW126450   2.623   4.182   6.482 -0.0914 -2.4013  1.6584
 4997SOL    HW226451   2.536   4.067   6.482 -0.8827 -0.6402 -1.7711
 4998SOL     OW26452   3.086   4.033   6.009  0.2073  0.6199  0.2616
 4998SOL    HW126453   2.994   4.046   5.986  0.2688 -0.6618 -0.6971
 4998SOL    HW226454   3.099   3.960   5.948  2.5346 -0.1305  1.6661
 4999SOL     OW26455   1.870   2.295  11.566 -0.2978 -0.2349  0.1268
 4999SOL    HW126456   1.905   2.323  11.481  0.4127  0.0750  0.5259
 4999SOL    HW226457   1.950   2.290  11.617  0.0039  0.5517 -0.2722
 5000SOL     OW26458   4.147   2.959   4.982  0.5513  0.5893  0.1912
 5000SOL    HW126459   4.088   2.887   5.004  1.9248 -0.9050 -0.9560
 5000SOL    HW226460   4.105   2.995   4.904 -0.4104 -1.0751 -0.0539
 5001SOL     OW26461   3.519   0.193   4.266  0.3951 -0.7277 -0.6274
 5001SOL    HW126462   3.566   0.216   4.346 -2.1028  0.5975  0.4596
 5001SOL    HW226463   3.563   0.243   4.196 -2.1668  0.7422 -1.1687
 5002SOL     OW26464   2.087   3.900   4.432 -0.4009  0.0827  0.4032
 5002SOL    HW126465   2.110   3.961   4.362  0.1359  1.3481  1.6809
 5002SOL    HW226466   2.153   3.942   4.488 -0.8008  0.7099  0.4131
 5003SOL     OW26467   0.664   2.188   9.489 -0.0037 -0.2441  0.0543
 5003SOL    HW126468   0.750   2.161   9.456  1.1701  2.5162  0.7736
 5003SOL    HW226469   0.696   2.268   9.532 -1.8132  0.7572 -0.4832
 5004SOL     OW26470   2.455   2.934   1.896  0.3492 -0.6799  0.3210
 5004SOL    HW126471   2.499   2.849   1.888 -2.0960 -1.9693  0.4590
 5004SOL    HW226472   2.394   2.934   1.822  0.1201 -2.6875  0.4892
 5005SOL     OW26473   0.339   4.718  11.718  0.7764  0.2745  0.6439
 5005SOL    HW126474   0.408   0.058  11.695  1.7914 -0.7193  0.9461
 5005SOL    HW226475   0.259   0.038  11.688  0.2756  1.0801  3.0662
 5006SOL     OW26476   3.815   1.016   4.003 -0.4357  0.3529  0.0145
 5006SOL    HW126477   3.796   0.939   3.950 -2.0957 -0.1260  1.2879
 5006SOL    HW226478   3.853   0.970   4.077 -0.1399  0.6370  0.0400
 5007SOL     OW26479   3.425   0.024   5.608 -0.1105 -0.1831  0.0304
 5007SOL    HW126480   3.334   0.011   5.582  0.3239  0.3689 -1.7752
 5007SOL    HW226481   3.474   0.006   5.528  0.7607 -0.0108  0.5201
 5008SOL     OW26482   3.677   0.749  11.918 -0.1556  0.1788 -0.1354
 5008SOL    HW126483   3.613   0.807  11.959 -1.4398 -0.3135 -1.4642
 5008SOL    HW226484   3.643   0.732  11.831 -1.4740 -0.1352  0.4439
 5009SOL     OW26485   0.066   4.672   4.066 -0.2472 -0.0992 -0.1303
 5009SOL    HW126486   4.718   4.688   4.004  0.2209 -2.9309 -1.3870
 5009SOL    HW226487   0.068   0.027   4.123  0.8126  0.2848 -0.6879
 5010SOL     OW26488   1.338   1.996   7.444 -0.2305  0.4130 -0.0118
 5010SOL    HW126489   1.311   1.924   7.387  1.0742 -0.2890  0.2341
 5010SOL    HW226490   1.295   1.970   7.526  0.6980 -2.0197 -0.2780
 5011SOL     OW26491   3.024   1.121   2.002  0.8584  0.0001  0.1687
 5011SOL    HW126492   2.932   1.093   2.010  0.8344  0.6228  1.9636
 5011SOL    HW226493   3.013   1.215   1.994 -0.5825 -0.3499 -2.1971
 5012SOL     OW26494   0.174   2.110   3.332 -0.1894  0.6208 -0.0758
 5012SOL    HW126495   0.266   2.133   3.336  0.4996 -1.7966 -2.3589
 5012SOL    HW226496   0.162   2.113   3.237  0.8705 -0.0130 -0.2288
 5013SOL     OW26497   2.953   2.131   2.278  0.1464  0.8333  0.0116
 5013SOL    HW126498   2.923   2.163   2.363  0.8998  0.4907  0.4035
 5013SOL    HW226499   2.924   2.040   2.271  1.1457  0.6571 -1.8864
 5014SOL     OW26500   3.953   3.227   4.280 -0.0034  0.5378 -0.6296
 5014SOL    HW126501   3.902   3.205   4.202 -0.5142  1.4621 -0.5638
 5014SOL    HW226502   3.992   3.142   4.298  2.3522  2.1470  1.8317
 5015SOL     OW26503   2.098   3.375   3.845  0.0911 -0.5740 -0.3794
 5015SOL    HW126504   2.068   3.319   3.917  0.4886  1.2023  1.1580
 5015SOL    HW226505   2.114   3.463   3.879  0.2667 -0.5616 -0.4937
 5016SOL     OW26506   4.262   4.604   5.165  0.3171 -0.1433 -0.2947
 5016SOL    HW126507   4.356   4.585   5.158  0.4475  0.4023 -0.0291
 5016SOL    HW226508   4.236   4.559   5.245 -1.6123 -0.4170 -1.0748
 5017SOL     OW26509   0.206   0.094   8.988  0.1607  0.4355 -0.1761
 5017SOL    HW126510   0.143   0.158   9.022 -0.8188 -0.4544 -0.3209
 5017SOL    HW226511   0.161   0.038   8.925  0.4071 -2.0358  1.8536
 5018SOL     OW26512   1.593   1.405  10.000 -1.1383 -0.3015 -0.0221
 5018SOL    HW126513   1.523   1.382  10.062 -0.6892 -2.1397 -0.1844
 5018SOL    HW226514   1.543   1.431   9.922  0.0337  1.1337 -0.2841
 5019SOL     OW26515   2.858   3.964  13.543 -0.2100 -0.4321  0.0225
 5019SOL    HW126516   2.764   3.944  13.536 -0.0043 -1.9413  1.4781
 5019SOL    HW226517   2.852   4.050  13.584 -2.3697 -0.2541 -0.6642
 5020SOL     OW26518   4.286   2.913   2.419 -0.1270  0.1346 -0.1603
 5020SOL    HW126519   4.366   2.873   2.453  0.8290  1.5108 -0.7939
 5020SOL    HW226520   4.233   2.840   2.388 -0.4123  1.0381 -1.7722
 5021SOL     OW26521   0.014   0.731   8.239  0.3940  0.0370 -0.6800
 5021SOL    HW126522   0.012   0.672   8.315  3.0283  0.1879 -0.4836
 5021SOL    HW226523   0.057   0.813   8.263  0.6906 -0.5594  0.8225
 5022SOL     OW26524   4.616   1.824   7.084 -0.0937 -0.0314  0.7310
 5022SOL    HW126525   4.567   1.742   7.075 -1.0322  0.4323  1.7341
 5022SOL    HW226526   4.613   1.864   6.998 -0.0216 -0.1586  0.6687
 5023SOL     OW26527   1.698   3.372   0.201  0.3005  0.4517  0.3570
 5023SOL    HW126528   1.615   3.360   0.156  0.0819 -0.7482  1.0801
 5023SOL    HW226529   1.695   3.457   0.244  0.4506  0.7942 -0.3179
 5024SOL     OW26530   4.117   0.451   4.640 -0.5670 -0.0157 -0.2215
 5024SOL    HW126531   4.090   0.477   4.729  0.2944 -0.1510  0.0800
 5024SOL    HW226532   4.054   0.494   4.582 -0.5486  2.9775  1.9583
 5025SOL     OW26533   2.912   0.980   1.327  0.0514  0.1919 -0.0884
 5025SOL    HW126534   2.932   1.065   1.287 -0.6706  0.2871 -0.2472
 5025SOL    HW226535   2.912   1.008   1.418  0.1404 -0.1277  0.0083
 5026SOL     OW26536   3.791   1.634   6.743 -0.1372 -0.3105  0.4375
 5026SOL    HW126537   3.856   1.682   6.795  0.1380 -0.2356  0.0181
 5026SOL    HW226538   3.803   1.540   6.756 -2.0930 -0.6446 -0.1634
 5027SOL     OW26539   0.622   4.653   8.036  0.3960  0.9881  0.1261
 5027SOL    HW126540   0.527   4.664   8.044  0.2824 -0.5027  0.7839
 5027SOL    HW226541   0.627   4.710   7.959  1.2657  2.1233  1.0304
 5028SOL     OW26542   3.662   2.085   0.737  0.1517  0.3564  0.0522
 5028SOL    HW126543   3.707   2.080   0.653  1.3367 -0.4601  0.7413
 5028SOL    HW226544   3.702   2.168   0.763 -2.4571  2.3540 -2.2523
 5029SOL     OW26545   4.352   2.314   6.738 -0.2126 -0.2909  0.2430
 5029SOL    HW126546   4.428   2.371   6.743 -0.3696 -0.2063  1.6680
 5029SOL    HW226547   4.389   2.238   6.692  0.6838  0.0855  0.3558
 5030SOL     OW26548   4.477   4.227  15.667 -0.3114 -0.2699 -0.4162
 5030SOL    HW126549   4.422   4.246  15.743 -0.9597 -2.6159 -0.3206
 5030SOL    HW226550   4.414   4.174  15.619 -0.7012  0.6108 -0.8769
 5031SOL     OW26551   2.096   3.490   4.348 -0.2977  0.2886 -0.3470
 5031SOL    HW126552   2.181   3.510   4.387  0.3220 -1.8232 -0.5979
 5031SOL    HW226553   2.040   3.540   4.408 -2.0878 -0.5435 -1.3362
 5032SOL     OW26554   1.336   4.596   3.938  0.3584  0.0987  0.1656
 5032SOL    HW126555   1.386   4.524   3.978  0.1341  1.2461  2.5156
 5032SOL    HW226556   1.353   4.667   4.000 -1.3648  0.2536  0.4603
 5033SOL     OW26557   2.502   4.106   2.849 -0.4451 -0.2379  0.0013
 5033SOL    HW126558   2.559   4.181   2.864  0.4903 -0.4564 -2.4353
 5033SOL    HW226559   2.459   4.109   2.935  1.5587  1.9011  0.9006
 5034SOL     OW26560   3.237   0.889   5.830  0.3204  0.1120 -0.4584
 5034SOL    HW126561   3.270   0.887   5.920  1.0392  0.4842 -0.7108
 5034SOL    HW226562   3.222   0.983   5.821 -0.6764 -0.0155 -0.1148
 5035SOL     OW26563   2.677   2.079   6.783  0.1529  0.6807 -0.3390
 5035SOL    HW126564   2.620   2.130   6.726 -0.6173  1.0297  0.7525
 5035SOL    HW226565   2.722   2.143   6.839  0.3073 -0.4752  0.8715
 5036SOL     OW26566   2.590   1.075  13.248 -0.2334  0.0519  0.1014
 5036SOL    HW126567   2.556   1.044  13.331  0.3556  0.7407  0.6023
 5036SOL    HW226568   2.515   1.069  13.189  1.4452 -2.5228 -1.8147
 5037SOL     OW26569   2.302   3.057  11.457  0.7354  0.3033  0.0208
 5037SOL    HW126570   2.325   3.080  11.548  0.2450 -0.9235  0.4529
 5037SOL    HW226571   2.292   3.144  11.418  2.6195  0.1302 -0.8243
 5038SOL     OW26572   1.995   4.558   4.315 -0.0938 -0.4321  0.1121
 5038SOL    HW126573   2.046   4.480   4.333  1.6430  0.2266 -2.0274
 5038SOL    HW226574   1.926   4.518   4.262 -0.3885  1.4387 -0.9270
 5039SOL     OW26575   2.376   1.099   2.980  0.1753  0.1238  0.1907
 5039SOL    HW126576   2.303   1.143   2.936 -1.3963 -2.7294 -0.0715
 5039SOL    HW226577   2.451   1.125   2.927 -0.5400 -1.1473 -1.4322
 5040SOL     OW26578   0.227   1.730   8.544 -0.1060 -0.4550 -0.8542
 5040SOL    HW126579   0.259   1.765   8.460 -1.5965  2.1719 -0.2968
 5040SOL    HW226580   0.311   1.700   8.579 -0.0018 -0.7966 -1.3884
 5041SOL     OW26581   0.881   3.639   7.566  0.3766 -0.2826  0.0462
 5041SOL    HW126582   0.898   3.548   7.538 -0.5055 -0.7445  1.0091
 5041SOL    HW226583   0.931   3.689   7.502  2.2095 -1.3661  0.6450
 5042SOL     OW26584   4.193   0.079   7.201  0.4703  0.5871 -0.1411
 5042SOL    HW126585   4.179   0.011   7.267  0.6770 -1.6295 -2.3689
 5042SOL    HW226586   4.197   0.163   7.247 -1.1198  0.2965  0.5140
 5043SOL     OW26587   3.772   0.609   3.284  0.1887 -0.2092  0.4282
 5043SOL    HW126588   3.738   0.682   3.334 -1.6934  1.3730 -3.1436
 5043SOL    HW226589   3.821   0.560   3.350  0.4394  1.7239  1.6518
 5044SOL     OW26590   3.314   3.802   3.929  0.3181  0.1194 -0.3419
 5044SOL    HW126591   3.310   3.894   3.905  1.2780  0.6628  1.5594
 5044SOL    HW226592   3.252   3.757   3.872 -0.8789  0.6259  0.5789
 5045SOL     OW26593   2.108   1.439  12.178  0.9171  0.0080 -0.0473
 5045SOL    HW126594   2.184   1.497  12.171  0.2902  0.9086  0.5057
 5045SOL    HW226595   2.033   1.499  12.171 -0.6185 -1.7941  0.9262
 5046SOL     OW26596   3.824   0.965   7.641  0.3061 -0.0349 -0.1495
 5046SOL    HW126597   3.803   0.879   7.604  2.1839 -0.3881 -0.3533
 5046SOL    HW226598   3.918   0.961   7.658  0.4586  0.9037 -0.7715
 5047SOL     OW26599   0.054   4.510   0.729 -0.1237 -0.1880 -0.4604
 5047SOL    HW126600   4.703   4.521   0.789  0.3459 -0.8914  0.2413
 5047SOL    HW226601   0.119   4.470   0.786 -0.4740  0.9722  0.7543
 5048SOL     OW26602   0.568   2.119   5.336  0.0599 -0.5122  0.3078
 5048SOL    HW126603   0.649   2.144   5.293 -1.1129  2.1815 -0.3101
 5048SOL    HW226604   0.496   2.144   5.277  0.5597  1.3238  0.4808
 5049SOL     OW26605   2.825   3.272  15.903 -0.0257 -0.8077 -0.2707
 5049SOL    HW126606   2.914   3.296  15.931 -0.1274  1.6000 -2.0158
 5049SOL    HW226607   2.825   3.178  15.918  2.0714 -0.6845  0.5263
 5050SOL     OW26608   3.785   4.521   1.332  0.1872  0.1531 -0.5146
 5050SOL    HW126609   3.856   4.477   1.379  1.4471  1.5954 -1.0389
 5050SOL    HW226610   3.762   4.580   1.403 -1.7439 -1.3804  0.1077
 5051SOL     OW26611   0.155   0.725  10.297  1.0058 -0.0087  0.0340
 5051SOL    HW126612   0.157   0.820  10.302  1.7991  0.0049 -0.5487
 5051SOL    HW226613   0.114   0.718  10.210  1.0088 -0.3928  0.0606
 5052SOL     OW26614   1.938   0.912  15.624 -0.2872 -0.1021 -0.5162
 5052SOL    HW126615   1.936   0.835  15.567  1.0623 -0.0463 -0.6498
 5052SOL    HW226616   1.846   0.937  15.628  0.4725  2.7036 -0.5332
 5053SOL     OW26617   2.476   3.567  17.187  0.5417 -0.5307 -0.5738
 5053SOL    HW126618   2.444   3.647  17.227 -0.0328 -1.4017  0.7080
 5053SOL    HW226619   2.424   3.555  17.107  0.1234  3.2941 -0.8774
 5054SOL     OW26620   1.548   1.879   8.484 -0.4036 -0.3041  0.2588
 5054SOL    HW126621   1.496   1.843   8.556  0.0492  1.1568  1.3042
 5054SOL    HW226622   1.605   1.940   8.529 -0.4276 -0.7369  0.8706
 5055SOL     OW26623   1.746   2.484   6.603  0.6460 -0.1445 -0.6010
 5055SOL    HW126624   1.835   2.491   6.638  0.4851  0.5940 -0.3335
 5055SOL    HW226625   1.767   2.486   6.510  0.2871  3.0147 -0.6060
 5056SOL     OW26626   2.643   1.577   5.714 -0.2094  0.0454  0.2853
 5056SOL    HW126627   2.720   1.633   5.701  0.4750 -0.9209  0.1349
 5056SOL    HW226628   2.686   1.497   5.683 -0.8387 -0.3757  0.5205
 5057SOL     OW26629   1.995   1.200  13.518  0.2507  0.0795 -0.1930
 5057SOL    HW126630   2.030   1.213  13.430  1.2847 -0.1209  0.1798
 5057SOL    HW226631   2.040   1.272  13.563  0.1885 -0.2364  0.3827
 5058SOL     OW26632   0.288   1.127   6.750  0.0793 -0.3352  0.3839
 5058SOL    HW126633   0.210   1.120   6.695  0.9026  0.0260 -0.8347
 5058SOL    HW226634   0.245   1.147   6.833 -0.9600  0.6561 -0.3950
 5059SOL     OW26635   4.390   2.676  13.683 -0.1543 -0.0292  0.0735
 5059SOL    HW126636   4.335   2.598  13.690  1.8527 -1.4866 -0.4123
 5059SOL    HW226637   4.433   2.664  13.767  2.2047  2.7146 -0.7312
 5060SOL     OW26638   2.149   1.982   7.654 -0.3589 -0.3016  0.1150
 5060SOL    HW126639   2.229   2.024   7.685  0.0216  0.3901 -1.7847
 5060SOL    HW226640   2.096   2.057   7.626  1.4848  0.7609 -0.4890
 5061SOL     OW26641   1.413   2.248   9.583  0.3184 -0.5663 -0.3553
 5061SOL    HW126642   1.367   2.208   9.657  2.5198 -0.8240  0.8859
 5061SOL    HW226643   1.349   2.306   9.542  0.1342 -0.8759 -0.5010
 5062SOL     OW26644   0.015   0.682   2.867 -0.2900 -0.0430 -0.0399
 5062SOL    HW126645   0.037   0.684   2.774 -2.9623  1.6028 -0.6519
 5062SOL    HW226646   4.643   0.665   2.864 -0.5353  1.4728 -1.1487
 5063SOL     OW26647   3.335   0.782  13.998 -0.0442 -0.0335  1.3419
 5063SOL    HW126648   3.250   0.762  14.037 -0.6674  1.8513  0.9076
 5063SOL    HW226649   3.389   0.711  14.034  0.5715 -0.3136 -0.1290
 5064SOL     OW26650   2.118   4.052   3.134  0.3684 -0.2210  0.1499
 5064SOL    HW126651   2.050   4.060   3.068  1.0192  0.8396 -0.4012
 5064SOL    HW226652   2.073   4.084   3.211  0.5528 -1.1421  0.6423
 5065SOL     OW26653   0.211   2.500  15.564  0.0235  0.4691 -0.2763
 5065SOL    HW126654   0.295   2.460  15.540  0.8055  3.1481 -1.9491
 5065SOL    HW226655   0.161   2.469  15.488  0.4603 -1.5569  0.2467
 5066SOL     OW26656   1.832   2.689   9.069  0.0533 -0.6997  0.1287
 5066SOL    HW126657   1.924   2.682   9.092 -0.0950 -0.4691  0.7706
 5066SOL    HW226658   1.828   2.778   9.034 -1.6222 -1.3171 -1.2516
 5067SOL     OW26659   4.281   2.093   9.002  0.3078 -0.7869 -0.1757
 5067SOL    HW126660   4.193   2.117   9.031 -0.2713 -1.9353 -0.9643
 5067SOL    HW226661   4.290   1.999   9.020 -1.7778 -1.4160 -2.3428
 5068SOL     OW26662   3.480   0.307   1.226  0.1569  0.4644 -0.4833
 5068SOL    HW126663   3.442   0.377   1.173  0.2936  0.8915 -0.0193
 5068SOL    HW226664   3.540   0.270   1.161  0.1517 -0.8556  0.2645
 5069SOL     OW26665   1.210   3.524   8.592 -0.1296 -0.3371 -0.5287
 5069SOL    HW126666   1.261   3.594   8.633  1.2454 -1.3897 -0.4259
 5069SOL    HW226667   1.202   3.463   8.665 -2.0318 -0.1806 -0.6259
 5070SOL     OW26668   1.826   1.826  11.024 -0.4051 -0.0886 -0.4261
 5070SOL    HW126669   1.757   1.781  10.976 -1.2223 -1.9640  2.5025
 5070SOL    HW226670   1.908   1.796  10.984  1.2480  1.0775  2.1495
 5071SOL     OW26671   4.479   2.459   6.271 -0.4112 -0.3356 -0.4981
 5071SOL    HW126672   4.501   2.411   6.191 -0.1639  0.8155 -1.1298
 5071SOL    HW226673   4.385   2.471   6.259 -0.4426 -0.7149 -0.6428
 5072SOL     OW26674   2.272   1.337   7.872  0.0775 -0.6676  0.4750
 5072SOL    HW126675   2.295   1.376   7.787 -2.5270  0.8882  0.4632
 5072SOL    HW226676   2.217   1.408   7.906  0.5300 -0.0508 -0.0565
 5073SOL     OW26677   0.200   3.857   9.132 -0.3309 -0.2275 -0.5545
 5073SOL    HW126678   0.237   3.770   9.146  0.5748  0.4517  1.3221
 5073SOL    HW226679   0.211   3.903   9.215  3.7426 -0.7691 -0.7913
 5074SOL     OW26680   4.270   2.107  14.487 -0.4928  0.1989 -0.2106
 5074SOL    HW126681   4.304   2.175  14.429  0.5780 -0.9332 -0.9112
 5074SOL    HW226682   4.334   2.037  14.474  1.3980  1.9029  0.0084
 5075SOL     OW26683   1.341   3.627  17.656 -0.0532  0.1422 -0.5184
 5075SOL    HW126684   1.275   3.627   0.034  0.2574  2.2755 -0.2280
 5075SOL    HW226685   1.338   3.711  17.609 -1.5215  1.5314  2.0537
 5076SOL     OW26686   2.346   0.984   1.293  0.4454  0.0246  0.1822
 5076SOL    HW126687   2.400   0.923   1.242  3.0434  1.3110  1.3528
 5076SOL    HW226688   2.345   1.062   1.238  0.4320  2.2323  3.3015
 5077SOL     OW26689   4.257   2.525   2.416  0.1054  0.4268 -0.3949
 5077SOL    HW126690   4.221   2.598   2.367 -0.9347 -0.6172 -1.1843
 5077SOL    HW226691   4.195   2.454   2.399 -0.1288  0.9006 -1.4905
 5078SOL     OW26692   2.204   1.663  11.609  0.1044  0.4897 -0.0057
 5078SOL    HW126693   2.215   1.663  11.514 -3.0688 -3.1436 -0.3498
 5078SOL    HW226694   2.149   1.589  11.632  0.8162  0.6375  2.2075
 5079SOL     OW26695   0.986   3.245  12.936 -0.0190  0.5953 -0.3700
 5079SOL    HW126696   0.960   3.154  12.922  0.7212  0.8286 -3.2242
 5079SOL    HW226697   0.977   3.293  12.854 -2.1101 -0.0340 -0.4919
 5080SOL     OW26698   4.616   4.331  14.139 -0.5292  0.0188 -0.7596
 5080SOL    HW126699   4.688   4.269  14.149 -0.3947  0.1511 -0.9023
 5080SOL    HW226700   4.573   4.303  14.220  1.8354  1.9165  1.1384
 5081SOL     OW26701   3.518   3.465   9.706 -0.1022  0.4402  0.5110
 5081SOL    HW126702   3.431   3.433   9.685  0.4018 -0.4590 -0.2193
 5081SOL    HW226703   3.510   3.480   9.801  1.2694  1.1424  0.5195
 5082SOL     OW26704   3.468   3.362  12.104 -0.0366 -0.0027  0.1056
 5082SOL    HW126705   3.399   3.299  12.084 -1.1524  1.5860 -1.1363
 5082SOL    HW226706   3.469   3.345  12.198 -1.6503  1.0639  0.3144
 5083SOL     OW26707   1.150   1.972   9.064 -0.2047 -0.0489  0.3701
 5083SOL    HW126708   1.113   2.023   8.992  1.2797 -0.5357 -0.7276
 5083SOL    HW226709   1.066   1.960   9.110 -0.8248 -1.1036 -1.0365
 5084SOL     OW26710   2.001   1.836   5.195 -0.6968 -0.5734 -0.1277
 5084SOL    HW126711   2.009   1.741   5.198  0.2638 -0.4584  0.9497
 5084SOL    HW226712   1.916   1.843   5.238 -0.6205  0.7586 -0.1895
 5085SOL     OW26713   2.049   4.504   4.999 -0.9934 -0.3515  0.1952
 5085SOL    HW126714   1.969   4.539   4.959  1.7590  2.3541 -2.9099
 5085SOL    HW226715   2.111   4.565   4.959  0.3801 -2.1998 -0.5061
 5086SOL     OW26716   1.904   1.722   9.004  0.0798  0.3760  0.6147
 5086SOL    HW126717   1.811   1.712   8.983  0.4259  1.2676 -1.2972
 5086SOL    HW226718   1.920   1.630   9.028  1.5775  0.4456 -0.1171
 5087SOL     OW26719   0.204   3.025   7.028 -0.3527 -0.3734  0.0111
 5087SOL    HW126720   0.288   3.072   7.022  0.4917 -2.1178 -2.1192
 5087SOL    HW226721   0.238   2.939   7.004 -1.1036 -0.7633  0.3637
 5088SOL     OW26722   1.800   0.729   7.279  0.3418  0.4223 -0.0290
 5088SOL    HW126723   1.797   0.771   7.365 -1.4248 -0.6576  0.4255
 5088SOL    HW226724   1.713   0.735   7.240 -0.5811  0.1921  2.0217
 5089SOL     OW26725   3.232   0.114   7.782 -0.0799 -0.3748  0.2510
 5089SOL    HW126726   3.183   0.184   7.825 -1.5733 -0.5036 -1.2575
 5089SOL    HW226727   3.160   0.053   7.765  0.3830 -0.2458 -2.1497
 5090SOL     OW26728   2.236   0.142   7.790  0.3636  0.1422 -0.3250
 5090SOL    HW126729   2.243   0.237   7.792 -0.8252  0.2274 -0.0180
 5090SOL    HW226730   2.325   0.125   7.761  0.2797  0.1291 -0.5757
 5091SOL     OW26731   1.527   4.439   7.042 -0.2603 -0.2739 -0.7273
 5091SOL    HW126732   1.451   4.383   7.057  0.6838 -1.2066  0.6009
 5091SOL    HW226733   1.501   4.519   7.087  2.1333  0.8412 -1.3169
 5092SOL     OW26734   4.516   1.127   3.933 -0.0181  0.3112  0.1005
 5092SOL    HW126735   4.449   1.110   3.867 -1.0161  3.1955  0.3608
 5092SOL    HW226736   4.459   1.155   4.005 -0.7711 -0.8265 -0.0472
 5093SOL     OW26737   3.088   2.579   3.764 -0.0431 -0.5487  0.0210
 5093SOL    HW126738   3.180   2.599   3.779  0.1362 -1.5675  0.2302
 5093SOL    HW226739   3.092   2.495   3.718 -2.3223 -0.5496 -0.2026
 5094SOL     OW26740   0.778   0.440   5.433 -0.2504 -0.1762  0.2128
 5094SOL    HW126741   0.742   0.409   5.516 -0.5950 -1.1570 -0.2993
 5094SOL    HW226742   0.807   0.356   5.396 -0.3021 -0.1817  0.1833
 5095SOL     OW26743   1.680   2.678  14.129 -0.4124 -0.5597 -0.1717
 5095SOL    HW126744   1.618   2.608  14.110 -1.3805  1.1181 -3.1683
 5095SOL    HW226745   1.726   2.651  14.208  0.9999 -0.9033 -1.1092
 5096SOL     OW26746   4.155   1.385  11.477 -0.0468 -0.1389 -0.0808
 5096SOL    HW126747   4.098   1.316  11.444 -0.6044 -0.7455  2.1438
 5096SOL    HW226748   4.240   1.343  11.487 -0.2644 -0.5490  0.0777
 5097SOL     OW26749   0.685   4.651   4.713 -0.3372  0.3019  0.5937
 5097SOL    HW126750   0.761   4.706   4.734  0.1931  0.0286 -0.5890
 5097SOL    HW226751   0.665   4.660   4.620  4.0803 -0.8877 -0.5120
 5098SOL     OW26752   1.443   3.233   5.780 -0.1465 -0.4379  0.1644
 5098SOL    HW126753   1.384   3.158   5.777 -0.6764  0.0286 -1.1278
 5098SOL    HW226754   1.403   3.282   5.708  2.2298  1.1584 -0.0437
 5099SOL     OW26755   0.777   1.283   4.337 -0.2191 -0.2575  0.3878
 5099SOL    HW126756   0.742   1.306   4.423 -0.6316 -1.5235  0.5544
 5099SOL    HW226757   0.774   1.369   4.296  2.0755  0.4005  1.6361
 5100SOL     OW26758   0.991   3.758   2.553  0.0705 -0.2826  0.3677
 5100SOL    HW126759   1.045   3.797   2.484  0.3571 -0.8538  0.2689
 5100SOL    HW226760   0.935   3.696   2.506 -0.8904  0.4250  0.5729
 5101SOL     OW26761   0.850   4.104   8.336  0.2234 -0.3257  0.0210
 5101SOL    HW126762   0.846   4.051   8.416 -0.0081  0.0801  0.2801
 5101SOL    HW226763   0.871   4.194   8.361 -0.3737 -1.2189  3.6786
 5102SOL     OW26764   1.675   3.945   3.059  0.0951  0.0719 -0.4045
 5102SOL    HW126765   1.746   3.920   3.118  1.1457 -1.0533 -2.1408
 5102SOL    HW226766   1.625   4.018   3.097  0.4418  0.1639 -0.1313
 5103SOL     OW26767   1.895   4.390   6.447 -0.4574 -0.2591  0.1785
 5103SOL    HW126768   1.957   4.442   6.499  0.4551  1.2482 -2.3883
 5103SOL    HW226769   1.877   4.313   6.501  2.0902  0.7388  2.4436
 5104SOL     OW26770   2.175   3.886   3.793  0.8618  0.2420 -0.1473
 5104SOL    HW126771   2.248   3.909   3.735  0.7540  0.1517 -0.3186
 5104SOL    HW226772   2.097   3.925   3.753  2.9157  2.2815 -2.1516
 5105SOL     OW26773   1.294   2.159   9.809  0.1106  0.4438  1.1763
 5105SOL    HW126774   1.328   2.152   9.898  1.2984  0.9798  0.7661
 5105SOL    HW226775   1.262   2.069   9.795  1.4786 -0.1168  1.6287
 5106SOL     OW26776   3.363   0.020   8.455 -0.0307  0.2120 -0.0129
 5106SOL    HW126777   3.298   0.012   8.525 -1.8741  0.4205 -1.6814
 5106SOL    HW226778   3.372   0.115   8.460  0.0542  0.2366 -0.5806
 5107SOL     OW26779   2.549   0.641   8.753  0.0258 -0.4927  0.0836
 5107SOL    HW126780   2.617   0.662   8.818 -1.5210 -0.5527  1.7278
 5107SOL    HW226781   2.603   0.622   8.676 -0.7985 -0.0601 -0.5927
 5108SOL     OW26782   0.538   0.333   9.375  0.3843 -0.1827 -0.0443
 5108SOL    HW126783   0.491   0.276   9.315  2.3623 -0.6633 -1.1555
 5108SOL    HW226784   0.511   0.293   9.458 -0.1406 -1.7672 -0.9732
 5109SOL     OW26785   2.402   1.337   8.686 -0.2062 -0.2157 -0.6794
 5109SOL    HW126786   2.411   1.430   8.663 -2.0288  0.1116 -0.0480
 5109SOL    HW226787   2.473   1.296   8.637 -0.7606 -1.1755 -0.6718
 5110SOL     OW26788   2.822   2.496   9.680 -0.3142 -0.4248 -0.2015
 5110SOL    HW126789   2.733   2.462   9.694 -0.1748 -0.2759  1.0822
 5110SOL    HW226790   2.841   2.555   9.753 -2.4499  0.1833 -0.1190
 5111SOL     OW26791   4.720   3.213   2.456 -0.3800 -0.2512  0.2673
 5111SOL    HW126792   0.052   3.239   2.382 -0.2756 -0.7036  0.1852
 5111SOL    HW226793   4.636   3.188   2.418  0.0500 -1.2822 -0.0094
 5112SOL     OW26794   4.299   0.886   5.898 -0.0407  0.0741 -0.1325
 5112SOL    HW126795   4.236   0.816   5.880 -0.2998  0.3713 -0.3801
 5112SOL    HW226796   4.273   0.914   5.985  0.1324  1.0056 -0.3792
 5113SOL     OW26797   3.641   0.550  10.996  0.1758 -0.3037 -0.4630
 5113SOL    HW126798   3.668   0.641  10.985 -0.6934  0.2443  1.9441
 5113SOL    HW226799   3.606   0.545  11.085  1.5869 -1.1753  0.0496
 5114SOL     OW26800   3.193   3.162   4.446 -0.1185 -0.2957 -0.1810
 5114SOL    HW126801   3.264   3.220   4.418  0.3537  0.4289  2.5388
 5114SOL    HW226802   3.240   3.116   4.516  0.2007  1.5202  0.7934
 5115SOL     OW26803   3.418   2.487   4.278  0.0635  0.2178  0.4259
 5115SOL    HW126804   3.385   2.405   4.244  0.0263 -0.4248  2.0063
 5115SOL    HW226805   3.347   2.540   4.240  1.2160  3.3461  2.5522
 5116SOL     OW26806   1.797   1.254   3.557 -0.0148  0.1974 -0.5235
 5116SOL    HW126807   1.765   1.215   3.475  0.6488 -2.1337  0.3067
 5116SOL    HW226808   1.786   1.348   3.548  0.5297  0.2156 -1.0218
 5117SOL     OW26809   4.017   0.500   2.928 -0.3595 -0.4962 -0.2293
 5117SOL    HW126810   4.091   0.560   2.930 -1.4590  0.8264  0.8262
 5117SOL    HW226811   4.059   0.421   2.962 -2.5352 -1.6113 -0.1101
 5118SOL     OW26812   0.890   1.577   6.067 -0.5773 -0.1208  0.3417
 5118SOL    HW126813   0.883   1.617   5.980 -0.4609  0.0641  0.4183
 5118SOL    HW226814   0.888   1.486   6.037 -0.0832 -0.1402  0.3702
 5119SOL     OW26815   1.373   3.746   0.371  0.0562 -0.0741  0.3110
 5119SOL    HW126816   1.355   3.817   0.309 -1.7119 -2.0834 -1.4545
 5119SOL    HW226817   1.319   3.675   0.338 -1.8139  1.4498  0.0526
 5120SOL     OW26818   4.375   2.473  10.853 -0.0904 -0.1421 -0.1534
 5120SOL    HW126819   4.317   2.528  10.800 -2.0770 -1.4212  0.7122
 5120SOL    HW226820   4.410   2.415  10.785  0.3281  2.9055 -2.5557
 5121SOL     OW26821   4.369   2.567   7.792  0.0820  0.0913 -0.0172
 5121SOL    HW126822   4.366   2.662   7.785  1.4836  0.2120  0.9491
 5121SOL    HW226823   4.348   2.552   7.700  1.8190  0.7492 -0.5230
 5122SOL     OW26824   2.467   3.490   0.390 -0.5478 -0.4483 -0.0939
 5122SOL    HW126825   2.453   3.484   0.295 -0.4933  1.7565 -0.2521
 5122SOL    HW226826   2.379   3.486   0.428  0.3320 -0.0142  1.9704
 5123SOL     OW26827   2.600   0.709   0.984  0.7488 -0.1795  0.1921
 5123SOL    HW126828   2.607   0.782   0.923  0.3508 -0.7216 -0.5007
 5123SOL    HW226829   2.560   0.640   0.931 -0.2043  0.6931 -0.2373
 5124SOL     OW26830   3.346   3.394   5.887 -0.0336 -0.5444 -0.1192
 5124SOL    HW126831   3.408   3.468   5.886 -1.3760  0.5849  1.1006
 5124SOL    HW226832   3.300   3.404   5.970  0.5405  0.4456  0.0818
 5125SOL     OW26833   3.280   2.645   7.124 -0.3065  0.1484  0.0964
 5125SOL    HW126834   3.284   2.697   7.043 -1.3547  0.5912  0.3283
 5125SOL    HW226835   3.200   2.594   7.109 -0.8606  1.8758 -2.7332
 5126SOL     OW26836   2.637   3.865   3.264 -0.6478 -0.1831  0.5811
 5126SOL    HW126837   2.661   3.835   3.177  0.1409 -0.1354  0.7840
 5126SOL    HW226838   2.585   3.790   3.292 -1.4683  0.7500  1.5653
 5127SOL     OW26839   0.594   2.839  15.278 -0.4293  0.8548  0.2213
 5127SOL    HW126840   0.610   2.933  15.289 -1.5157  1.0169  0.4283
 5127SOL    HW226841   0.580   2.803  15.366  0.2115 -1.1287 -0.4898
 5128SOL     OW26842   4.548   3.695   0.028  0.3977 -0.3591 -0.4721
 5128SOL    HW126843   4.636   3.728   0.009  0.4126  0.5824  1.2293
 5128SOL    HW226844   4.554   3.599   0.029 -0.1439 -0.3914  0.4922
 5129SOL     OW26845   1.581   1.067   1.157  0.7149  0.4239 -0.4190
 5129SOL    HW126846   1.585   0.974   1.135  2.7625  0.7480 -1.4252
 5129SOL    HW226847   1.583   1.062   1.252  1.6450 -2.6386 -0.6243
 5130SOL     OW26848   2.439   1.974   6.979 -0.5965 -0.0152  0.2298
 5130SOL    HW126849   2.383   1.921   6.922  0.1064 -0.7645  0.2324
 5130SOL    HW226850   2.519   1.979   6.927  0.3936 -0.5370  1.7168
 5131SOL     OW26851   2.582   1.951   4.216 -0.0070 -1.0626  0.0620
 5131SOL    HW126852   2.531   2.029   4.240  2.5884  1.6944 -3.2789
 5131SOL    HW226853   2.664   2.000   4.227 -0.0573 -0.7740 -0.7926
 5132SOL     OW26854   3.603   2.151   8.218  0.1118  0.3948 -0.0650
 5132SOL    HW126855   3.540   2.222   8.208  1.3067  1.5750  0.8741
 5132SOL    HW226856   3.543   2.083   8.249  0.1733  1.3727  2.1760
 5133SOL     OW26857   4.246   0.898   6.525  0.1675  0.3741  0.1656
 5133SOL    HW126858   4.323   0.844   6.509  0.1390  0.5997 -0.7455
 5133SOL    HW226859   4.183   0.883   6.454  0.0555 -2.2705  0.8469
 5134SOL     OW26860   0.711   1.698   5.787 -0.0406  0.4317 -0.0645
 5134SOL    HW126861   0.691   1.605   5.775 -0.8156  0.3982  1.5422
 5134SOL    HW226862   0.801   1.706   5.755  0.1076  1.4446  0.5975
 5135SOL     OW26863   4.650   1.660   6.467  0.2171  0.2465  0.3292
 5135SOL    HW126864   0.020   1.667   6.444 -0.4110 -0.1361 -2.2476
 5135SOL    HW226865   4.654   1.642   6.561 -0.7422 -1.2071  0.0999
 5136SOL     OW26866   3.331   3.887   6.544 -0.0808  0.1774  0.0832
 5136SOL    HW126867   3.318   3.937   6.464 -3.3670 -1.9017 -0.6663
 5136SOL    HW226868   3.349   3.954   6.611  0.6102  0.5711 -0.4983
 5137SOL     OW26869   4.640   3.950   6.059 -0.4544  0.1361 -0.2692
 5137SOL    HW126870   4.611   3.898   6.135 -0.3108 -0.3186 -0.5234
 5137SOL    HW226871   0.010   3.926   6.059 -0.5491 -0.2011 -2.9377
 5138SOL     OW26872   1.318   3.180  15.068 -0.9380 -0.3437  0.2523
 5138SOL    HW126873   1.395   3.232  15.048 -1.5416  0.1239 -0.8551
 5138SOL    HW226874   1.288   3.237  15.139 -0.3567 -1.6429  1.5409
 5139SOL     OW26875   1.996   3.071   2.484  0.3627  0.3925  0.2077
 5139SOL    HW126876   2.083   3.091   2.516  0.3848 -0.6367  0.7963
 5139SOL    HW226877   2.024   2.982   2.461 -0.5266 -0.1787  1.3470
 5140SOL     OW26878   0.351   0.217  13.088  0.2795  0.1153 -0.0787
 5140SOL    HW126879   0.282   0.170  13.042 -0.1793  0.4746  0.2322
 5140SOL    HW226880   0.310   0.303  13.082 -0.6475 -0.3682 -0.6815
 5141SOL     OW26881   3.973   1.475  11.014 -0.0221  0.4354 -0.2338
 5141SOL    HW126882   3.936   1.409  11.073  4.5472 -1.0886  0.8720
 5141SOL    HW226883   4.012   1.528  11.084  1.7017 -2.8197  1.2527
 5142SOL     OW26884   0.654   4.230  14.649 -0.0510  0.0299  0.5355
 5142SOL    HW126885   0.706   4.299  14.689 -1.2930  1.6135 -0.5832
 5142SOL    HW226886   0.590   4.225  14.721 -0.0106 -0.9748  0.5042
 5143SOL     OW26887   0.380   3.000  16.048  0.1580  0.0158  0.2378
 5143SOL    HW126888   0.451   2.943  16.021  0.4933  1.1575 -1.2933
 5143SOL    HW226889   0.409   3.031  16.134 -0.0908  1.9850 -0.3901
 5144SOL     OW26890   2.372   0.521   5.287 -0.3342 -0.2547  0.3039
 5144SOL    HW126891   2.385   0.582   5.214  0.9858 -1.8337 -0.7896
 5144SOL    HW226892   2.414   0.563   5.362  1.7649 -1.4836 -0.1758
 5145SOL     OW26893   3.880   1.625   6.347  0.4357  0.2596  0.0540
 5145SOL    HW126894   3.815   1.659   6.409 -1.2701 -1.8060 -0.6052
 5145SOL    HW226895   3.920   1.702   6.307 -0.2323  1.1880  1.1279
 5146SOL     OW26896   4.149   3.079  10.449 -0.3043  0.0089 -0.0661
 5146SOL    HW126897   4.090   3.029  10.505  0.9785 -0.6925  0.6870
 5146SOL    HW226898   4.155   3.160  10.501 -0.1196 -0.7056  1.0348
 5147SOL     OW26899   0.961   2.638  11.862 -0.3983 -0.8010  0.3781
 5147SOL    HW126900   0.948   2.729  11.836 -1.2611 -1.2534 -0.7720
 5147SOL    HW226901   0.958   2.582  11.784  2.6439  1.8917 -1.6882
 5148SOL     OW26902   2.895   2.806   7.504  0.9053 -0.2220 -0.4191
 5148SOL    HW126903   2.941   2.861   7.567  2.2931  0.3318 -1.9088
 5148SOL    HW226904   2.956   2.798   7.431  1.5277  1.7063 -0.1189
 5149SOL     OW26905   2.130   2.584   2.091 -0.6037 -0.3935  0.0532
 5149SOL    HW126906   2.123   2.677   2.066 -0.5243 -0.7108 -1.1774
 5149SOL    HW226907   2.070   2.547   2.025  1.1541 -2.1322 -0.5589
 5150SOL     OW26908   4.467   3.694  10.101 -0.1552  0.6558  1.0590
 5150SOL    HW126909   4.463   3.646  10.018 -0.7311 -1.8615  2.5455
 5150SOL    HW226910   4.381   3.735  10.111  1.1112  3.5159  0.0860
 5151SOL     OW26911   2.014   2.369   8.287 -0.1024  0.2730  0.8050
 5151SOL    HW126912   2.008   2.387   8.381  0.9755  0.1510  0.8989
 5151SOL    HW226913   2.107   2.346   8.280 -0.6091 -1.4261 -0.2442
 5152SOL     OW26914   0.136   4.073  16.672 -0.7393 -0.6103  0.1800
 5152SOL    HW126915   0.199   4.013  16.632  0.6353  0.0665  1.3079
 5152SOL    HW226916   0.180   4.095  16.754  0.1717  1.6886 -0.8955
 5153SOL     OW26917   2.991   0.753   5.994  0.2933 -0.8750 -0.9517
 5153SOL    HW126918   2.951   0.691   5.934  0.4716 -0.2278 -1.7266
 5153SOL    HW226919   3.083   0.732   5.978  1.3791  1.2687  2.4801
 5154SOL     OW26920   1.811   1.278   6.072  0.6279  0.1851 -0.1568
 5154SOL    HW126921   1.761   1.321   6.141  2.8750  2.4308  0.0581
 5154SOL    HW226922   1.871   1.349   6.049  0.4114  0.9866  1.7268
 5155SOL     OW26923   2.595   1.219   3.431 -0.0357 -0.0979 -0.1012
 5155SOL    HW126924   2.572   1.230   3.523  0.4458  0.1877 -0.0149
 5155SOL    HW226925   2.542   1.288   3.391 -1.4918 -0.2491  1.5474
 5156SOL     OW26926   4.190   4.508  13.607 -0.1606  0.1458  0.1313
 5156SOL    HW126927   4.181   4.421  13.570  1.1343 -0.1134  0.4277
 5156SOL    HW226928   4.138   4.505  13.687 -1.6145 -0.3801 -0.8331
 5157SOL     OW26929   4.646   0.414   6.661  0.5303 -0.3707 -0.0204
 5157SOL    HW126930   4.559   0.413   6.700  0.3228  0.4170 -0.4696
 5157SOL    HW226931   4.690   0.458   6.733  0.0298 -1.0982  0.7304
 5158SOL     OW26932   2.518   1.545   2.003  0.1261  0.0403  0.3763
 5158SOL    HW126933   2.440   1.570   2.052  0.1435 -1.4058  1.1477
 5158SOL    HW226934   2.538   1.458   2.039  1.5731  0.6761  1.0970
 5159SOL     OW26935   2.054   4.115   8.784 -0.0010  0.0338  0.0982
 5159SOL    HW126936   2.085   4.062   8.710  0.0913  0.0628  0.1162
 5159SOL    HW226937   2.093   4.067   8.857 -2.7637  1.0628  2.2274
 5160SOL     OW26938   0.109   3.828   3.564  0.0089  0.3958  0.4149
 5160SOL    HW126939   0.101   3.787   3.477 -1.4864  2.1529 -0.2690
 5160SOL    HW226940   0.122   3.920   3.540  0.9830  0.4588  1.1892
 5161SOL     OW26941   3.381   4.154   0.812  0.2281 -0.1751 -0.2187
 5161SOL    HW126942   3.390   4.248   0.793  0.6055  0.2911  2.2070
 5161SOL    HW226943   3.462   4.149   0.864  1.3101  1.4380 -1.7494
 5162SOL     OW26944   1.678   0.693   1.779  0.1096  0.4314 -0.6603
 5162SOL    HW126945   1.743   0.728   1.839  1.1216  0.4934 -1.7800
 5162SOL    HW226946   1.657   0.775   1.734 -0.8320  1.1588  1.0935
 5163SOL     OW26947   0.835   3.287   0.905  0.3377  0.1437 -0.0053
 5163SOL    HW126948   0.827   3.360   0.967  2.1283  0.2086  0.1502
 5163SOL    HW226949   0.748   3.251   0.924  0.1314  0.6186 -0.0467
 5164SOL     OW26950   4.537   1.100   2.433 -0.1410  0.2725 -0.2945
 5164SOL    HW126951   4.456   1.142   2.404  1.0613  3.5801  1.1158
 5164SOL    HW226952   4.551   1.040   2.360 -2.2341  1.4355 -1.6368
 5165SOL     OW26953   1.584   1.585   6.642 -0.8241  0.6953 -0.0230
 5165SOL    HW126954   1.649   1.524   6.607 -0.0296  0.5156  1.7698
 5165SOL    HW226955   1.524   1.522   6.681 -0.6033  1.5266  1.6464
 5166SOL     OW26956   4.407   3.654   8.220  0.3247  0.3550  0.6734
 5166SOL    HW126957   4.353   3.595   8.272 -0.6749  2.0178  1.5349
 5166SOL    HW226958   4.476   3.678   8.282  0.7131 -3.3382  1.6687
 5167SOL     OW26959   4.636   2.974  14.353 -0.0802  0.4560 -0.4200
 5167SOL    HW126960   4.563   2.974  14.415 -0.5903  0.1621 -1.0186
 5167SOL    HW226961   4.600   3.028  14.284 -2.9777  0.8957  1.4309
 5168SOL     OW26962   4.643   1.066   8.164 -0.2243 -0.3424 -0.0259
 5168SOL    HW126963   4.611   1.061   8.254 -0.0435  2.7342  0.2296
 5168SOL    HW226964   0.015   1.079   8.173 -0.6227  2.4063  0.1483
 5169SOL     OW26965   1.488   0.531   5.587  0.7019 -0.0184  0.4050
 5169SOL    HW126966   1.412   0.588   5.596  0.7415  0.2981 -1.1292
 5169SOL    HW226967   1.465   0.445   5.622 -0.5417  0.1494  0.0126
 5170SOL     OW26968   3.008   2.445   4.732  0.1704  0.8969  0.1651
 5170SOL    HW126969   2.934   2.504   4.720  0.2267  0.8754 -0.2866
 5170SOL    HW226970   2.972   2.365   4.771  0.7472 -0.1345 -1.3785
 5171SOL     OW26971   1.890   0.265   9.922  0.1328 -0.3912  0.2825
 5171SOL    HW126972   1.900   0.315  10.003  0.7418 -3.5716  2.1779
 5171SOL    HW226973   1.904   0.338   9.862  1.1122 -0.9834 -0.2135
 5172SOL     OW26974   3.727   4.481   3.825  0.6144  0.3801  0.4213
 5172SOL    HW126975   3.633   4.466   3.816  0.5139  1.3531 -0.0745
 5172SOL    HW226976   3.755   4.419   3.757  1.0939  1.3051 -0.2288
 5173SOL     OW26977   4.169   0.933  12.906  0.4730  0.1581  0.3363
 5173SOL    HW126978   4.157   0.966  12.817  0.8254  1.5516  0.8090
 5173SOL    HW226979   4.119   0.996  12.957 -2.0286 -2.5681  1.2656
 5174SOL     OW26980   2.695   0.987   9.578  0.1843  0.1816 -0.5380
 5174SOL    HW126981   2.617   1.006   9.631  2.2157  0.5679  2.2650
 5174SOL    HW226982   2.718   0.901   9.614  1.1233  0.7930  0.3043
 5175SOL     OW26983   2.189   4.523   6.869  0.2404 -0.0319 -0.1304
 5175SOL    HW126984   2.129   4.588   6.833  0.6303  0.9982  1.0795
 5175SOL    HW226985   2.147   4.495   6.951  1.0890  0.6306  0.5374
 5176SOL     OW26986   1.063   3.153   2.264  0.7471  0.3558 -0.5142
 5176SOL    HW126987   1.149   3.151   2.221  0.9100  0.5401 -0.1983
 5176SOL    HW226988   1.070   3.105   2.346 -0.7851 -0.9133 -1.1402
 5177SOL     OW26989   1.982   4.141   0.704 -0.3361 -0.0960  0.2952
 5177SOL    HW126990   1.924   4.093   0.765 -0.7104  1.1310  0.8998
 5177SOL    HW226991   1.953   4.227   0.732 -0.7353  0.5811 -2.2030
 5178SOL     OW26992   4.347   2.343   4.820 -0.1016 -0.3194  0.3668
 5178SOL    HW126993   4.271   2.346   4.761 -1.1627  2.7178  1.8687
 5178SOL    HW226994   4.347   2.429   4.863  2.2431 -0.7085  1.1488
 5179SOL     OW26995   0.040   2.347   7.511 -0.4913 -0.2245  0.1921
 5179SOL    HW126996   4.679   2.315   7.544 -0.9394  0.5088 -0.2093
 5179SOL    HW226997   0.020   2.366   7.419  0.2625  0.0577  0.0823
 5180SOL     OW26998   1.522   0.639  16.020  0.2765  0.1197  0.0109
 5180SOL    HW126999   1.485   0.558  16.057 -3.5545  2.3156  0.8964
 5180SOL    HW227000   1.466   0.641  15.942  0.1656 -0.1444  0.0812
 5181SOL     OW27001   3.193   0.433   5.580  0.1153 -0.0124 -0.0898
 5181SOL    HW127002   3.258   0.501   5.595  0.3021 -0.6498  1.9003
 5181SOL    HW227003   3.233   0.387   5.506  1.9563 -0.4034  1.1661
 5182SOL     OW27004   0.094   2.205   5.524  0.3052  0.0917  0.1989
 5182SOL    HW127005   0.046   2.284   5.499 -1.9964 -1.7202 -1.1125
 5182SOL    HW227006   0.073   2.189   5.617 -0.8640  1.7665  0.2255
 5183SOL     OW27007   3.504   2.507   9.545 -0.3511  0.0333 -0.5617
 5183SOL    HW127008   3.441   2.445   9.508  0.6364 -1.3226  0.0445
 5183SOL    HW227009   3.473   2.518   9.635  1.5379 -1.6876  0.3015
 5184SOL     OW27010   3.124   4.519   4.525  0.2442  0.2218 -0.7079
 5184SOL    HW127011   3.093   4.570   4.449 -0.4489  2.4500  1.0773
 5184SOL    HW227012   3.218   4.534   4.514  0.2601  0.9096  0.3930
 5185SOL     OW27013   2.734   4.382   4.417  0.3984 -0.3296  0.1152
 5185SOL    HW127014   2.760   4.441   4.488  0.5052  1.5965 -1.5371
 5185SOL    HW227015   2.735   4.297   4.461  0.5810 -0.2614  0.2439
 5186SOL     OW27016   2.315   3.178  10.041  0.1579 -0.5482 -0.4918
 5186SOL    HW127017   2.389   3.174  10.102 -0.1598 -0.5417 -0.1124
 5186SOL    HW227018   2.250   3.231  10.086 -0.2039 -1.0246 -0.4626
 5187SOL     OW27019   2.898   3.746  12.812 -0.4135 -0.1903  0.1533
 5187SOL    HW127020   2.907   3.830  12.857  1.1460 -0.9061  1.1587
 5187SOL    HW227021   2.980   3.699  12.826  0.3378  0.5897 -1.5658
 5188SOL     OW27022   4.618   1.235   3.081 -0.5834 -0.4118 -0.7473
 5188SOL    HW127023   4.555   1.166   3.103 -0.3759 -0.3356  0.0806
 5188SOL    HW227024   4.587   1.255   2.993  0.8557 -0.2925 -1.2356
 5189SOL     OW27025   0.078   2.485   9.418 -0.3215  0.0435 -0.3704
 5189SOL    HW127026   0.172   2.498   9.433 -0.3587  2.1283 -1.9077
 5189SOL    HW227027   0.060   2.559   9.361  0.1199  1.8809  1.8553
 5190SOL     OW27028   2.483   0.506   4.018  0.1202 -0.6467  0.3598
 5190SOL    HW127029   2.426   0.470   3.950 -1.4446 -0.2995  1.4856
 5190SOL    HW227030   2.490   0.600   4.004 -1.0860 -0.0028  3.9204
 5191SOL     OW27031   2.802   0.986   3.926  0.1446  0.4986  0.1005
 5191SOL    HW127032   2.783   0.919   3.991 -3.4868  1.1083 -0.3541
 5191SOL    HW227033   2.744   1.059   3.949 -0.7832 -0.7074  1.5393
 5192SOL     OW27034   0.148   2.097  17.141 -0.2557 -0.0278 -0.1254
 5192SOL    HW127035   0.088   2.134  17.205  0.6422  1.2385 -0.0126
 5192SOL    HW227036   0.100   2.077  17.060  1.1882 -1.7098 -0.5628
 5193SOL     OW27037   2.457   1.015   9.707 -0.1266  0.3443  0.3088
 5193SOL    HW127038   2.403   0.983   9.778  1.5012  0.0837  1.4102
 5193SOL    HW227039   2.417   1.102   9.704 -1.7949 -0.4235  0.4023
 5194SOL     OW27040   1.985   0.350   1.859  0.6384 -0.2767 -0.1077
 5194SOL    HW127041   1.894   0.373   1.875 -0.0065 -2.1036 -1.1887
 5194SOL    HW227042   2.002   0.269   1.907  1.4312  1.3929  2.4140
 5195SOL     OW27043   0.387   3.604   9.861  0.0290 -0.1507  1.1072
 5195SOL    HW127044   0.464   3.562   9.899  1.3770  1.2839 -0.0488
 5195SOL    HW227045   0.430   3.684   9.831 -0.2040 -0.0261  1.1031
 5196SOL     OW27046   2.691   2.930   5.952  0.0830 -0.0519 -0.4708
 5196SOL    HW127047   2.732   2.843   5.951 -0.2045 -0.1986  0.9058
 5196SOL    HW227048   2.643   2.925   6.034 -0.3991 -1.6731 -0.8573
 5197SOL     OW27049   1.461   3.333   2.870 -0.1725 -0.1964  0.1906
 5197SOL    HW127050   1.422   3.415   2.843  0.7692  1.0328  2.6195
 5197SOL    HW227051   1.458   3.349   2.964  1.3890 -0.5632  0.3065
 5198SOL     OW27052   2.028   0.640   3.900 -0.5764 -0.6462 -0.2650
 5198SOL    HW127053   2.097   0.691   3.859 -1.1153 -0.5175 -1.0219
 5198SOL    HW227054   2.046   0.556   3.857 -2.7359 -1.6010  0.6478
 5199SOL     OW27055   4.580   4.325   2.510  0.6433 -0.1563  0.0361
 5199SOL    HW127056   4.595   4.379   2.433  0.0011 -1.8885 -1.3183
 5199SOL    HW227057   4.656   4.333   2.566  0.6721 -1.1382  0.1393
 5200SOL     OW27058   2.820   3.157   7.452  0.1002  0.7502 -0.6040
 5200SOL    HW127059   2.912   3.149   7.475  0.3295  0.5138 -1.5884
 5200SOL    HW227060   2.805   3.251   7.457  0.9335  0.9747 -2.4251
 5201SOL     OW27061   1.455   4.076   8.858  0.0791 -0.5173  0.0332
 5201SOL    HW127062   1.414   4.088   8.773  0.5730 -0.7684 -0.2370
 5201SOL    HW227063   1.539   4.117   8.834 -1.0542  2.5367  1.1899
 5202SOL     OW27064   0.135   2.178   3.060 -0.7674 -0.1908  0.2158
 5202SOL    HW127065   0.067   2.125   3.021 -1.4020  2.1458 -1.8428
 5202SOL    HW227066   0.140   2.246   2.993  3.7431 -1.5133 -0.7960
 5203SOL     OW27067   3.489   0.826  13.274 -0.3581 -0.4812 -0.1092
 5203SOL    HW127068   3.488   0.881  13.352 -0.7478  2.3538 -2.0918
 5203SOL    HW227069   3.455   0.741  13.301 -1.0143 -0.3193 -0.4412
 5204SOL     OW27070   0.118   0.987  10.430  0.3049  0.0256  0.4223
 5204SOL    HW127071   0.101   1.010  10.339  0.7312  1.1093  0.6226
 5204SOL    HW227072   0.166   1.065  10.457  0.4091 -0.6703  2.2791
 5205SOL     OW27073   3.296   3.575   2.975  0.0056 -0.3837  0.2632
 5205SOL    HW127074   3.332   3.570   3.064  1.4904  0.3026 -0.2998
 5205SOL    HW227075   3.313   3.487   2.943 -0.0055 -2.1782  5.2567
 5206SOL     OW27076   0.535   0.102   8.396 -0.0689  0.0922  0.2749
 5206SOL    HW127077   0.601   0.053   8.346  0.2683  0.6704  0.1558
 5206SOL    HW227078   0.576   0.106   8.482  3.6308 -2.9909 -1.2987
 5207SOL     OW27079   2.146   2.654   7.294 -0.0904 -0.0210 -0.0648
 5207SOL    HW127080   2.149   2.726   7.231 -3.1030  1.3418  1.3408
 5207SOL    HW227081   2.178   2.586   7.235  1.6360  0.3938  0.4032
 5208SOL     OW27082   0.765   1.444   7.556 -0.0053  0.5232 -0.1921
 5208SOL    HW127083   0.815   1.448   7.638 -2.7836 -1.0742  1.5855
 5208SOL    HW227084   0.713   1.523   7.544  1.0565  1.2189 -0.1750
 5209SOL     OW27085   3.851   1.879   7.122 -0.3339  0.7155 -0.1191
 5209SOL    HW127086   3.777   1.890   7.061  0.7207  0.1377 -1.4934
 5209SOL    HW227087   3.924   1.903   7.066 -0.2442  1.5765  0.3510
 5210SOL     OW27088   1.692   3.600   7.320  0.3858 -0.7640 -0.4044
 5210SOL    HW127089   1.614   3.573   7.272  1.8367  1.1693 -3.8004
 5210SOL    HW227090   1.657   3.674   7.371  2.4971 -0.4268  0.5637
 5211SOL     OW27091   0.562   3.942   8.530 -0.2839 -0.5871 -0.1782
 5211SOL    HW127092   0.512   3.962   8.609  2.5724  0.5288  1.3292
 5211SOL    HW227093   0.652   3.968   8.550  0.0238 -1.0797 -0.9029
 5212SOL     OW27094   2.902   4.660  13.467 -0.1913 -0.3209  0.0807
 5212SOL    HW127095   2.902   4.612  13.550  0.3447  0.5881  0.6010
 5212SOL    HW227096   2.813   4.694  13.465 -0.3217 -0.6304  0.7156
 5213SOL     OW27097   0.834   4.545  16.185  0.0987  0.2306 -0.3033
 5213SOL    HW127098   0.756   4.588  16.150 -0.0747 -0.2290 -0.4761
 5213SOL    HW227099   0.830   4.456  16.151 -1.6873  0.5809 -0.9799
 5214SOL     OW27100   0.762   2.791   8.363 -0.0092  0.1352  0.2117
 5214SOL    HW127101   0.743   2.702   8.333  0.8664  0.0237 -0.0136
 5214SOL    HW227102   0.683   2.835   8.330  0.9421 -1.0394 -3.6649
 5215SOL     OW27103   4.465   0.906  13.008  0.1508 -0.5590  0.7379
 5215SOL    HW127104   4.474   0.811  13.006 -0.4386 -0.6212  0.8770
 5215SOL    HW227105   4.371   0.908  12.990  0.3040  2.9244  0.2640
 5216SOL     OW27106   3.750   0.825   1.294 -0.2080 -0.1453 -0.2800
 5216SOL    HW127107   3.728   0.889   1.226 -2.9915  2.1274  2.8026
 5216SOL    HW227108   3.684   0.760   1.273  1.3810 -2.2669  1.2654
 5217SOL     OW27109   0.958   3.010   8.348 -0.1015 -0.3960  0.1054
 5217SOL    HW127110   0.879   2.956   8.339 -1.1354  1.1805 -0.1306
 5217SOL    HW227111   0.961   3.062   8.268 -0.2055  0.2215  0.5075
 5218SOL     OW27112   4.310   4.286   8.477  0.4080  0.4775  0.3473
 5218SOL    HW127113   4.346   4.371   8.451  2.8836 -0.0884  1.9496
 5218SOL    HW227114   4.338   4.238   8.399  2.1238 -0.7457  1.7145
 5219SOL     OW27115   2.946   2.371  10.976 -0.3861  0.1321  0.1856
 5219SOL    HW127116   2.897   2.321  11.040 -3.7671  0.6482 -1.9940
 5219SOL    HW227117   2.869   2.425  10.960 -1.3142 -0.6699  1.9820
 5220SOL     OW27118   4.269   1.669   7.986 -0.1324  0.3003 -0.5982
 5220SOL    HW127119   4.314   1.656   8.069 -1.0876 -2.3317 -0.5026
 5220SOL    HW227120   4.302   1.594   7.936 -0.2358 -1.7158  2.3305
 5221SOL     OW27121   4.293   0.271   7.523  0.0552  0.2954  0.0851
 5221SOL    HW127122   4.312   0.213   7.597 -1.4572  0.6853  0.7908
 5221SOL    HW227123   4.359   0.254   7.457 -0.5865 -1.8819 -0.0062
 5222SOL     OW27124   0.776   2.079   0.862  0.4888  0.1542 -0.0699
 5222SOL    HW127125   0.695   2.131   0.859  0.0345 -0.5168  0.5407
 5222SOL    HW227126   0.744   1.989   0.859  0.6763  0.0671  0.5365
 5223SOL     OW27127   2.948   2.071   7.071  0.7095  0.1278  0.4196
 5223SOL    HW127128   2.858   2.104   7.074 -0.2715 -2.1647 -3.4159
 5223SOL    HW227129   2.983   2.124   7.143 -3.1517  1.0547  1.6298
 5224SOL     OW27130   4.577   2.674  14.205  0.1932 -0.2937  0.6413
 5224SOL    HW127131   4.549   2.652  14.117 -2.3348 -0.7759  1.5634
 5224SOL    HW227132   4.671   2.674  14.188 -0.0259  0.2362 -0.5599
 5225SOL     OW27133   3.871   2.537  12.648 -0.4238 -0.0933  0.0509
 5225SOL    HW127134   3.883   2.557  12.556 -1.4817 -0.6900 -0.2074
 5225SOL    HW227135   3.960   2.528  12.682  0.8752  4.4278 -2.0790
 5226SOL     OW27136   1.254   2.100   8.111  0.0369 -0.0042  0.0603
 5226SOL    HW127137   1.305   2.084   8.191  1.3767 -0.7667 -0.9489
 5226SOL    HW227138   1.317   2.070   8.046 -1.0249 -1.1540 -0.4219
 5227SOL     OW27139   2.131   0.580  15.244 -0.2219  0.1232  0.1836
 5227SOL    HW127140   2.200   0.521  15.214  1.4083  1.8065  0.6993
 5227SOL    HW227141   2.116   0.557  15.336 -0.6995 -2.8616 -0.6283
 5228SOL     OW27142   1.467   3.888   3.753 -0.1313 -0.1488 -0.3399
 5228SOL    HW127143   1.476   3.839   3.671 -1.6281 -1.2870  0.1737
 5228SOL    HW227144   1.391   3.939   3.726  1.8275  2.0765 -1.6771
 5229SOL     OW27145   1.048   0.161   8.814  0.0298  0.3388  0.3739
 5229SOL    HW127146   0.986   0.106   8.765  0.3585  0.4593 -0.1855
 5229SOL    HW227147   1.000   0.163   8.897 -0.5566 -2.7353  0.1193
 5230SOL     OW27148   0.222   1.010   4.522  0.4421 -0.3944  0.4726
 5230SOL    HW127149   0.221   1.080   4.457  0.4204  0.0015  0.9008
 5230SOL    HW227150   0.136   1.035   4.554 -0.1304 -0.4680 -0.9962
 5231SOL     OW27151   0.355   1.043   2.081 -0.1924 -0.3997 -0.0109
 5231SOL    HW127152   0.300   1.115   2.110  0.6977  0.1565  0.3040
 5231SOL    HW227153   0.287   1.000   2.030 -1.7830  0.6480  1.2438
 5232SOL     OW27154   0.245   1.759   8.259  0.3631  0.1196 -0.4448
 5232SOL    HW127155   0.318   1.770   8.199 -0.2836  0.4399 -1.1821
 5232SOL    HW227156   0.258   1.668   8.284 -1.4784  0.8477  3.1796
 5233SOL     OW27157   1.555   4.440   6.734  0.1136  0.5248 -0.0065
 5233SOL    HW127158   1.516   4.512   6.783  1.9063  1.3067  0.2495
 5233SOL    HW227159   1.649   4.450   6.750  0.3589 -1.7331  0.0080
 5234SOL     OW27160   2.903   1.376   0.164 -0.5246  0.8184  0.4079
 5234SOL    HW127161   2.995   1.370   0.189 -0.2994 -2.0123 -1.1551
 5234SOL    HW227162   2.884   1.283   0.154  0.0957  0.8169 -0.7856
 5235SOL     OW27163   2.157   0.907   3.517 -0.1509 -0.1185 -0.5693
 5235SOL    HW127164   2.155   0.916   3.612  2.9723  1.6082 -0.6565
 5235SOL    HW227165   2.159   0.997   3.482  0.3145  0.2250  0.3445
 5236SOL     OW27166   2.303   3.721  17.396 -0.0792 -0.1846  0.3382
 5236SOL    HW127167   2.307   3.750  17.487 -1.5657  1.4433 -0.1137
 5236SOL    HW227168   2.246   3.783  17.350 -0.1572 -0.3060  0.2728
 5237SOL     OW27169   1.282   0.618   3.008 -0.0573  0.4483 -0.3373
 5237SOL    HW127170   1.232   0.643   3.086 -2.8205  1.8021 -2.5322
 5237SOL    HW227171   1.211   0.576   2.961 -0.4446  0.0979  0.5561
 5238SOL     OW27172   0.798   3.398   4.915 -0.4667  0.6731 -1.0479
 5238SOL    HW127173   0.808   3.435   5.003 -2.3247  0.2560 -0.6590
 5238SOL    HW227174   0.754   3.315   4.935 -1.9296  1.4146 -1.1332
 5239SOL     OW27175   1.430   1.810   4.731 -0.1487  0.2831  0.0333
 5239SOL    HW127176   1.497   1.742   4.740  0.3790  0.9551  1.3035
 5239SOL    HW227177   1.466   1.869   4.798 -1.0769 -0.4783  1.1866
 5240SOL     OW27178   2.317   0.514   8.800 -0.2743  0.2102  0.1100
 5240SOL    HW127179   2.333   0.423   8.775  1.1351  0.1527  1.2259
 5240SOL    HW227180   2.397   0.561   8.776  0.6809 -2.5019 -1.9477
 5241SOL     OW27181   3.476   2.359   7.841 -0.2734  0.4998 -0.1313
 5241SOL    HW127182   3.502   2.446   7.874  0.4402  0.3975 -0.4045
 5241SOL    HW227183   3.564   2.322   7.833 -1.2884 -1.5729 -1.3799
 5242SOL     OW27184   3.633   4.671   7.328 -0.0965 -0.3755 -0.1260
 5242SOL    HW127185   3.658   4.582   7.305 -1.0831 -0.6873  0.0383
 5242SOL    HW227186   3.602   4.715   7.248  0.0182 -0.3507 -0.1575
 5243SOL     OW27187   0.885   4.566   6.794 -0.1790 -0.5322 -0.1080
 5243SOL    HW127188   0.951   4.567   6.864  0.2052 -1.7593 -0.4688
 5243SOL    HW227189   0.931   4.516   6.726  1.3526 -1.0093  1.2738
 5244SOL     OW27190   1.103   3.634   3.540  0.2254 -0.0679  0.4660
 5244SOL    HW127191   1.052   3.672   3.611 -0.5648 -0.4569  0.1062
 5244SOL    HW227192   1.184   3.682   3.524 -0.3967  0.4625 -1.0703
 5245SOL     OW27193   1.317   2.395  16.574  0.5107  0.1884  0.3353
 5245SOL    HW127194   1.247   2.460  16.571  0.1900 -0.2734 -2.8181
 5245SOL    HW227195   1.290   2.323  16.517 -0.1329 -1.1342  2.3110
 5246SOL     OW27196   0.526   4.583  12.916  0.4318 -0.0582 -0.4347
 5246SOL    HW127197   0.464   4.596  12.988  0.3392  0.0317 -0.5316
 5246SOL    HW227198   0.574   4.666  12.922  0.5244  0.0028 -2.2087
 5247SOL     OW27199   3.713   0.491   6.444 -0.0008 -0.1911  0.2666
 5247SOL    HW127200   3.673   0.482   6.357  0.7262 -0.0046 -0.0937
 5247SOL    HW227201   3.656   0.560   6.476  1.3558  0.3590  1.4978
 5248SOL     OW27202   0.814   3.712   4.628 -0.0026  0.2359 -0.1097
 5248SOL    HW127203   0.783   3.718   4.538 -1.3979  0.7870  0.3985
 5248SOL    HW227204   0.732   3.702   4.676  0.9212 -0.4585  1.3468
 5249SOL     OW27205   2.472   3.462  16.002  0.1267  0.6548  0.4516
 5249SOL    HW127206   2.385   3.491  16.030 -0.7189 -0.2024 -1.2970
 5249SOL    HW227207   2.509   3.532  15.949 -0.1075 -0.0370 -0.6174
 5250SOL     OW27208   1.589   2.225   6.630  0.1655  0.6384  0.2730
 5250SOL    HW127209   1.608   2.314   6.599 -2.5290  0.2853 -2.3595
 5250SOL    HW227210   1.529   2.196   6.562  1.1730 -0.7789 -0.0091
 5251SOL     OW27211   3.744   3.352  16.425 -0.3090 -0.1782  0.3428
 5251SOL    HW127212   3.718   3.406  16.499  1.5682  1.6104 -0.3140
 5251SOL    HW227213   3.822   3.400  16.396  0.5158 -0.3884  2.1931
 5252SOL     OW27214   2.092   2.288   7.278  0.0148  0.2513  0.1156
 5252SOL    HW127215   2.170   2.338   7.255  1.0531 -1.1509  0.6009
 5252SOL    HW227216   2.124   2.204   7.311 -0.9295  0.2673  1.0566
 5253SOL     OW27217   0.391   3.954  12.830  0.0367  0.3406  0.5081
 5253SOL    HW127218   0.311   4.005  12.816  0.0927  0.4210  0.4830
 5253SOL    HW227219   0.368   3.875  12.780  0.6606 -1.5248  3.1508
 5254SOL     OW27220   4.212   3.969   1.322  0.3366  0.2204  0.0539
 5254SOL    HW127221   4.145   4.038   1.326  0.0801 -0.0325  0.1307
 5254SOL    HW227222   4.168   3.902   1.374  1.8802 -1.2829 -0.6104
 5255SOL     OW27223   1.918   1.042   3.039 -0.4018  0.1335 -0.7572
 5255SOL    HW127224   1.839   1.015   2.991  0.1137  1.4493 -2.3418
 5255SOL    HW227225   1.962   0.959   3.055 -2.4864 -1.1557 -1.6792
 5256SOL     OW27226   3.672   4.377   8.138  0.2724 -0.6613 -0.2912
 5256SOL    HW127227   3.647   4.464   8.167  1.1981 -0.8400  1.1120
 5256SOL    HW227228   3.765   4.392   8.121  0.5032 -0.9907  0.6697
 5257SOL     OW27229   4.147   2.637  16.150  0.8362  0.3752  0.1424
 5257SOL    HW127230   4.058   2.620  16.180 -0.2432  1.2930 -2.5228
 5257SOL    HW227231   4.196   2.571  16.199 -1.5649 -2.0159 -0.7020
 5258SOL     OW27232   4.339   1.916  11.580 -0.4964 -0.1356 -0.3564
 5258SOL    HW127233   4.368   1.870  11.659  0.5098  1.0667 -0.0321
 5258SOL    HW227234   4.341   1.849  11.511 -0.0929  0.0731 -0.5489
 5259SOL     OW27235   2.849   3.339   1.025  0.1753 -0.7051 -0.3013
 5259SOL    HW127236   2.792   3.266   1.052 -1.6390  1.5481  1.9436
 5259SOL    HW227237   2.814   3.372   0.943 -0.6418 -1.0918 -0.1166
 5260SOL     OW27238   1.636   0.892   0.736  0.2155  0.1648  0.0589
 5260SOL    HW127239   1.594   0.874   0.653 -0.2168  0.5452  0.1939
 5260SOL    HW227240   1.678   0.808   0.757  0.2604  0.3318  0.6545
 5261SOL     OW27241   0.058   0.155   2.324 -0.7334  0.7602  0.0815
 5261SOL    HW127242   4.703   0.138   2.270 -1.2465 -0.3303  1.1748
 5261SOL    HW227243   0.100   0.235   2.292 -1.7576  2.1320  2.1713
 5262SOL     OW27244   2.944   0.521   5.594 -0.1129  0.4670  0.4778
 5262SOL    HW127245   2.966   0.544   5.504 -0.1244  0.8256  0.5662
 5262SOL    HW227246   3.032   0.497   5.622  0.4088  1.2780 -0.4674
 5263SOL     OW27247   3.310   0.030   5.073 -0.6005 -0.2200  0.0152
 5263SOL    HW127248   3.362   0.103   5.107 -3.9075  1.7671  0.9333
 5263SOL    HW227249   3.358   4.721   4.997  1.4892  1.5046  0.6375
 5264SOL     OW27250   4.692   1.688   7.912 -0.0423 -0.0385  0.0180
 5264SOL    HW127251   4.648   1.605   7.892  0.6181 -0.7564  1.5394
 5264SOL    HW227252   0.010   1.707   7.827  0.9960  0.8138  0.7027
 5265SOL     OW27253   4.198   3.322   4.195  0.0486 -0.6509  0.0735
 5265SOL    HW127254   4.231   3.324   4.285  1.7151 -1.3695 -0.5299
 5265SOL    HW227255   4.105   3.309   4.215 -0.3788  1.7047 -0.4265
 5266SOL     OW27256   1.677   2.662  11.504 -0.2635  0.3955 -0.3941
 5266SOL    HW127257   1.769   2.669  11.528 -0.3231  0.2496 -0.1267
 5266SOL    HW227258   1.680   2.576  11.464  1.5889 -0.2746  1.1986
 5267SOL     OW27259   0.806   2.202  15.120  0.0868 -0.5972  0.4117
 5267SOL    HW127260   0.873   2.250  15.071 -0.9779 -1.2706 -1.6940
 5267SOL    HW227261   0.732   2.211  15.060 -2.1247 -3.4092  2.7451
 5268SOL     OW27262   2.342   0.246   5.593 -0.2502  0.2713 -0.6058
 5268SOL    HW127263   2.275   0.211   5.651  0.0717  1.3369  0.4118
 5268SOL    HW227264   2.302   0.257   5.507 -1.8274  2.1009  0.3621
 5269SOL     OW27265   4.235   1.932   6.924 -0.0416 -0.0299  0.1851
 5269SOL    HW127266   4.199   2.005   6.874  1.9451 -0.0834 -1.3312
 5269SOL    HW227267   4.312   1.916   6.869  0.5028  1.7174  0.4365
 5270SOL     OW27268   4.038   0.449   2.630 -0.3071  0.1989 -0.5371
 5270SOL    HW127269   4.004   0.416   2.714  3.5679  0.6615  1.1917
 5270SOL    HW227270   4.037   0.366   2.582  0.3290  0.8056 -1.5777
 5271SOL     OW27271   1.744   0.635   5.497  0.7620  0.1420  0.5241
 5271SOL    HW127272   1.689   0.681   5.434  0.0301 -1.7496 -0.2317
 5271SOL    HW227273   1.687   0.613   5.571 -0.0580  1.6436  0.3208
 5272SOL     OW27274   2.631   1.701  17.070 -0.4785 -0.0131  0.2096
 5272SOL    HW127275   2.687   1.776  17.053  1.1042 -0.9801  1.1550
 5272SOL    HW227276   2.692   1.627  17.061 -1.1498 -0.3768 -1.2650
 5273SOL     OW27277   2.232   4.051   2.776 -0.0622 -0.1893 -0.1780
 5273SOL    HW127278   2.320   4.054   2.813 -0.2469 -1.2908  0.3373
 5273SOL    HW227279   2.231   4.144   2.750 -3.9573 -0.0093  0.6476
 5274SOL     OW27280   3.372   3.757   9.169  0.3672  0.0094 -0.2036
 5274SOL    HW127281   3.341   3.843   9.140  4.2251  0.6388 -2.4343
 5274SOL    HW227282   3.319   3.736   9.247  1.2643  1.5280  0.8305
 5275SOL     OW27283   0.528   3.152  10.565 -0.9230 -0.1614 -0.4039
 5275SOL    HW127284   0.588   3.202  10.620 -1.1776  1.1622 -1.3304
 5275SOL    HW227285   0.550   3.076  10.619 -0.9797  0.1169  0.0097
 5276SOL     OW27286   3.204   4.337   4.997 -0.3591  0.0807 -0.1060
 5276SOL    HW127287   3.195   4.337   5.092 -2.5921 -0.5020 -0.3272
 5276SOL    HW227288   3.113   4.361   4.980 -0.6146 -1.7814 -1.3931
 5277SOL     OW27289   2.703   3.315  17.110  0.3067  0.0481  0.0928
 5277SOL    HW127290   2.738   3.265  17.183  0.8497 -0.7166 -0.6920
 5277SOL    HW227291   2.613   3.332  17.140  0.5671  0.5516  0.5788
 5278SOL     OW27292   1.280   1.676   0.574 -0.1667  0.1736 -0.3934
 5278SOL    HW127293   1.288   1.723   0.657  0.7076  1.4529 -1.2115
 5278SOL    HW227294   1.202   1.711   0.531  0.5764 -0.7964 -2.5225
 5279SOL     OW27295   3.853   3.580   2.910 -0.3842 -0.3861 -0.3414
 5279SOL    HW127296   3.941   3.581   2.948 -0.4258 -1.5797 -0.2095
 5279SOL    HW227297   3.832   3.492   2.943 -0.8275  0.1354  0.7674
 5280SOL     OW27298   1.294   1.610   9.078 -0.4059  0.0878 -0.3155
 5280SOL    HW127299   1.386   1.634   9.070 -0.1037 -1.4047 -1.3850
 5280SOL    HW227300   1.292   1.566   9.163  3.3863 -2.1633 -1.3884
 5281SOL     OW27301   3.313   1.904   3.504 -0.2892  0.5143  0.0229
 5281SOL    HW127302   3.368   1.940   3.574  0.2617 -0.7450  0.2303
 5281SOL    HW227303   3.260   1.982   3.487 -0.9649 -0.1638 -0.9481
 5282SOL     OW27304   2.196   4.660  12.969 -0.1828  0.2170 -0.2308
 5282SOL    HW127305   2.247   4.582  12.947 -2.5134 -2.3354  3.3051
 5282SOL    HW227306   2.227   0.001  12.905 -0.0917  2.0413  1.6146
 5283SOL     OW27307   4.223   3.686  16.693  0.2809 -0.2842  0.7635
 5283SOL    HW127308   4.160   3.730  16.750  0.6402 -1.2096  1.8812
 5283SOL    HW227309   4.305   3.731  16.712  0.3854 -0.2222  0.1721
 5284SOL     OW27310   0.877   0.568  12.205  0.2715 -0.3652 -0.4597
 5284SOL    HW127311   0.890   0.648  12.257  0.0340  0.2133 -1.2826
 5284SOL    HW227312   0.795   0.591  12.160 -0.2855 -1.7535 -0.1402
 5285SOL     OW27313   1.458   3.049   0.448  0.2826  0.1701  0.1139
 5285SOL    HW127314   1.409   3.103   0.510 -0.2796  1.1507 -1.2142
 5285SOL    HW227315   1.543   3.093   0.456 -1.0346  2.7062  0.0696
 5286SOL     OW27316   3.619   2.967   2.461 -0.2035 -0.0562  0.2603
 5286SOL    HW127317   3.528   2.980   2.485 -0.0398  3.8865 -1.3113
 5286SOL    HW227318   3.631   3.051   2.417 -0.3703 -0.6056 -0.8342
 5287SOL     OW27319   0.829   2.765   2.821 -0.3108  0.9317  0.0521
 5287SOL    HW127320   0.831   2.795   2.912  1.8492 -1.5143  0.8406
 5287SOL    HW227321   0.793   2.677   2.832 -0.6416  0.5403 -4.1603
 5288SOL     OW27322   2.990   1.413   1.766  0.0042 -0.4723 -0.4365
 5288SOL    HW127323   2.999   1.508   1.759  1.4153 -0.6704 -1.3092
 5288SOL    HW227324   2.924   1.408   1.835  0.8373 -0.1846  0.3723
 5289SOL     OW27325   2.600   3.515   1.530 -0.7627 -0.7255 -0.3003
 5289SOL    HW127326   2.556   3.510   1.445  1.3094 -0.0270 -1.4173
 5289SOL    HW227327   2.588   3.609   1.546  0.7357 -0.4715 -0.5985
 5290SOL     OW27328   2.667   3.518   4.756  0.0775 -0.1823  0.0301
 5290SOL    HW127329   2.593   3.486   4.807  0.6672 -1.8984 -0.2059
 5290SOL    HW227330   2.632   3.604   4.732 -1.3021 -1.5224 -2.7880
 5291SOL     OW27331   2.162   1.630   1.832  0.2596  0.4761 -0.7664
 5291SOL    HW127332   2.096   1.618   1.763  0.6589  2.1977 -1.4397
 5291SOL    HW227333   2.179   1.536   1.834  1.3103  0.6879 -0.1037
 5292SOL     OW27334   3.101   0.767  15.152  0.3057 -0.5481 -0.1940
 5292SOL    HW127335   3.161   0.836  15.180 -0.2852  0.4939 -1.4768
 5292SOL    HW227336   3.016   0.811  15.146 -0.4975 -2.5499 -3.3293
 5293SOL     OW27337   0.879   4.352   8.051 -0.5621  0.5318  0.1546
 5293SOL    HW127338   0.936   4.384   7.981  1.1286 -0.3304  1.1471
 5293SOL    HW227339   0.793   4.357   8.009 -0.0972 -0.4775 -0.9097
 5294SOL     OW27340   4.372   2.310  11.941 -0.0321  0.0041 -0.0971
 5294SOL    HW127341   4.297   2.293  11.884  0.3060 -0.3898 -0.4179
 5294SOL    HW227342   4.402   2.392  11.902  2.0984 -1.2495 -1.0787
 5295SOL     OW27343   1.989   4.697   5.614 -0.0262 -0.0650  0.7115
 5295SOL    HW127344   1.965   4.673   5.524 -0.8379  1.3646  0.5568
 5295SOL    HW227345   2.072   4.650   5.625 -0.9386 -1.8208  0.2234
 5296SOL     OW27346   2.747   3.755   2.120  0.5554  0.5456  0.1162
 5296SOL    HW127347   2.766   3.662   2.116  0.2040  0.5423 -1.2983
 5296SOL    HW227348   2.764   3.771   2.213 -1.2526 -1.2297  0.7605
 5297SOL     OW27349   4.409   3.226   3.209  0.2394  0.5870  0.3529
 5297SOL    HW127350   4.448   3.139   3.198 -0.4513  0.3880 -0.5292
 5297SOL    HW227351   4.482   3.270   3.253  2.3193 -2.8333  0.2551
 5298SOL     OW27352   4.639   4.110  11.214 -0.6378 -0.0410  0.2755
 5298SOL    HW127353   4.583   4.186  11.198 -2.3137 -1.5127 -0.7353
 5298SOL    HW227354   0.003   4.146  11.195 -0.1972 -1.1999  0.0842
 5299SOL     OW27355   3.638   0.853  14.647 -0.4867 -0.1060  0.6154
 5299SOL    HW127356   3.600   0.811  14.724  2.7782 -0.6350  1.9616
 5299SOL    HW227357   3.686   0.780  14.607  0.1671  0.9696 -0.5420
 5300SOL     OW27358   2.468   2.551   0.755 -0.4000  0.3099 -0.0753
 5300SOL    HW127359   2.475   2.462   0.791  1.5507  1.0898  1.5293
 5300SOL    HW227360   2.562   2.565   0.739 -0.2063  0.5599  1.2652
 5301SOL     OW27361   0.552   3.134  16.253 -0.4474  0.1565  0.5827
 5301SOL    HW127362   0.576   3.210  16.200  0.3796  0.4698  1.3970
 5301SOL    HW227363   0.474   3.158  16.303 -1.3803 -0.5115 -0.5692
 5302SOL     OW27364   2.634   3.803   9.262  0.0258 -0.1251 -0.0764
 5302SOL    HW127365   2.727   3.806   9.287 -0.2508 -1.7023  1.1126
 5302SOL    HW227366   2.612   3.888   9.301 -1.4136  0.5611 -2.4177
 5303SOL     OW27367   1.408   1.501   9.789  0.2928  0.0404  0.0674
 5303SOL    HW127368   1.326   1.452   9.799  0.6521 -0.0744  2.5838
 5303SOL    HW227369   1.422   1.477   9.698 -1.2278 -3.7426  0.8043
 5304SOL     OW27370   1.319   3.785   4.396 -0.3431  0.6697  0.0060
 5304SOL    HW127371   1.276   3.775   4.481 -3.0669 -0.6243 -1.5376
 5304SOL    HW227372   1.248   3.773   4.333 -0.7090 -1.2365  0.7954
 5305SOL     OW27373   3.411   2.393  17.054 -0.4248  0.3094 -0.0522
 5305SOL    HW127374   3.359   2.472  17.040 -0.3810  0.4109  0.3474
 5305SOL    HW227375   3.354   2.317  17.048 -0.0890  0.1379 -1.0494
 5306SOL     OW27376   2.065   1.141   2.136  0.2328  0.1863  0.2933
 5306SOL    HW127377   1.996   1.083   2.168 -1.2831  0.6189 -2.1746
 5306SOL    HW227378   2.139   1.085   2.113 -0.0134  0.4091 -1.0296
 5307SOL     OW27379   0.383   4.654   6.282  0.0328  0.1480  1.0513
 5307SOL    HW127380   0.357   4.679   6.193  2.2624  1.9200  0.9097
 5307SOL    HW227381   0.478   4.658   6.275  0.0231  2.3688  2.2165
 5308SOL     OW27382   3.312   0.343   5.992 -0.3455 -0.1720 -0.2814
 5308SOL    HW127383   3.374   0.271   5.996  2.7399  2.3779 -1.9628
 5308SOL    HW227384   3.378   0.408   5.968  0.9725 -0.8384  1.5751
 5309SOL     OW27385   0.435   2.503  15.856  0.1262 -0.0222 -0.4376
 5309SOL    HW127386   0.383   2.445  15.800  0.9024 -0.2156 -0.9589
 5309SOL    HW227387   0.522   2.465  15.856  0.4870  0.8035 -1.5855
 5310SOL     OW27388   3.196   2.236   2.573  0.0831 -0.0310 -0.2187
 5310SOL    HW127389   3.257   2.171   2.609 -1.9875 -0.6207  2.1722
 5310SOL    HW227390   3.124   2.179   2.546 -0.9494  1.1682  0.0504
 5311SOL     OW27391   3.314   2.155   3.819 -0.1594  0.3826 -0.6150
 5311SOL    HW127392   3.385   2.115   3.768 -0.3286 -0.0650 -0.4972
 5311SOL    HW227393   3.259   2.078   3.831  0.5048  0.1434  0.8584
 5312SOL     OW27394   0.560   3.972   7.896 -0.6497 -0.0450 -0.2285
 5312SOL    HW127395   0.560   3.883   7.861 -2.4106 -0.2908  0.4037
 5312SOL    HW227396   0.593   3.947   7.982  1.5126  0.8294 -0.8008
 5313SOL     OW27397   0.231   2.267  15.810  0.0044  0.3838 -0.1719
 5313SOL    HW127398   0.197   2.179  15.793  2.6600 -0.5068 -0.7859
 5313SOL    HW227399   0.285   2.277  15.732  0.7317  0.7198  0.3757
 5314SOL     OW27400   0.123   2.119   3.997 -0.1529 -0.2128  0.3433
 5314SOL    HW127401   0.163   2.197   3.960 -2.3028 -0.0003 -1.4937
 5314SOL    HW227402   0.079   2.077   3.923  0.7497 -0.3106 -0.1473
 5315SOL     OW27403   2.799   3.165   0.645  0.3282 -0.1534 -0.0598
 5315SOL    HW127404   2.749   3.095   0.602  0.7731 -1.6007  1.8217
 5315SOL    HW227405   2.857   3.105   0.691  1.2245  0.7245 -0.0500
 5316SOL     OW27406   3.958   2.046   0.929 -0.9359 -0.4850 -0.5281
 5316SOL    HW127407   3.917   2.093   0.856 -1.5165 -0.0473  0.0775
 5316SOL    HW227408   4.047   2.078   0.914 -1.2182  0.9919  0.9541
 5317SOL     OW27409   0.402   3.936   7.674 -0.2133 -0.3365 -0.4572
 5317SOL    HW127410   0.454   3.972   7.746  2.0948 -0.0841 -2.2454
 5317SOL    HW227411   0.331   3.907   7.730  0.6607 -1.5508  0.0115
 5318SOL     OW27412   2.667   2.203   7.967 -0.5731 -0.9741  0.0630
 5318SOL    HW127413   2.598   2.137   7.955 -0.7141 -1.0726  1.3901
 5318SOL    HW227414   2.646   2.263   7.896 -0.2530 -1.3567 -0.3580
 5319SOL     OW27415   1.317   3.413   4.289 -0.1070 -0.2457  0.3926
 5319SOL    HW127416   1.296   3.504   4.308  3.2392  0.6245 -0.1270
 5319SOL    HW227417   1.246   3.367   4.334 -1.7051  1.2428 -0.5597
 5320SOL     OW27418   3.095   1.418   9.658 -0.2917  0.2603 -0.8035
 5320SOL    HW127419   3.191   1.420   9.660 -0.2924 -0.7755  0.4650
 5320SOL    HW227420   3.077   1.412   9.752 -0.8535 -2.7043 -1.1088
 5321SOL     OW27421   3.530   0.973  16.523 -0.7332 -0.0525 -0.1706
 5321SOL    HW127422   3.602   0.932  16.570 -0.9655  1.4160  1.4664
 5321SOL    HW227423   3.481   0.894  16.499 -2.0466  0.7434 -0.1549
 5322SOL     OW27424   0.702   0.943   8.132  0.0903  0.1952  0.7895
 5322SOL    HW127425   0.741   1.013   8.080  0.0435 -0.4250 -0.0777
 5322SOL    HW227426   0.619   0.942   8.084  1.3157 -1.1049 -1.2957
 5323SOL     OW27427   1.805   0.924   6.563 -0.2102  0.1257  0.6044
 5323SOL    HW127428   1.851   0.857   6.513 -0.0706 -0.9290  2.1576
 5323SOL    HW227429   1.875   0.985   6.585  1.8426 -2.0690  0.1149
 5324SOL     OW27430   3.930   0.848   2.851 -0.1572 -0.2614  0.5825
 5324SOL    HW127431   3.914   0.757   2.827  0.5905 -0.4382  0.7354
 5324SOL    HW227432   3.900   0.845   2.942 -0.5348  2.6232  0.5592
 5325SOL     OW27433   0.090   3.464   1.316  0.1747  0.3879  0.1067
 5325SOL    HW127434   0.097   3.454   1.411 -0.3389 -1.4614 -0.0360
 5325SOL    HW227435   4.718   3.475   1.300  0.4316  0.2489 -1.4670
 5326SOL     OW27436   3.370   4.097   6.700  0.0735  0.1046 -0.4104
 5326SOL    HW127437   3.286   4.133   6.674 -0.0079 -0.5344 -1.0148
 5326SOL    HW227438   3.358   4.080   6.794  1.0025  2.2717  0.1195
 5327SOL     OW27439   0.448   1.281   3.850  0.6634 -0.1085 -0.1685
 5327SOL    HW127440   0.506   1.337   3.901  0.2026 -1.3443  1.7103
 5327SOL    HW227441   0.436   1.325   3.765 -0.1774 -1.4773 -0.7616
 5328SOL     OW27442   0.118   4.336  17.093 -0.0761 -0.1468  0.1484
 5328SOL    HW127443   0.168   4.403  17.046  1.0184 -2.0716 -1.4692
 5328SOL    HW227444   0.038   4.319  17.042  0.8646 -1.1158 -1.0158
 5329SOL     OW27445   2.038   1.817  15.243  0.3850  0.7016  0.3968
 5329SOL    HW127446   2.103   1.862  15.297 -0.3127  2.4737 -0.2614
 5329SOL    HW227447   2.037   1.730  15.284  2.6177 -0.3459 -1.7654
 5330SOL     OW27448   0.400   0.385   7.433  0.3163 -0.5651 -0.4657
 5330SOL    HW127449   0.348   0.374   7.512  1.2508  1.3720  0.4335
 5330SOL    HW227450   0.334   0.394   7.364  0.2289  0.6700 -0.2338
 5331SOL     OW27451   0.578   3.271   2.545 -0.0503  0.2535 -0.5525
 5331SOL    HW127452   0.646   3.323   2.588  0.1330 -1.3265  1.0710
 5331SOL    HW227453   0.643   3.212   2.508 -1.6042 -0.7914 -1.5819
 5332SOL     OW27454   1.513   2.143   2.366  0.0358 -0.1142  0.3258
 5332SOL    HW127455   1.490   2.058   2.329 -0.7115  0.3801 -0.3456
 5332SOL    HW227456   1.569   2.117   2.440  0.7972 -1.6203 -0.7675
 5333SOL     OW27457   4.461   0.715  13.639  0.5514 -0.2751  0.5460
 5333SOL    HW127458   4.502   0.716  13.553  0.2045 -1.0821  0.3695
 5333SOL    HW227459   4.537   0.716  13.697  2.2250  1.5955 -1.6955
 5334SOL     OW27460   0.671   2.016   2.220  0.0677  0.0044  0.6539
 5334SOL    HW127461   0.656   2.104   2.254 -0.9110 -0.2058  0.7596
 5334SOL    HW227462   0.582   1.980   2.215 -0.2616  0.9163 -0.0870
 5335SOL     OW27463   0.703   3.052   9.165 -0.4732  0.4245 -0.2333
 5335SOL    HW127464   0.677   3.142   9.146 -0.6071  0.9572  2.4900
 5335SOL    HW227465   0.624   3.000   9.151 -0.8517  0.9123  0.0750
 5336SOL     OW27466   2.919   1.067  14.271 -0.1478 -0.1002 -0.3629
 5336SOL    HW127467   2.876   0.990  14.308  0.7236 -0.7126 -0.6215
 5336SOL    HW227468   2.882   1.138  14.323 -0.3557 -0.9460  0.6392
 5337SOL     OW27469   2.747   1.500   2.338  0.1821  0.0783  0.7415
 5337SOL    HW127470   2.717   1.419   2.296 -1.4079 -1.5473  5.0309
 5337SOL    HW227471   2.763   1.557   2.262 -0.0130  1.0227  1.4038
 5338SOL     OW27472   4.574   3.396   5.590 -0.4256 -0.0883 -0.2609
 5338SOL    HW127473   4.566   3.357   5.677  0.7111 -0.4283 -0.3158
 5338SOL    HW227474   4.482   3.419   5.574 -0.9865 -0.8553  1.9133
 5339SOL     OW27475   3.220   4.447   3.134  0.8447  0.1953  0.3339
 5339SOL    HW127476   3.197   4.409   3.218  0.8187  0.2163  0.3361
 5339SOL    HW227477   3.281   4.520   3.152  1.6548 -0.5682  0.6762
 5340SOL     OW27478   0.447   2.956   2.821  0.0774  0.0970 -0.0368
 5340SOL    HW127479   0.482   3.004   2.896  0.1786  2.6358 -1.7096
 5340SOL    HW227480   0.366   2.920   2.856 -1.1612  0.7586 -2.1989
 5341SOL     OW27481   3.257   4.078   3.837 -0.2572  0.7854 -0.1086
 5341SOL    HW127482   3.212   4.145   3.887  0.0829  1.2633 -0.4429
 5341SOL    HW227483   3.347   4.110   3.842  1.3964 -3.7929 -0.4929
 5342SOL     OW27484   1.668   4.159   5.688  0.0559 -0.2217 -0.4230
 5342SOL    HW127485   1.686   4.249   5.661  1.9249  0.0097  1.6132
 5342SOL    HW227486   1.644   4.174   5.780 -1.4021  0.9838 -0.9978
 5343SOL     OW27487   1.544   0.777  12.496 -0.1225 -0.3514  0.0612
 5343SOL    HW127488   1.564   0.797  12.405 -1.7265 -2.2838 -0.7118
 5343SOL    HW227489   1.624   0.810  12.536  0.8526 -2.4182 -0.2291
 5344SOL     OW27490   1.162   3.133   3.767  0.2007 -0.1763 -0.1911
 5344SOL    HW127491   1.195   3.058   3.717 -0.5230 -0.2906 -0.4989
 5344SOL    HW227492   1.237   3.181   3.802 -0.3769  0.4005  0.2672
 5345SOL     OW27493   1.071   2.968   9.488  0.2971  0.2011  0.4543
 5345SOL    HW127494   1.053   3.039   9.426  3.8481  2.4604  2.0500
 5345SOL    HW227495   1.129   3.014   9.548  0.4021 -0.7174  1.0554
 5346SOL     OW27496   3.993   4.335   6.238 -0.0748  0.2166 -0.0171
 5346SOL    HW127497   3.980   4.290   6.154 -2.2855 -0.0510  0.4684
 5346SOL    HW227498   3.909   4.315   6.281 -0.4518 -0.4976 -1.0972
 5347SOL     OW27499   1.710   0.860   7.503 -0.3546  0.6778  1.0178
 5347SOL    HW127500   1.660   0.779   7.510  0.6587  0.0161  0.5621
 5347SOL    HW227501   1.710   0.882   7.596 -0.6416  0.9938  0.9434
 5348SOL     OW27502   3.014   4.310   6.497  0.1355  0.6247 -0.1109
 5348SOL    HW127503   3.007   4.234   6.555  0.2212 -0.6140 -1.7312
 5348SOL    HW227504   3.024   4.268   6.412 -3.7077 -0.8200  0.1842
 5349SOL     OW27505   0.084   0.390  10.203  0.2999 -0.1057 -0.2581
 5349SOL    HW127506   0.046   0.400  10.290 -1.0851 -1.8704 -0.6630
 5349SOL    HW227507   0.019   0.332  10.164 -2.3315  3.5174 -1.3270
 5350SOL     OW27508   1.420   4.386  12.736  0.0280  0.4112  0.2602
 5350SOL    HW127509   1.417   4.475  12.702 -0.9053  0.5694  0.7315
 5350SOL    HW227510   1.327   4.364  12.730 -0.6580  3.0258  1.2890
 5351SOL     OW27511   3.461   0.618   7.139  0.2624 -0.8758  0.3750
 5351SOL    HW127512   3.449   0.708   7.111 -1.4014 -1.2921 -0.2721
 5351SOL    HW227513   3.440   0.632   7.232  0.5722  2.2656 -0.0443
 5352SOL     OW27514   3.087   3.095   7.531  0.4618 -0.3779 -0.0060
 5352SOL    HW127515   3.130   3.010   7.536 -1.1929 -1.2102 -0.1927
 5352SOL    HW227516   3.158   3.159   7.526  0.1637 -0.1028 -0.6251
 5353SOL     OW27517   0.683   1.146   8.605  0.5668  0.1301 -0.5696
 5353SOL    HW127518   0.755   1.091   8.634  1.1135  0.4676 -1.3043
 5353SOL    HW227519   0.687   1.214   8.673  1.6294 -0.1167 -0.3872
 5354SOL     OW27520   2.180   4.292   8.265 -0.3148  0.0443  0.1885
 5354SOL    HW127521   2.158   4.385   8.263  1.5311  0.4610 -1.1493
 5354SOL    HW227522   2.218   4.284   8.352 -0.6273 -0.4315  0.2817
 5355SOL     OW27523   3.789   4.335   3.613 -0.5997 -0.5606  0.2684
 5355SOL    HW127524   3.805   4.240   3.617  3.2456  0.0813  0.5801
 5355SOL    HW227525   3.741   4.345   3.531  1.2951  1.0819 -0.6568
 5356SOL     OW27526   0.386   3.236   7.506  0.2649 -0.3272  0.2087
 5356SOL    HW127527   0.425   3.316   7.543 -1.0393 -0.2292  1.3742
 5356SOL    HW227528   0.468   3.189   7.493 -0.6876 -1.8173 -0.3525
 5357SOL     OW27529   2.845   0.117   7.346 -0.3093 -0.3830 -0.3669
 5357SOL    HW127530   2.880   0.028   7.338  0.3096 -0.1470 -0.2749
 5357SOL    HW227531   2.807   0.118   7.434 -0.2484  2.4062 -0.3810
 5358SOL     OW27532   1.756   3.548  13.604  0.3877 -0.2468 -0.1844
 5358SOL    HW127533   1.689   3.522  13.668 -0.7098 -1.0299 -1.6637
 5358SOL    HW227534   1.746   3.472  13.548 -0.5357 -1.8602  2.1391
 5359SOL     OW27535   2.452   1.697   4.202  0.0887 -0.1867  0.2969
 5359SOL    HW127536   2.524   1.755   4.225 -0.2972  1.3266 -2.3588
 5359SOL    HW227537   2.381   1.751   4.236  0.3562  1.4634 -1.8084
 5360SOL     OW27538   0.052   1.397   6.029  0.3087  0.4484 -0.7498
 5360SOL    HW127539   0.006   1.337   5.971 -0.5478  0.6644 -0.2880
 5360SOL    HW227540   0.116   1.348   6.081 -1.4269  0.7479  1.6374
 5361SOL     OW27541   2.091   1.635  10.621  0.5181 -0.1890  0.3845
 5361SOL    HW127542   2.018   1.580  10.649 -0.0840 -0.2268 -1.3022
 5361SOL    HW227543   2.156   1.570  10.594  0.2869 -0.1441 -0.2642
 5362SOL     OW27544   1.164   0.951  15.898  0.1551  0.0126 -0.3685
 5362SOL    HW127545   1.192   0.892  15.828  0.8557  0.0537 -0.1182
 5362SOL    HW227546   1.070   0.935  15.889 -0.0192  0.0493  1.4075
 5363SOL     OW27547   0.689   3.661   4.103 -0.8042 -0.2790 -0.0592
 5363SOL    HW127548   0.714   3.576   4.066 -0.6814  0.3283 -1.3876
 5363SOL    HW227549   0.594   3.651   4.104 -0.9234  0.6229 -1.4840
 5364SOL     OW27550   0.207   0.685   8.633  0.7597  0.1084 -0.4693
 5364SOL    HW127551   0.212   0.718   8.723  1.1433  3.1049 -1.5924
 5364SOL    HW227552   0.214   0.768   8.584  2.0743  0.0921 -0.3061
 5365SOL     OW27553   0.438   2.126  16.939 -0.1023 -0.4345  0.1814
 5365SOL    HW127554   0.398   2.203  16.979  1.8056  1.3541 -1.3646
 5365SOL    HW227555   0.522   2.147  16.981  0.4208 -1.6044 -0.2558
 5366SOL     OW27556   1.274   3.251  12.213 -0.9877 -0.4963 -0.0430
 5366SOL    HW127557   1.310   3.181  12.159  0.5259  2.5184 -2.9596
 5366SOL    HW227558   1.351   3.292  12.252 -1.8710  1.4510 -0.3020
 5367SOL     OW27559   2.971   3.090  13.374  0.3515  0.0604  0.2747
 5367SOL    HW127560   2.946   3.005  13.337  1.5560 -0.2851  0.2595
 5367SOL    HW227561   3.013   3.128  13.297 -0.7171  0.4305 -0.1318
 5368SOL     OW27562   3.994   2.271   1.232  0.5367 -0.2091  0.0404
 5368SOL    HW127563   3.910   2.262   1.187  0.7145 -0.0258 -0.3312
 5368SOL    HW227564   3.962   2.279   1.321  0.0481  1.1858 -0.2608
 5369SOL     OW27565   4.308   1.858  13.402 -0.1371  0.6001  0.5132
 5369SOL    HW127566   4.289   1.815  13.319  0.0596 -2.1717  1.9300
 5369SOL    HW227567   4.348   1.791  13.457 -0.6271 -1.1905 -1.3443
 5370SOL     OW27568   1.931   2.580   3.576 -0.2108 -0.0584 -0.0203
 5370SOL    HW127569   1.899   2.598   3.487  0.0137 -0.7867 -0.2498
 5370SOL    HW227570   2.019   2.553   3.551  0.1922  2.1110 -0.9808
 5371SOL     OW27571   2.607   0.632   4.471 -0.0398 -0.0938  0.0760
 5371SOL    HW127572   2.593   0.570   4.543 -1.0815 -0.8408 -0.7677
 5371SOL    HW227573   2.532   0.611   4.416  0.4446  0.4058 -0.7562
 5372SOL     OW27574   2.674   2.754   5.418 -0.3760 -0.3957  0.2004
 5372SOL    HW127575   2.720   2.832   5.449  1.5949 -0.4914 -2.4800
 5372SOL    HW227576   2.589   2.789   5.389 -0.9485 -1.4922  0.5480
 5373SOL     OW27577   1.397   1.637   5.472 -0.2405  0.1670 -0.1076
 5373SOL    HW127578   1.458   1.578   5.428 -0.4675  1.2110 -1.8274
 5373SOL    HW227579   1.444   1.720   5.463 -1.3203  0.7396 -0.4974
 5374SOL     OW27580   3.078   0.444   4.642 -0.1296  0.0157 -0.1754
 5374SOL    HW127581   3.097   0.354   4.614 -0.5678  0.8453 -3.1467
 5374SOL    HW227582   3.009   0.431   4.707 -1.3614 -1.7884 -1.8714
 5375SOL     OW27583   2.358   1.937  11.616 -0.3413 -0.6226  0.1956
 5375SOL    HW127584   2.331   2.027  11.598 -0.8932 -1.0201 -1.0084
 5375SOL    HW227585   2.279   1.883  11.612 -0.2446 -0.7099 -0.5081
 5376SOL     OW27586   4.160   4.617   2.916  0.4514  0.3241 -0.2262
 5376SOL    HW127587   4.191   4.668   2.991 -3.7420  1.7403  0.5405
 5376SOL    HW227588   4.238   4.565   2.898 -0.4519 -0.6071 -1.4911
 5377SOL     OW27589   2.814   0.285   5.657 -0.5788  0.2018 -0.3588
 5377SOL    HW127590   2.765   0.278   5.575  1.1321  0.6599 -1.4123
 5377SOL    HW227591   2.862   0.364   5.633  1.5629 -0.5102  1.6182
 5378SOL     OW27592   1.772   1.912  11.531 -0.1721 -0.1810  0.5821
 5378SOL    HW127593   1.700   1.863  11.570  0.1025 -1.4305 -0.4890
 5378SOL    HW227594   1.725   1.996  11.529  0.0442 -0.1384 -2.3348
 5379SOL     OW27595   3.095   3.147  15.687  0.1581  0.0220 -0.2487
 5379SOL    HW127596   3.141   3.063  15.689  0.9002  0.4316 -0.0968
 5379SOL    HW227597   3.170   3.205  15.671  0.1564  0.5697  1.7543
 5380SOL     OW27598   2.540   3.450   6.864 -0.1196  0.1320 -0.3378
 5380SOL    HW127599   2.449   3.469   6.843  0.3769  1.9716 -0.7787
 5380SOL    HW227600   2.535   3.354   6.864  0.1286  0.1138  1.3610
 5381SOL     OW27601   4.406   0.479   8.388  0.0834  0.0974 -0.1987
 5381SOL    HW127602   4.344   0.470   8.316 -0.9338  0.7182  0.5973
 5381SOL    HW227603   4.353   0.423   8.445 -0.2212 -0.2118 -0.7968
 5382SOL     OW27604   2.993   1.847   2.140  1.0076 -0.7494  0.3397
 5382SOL    HW127605   3.038   1.892   2.069  0.6644  0.8625  1.1445
 5382SOL    HW227606   3.054   1.860   2.212 -0.1352 -1.1133  1.3851
 5383SOL     OW27607   0.665   0.804   5.704  0.0909 -0.1478  0.4028
 5383SOL    HW127608   0.750   0.766   5.681 -0.2688  0.0661 -1.2557
 5383SOL    HW227609   0.671   0.782   5.797 -1.4181  2.1472  1.0482
 5384SOL     OW27610   4.650   2.110  16.392  0.0153 -0.0298  0.1534
 5384SOL    HW127611   4.677   2.023  16.420 -1.7611 -0.4495  0.5146
 5384SOL    HW227612   4.650   2.162  16.472 -0.6889 -1.5654  1.1411
 5385SOL     OW27613   3.956   0.664  17.106 -0.1389 -0.2518  0.5731
 5385SOL    HW127614   3.900   0.619  17.169 -1.8050 -0.0710 -0.7747
 5385SOL    HW227615   4.019   0.709  17.161  2.9140 -0.8080 -2.4616
 5386SOL     OW27616   0.381   4.575   3.080 -0.3182 -0.8159  1.0004
 5386SOL    HW127617   0.468   4.599   3.047 -1.1550  0.3573 -0.3558
 5386SOL    HW227618   0.409   4.509   3.144  1.8169 -1.9625 -1.1035
 5387SOL     OW27619   2.169   1.323  11.942  0.5242  0.8440  0.4697
 5387SOL    HW127620   2.217   1.244  11.968  3.0712  2.2554  0.1466
 5387SOL    HW227621   2.163   1.373  12.024  2.2758 -0.3081  1.3154
 5388SOL     OW27622   1.493   3.017  15.181 -0.1456  0.2670  0.2722
 5388SOL    HW127623   1.426   3.082  15.157  1.6664  1.1671 -2.3789
 5388SOL    HW227624   1.500   2.965  15.101  2.3583 -1.7681  1.8293
 5389SOL     OW27625   0.245   4.367  12.332  0.2111  0.0601 -0.2411
 5389SOL    HW127626   0.291   4.284  12.323 -3.5936 -1.7430 -2.7005
 5389SOL    HW227627   0.276   4.415  12.255  2.1081  0.7093  0.9059
 5390SOL     OW27628   3.872   1.116   0.186  0.0036 -0.2499 -0.5645
 5390SOL    HW127629   3.962   1.137   0.213 -0.4005 -0.1971  0.7616
 5390SOL    HW227630   3.858   1.196   0.136  0.6388 -0.2780 -0.7980
 5391SOL     OW27631   0.595   2.924   6.101  0.1127 -0.3017  0.4232
 5391SOL    HW127632   0.632   2.993   6.047  2.0186  0.0560  2.2028
 5391SOL    HW227633   0.618   2.961   6.185 -0.5514  2.6526 -0.6974
 5392SOL     OW27634   2.039   4.170   1.935  0.4208  0.4250 -0.5412
 5392SOL    HW127635   2.104   4.149   2.002  0.7216 -1.3310 -1.3866
 5392SOL    HW227636   2.088   4.157   1.854 -1.4136 -0.7704 -1.4437
 5393SOL     OW27637   0.060   4.720   9.677  0.4127 -0.7366  0.1740
 5393SOL    HW127638   0.088   4.631   9.658 -0.2277 -0.7364 -0.7675
 5393SOL    HW227639   0.004   4.712   9.754  1.9561  1.6052  1.5576
 5394SOL     OW27640   0.806   4.195   7.588 -0.4309 -0.0155 -0.1700
 5394SOL    HW127641   0.792   4.114   7.637  0.0638  0.7464  1.2152
 5394SOL    HW227642   0.844   4.149   7.513  0.4321 -1.8527  1.3796
 5395SOL     OW27643   0.426   0.601   5.954 -0.5588 -0.2660  0.0122
 5395SOL    HW127644   0.425   0.626   6.047 -0.6813  0.9757 -0.3197
 5395SOL    HW227645   0.393   0.684   5.919 -1.5422 -1.3751 -1.6176
 5396SOL     OW27646   2.389   3.187   7.127 -0.1884  0.1621  0.2548
 5396SOL    HW127647   2.452   3.189   7.055 -0.0462  0.1837  0.3810
 5396SOL    HW227648   2.405   3.096   7.154  0.5542  0.7359  1.6877
 5397SOL     OW27649   1.652   3.651  12.728 -0.3815 -0.3553 -0.5883
 5397SOL    HW127650   1.578   3.646  12.668 -0.5688 -0.1422 -0.3756
 5397SOL    HW227651   1.665   3.746  12.723 -1.1440 -0.2344 -0.2347
 5398SOL     OW27652   0.347   2.730  10.810  0.0655 -0.5592  0.7141
 5398SOL    HW127653   0.314   2.820  10.806 -2.0373 -1.4541 -2.1801
 5398SOL    HW227654   0.335   2.700  10.901 -1.2448  2.3967  1.5233
 5399SOL     OW27655   3.728   0.560   5.048 -0.4916  0.5611  0.3728
 5399SOL    HW127656   3.736   0.525   4.959  0.7136  0.4990  0.5124
 5399SOL    HW227657   3.796   0.519   5.100  1.8255 -0.6272 -3.6039
 5400SOL     OW27658   4.114   2.735   2.298  0.8495 -0.2145  0.7401
 5400SOL    HW127659   4.038   2.792   2.312 -0.9979 -2.0614 -1.7803
 5400SOL    HW227660   4.086   2.705   2.211  2.2996 -0.7678  0.4661
 5401SOL     OW27661   3.651   1.958   3.452  0.0475 -1.0483 -0.2822
 5401SOL    HW127662   3.719   1.891   3.462  1.1899  0.1794  0.0857
 5401SOL    HW227663   3.693   2.037   3.420 -1.9764 -0.1990 -0.8615
 5402SOL     OW27664   4.228   0.935  11.977 -0.2466 -0.1548  0.1974
 5402SOL    HW127665   4.216   0.998  12.048  1.4396  0.4653 -0.0614
 5402SOL    HW227666   4.144   0.900  11.947  0.2363 -0.6059 -0.6394
 5403SOL     OW27667   2.599   3.236   9.056 -0.0423 -0.0659  0.8032
 5403SOL    HW127668   2.673   3.192   9.013 -1.1595 -1.2702  0.0898
 5403SOL    HW227669   2.636   3.219   9.142 -0.2499 -0.5164  0.8024
 5404SOL     OW27670   0.076   0.931  11.514  0.6004  0.1412 -0.1338
 5404SOL    HW127671   0.043   1.017  11.539 -0.1354  0.2349 -1.4408
 5404SOL    HW227672   0.170   0.945  11.514  0.7566 -0.9256  0.2446
 5405SOL     OW27673   2.927   2.871   2.961 -0.1075  0.0325  0.0159
 5405SOL    HW127674   3.015   2.851   2.992 -0.0277  0.6719  0.1956
 5405SOL    HW227675   2.876   2.842   3.036  0.3449  0.8131  0.6257
 5406SOL     OW27676   1.972   1.911   8.301  0.2216 -0.2717 -0.9249
 5406SOL    HW127677   2.015   1.875   8.223  0.5599 -1.9370  0.0320
 5406SOL    HW227678   1.946   1.998   8.273  0.5544  0.2434  0.3735
 5407SOL     OW27679   3.905   0.871  12.233 -0.6929  0.1837  0.7985
 5407SOL    HW127680   3.982   0.815  12.241 -0.3599  0.6537  0.8892
 5407SOL    HW227681   3.900   0.895  12.140 -0.8913 -0.1733  0.7194
 5408SOL     OW27682   3.188   4.678  12.510  0.1558 -0.0939  0.1533
 5408SOL    HW127683   3.155   4.628  12.584 -0.9402  0.2941 -0.0682
 5408SOL    HW227684   3.243   4.611  12.469  0.6614  0.1219  0.4924
 5409SOL     OW27685   0.398   3.396   3.136 -0.1365  0.0681 -0.1277
 5409SOL    HW127686   0.429   3.405   3.226  0.6091 -1.6349 -0.2220
 5409SOL    HW227687   0.313   3.355   3.153 -0.2498 -0.7008 -2.4649
 5410SOL     OW27688   0.866   1.105   6.586 -0.0142 -0.1340 -0.3862
 5410SOL    HW127689   0.869   1.149   6.671  0.6734 -0.9124 -0.0022
 5410SOL    HW227690   0.927   1.036   6.611 -3.5161 -3.5459 -1.2686
 5411SOL     OW27691   3.836   0.063   7.026  0.5065 -0.9118  0.4803
 5411SOL    HW127692   3.749   0.094   7.050  0.6034  0.8532 -1.4649
 5411SOL    HW227693   3.885   0.083   7.105  1.8930 -0.3394 -0.5230
 5412SOL     OW27694   1.170   3.329   8.389 -0.6087  0.1494 -0.1141
 5412SOL    HW127695   1.160   3.410   8.438  1.3443  0.9287 -0.9906
 5412SOL    HW227696   1.088   3.321   8.341 -0.0096  1.1598 -1.3071
 5413SOL     OW27697   1.165   3.177   9.096  0.4708  0.1710 -0.1843
 5413SOL    HW127698   1.087   3.124   9.107  0.4952 -0.3990 -2.7150
 5413SOL    HW227699   1.185   3.130   9.014  0.3691 -2.1748  1.1431
 5414SOL     OW27700   1.255   2.484  12.742  0.5125  0.5445  0.3664
 5414SOL    HW127701   1.241   2.398  12.783 -0.4595  1.9572  2.9765
 5414SOL    HW227702   1.343   2.507  12.771 -0.0876  1.1740  1.6883
 5415SOL     OW27703   1.525   0.116   2.370 -0.3495  0.4851  0.2820
 5415SOL    HW127704   1.581   0.080   2.439  1.8550  1.8819 -0.7754
 5415SOL    HW227705   1.481   0.185   2.418 -1.1195  0.6779 -0.7088
 5416SOL     OW27706   0.797   1.169   7.471  0.0103 -0.0113 -0.3640
 5416SOL    HW127707   0.883   1.193   7.505  0.2861 -2.7993  0.8840
 5416SOL    HW227708   0.759   1.257   7.478 -1.6880 -0.6536 -1.6295
 5417SOL     OW27709   1.730   4.193   4.129  0.2040  0.5071  0.2874
 5417SOL    HW127710   1.641   4.159   4.138  0.8670 -1.1506  0.6435
 5417SOL    HW227711   1.786   4.123   4.094 -0.6403 -0.1863  0.3272
 5418SOL     OW27712   3.309   4.521   5.226 -0.5939  0.0023 -0.4800
 5418SOL    HW127713   3.319   4.602   5.177 -2.1645 -0.0054 -0.8079
 5418SOL    HW227714   3.248   4.554   5.293 -2.5655 -0.8947 -1.8512
 5419SOL     OW27715   2.320   3.133   5.708 -0.5566  0.1853  0.1000
 5419SOL    HW127716   2.395   3.109   5.654 -0.3288  1.4798 -0.1567
 5419SOL    HW227717   2.279   3.057   5.750 -0.8873 -0.9887 -2.3298
 5420SOL     OW27718   4.255   2.417   3.827 -0.0079 -0.4438  0.0367
 5420SOL    HW127719   4.273   2.332   3.866  1.9553  1.0101  2.2978
 5420SOL    HW227720   4.338   2.465   3.821 -0.8117  0.7411 -1.7135
 5421SOL     OW27721   0.154   0.354  10.720  0.2718 -0.1862  1.1528
 5421SOL    HW127722   0.126   0.441  10.693  1.0531 -0.8943 -1.9594
 5421SOL    HW227723   0.207   0.327  10.645 -1.6045  1.0543 -0.6358
 5422SOL     OW27724   3.755   0.415   0.245  0.6922 -0.2889 -0.5284
 5422SOL    HW127725   3.748   0.373   0.331  1.0893 -1.1609 -0.9271
 5422SOL    HW227726   3.681   0.476   0.238 -1.4160 -2.8065  0.0593
 5423SOL     OW27727   2.844   2.637   4.582 -0.1444 -0.1138 -0.1983
 5423SOL    HW127728   2.783   2.702   4.548  0.0402  0.0096 -0.2950
 5423SOL    HW227729   2.923   2.692   4.588  0.1874 -0.5612 -0.4448
 5424SOL     OW27730   2.393   3.690   1.167  0.2307 -0.3483 -0.5265
 5424SOL    HW127731   2.468   3.744   1.191 -0.0162  0.3508 -1.3024
 5424SOL    HW227732   2.424   3.672   1.078 -1.9318 -2.8340 -0.7792
 5425SOL     OW27733   1.476   1.208   8.886 -0.1716 -0.1371 -0.0466
 5425SOL    HW127734   1.482   1.115   8.912 -1.8948 -0.6814 -1.6060
 5425SOL    HW227735   1.384   1.229   8.868  0.5414  1.4479 -1.7330
 5426SOL     OW27736   0.899   2.705  14.446  0.0897 -0.4937 -0.4800
 5426SOL    HW127737   0.929   2.736  14.532  0.5466 -0.0013 -0.8202
 5426SOL    HW227738   0.939   2.618  14.441  2.4018  0.6221 -1.4977
 5427SOL     OW27739   0.515   1.055   6.864 -0.0942 -0.7135 -0.1914
 5427SOL    HW127740   0.423   1.060   6.837  0.0566  2.9378 -0.0113
 5427SOL    HW227741   0.540   1.134   6.817 -1.2337  0.0082  0.4020
 5428SOL     OW27742   4.627   0.659   7.706 -0.4901  0.8324  0.1335
 5428SOL    HW127743   4.639   0.595   7.775 -0.6894  0.3105 -0.3174
 5428SOL    HW227744   4.718   0.672   7.681 -0.0855 -3.0233 -0.3540
 5429SOL     OW27745   1.187   4.658   6.606  0.7058 -0.3871  0.2088
 5429SOL    HW127746   1.154   0.013   6.561  2.5090 -0.6834 -1.6533
 5429SOL    HW227747   1.197   4.597   6.532 -1.3890  0.5751 -0.8523
 5430SOL     OW27748   3.598   3.706  10.692 -0.3067 -0.3138  0.2646
 5430SOL    HW127749   3.661   3.718  10.763  0.9496  0.0138 -0.9185
 5430SOL    HW227750   3.649   3.676  10.617  0.3505 -2.6385  1.6387
 5431SOL     OW27751   3.989   1.316  12.304 -0.3713 -0.1568  0.2738
 5431SOL    HW127752   4.013   1.230  12.339  1.4045  0.6327  1.0203
 5431SOL    HW227753   3.908   1.292  12.260 -0.5143 -0.2462  0.5867
 5432SOL     OW27754   4.575   1.565  11.551 -0.6383 -0.0284 -0.6467
 5432SOL    HW127755   4.591   1.591  11.642 -1.8369 -0.1342 -0.4059
 5432SOL    HW227756   4.499   1.509  11.567 -1.3250  0.5556 -1.9478
 5433SOL     OW27757   4.110   1.267   0.352 -0.7168 -0.1185  0.0043
 5433SOL    HW127758   4.125   1.182   0.393  1.0945  1.2676  2.2674
 5433SOL    HW227759   4.029   1.289   0.398  0.8796  2.4484  1.6261
 5434SOL     OW27760   1.217   2.211  10.896  0.5314  0.0192  0.3303
 5434SOL    HW127761   1.296   2.188  10.945  0.3996  0.7115  0.8696
 5434SOL    HW227762   1.165   2.141  10.936 -0.9807  2.6482  2.9696
 5435SOL     OW27763   3.805   2.884   3.953  0.6257  0.1458 -0.0142
 5435SOL    HW127764   3.812   2.790   3.969 -1.3589 -0.3608 -2.1693
 5435SOL    HW227765   3.883   2.891   3.898  0.9209  0.8881  0.4972
 5436SOL     OW27766   4.003   2.978  14.587 -0.6370  0.4163  0.3042
 5436SOL    HW127767   3.995   2.887  14.613 -1.3084  0.5901  0.7173
 5436SOL    HW227768   3.977   3.008  14.674 -0.1761  2.8170 -0.3815
 5437SOL     OW27769   2.244   1.114   2.501 -0.1163  0.3293 -0.5206
 5437SOL    HW127770   2.220   1.026   2.470 -1.4246  0.2563  0.7234
 5437SOL    HW227771   2.155   1.139   2.524  0.4423  0.9121  0.9579
 5438SOL     OW27772   1.256   3.461   2.622  0.2810  0.1506 -0.4602
 5438SOL    HW127773   1.198   3.503   2.686 -0.8492 -0.8699 -0.8381
 5438SOL    HW227774   1.329   3.523   2.624  1.0748 -0.7720 -0.9534
 5439SOL     OW27775   0.839   2.120  12.308  0.4685  0.4579  0.6397
 5439SOL    HW127776   0.917   2.156  12.348  0.8149  0.3539  0.0643
 5439SOL    HW227777   0.848   2.030  12.339  1.8413  0.3710 -0.0007
 5440SOL     OW27778   4.407   3.556   6.613  0.8697 -0.4459  0.9288
 5440SOL    HW127779   4.502   3.553   6.625  0.8598  1.4911  1.5165
 5440SOL    HW227780   4.395   3.642   6.573  1.0085 -1.4039 -1.1938
 5441SOL     OW27781   4.642   1.001   8.458 -0.3214 -0.5109 -0.4365
 5441SOL    HW127782   4.609   1.076   8.507  1.4384 -0.4106  0.6068
 5441SOL    HW227783   4.672   0.947   8.531  0.0674  1.2524  0.7164
 5442SOL     OW27784   2.721   4.374   1.384 -0.5353 -0.0224  0.0530
 5442SOL    HW127785   2.803   4.370   1.432  0.5820  0.8262 -1.7705
 5442SOL    HW227786   2.754   4.391   1.295 -0.0258 -2.3025 -0.2060
 5443SOL     OW27787   4.060   0.520  11.595  0.0740 -0.0354  0.3542
 5443SOL    HW127788   4.021   0.604  11.621  1.2106  0.2916  0.9938
 5443SOL    HW227789   4.092   0.545  11.508  0.8266 -0.2638  0.5649
 5444SOL     OW27790   1.531   4.337   2.010 -0.2093  0.0865  0.0767
 5444SOL    HW127791   1.618   4.300   2.022 -1.6460 -2.6707  2.2009
 5444SOL    HW227792   1.518   4.366   2.101 -0.0898  0.4930 -0.0375
 5445SOL     OW27793   1.001   0.537   5.158 -0.3777 -0.4259 -0.4503
 5445SOL    HW127794   1.069   0.530   5.225 -2.2278  1.3663  1.6186
 5445SOL    HW227795   0.987   0.631   5.167 -1.7644 -0.5811 -1.0307
 5446SOL     OW27796   3.178   1.131   4.551  0.2962 -0.2167 -0.3564
 5446SOL    HW127797   3.105   1.192   4.534 -0.3345 -1.4024 -1.9051
 5446SOL    HW227798   3.137   1.057   4.596  0.7889  0.0602  0.5394
 5447SOL     OW27799   3.546   0.820   4.305 -0.4813  0.2912  0.2757
 5447SOL    HW127800   3.473   0.783   4.353 -1.0162 -0.3675 -1.0287
 5447SOL    HW227801   3.620   0.781   4.352  0.0343  1.1967  0.2189
 5448SOL     OW27802   1.543   2.407   4.556  0.0552  0.1572 -0.4747
 5448SOL    HW127803   1.518   2.317   4.534  1.1821 -0.4742  0.8753
 5448SOL    HW227804   1.486   2.456   4.498  0.0483  1.4479  0.6325
 5449SOL     OW27805   3.070   0.844   5.179 -0.6897 -0.6306  0.4153
 5449SOL    HW127806   3.091   0.876   5.267  2.9486  0.7252 -0.9371
 5449SOL    HW227807   3.021   0.920   5.146  0.7114 -1.5416 -3.6575
 5450SOL     OW27808   2.116   2.957   2.734  0.4190  0.5127  0.5148
 5450SOL    HW127809   2.057   2.882   2.727  0.8755  0.2225 -0.2367
 5450SOL    HW227810   2.167   2.960   2.653 -1.3106 -0.8731 -0.6106
 5451SOL     OW27811   1.354   3.285   4.625  0.1803  0.1671  0.0274
 5451SOL    HW127812   1.295   3.254   4.558 -0.7757  0.0217  0.9424
 5451SOL    HW227813   1.295   3.271   4.699  2.2725 -1.3745  1.4106
 5452SOL     OW27814   4.350   3.480   8.644  0.0163  0.3739  0.0832
 5452SOL    HW127815   4.311   3.432   8.717 -0.3811 -0.9827 -1.0371
 5452SOL    HW227816   4.389   3.407   8.596  1.6885  1.9389 -0.9361
 5453SOL     OW27817   2.336   2.254   6.956  0.2938  0.2445  0.3338
 5453SOL    HW127818   2.322   2.233   6.864 -0.7694  1.4932  0.1926
 5453SOL    HW227819   2.387   2.180   6.988 -1.1005 -1.2399 -0.9226
 5454SOL     OW27820   0.849   4.176  16.081 -0.2655 -0.2729  0.2982
 5454SOL    HW127821   0.792   4.228  16.024  0.2355  0.0555  0.1016
 5454SOL    HW227822   0.933   4.205  16.045  0.1443  0.0542  1.5171
 5455SOL     OW27823   2.966   1.099   6.338 -0.4846 -0.5144 -0.6942
 5455SOL    HW127824   2.885   1.150   6.333  1.3806  2.4570 -0.3373
 5455SOL    HW227825   2.946   1.049   6.417 -1.6299  2.3241  0.8004
 5456SOL     OW27826   0.601   1.472   6.434 -0.6694  0.4632  0.1357
 5456SOL    HW127827   0.547   1.551   6.432 -0.4318  0.6137 -0.3175
 5456SOL    HW227828   0.545   1.409   6.481  1.4872  0.4429  2.6400
 5457SOL     OW27829   2.737   1.516   8.715  0.1579  0.0557 -0.4000
 5457SOL    HW127830   2.822   1.475   8.704  0.8564  1.3732  0.1167
 5457SOL    HW227831   2.752   1.583   8.781  0.2208 -0.7487  0.4028
 5458SOL     OW27832   3.024   3.557  10.234  0.2862 -0.1527  0.0898
 5458SOL    HW127833   3.020   3.467  10.267  0.4045 -0.6450 -1.2711
 5458SOL    HW227834   2.995   3.549  10.143  0.9060  1.3372 -0.2449
 5459SOL     OW27835   1.139   0.603  17.377 -0.1249 -0.3316 -0.1132
 5459SOL    HW127836   1.059   0.581  17.426  1.0283 -2.7644  0.6421
 5459SOL    HW227837   1.181   0.651  17.449  1.0164 -0.8264 -0.4658
 5460SOL     OW27838   0.607   0.239   4.736  0.7418 -0.2740  0.3543
 5460SOL    HW127839   0.539   0.178   4.706 -1.7970  2.4045  0.7071
 5460SOL    HW227840   0.550   0.314   4.751  0.4292 -0.5183  0.3802
 5461SOL     OW27841   4.627   4.101  17.566 -0.7819 -0.0880  0.0219
 5461SOL    HW127842   4.613   4.195  17.556 -0.5693 -0.2875 -2.0490
 5461SOL    HW227843   4.541   4.066  17.589 -0.6964  0.3099  0.9722
 5462SOL     OW27844   0.108   3.335   6.086  0.2855 -0.0087 -0.5139
 5462SOL    HW127845   0.149   3.255   6.053 -1.0253 -0.9392  0.1482
 5462SOL    HW227846   0.186   3.387   6.107  1.6941 -2.2978 -0.0090
 5463SOL     OW27847   4.148   1.690   4.673 -0.1813 -0.5244  0.2273
 5463SOL    HW127848   4.183   1.699   4.585 -1.9693  0.7741 -0.3501
 5463SOL    HW227849   4.098   1.771   4.679  0.0981 -0.3274 -0.0844
 5464SOL     OW27850   1.878   3.801   3.227  0.3566 -0.0182 -0.1999
 5464SOL    HW127851   1.935   3.751   3.169 -0.7789 -1.8052  0.1936
 5464SOL    HW227852   1.829   3.732   3.273 -0.6322  1.2054  0.5972
 5465SOL     OW27853   1.617   4.006  13.062  0.5690 -0.5833 -0.3009
 5465SOL    HW127854   1.530   3.992  13.026  0.8553 -1.2901 -0.7370
 5465SOL    HW227855   1.610   3.980  13.154 -0.0801  1.9940  0.3600
 5466SOL     OW27856   0.669   2.380   5.133 -0.7242 -0.0570  0.0782
 5466SOL    HW127857   0.718   2.345   5.059  0.4267  1.0250  0.3259
 5466SOL    HW227858   0.663   2.471   5.104 -1.2109  0.3409  1.4154
 5467SOL     OW27859   4.019   3.510   7.440 -1.1154  0.1232 -0.8432
 5467SOL    HW127860   4.061   3.595   7.455 -0.6996 -0.6136  2.1713
 5467SOL    HW227861   4.088   3.448   7.417 -0.3309  0.5041  0.4699
 5468SOL     OW27862   0.711   0.672   5.217  0.0511 -0.2077  0.0736
 5468SOL    HW127863   0.775   0.707   5.155  0.2113  2.2944  1.6576
 5468SOL    HW227864   0.746   0.592   5.255 -1.4181 -0.5214  0.7948
 5469SOL     OW27865   3.973   3.644   8.359  0.0346  0.5118 -0.0785
 5469SOL    HW127866   4.060   3.607   8.368  0.3866  0.5767 -3.1460
 5469SOL    HW227867   3.966   3.659   8.453 -1.0197 -1.3783  0.1523
 5470SOL     OW27868   4.019   4.259   3.212 -0.0414  0.2686 -0.5286
 5470SOL    HW127869   4.083   4.192   3.188  0.0848  0.0858  0.3287
 5470SOL    HW227870   3.946   4.203   3.238  0.9864 -0.5085  0.6613
 5471SOL     OW27871   2.479   2.961   9.566  0.1447  0.0056 -0.8573
 5471SOL    HW127872   2.497   3.045   9.524  1.8929  0.9723  1.8311
 5471SOL    HW227873   2.452   2.912   9.489  0.5061 -0.8264 -0.4593
 5472SOL     OW27874   0.472   4.304   8.614 -0.2314 -0.4676 -0.4638
 5472SOL    HW127875   0.439   4.214   8.617 -1.3786 -0.0567 -1.0814
 5472SOL    HW227876   0.560   4.293   8.650 -0.1861 -0.4013 -0.5544
 5473SOL     OW27877   2.188   1.045   6.991 -0.0052 -0.3121 -0.4147
 5473SOL    HW127878   2.198   1.076   7.081 -1.7226  0.3743 -0.4659
 5473SOL    HW227879   2.266   0.993   6.971 -0.0672 -0.5504 -0.0380
 5474SOL     OW27880   4.495   2.930   4.496  0.2918 -0.1969  0.1145
 5474SOL    HW127881   4.520   3.003   4.440 -1.5579  0.1947 -0.2011
 5474SOL    HW227882   4.499   2.860   4.432 -2.8136 -1.0015  0.7881
 5475SOL     OW27883   3.931   1.759   1.989  0.3796 -0.1632  0.2418
 5475SOL    HW127884   4.014   1.711   1.992  0.3844 -0.0385  1.8839
 5475SOL    HW227885   3.894   1.711   1.915 -0.1561 -0.3576  0.6353
 5476SOL     OW27886   3.691   3.211   5.420  0.4703  0.3373 -0.2746
 5476SOL    HW127887   3.693   3.281   5.486 -1.1695  0.4647 -0.3829
 5476SOL    HW227888   3.634   3.153   5.470  0.5945 -0.4503 -1.0516
 5477SOL     OW27889   3.263   3.353   2.804 -0.4740 -0.5221  0.4289
 5477SOL    HW127890   3.218   3.269   2.818  1.4131 -1.1469  2.7892
 5477SOL    HW227891   3.203   3.378   2.734 -0.3506 -0.6496  0.2769
 5478SOL     OW27892   3.767   1.270   1.810 -0.3833 -0.1628 -0.0181
 5478SOL    HW127893   3.803   1.246   1.725 -0.1920 -2.1636  0.6117
 5478SOL    HW227894   3.709   1.341   1.783 -0.8424 -0.5464 -0.0490
 5479SOL     OW27895   4.108   1.277  16.774 -0.1726 -1.0255 -0.0975
 5479SOL    HW127896   4.027   1.290  16.725  0.1921 -0.2296 -0.4903
 5479SOL    HW227897   4.171   1.247  16.709  0.0719 -2.0283  0.5922
 5480SOL     OW27898   2.842   1.270   5.742 -0.2241 -0.0322  0.4028
 5480SOL    HW127899   2.915   1.255   5.681 -1.5996 -0.4381 -1.1309
 5480SOL    HW227900   2.782   1.198   5.723  0.2209 -0.1682 -0.5095
 5481SOL     OW27901   3.085   1.925  16.258  0.6999 -0.3546  0.1945
 5481SOL    HW127902   3.050   1.871  16.187  0.5496 -0.2051  0.1574
 5481SOL    HW227903   3.150   1.862  16.292 -0.3942 -1.5999 -0.0326
 5482SOL     OW27904   4.365   2.963   6.505 -0.2710  0.4020 -0.6465
 5482SOL    HW127905   4.428   3.035   6.516  0.1632 -0.5446  2.9915
 5482SOL    HW227906   4.356   2.932   6.595 -1.6933  1.7376 -0.3257
 5483SOL     OW27907   3.569   3.103   6.785 -0.2819 -0.0531 -0.1976
 5483SOL    HW127908   3.528   3.047   6.719 -0.7522 -0.4229  0.4084
 5483SOL    HW227909   3.540   3.068   6.869  2.0502 -1.3559  0.0694
 5484SOL     OW27910   3.189   1.840   2.369 -0.2430  0.4327 -0.4700
 5484SOL    HW127911   3.195   1.752   2.406  1.0498  1.2561  1.2657
 5484SOL    HW227912   3.188   1.897   2.446 -0.0996  0.2983 -0.3666
 5485SOL     OW27913   4.682   3.527   8.350  0.0340  0.4192  0.4343
 5485SOL    HW127914   4.614   3.472   8.388 -1.0125  0.8754 -0.7994
 5485SOL    HW227915   4.651   3.612   8.380 -1.9920 -0.0344 -0.4068
 5486SOL     OW27916   2.478   0.924   4.837  0.3461 -0.2642  1.0156
 5486SOL    HW127917   2.394   0.883   4.854 -0.9516  1.3291 -1.5796
 5486SOL    HW227918   2.534   0.848   4.848  0.9799 -0.2875 -2.2607
 5487SOL     OW27919   0.560   4.373  12.074 -0.4981 -0.0639 -1.4448
 5487SOL    HW127920   0.585   4.447  12.019  1.2163  0.8841  0.5934
 5487SOL    HW227921   0.472   4.405  12.096 -0.1118 -0.8224  1.2546
 5488SOL     OW27922   0.985   1.406  11.790  0.3992 -0.3113 -0.2344
 5488SOL    HW127923   0.976   1.431  11.882  0.6045 -0.0229 -0.2916
 5488SOL    HW227924   1.001   1.488  11.743  1.0302 -0.8609 -0.9862
 5489SOL     OW27925   3.269   0.162   0.555 -0.1881 -0.3097 -0.0610
 5489SOL    HW127926   3.287   0.200   0.469  1.6263 -4.0439 -1.3611
 5489SOL    HW227927   3.185   0.205   0.569 -0.2128 -0.2063 -0.5353
 5490SOL     OW27928   4.405   1.333   6.534  0.1887 -0.0287 -0.4886
 5490SOL    HW127929   4.443   1.285   6.461  0.1079 -2.7303  1.2713
 5490SOL    HW227930   4.412   1.264   6.600 -2.1611 -1.9523 -2.2269
 5491SOL     OW27931   4.664   3.811  13.392 -0.3256 -0.5938 -0.2436
 5491SOL    HW127932   4.594   3.750  13.416 -1.7487  0.4861 -1.6440
 5491SOL    HW227933   0.006   3.804  13.463  0.1309  1.3233 -0.4526
 5492SOL     OW27934   1.791   2.142   3.533 -0.6675  0.1144  0.1214
 5492SOL    HW127935   1.738   2.195   3.592  1.0628  0.5937  1.2673
 5492SOL    HW227936   1.733   2.067   3.520 -0.6432 -0.2719  2.1861
 5493SOL     OW27937   2.087   0.464  16.785  0.0320  0.2046  0.0304
 5493SOL    HW127938   1.994   0.484  16.793  0.1357 -0.1342  1.9379
 5493SOL    HW227939   2.092   0.482  16.691 -0.8415 -1.2780 -0.3109
 5494SOL     OW27940   4.231   3.854   2.886  0.2103 -0.2731  0.3087
 5494SOL    HW127941   4.193   3.787   2.943  2.0712 -2.0319 -0.5391
 5494SOL    HW227942   4.162   3.876   2.823  0.3893 -0.5605  0.0165
 5495SOL     OW27943   1.496   2.142   4.519  0.6481 -0.3515  0.6394
 5495SOL    HW127944   1.432   2.144   4.590 -1.1169  1.8523 -1.0546
 5495SOL    HW227945   1.442   2.095   4.455 -0.6951  0.4991  1.1522
 5496SOL     OW27946   2.791   3.899   9.622  0.1568 -0.0068 -0.1708
 5496SOL    HW127947   2.724   3.832   9.631  0.0871  0.2253  1.0550
 5496SOL    HW227948   2.836   3.886   9.539 -0.0743 -0.8868 -0.1607
 5497SOL     OW27949   3.512   0.236  11.734 -0.1088  0.0530  0.0586
 5497SOL    HW127950   3.468   0.229  11.818  0.3546 -0.8419  0.2315
 5497SOL    HW227951   3.520   0.332  11.729  1.0668 -0.1835 -2.9606
 5498SOL     OW27952   3.397   1.434  11.966  0.1021 -0.3106  0.3400
 5498SOL    HW127953   3.313   1.430  12.012 -1.2384 -1.4766 -2.1969
 5498SOL    HW227954   3.389   1.519  11.922  1.3706 -0.3445  0.0371
 5499SOL     OW27955   0.156   3.292   4.649  0.2862 -0.2089  0.0409
 5499SOL    HW127956   0.176   3.279   4.742 -0.0268  2.1460  0.4289
 5499SOL    HW227957   0.143   3.385   4.635  0.3905  0.0582  1.7326
 5500SOL     OW27958   4.390   0.350   1.980 -0.4004 -0.1298 -0.0934
 5500SOL    HW127959   4.423   0.395   1.902  0.5560 -0.1599  0.2991
 5500SOL    HW227960   4.304   0.337   1.941 -0.4594 -1.0441  0.3430
 5501SOL     OW27961   0.521   2.329  15.189 -0.3039 -0.0303 -0.5831
 5501SOL    HW127962   0.471   2.381  15.126 -2.1477  1.1924  1.9172
 5501SOL    HW227963   0.527   2.244  15.146  0.1006 -0.4425  0.2770
 5502SOL     OW27964   0.816   0.912   0.628  0.1359 -0.2905  0.0562
 5502SOL    HW127965   0.827   0.819   0.609  0.1251  0.2191 -2.4070
 5502SOL    HW227966   0.864   0.953   0.557 -2.1065 -1.6137 -2.2246
 5503SOL     OW27967   3.749   3.677   7.008 -0.3227 -0.4645  0.1209
 5503SOL    HW127968   3.782   3.709   7.092  0.0524  0.3621 -0.3406
 5503SOL    HW227969   3.656   3.678   7.030 -0.1571  2.5413  0.7741
 5504SOL     OW27970   4.639   4.139   9.622  0.3675  0.4241  0.1032
 5504SOL    HW127971   4.612   4.223   9.657 -0.3276  0.3291 -0.2057
 5504SOL    HW227972   4.626   4.151   9.528  0.3055 -2.1686 -0.2419
 5505SOL     OW27973   1.272   2.627   4.140  0.5845 -0.3769 -0.1933
 5505SOL    HW127974   1.234   2.611   4.053 -0.3939  0.7955  0.0228
 5505SOL    HW227975   1.292   2.719   4.126 -0.0026 -0.0369  1.1934
 5506SOL     OW27976   0.961   2.349  17.629 -0.0379 -0.3171  0.0499
 5506SOL    HW127977   0.908   2.407  17.575 -1.4178  0.9748  2.7850
 5506SOL    HW227978   0.894   2.317  17.690 -1.3872  1.2975 -0.6069
 5507SOL     OW27979   3.090   3.620  12.019  0.7249  0.1130  0.4205
 5507SOL    HW127980   2.998   3.647  12.015  0.7166  0.0569  0.2399
 5507SOL    HW227981   3.118   3.658  11.936 -0.2135 -2.2184 -0.9519
 5508SOL     OW27982   0.800   0.954   0.139  0.2117  0.0840 -0.2578
 5508SOL    HW127983   0.744   0.982   0.211  1.0060  0.9526  0.0145
 5508SOL    HW227984   0.865   1.024   0.145 -2.4838  2.5290  0.8004
 5509SOL     OW27985   4.158   4.133   7.521  0.6108  0.4119 -0.2487
 5509SOL    HW127986   4.224   4.201   7.533  0.6795 -0.0856  2.1985
 5509SOL    HW227987   4.196   4.082   7.449 -0.7527 -0.5137 -0.3202
 5510SOL     OW27988   1.266   4.587   8.658 -0.1101  0.0178 -0.0421
 5510SOL    HW127989   1.348   4.591   8.708  0.5520 -0.1935 -1.1245
 5510SOL    HW227990   1.203   4.599   8.729  0.1226 -0.6726  0.2797
 5511SOL     OW27991   4.588   4.403   9.701  0.0496 -1.0068 -0.0334
 5511SOL    HW127992   4.515   4.445   9.657  2.4218  0.2512 -2.7949
 5511SOL    HW227993   4.663   4.425   9.645 -1.1797  0.6477 -1.0462
 5512SOL     OW27994   1.059   3.499  10.653  0.3003  0.8432  0.9312
 5512SOL    HW127995   0.967   3.472  10.646  1.2160 -1.9818 -0.3468
 5512SOL    HW227996   1.056   3.541  10.567 -0.1418 -0.2343  0.4120
 5513SOL     OW27997   1.295   0.789   8.876  0.2868  0.4470  0.5285
 5513SOL    HW127998   1.228   0.857   8.881  1.6863  1.8974 -0.2678
 5513SOL    HW227999   1.343   0.810   8.956  2.0474  1.5420 -0.8004
 5514SOL     OW28000   3.402   1.338  12.708  0.0270 -0.2382 -0.4006
 5514SOL    HW128001   3.444   1.368  12.628  0.6994 -1.4226 -0.4886
 5514SOL    HW228002   3.352   1.264  12.673  0.1416 -0.1675 -0.7087
 5515SOL     OW28003   2.365   1.227   4.669  0.1912  0.2154  0.4763
 5515SOL    HW128004   2.276   1.194   4.661  0.7566 -1.4370  1.2353
 5515SOL    HW228005   2.407   1.212   4.584 -3.0269  1.4861 -1.3054
 5516SOL     OW28006   0.877   2.155   7.144  0.5622 -0.1658  0.9581
 5516SOL    HW128007   0.930   2.157   7.224 -1.4232  2.6606  2.2141
 5516SOL    HW228008   0.799   2.104   7.165 -0.3815 -0.0243 -2.2236
 5517SOL     OW28009   1.887   2.457   1.879 -0.2908  0.0687 -0.2844
 5517SOL    HW128010   1.806   2.406   1.877 -0.8695  0.9213  1.4748
 5517SOL    HW228011   1.954   2.389   1.887  0.0372  0.4592  0.2338
 5518SOL     OW28012   2.879   4.452   3.772  0.2657  0.2015  0.1405
 5518SOL    HW128013   2.924   4.496   3.700  1.1834 -0.4280  0.3229
 5518SOL    HW228014   2.914   4.492   3.852  0.2587  1.7719 -0.6444
 5519SOL     OW28015   0.407   2.453   4.872 -0.0382 -0.2973 -0.3236
 5519SOL    HW128016   0.428   2.360   4.861  0.6946 -0.3297  1.2882
 5519SOL    HW228017   0.479   2.484   4.818  0.0747 -0.3494 -0.2034
 5520SOL     OW28018   0.569   4.345   8.283  0.1356 -0.0724 -0.0293
 5520SOL    HW128019   0.534   4.306   8.203  0.0860 -1.3347  0.5944
 5520SOL    HW228020   0.492   4.379   8.328  1.3244 -0.7240  2.4946
 5521SOL     OW28021   3.593   4.647   8.139 -0.0858  0.4352 -0.3287
 5521SOL    HW128022   3.625   0.001   8.187 -0.3528  0.5954 -0.4041
 5521SOL    HW228023   3.555   4.688   8.061 -0.0516 -0.7913 -0.9842
 5522SOL     OW28024   0.330   0.525   4.109  0.3728  0.3600 -0.3932
 5522SOL    HW128025   0.403   0.521   4.171  0.8987 -0.1428 -1.0383
 5522SOL    HW228026   0.269   0.587   4.150  3.0108  1.1333  2.3396
 5523SOL     OW28027   4.351   4.535  14.713  0.1837  0.3418 -0.1968
 5523SOL    HW128028   4.376   4.626  14.725 -1.7184  1.0460 -1.4964
 5523SOL    HW228029   4.429   4.490  14.683  0.1003 -0.4224  0.7349
 5524SOL     OW28030   0.512   4.597   2.652 -0.1958 -0.2845  0.5963
 5524SOL    HW128031   0.501   4.692   2.649  0.0837 -0.2112  1.9342
 5524SOL    HW228032   0.459   4.567   2.726 -1.5479  1.7087  0.4164
 5525SOL     OW28033   3.902   2.959  12.498  0.5003  0.2236  0.4700
 5525SOL    HW128034   3.833   2.931  12.438 -0.6389 -0.3991  2.0697
 5525SOL    HW228035   3.865   2.932  12.582  1.2435  0.7214  0.9593
 5526SOL     OW28036   1.878   0.506   7.074  0.5422  0.3178 -0.4607
 5526SOL    HW128037   1.934   0.562   7.021  0.1922  0.8746 -0.2487
 5526SOL    HW228038   1.838   0.565   7.137  0.0375 -0.9982  0.4610
 5527SOL     OW28039   3.891   1.144  13.622  0.4904  0.4466 -0.1835
 5527SOL    HW128040   3.829   1.171  13.690  1.1886  1.4517  0.0573
 5527SOL    HW228041   3.972   1.192  13.640  0.2756  0.9245 -0.4708
 5528SOL     OW28042   3.967   2.577   8.142  0.1360  0.0223  0.0951
 5528SOL    HW128043   3.915   2.546   8.068  2.1474  0.6829 -1.5980
 5528SOL    HW228044   4.054   2.549   8.113  0.8939  2.3541  0.1059
 5529SOL     OW28045   2.998   3.328   0.204  0.1563  0.2131  0.4810
 5529SOL    HW128046   2.923   3.276   0.234 -0.2492  0.1236 -0.7181
 5529SOL    HW228047   3.031   3.367   0.286 -0.0911 -0.9153  1.1151
 5530SOL     OW28048   2.444   4.160   9.960 -0.1184 -0.8394 -0.1619
 5530SOL    HW128049   2.459   4.122   9.873  0.9168 -0.6619 -0.0558
 5530SOL    HW228050   2.496   4.098  10.012 -1.5686 -0.8347  1.3073
 5531SOL     OW28051   2.533   1.939  13.470  0.4504 -0.1333  0.6197
 5531SOL    HW128052   2.460   1.902  13.518  0.0377 -1.4332 -0.9985
 5531SOL    HW228053   2.545   1.874  13.401  2.5371  1.2930 -0.3746
 5532SOL     OW28054   0.596   3.617   9.581 -0.1325 -0.5861 -0.2577
 5532SOL    HW128055   0.652   3.666   9.641 -0.9836 -1.3603  1.1614
 5532SOL    HW228056   0.602   3.527   9.614  2.2799 -0.7195 -1.0117
 5533SOL     OW28057   2.978   4.313  14.900  0.1360  0.3300 -0.0221
 5533SOL    HW128058   2.953   4.264  14.822  0.0492 -2.1295  1.5477
 5533SOL    HW228059   3.012   4.391  14.856 -0.8365  0.5356 -0.4137
 5534SOL     OW28060   2.772   0.370   0.530 -0.0736  0.3588  0.3075
 5534SOL    HW128061   2.789   0.439   0.466  0.4268 -0.9971 -1.0255
 5534SOL    HW228062   2.864   0.346   0.542  0.3130  1.2800 -0.8404
 5535SOL     OW28063   0.449   0.939  15.421  0.4474 -0.6455 -0.1301
 5535SOL    HW128064   0.461   0.905  15.332 -1.7139 -1.2068 -0.2143
 5535SOL    HW228065   0.530   0.906  15.460  0.0340 -1.4686  0.0206
 5536SOL     OW28066   3.837   0.976   4.802  0.0465  0.0852  0.0034
 5536SOL    HW128067   3.761   0.960   4.859 -1.0822  2.3685 -0.8793
 5536SOL    HW228068   3.898   0.905   4.822 -1.6966 -1.1196  0.9906
 5537SOL     OW28069   3.025   4.093   6.673  0.1590  0.1406 -0.4828
 5537SOL    HW128070   2.958   4.034   6.637 -2.0585  1.3640  1.6247
 5537SOL    HW228071   3.056   4.034   6.741  0.1843 -0.1258 -0.7269
 5538SOL     OW28072   3.836   3.601  15.880  0.0980 -0.5742 -0.7705
 5538SOL    HW128073   3.897   3.544  15.833  0.9688  0.0435 -0.3948
 5538SOL    HW228074   3.826   3.673  15.817 -0.5544 -1.3480 -1.5347
 5539SOL     OW28075   3.051   3.601   2.214 -0.3014  0.0076  0.4851
 5539SOL    HW128076   3.133   3.582   2.168 -0.7251 -0.6980  0.0265
 5539SOL    HW228077   2.995   3.613   2.138  3.9103  0.8693 -2.4667
 5540SOL     OW28078   4.697   2.381   5.693 -0.6191 -0.2507  0.1816
 5540SOL    HW128079   4.601   2.383   5.688 -0.6771 -0.8673  1.1003
 5540SOL    HW228080   4.721   2.471   5.670  1.2039 -0.3331  1.8029
 5541SOL     OW28081   0.972   3.258   5.604 -0.0597  0.2872 -0.3004
 5541SOL    HW128082   0.966   3.298   5.518 -0.9213 -2.3270 -1.4487
 5541SOL    HW228083   0.899   3.196   5.607 -0.5494  0.8643 -0.0047
 5542SOL     OW28084   4.167   0.273   5.019  0.5001 -0.3894 -0.4923
 5542SOL    HW128085   4.120   0.252   4.939 -0.4944 -0.3402  0.0749
 5542SOL    HW228086   4.130   0.208   5.080 -2.8818  1.0942 -0.9414
 5543SOL     OW28087   3.579   1.804   8.018  0.6268  1.4705  0.7960
 5543SOL    HW128088   3.496   1.836   8.052 -1.3817 -1.0369 -1.7081
 5543SOL    HW228089   3.647   1.831   8.079 -0.3381  1.6707  1.7770
 5544SOL     OW28090   1.685   2.606   8.853 -0.6470 -0.1343 -0.3953
 5544SOL    HW128091   1.738   2.598   8.932 -0.9062 -1.7364 -0.3867
 5544SOL    HW228092   1.678   2.517   8.817  0.9193 -0.6985  0.6942
 5545SOL     OW28093   3.264   2.040   5.208 -0.0250 -0.5799  0.1332
 5545SOL    HW128094   3.177   2.006   5.229 -0.5436  0.7368  0.1231
 5545SOL    HW228095   3.320   1.963   5.215  0.0773 -0.1119  4.2724
 5546SOL     OW28096   1.341   1.532   8.794  0.1517 -0.1257  0.2964
 5546SOL    HW128097   1.303   1.504   8.877  0.4612 -0.4303  0.3332
 5546SOL    HW228098   1.305   1.463   8.738 -1.9734  0.4260  0.9799
 5547SOL     OW28099   4.477   2.014  13.530 -0.5682  0.2999  0.5246
 5547SOL    HW128100   4.400   1.960  13.517 -0.1646  0.1353 -1.0960
 5547SOL    HW228101   4.535   1.984  13.461 -0.5603 -0.4919  0.8742
 5548SOL     OW28102   0.653   2.187   8.824  0.3484  0.5410 -0.2086
 5548SOL    HW128103   0.607   2.110   8.791  3.6350 -1.2973 -0.4332
 5548SOL    HW228104   0.657   2.167   8.917 -0.3494 -1.2122 -0.5490
 5549SOL     OW28105   2.063   0.963   0.337  0.3099  0.0597  0.2986
 5549SOL    HW128106   1.968   0.963   0.322 -0.3520 -0.0345  4.5178
 5549SOL    HW228107   2.077   0.966   0.432 -0.7585  0.9152  0.4384
 5550SOL     OW28108   4.220   3.248  14.379 -0.5859 -0.5454 -0.2565
 5550SOL    HW128109   4.152   3.270  14.443  0.1279  2.3206 -0.4785
 5550SOL    HW228110   4.244   3.339  14.361 -1.2104 -0.4530 -0.6518
 5551SOL     OW28111   4.319   0.970   3.017 -0.0257 -0.0473 -0.3342
 5551SOL    HW128112   4.332   1.065   3.020 -2.8502  0.4108 -2.3869
 5551SOL    HW228113   4.380   0.955   2.945  1.6616 -1.2066  1.3675
 5552SOL     OW28114   2.235   2.844   9.722 -0.3992  0.6290 -0.3942
 5552SOL    HW128115   2.322   2.872   9.694 -1.2520  1.8277 -1.8221
 5552SOL    HW228116   2.222   2.880   9.809 -0.7029  0.4927 -0.3847
 5553SOL     OW28117   1.126   2.226   3.673  0.4572  0.1549  0.0902
 5553SOL    HW128118   1.099   2.277   3.597 -0.9288 -2.6613 -1.3250
 5553SOL    HW228119   1.058   2.234   3.740  1.9870 -1.0897  1.8292
 5554SOL     OW28120   0.938   3.147  16.095 -0.0664  0.5434  0.1397
 5554SOL    HW128121   0.994   3.218  16.127 -0.0479  0.0756  1.1421
 5554SOL    HW228122   0.891   3.193  16.025 -0.2026  0.0492 -0.0916
 5555SOL     OW28123   1.065   3.609   2.802 -0.0743 -0.3325 -0.1247
 5555SOL    HW128124   1.035   3.651   2.721 -2.7924 -0.2647  0.9386
 5555SOL    HW228125   0.985   3.595   2.851  0.4274 -2.4058  0.1052
 5556SOL     OW28126   2.073   1.826   3.533 -0.0872  0.3003  0.1638
 5556SOL    HW128127   2.003   1.784   3.585  0.5451 -0.3667  0.4766
 5556SOL    HW228128   2.130   1.859   3.602  1.2025 -0.7141 -0.4196
 5557SOL     OW28129   0.767   0.283   1.020  0.2804 -0.3882 -0.0067
 5557SOL    HW128130   0.700   0.321   0.962 -0.0713 -1.6198 -0.4101
 5557SOL    HW228131   0.803   0.216   0.961 -1.4097 -0.3472 -1.1096
 5558SOL     OW28132   3.379   2.550   3.137  0.3926  0.3278 -0.1239
 5558SOL    HW128133   3.442   2.618   3.163 -1.1887  1.2893  1.1802
 5558SOL    HW228134   3.397   2.546   3.043 -0.7768 -2.2919 -0.2506
 5559SOL     OW28135   0.228   0.841   4.917  1.0986 -0.0421 -0.0976
 5559SOL    HW128136   0.150   0.824   4.863  0.1476 -1.7282  1.7761
 5559SOL    HW228137   0.299   0.824   4.856  0.6127  1.1867 -0.9925
 5560SOL     OW28138   0.855   1.934   4.078 -0.1637  0.0935 -0.1231
 5560SOL    HW128139   0.933   1.895   4.039 -0.0486 -1.2002  1.3955
 5560SOL    HW228140   0.822   1.872   4.143  0.1500 -0.0712 -0.1232
 5561SOL     OW28141   1.364   2.509   6.505 -0.1377 -0.2832 -0.1813
 5561SOL    HW128142   1.425   2.493   6.433  0.6489  2.8963 -0.2502
 5561SOL    HW228143   1.349   2.416   6.522 -0.1291  0.0808  1.8549
 5562SOL     OW28144   0.614   3.129   3.902 -0.4302  0.0574 -0.1296
 5562SOL    HW128145   0.585   3.091   3.819  1.7880  0.5726 -1.1349
 5562SOL    HW228146   0.701   3.160   3.878  1.0725 -3.3017  0.9533
 5563SOL     OW28147   1.225   0.715   2.705 -0.2212 -0.5267 -0.3383
 5563SOL    HW128148   1.283   0.730   2.630 -0.3750  0.4213 -0.2656
 5563SOL    HW228149   1.259   0.782   2.765  0.7813 -1.8874  0.5930
 5564SOL     OW28150   3.158   0.235   8.121  0.5181 -0.2416 -0.0659
 5564SOL    HW128151   3.194   0.158   8.165 -1.8285 -1.5357 -0.4270
 5564SOL    HW228152   3.094   0.188   8.067  0.1972  1.2190 -0.9340
 5565SOL     OW28153   3.106   3.804   5.887  0.4314  0.2683  0.0883
 5565SOL    HW128154   3.095   3.709   5.876 -0.5848  0.6580 -2.3275
 5565SOL    HW228155   3.188   3.819   5.841 -0.0856 -0.9334 -1.2308
 5566SOL     OW28156   4.567   3.148   6.649 -0.2881 -0.4149  0.2824
 5566SOL    HW128157   4.577   3.194   6.732 -1.0934  2.4971 -1.2390
 5566SOL    HW228158   4.650   3.099   6.648  0.0974  0.2586 -0.5241
 5567SOL     OW28159   4.132   2.252   2.183 -0.5335 -0.1390 -0.3249
 5567SOL    HW128160   4.223   2.240   2.156 -0.4517  1.8266 -0.8800
 5567SOL    HW228161   4.101   2.165   2.155  1.1700 -0.5335 -0.9748
 5568SOL     OW28162   2.119   1.488   8.033  0.6661  0.0580 -0.5739
 5568SOL    HW128163   2.146   1.430   8.103 -2.0666 -0.0371  0.4196
 5568SOL    HW228164   2.026   1.493   8.055  1.1027  0.1164  1.2170
 5569SOL     OW28165   4.508   3.381  15.264 -0.6654  0.2020 -0.4351
 5569SOL    HW128166   4.441   3.382  15.195 -1.4098 -1.0988  0.2877
 5569SOL    HW228167   4.585   3.394  15.208  0.7056  2.0339  1.8418
 5570SOL     OW28168   1.230   1.545   0.881 -0.1341  0.9157  0.0674
 5570SOL    HW128169   1.241   1.463   0.930 -2.4436  0.2984 -0.4146
 5570SOL    HW228170   1.205   1.511   0.795 -3.7741  0.2813  1.3628
 5571SOL     OW28171   2.795   0.505  11.648 -0.5561  0.1626 -0.3139
 5571SOL    HW128172   2.881   0.465  11.635  1.2194  3.4692  1.2107
 5571SOL    HW228173   2.746   0.429  11.678  0.0603  0.0645  0.4586
 5572SOL     OW28174   2.328   3.798   6.126 -0.1064  0.0880  0.0708
 5572SOL    HW128175   2.419   3.829   6.124 -0.3115  0.6834 -0.1322
 5572SOL    HW228176   2.337   3.708   6.155  0.7943  0.0399 -0.3474
 5573SOL     OW28177   2.368   1.631   5.391 -0.1732 -0.5656  0.1608
 5573SOL    HW128178   2.316   1.559   5.355 -1.7945  1.1964 -1.0883
 5573SOL    HW228179   2.417   1.660   5.314  0.5952  2.5959  1.8262
 5574SOL     OW28180   0.381   4.337   6.145 -0.1261 -0.3473  0.1666
 5574SOL    HW128181   0.372   4.331   6.240  1.4236 -0.6406  0.2925
 5574SOL    HW228182   0.464   4.382   6.132 -0.2729 -0.2108 -0.3261
 5575SOL     OW28183   1.785   3.310  13.417 -0.1070  0.3844  0.5986
 5575SOL    HW128184   1.758   3.299  13.326  0.7529  2.3526  0.1058
 5575SOL    HW228185   1.754   3.224  13.446 -2.4682  0.9856 -0.1589
 5576SOL     OW28186   0.746   2.379  16.482 -0.1233 -0.3046 -0.2179
 5576SOL    HW128187   0.704   2.379  16.568  0.2543  2.0538 -0.0424
 5576SOL    HW228188   0.830   2.341  16.504  0.1783  0.0376 -0.7931
 5577SOL     OW28189   1.881   4.349   3.801 -0.0684  0.3178 -0.5413
 5577SOL    HW128190   1.882   4.395   3.716 -1.3497  3.4419  1.1382
 5577SOL    HW228191   1.790   4.362   3.828 -0.1540 -0.5093 -0.4343
 5578SOL     OW28192   3.839   3.986   4.533  0.2083 -0.0649  0.7690
 5578SOL    HW128193   3.891   3.915   4.570  0.1788 -1.1973 -1.4005
 5578SOL    HW228194   3.785   3.954   4.461  1.9048  0.0061 -0.5368
 5579SOL     OW28195   3.675   1.471  16.910 -0.1500  0.6235  0.5187
 5579SOL    HW128196   3.649   1.382  16.934 -0.6764  0.8846  0.9142
 5579SOL    HW228197   3.601   1.528  16.930  0.0196  1.2144 -0.5135
 5580SOL     OW28198   0.356   4.144   4.842 -0.0342 -0.0036  1.2143
 5580SOL    HW128199   0.439   4.165   4.798 -1.3787  1.5228 -0.5886
 5580SOL    HW228200   0.373   4.075   4.906  1.4008 -0.6103  0.1816
 5581SOL     OW28201   1.010   1.652  11.649  0.2906 -0.3226 -0.0119
 5581SOL    HW128202   1.093   1.690  11.679  0.1092 -1.3722  1.8330
 5581SOL    HW228203   0.992   1.712  11.576 -1.7175 -1.1557 -0.1812
 5582SOL     OW28204   2.249   3.709   1.557  0.1210 -0.6326  0.0529
 5582SOL    HW128205   2.180   3.655   1.597 -2.3654  1.2194 -1.7887
 5582SOL    HW228206   2.214   3.716   1.468 -0.7041 -0.8868  0.3591
 5583SOL     OW28207   2.899   0.141   2.460 -0.0478  0.3808 -0.4915
 5583SOL    HW128208   2.918   0.139   2.554 -1.1787 -1.8357 -0.3140
 5583SOL    HW228209   2.888   0.236   2.450 -1.9455  0.2036 -0.1617
 5584SOL     OW28210   0.962   3.031  10.112  0.5040 -0.0048  0.0123
 5584SOL    HW128211   0.915   3.007  10.192 -0.6305 -0.7434 -0.8596
 5584SOL    HW228212   0.983   3.123  10.128  0.8883  0.0675 -0.8938
 5585SOL     OW28213   1.399   3.683   7.295  0.1741  0.3790  0.1380
 5585SOL    HW128214   1.336   3.690   7.367  1.5738  0.7569  1.3105
 5585SOL    HW228215   1.403   3.587   7.288  0.6739  0.3300  1.1362
 5586SOL     OW28216   1.735   1.206   4.380  0.0250  0.2038  0.0724
 5586SOL    HW128217   1.820   1.248   4.395  0.3804 -0.2277 -0.7199
 5586SOL    HW228218   1.675   1.280   4.385 -1.0700 -0.7944  1.5755
 5587SOL     OW28219   2.001   3.217   3.449  0.2138  0.1942 -0.4271
 5587SOL    HW128220   2.050   3.214   3.531 -1.2767  0.7157  0.4885
 5587SOL    HW228221   1.976   3.126   3.438  1.4258 -0.1518 -0.2337
 5588SOL     OW28222   0.712   0.334  15.032  0.8025  0.4911 -0.2371
 5588SOL    HW128223   0.711   0.352  15.126  1.5016 -0.5349 -0.0315
 5588SOL    HW228224   0.643   0.267  15.027  0.9789  0.1081  2.1099
 5589SOL     OW28225   1.965   0.810   1.935 -0.1001  0.0134  0.2830
 5589SOL    HW128226   1.995   0.784   1.848 -0.0220  1.5350 -0.1364
 5589SOL    HW228227   1.971   0.722   1.972 -1.6869  0.4518  1.5860
 5590SOL     OW28228   4.479   0.550   9.156  0.2150  0.2003 -0.3829
 5590SOL    HW128229   4.439   0.520   9.074  0.0797 -0.9191  0.1071
 5590SOL    HW228230   4.482   0.476   9.216  0.9672  1.0010  0.5690
 5591SOL     OW28231   1.894   2.968   3.368 -0.2461  0.0572 -0.6056
 5591SOL    HW128232   1.853   2.899   3.420 -1.4398  1.0665 -0.1974
 5591SOL    HW228233   1.987   2.948   3.374 -0.3293  0.2043  1.2184
 5592SOL     OW28234   1.035   2.359   5.913  0.3317 -0.0231 -0.1687
 5592SOL    HW128235   1.081   2.439   5.938  0.2433  0.1367 -0.5220
 5592SOL    HW228236   0.948   2.377   5.949  0.5881  0.1965  0.3390
 5593SOL     OW28237   1.375   2.838   1.186 -0.5074 -0.1483  0.6618
 5593SOL    HW128238   1.388   2.764   1.245 -1.8611 -2.0515 -1.4091
 5593SOL    HW228239   1.282   2.832   1.162 -0.5354  0.1946  0.6846
 5594SOL     OW28240   1.450   0.100   6.875  1.1470 -0.1400 -0.1284
 5594SOL    HW128241   1.358   0.126   6.863  0.5009 -1.0913  2.6912
 5594SOL    HW228242   1.492   0.184   6.857 -2.8643  1.2675 -3.1093
 5595SOL     OW28243   1.770   0.347   2.478 -0.2674  0.1516 -0.0595
 5595SOL    HW128244   1.799   0.417   2.420  1.3558 -1.7653 -1.5775
 5595SOL    HW228245   1.678   0.361   2.502 -0.3952  1.6106 -1.3955
 5596SOL     OW28246   2.429   3.619   3.846  0.2742 -0.6692  0.4295
 5596SOL    HW128247   2.497   3.551   3.844  0.6462 -0.2802 -0.5030
 5596SOL    HW228248   2.383   3.616   3.762 -1.8047  2.2360  1.4879
 5597SOL     OW28249   2.223   2.572  10.384 -0.4568 -0.0420  0.0538
 5597SOL    HW128250   2.271   2.493  10.360 -0.3260  0.7922 -2.3764
 5597SOL    HW228251   2.130   2.550  10.377  0.2614 -3.1967  0.3874
 5598SOL     OW28252   3.561   3.716  10.283  0.3969 -0.8841 -0.5202
 5598SOL    HW128253   3.580   3.710  10.189  1.7687  1.8765 -0.4237
 5598SOL    HW228254   3.587   3.806  10.302 -0.6782 -0.7297  0.2117
 5599SOL     OW28255   3.345   1.441   5.072  0.5248 -0.5297  0.2124
 5599SOL    HW128256   3.316   1.498   5.143  0.3403 -1.8353  1.1919
 5599SOL    HW228257   3.265   1.392   5.057  1.2503 -0.9376 -2.3124
 5600SOL     OW28258   1.398   1.993   9.213 -0.4632 -0.4179 -0.2711
 5600SOL    HW128259   1.336   1.997   9.140 -0.0362 -0.1034 -0.6193
 5600SOL    HW228260   1.362   1.923   9.267 -1.5637  1.6985  1.7222
 5601SOL     OW28261   4.173   0.816   1.198  0.4074 -0.0442 -0.2464
 5601SOL    HW128262   4.147   0.874   1.269  0.8067  0.0160 -0.1480
 5601SOL    HW228263   4.138   0.865   1.123  1.1640  2.4821  1.0704
 5602SOL     OW28264   0.599   0.791  13.054  0.7543 -0.1163  0.2348
 5602SOL    HW128265   0.618   0.753  13.140 -1.8097 -0.3035  0.7121
 5602SOL    HW228266   0.678   0.772  13.003 -0.2820  0.4884 -1.5982
 5603SOL     OW28267   4.247   2.991   3.507 -0.1125 -0.2304 -0.3749
 5603SOL    HW128268   4.264   2.991   3.413 -0.3796  1.0605 -0.4312
 5603SOL    HW228269   4.281   3.076   3.536  0.8229 -0.7478  0.0461
 5604SOL     OW28270   0.687   2.567  10.220 -0.3267  0.2400 -0.0987
 5604SOL    HW128271   0.716   2.483  10.184 -1.3106  0.0594 -0.4849
 5604SOL    HW228272   0.741   2.632  10.176 -0.9224  1.1002  0.4604
 5605SOL     OW28273   4.364   4.018   9.955 -0.1667 -0.0433  0.0641
 5605SOL    HW128274   4.302   3.951   9.985 -0.2633 -1.0167 -2.3146
 5605SOL    HW228275   4.413   3.967   9.891 -1.1668 -0.2663 -0.5242
 5606SOL     OW28276   0.337   2.890  15.443 -0.9098 -0.6691 -0.3704
 5606SOL    HW128277   0.323   2.810  15.393 -0.0914  0.4748 -2.4346
 5606SOL    HW228278   0.300   2.961  15.391  0.9648 -0.1085 -0.9369
 5607SOL     OW28279   3.991   0.182  15.263 -0.3071 -0.2409  0.5423
 5607SOL    HW128280   3.920   0.188  15.327  0.2412 -1.2292  1.2472
 5607SOL    HW228281   3.943   0.175  15.181  2.0101  1.6639 -0.9660
 5608SOL     OW28282   4.340   1.712  16.969 -0.4310  0.5966  0.2443
 5608SOL    HW128283   4.345   1.698  17.064 -1.7890  1.0027  0.3708
 5608SOL    HW228284   4.290   1.631  16.960 -0.6532  0.8266 -0.6113
 5609SOL     OW28285   2.959   3.856   5.089 -0.4693  0.5669 -0.1264
 5609SOL    HW128286   3.009   3.928   5.051 -1.2047  0.6387 -0.9461
 5609SOL    HW228287   3.026   3.832   5.153 -3.1752 -0.6583  2.2691
 5610SOL     OW28288   3.875   1.903   5.272  0.4010  0.0924  0.7703
 5610SOL    HW128289   3.909   1.872   5.188 -2.4375 -1.1139  0.0776
 5610SOL    HW228290   3.845   1.993   5.264  1.3826  0.3761  0.3066
 5611SOL     OW28291   4.646   3.318   7.318 -0.1614  0.4261 -0.0531
 5611SOL    HW128292   4.663   3.387   7.255  0.2465  0.6250  0.2758
 5611SOL    HW228293   4.574   3.357   7.368  0.0077  3.0289 -1.8391
 5612SOL     OW28294   2.872   0.887  15.133 -0.1204  0.7940  0.2136
 5612SOL    HW128295   2.803   0.847  15.186  0.8180  0.1474  0.9395
 5612SOL    HW228296   2.818   0.919  15.060 -0.9199 -1.6816 -0.2714
 5613SOL     OW28297   0.705   0.454   7.164  0.5941  0.3813 -0.1223
 5613SOL    HW128298   0.723   0.411   7.080  1.4222 -3.1522  1.8179
 5613SOL    HW228299   0.620   0.494   7.149  0.6535  0.4113 -0.3751
 5614SOL     OW28300   3.939   4.543   4.654  0.1156  0.0242 -0.3066
 5614SOL    HW128301   3.954   4.509   4.742  1.9961  0.7228 -0.3581
 5614SOL    HW228302   4.027   4.554   4.619 -0.2710 -1.2982 -1.6871
 5615SOL     OW28303   3.192   4.519  11.323  0.3680 -0.3843 -0.3179
 5615SOL    HW128304   3.110   4.556  11.355  1.3891 -0.0107  1.8352
 5615SOL    HW228305   3.160   4.446  11.270 -2.0602  3.0042 -3.5257
 5616SOL     OW28306   3.487   4.402   2.794 -0.1225  0.1500  0.1571
 5616SOL    HW128307   3.448   4.363   2.872  1.3176 -0.8093  0.3863
 5616SOL    HW228308   3.460   4.494   2.800 -3.5009 -0.9576  1.6321
 5617SOL     OW28309   1.391   4.311   1.014 -0.0516 -0.0062 -0.8388
 5617SOL    HW128310   1.445   4.308   1.093 -0.7766  1.2209 -0.3066
 5617SOL    HW228311   1.427   4.391   0.974  0.6961 -0.1299 -0.4198
 5618SOL     OW28312   2.936   0.089   2.714 -0.8053  0.4957 -0.3055
 5618SOL    HW128313   2.868   0.060   2.774 -0.2290 -2.5865 -1.1868
 5618SOL    HW228314   3.009   0.098   2.776 -2.2356  2.2608  1.1450
 5619SOL     OW28315   4.635   2.469   9.667 -0.3556 -0.1793  0.2767
 5619SOL    HW128316   4.666   2.513   9.588  0.3625 -0.3581  0.4534
 5619SOL    HW228317   4.544   2.497   9.659 -0.3942 -0.9532 -1.8824
 5620SOL     OW28318   0.493   1.834   4.163 -0.0205  1.0010  0.7140
 5620SOL    HW128319   0.459   1.751   4.197  0.0231  0.1790 -1.2475
 5620SOL    HW228320   0.447   1.821   4.081 -0.5029  1.9256  0.8484
 5621SOL     OW28321   1.105   2.442   3.490 -0.0484 -0.0122  0.3343
 5621SOL    HW128322   1.076   2.485   3.570 -0.7529  0.9576 -0.4458
 5621SOL    HW228323   1.100   2.504   3.417 -1.6741 -0.9407 -0.3440
 5622SOL     OW28324   0.203   2.633  14.566 -0.4430 -0.7089  0.3628
 5622SOL    HW128325   0.247   2.674  14.491 -0.4506 -2.2667 -0.5004
 5622SOL    HW228326   0.113   2.642  14.534 -0.2353 -1.2377 -0.3647
 5623SOL     OW28327   0.677   4.041  17.454 -0.6661  0.5435 -0.6708
 5623SOL    HW128328   0.704   4.103  17.387 -2.1088  1.2913 -0.5769
 5623SOL    HW228329   0.736   3.968  17.438 -0.3657  0.6383 -0.0180
 5624SOL     OW28330   1.157   2.607  16.842 -0.1251 -0.2707  0.1935
 5624SOL    HW128331   1.246   2.638  16.861  0.4569 -0.9220 -1.4524
 5624SOL    HW228332   1.146   2.626  16.749 -0.6709  0.3275  0.3768
 5625SOL     OW28333   3.255   2.178   7.894 -0.1279 -0.6105 -0.4686
 5625SOL    HW128334   3.168   2.212   7.873  0.8983  2.2409 -0.0439
 5625SOL    HW228335   3.313   2.251   7.873 -1.0063  0.3587  0.4804
 5626SOL     OW28336   0.999   0.414   2.599  0.0556  0.7309 -0.1530
 5626SOL    HW128337   1.032   0.395   2.512 -0.1058 -0.4410  0.0474
 5626SOL    HW228338   0.966   0.328   2.625  1.1217  0.5282  0.5300
 5627SOL     OW28339   2.289   2.858  12.403 -0.8272  0.3096 -0.5489
 5627SOL    HW128340   2.315   2.932  12.348 -0.6446  0.2232 -0.5803
 5627SOL    HW228341   2.194   2.863  12.398 -0.8541 -0.7792 -1.2505
 5628SOL     OW28342   1.069   0.567   9.305 -0.0764 -0.5789 -0.4130
 5628SOL    HW128343   0.975   0.586   9.305  0.1205  0.4265  0.9241
 5628SOL    HW228344   1.086   0.540   9.215 -2.1261  0.9052 -1.2613
 5629SOL     OW28345   2.260   3.788   5.489  0.0623 -0.7946 -0.3454
 5629SOL    HW128346   2.165   3.783   5.489  0.0337 -0.1206  0.9457
 5629SOL    HW228347   2.281   3.695   5.477 -1.2335 -0.9928 -1.0618
 5630SOL     OW28348   0.772   2.284   5.368 -0.9770 -0.1642  0.0538
 5630SOL    HW128349   0.705   2.307   5.432  0.2333 -0.4468  1.4325
 5630SOL    HW228350   0.746   2.341   5.296 -1.5886  0.7786  1.0199
 5631SOL     OW28351   0.408   3.184   6.143  0.0292  0.3027  0.0811
 5631SOL    HW128352   0.488   3.192   6.090  1.2772 -0.7134  1.8031
 5631SOL    HW228353   0.397   3.275   6.170  1.7987  0.3018  0.7978
 5632SOL     OW28354   2.948   0.934   5.471 -1.1824 -0.4472  0.4691
 5632SOL    HW128355   2.865   0.954   5.428 -1.2608  1.4106  1.4994
 5632SOL    HW228356   2.915   0.905   5.556 -1.1047 -0.9096  0.3450
 5633SOL     OW28357   2.218   0.847   3.013  0.4338  0.2521  0.1365
 5633SOL    HW128358   2.284   0.911   3.038  0.4929 -0.4681  1.8730
 5633SOL    HW228359   2.243   0.820   2.925  0.2278  0.5750 -0.0178
 5634SOL     OW28360   2.208   4.700   8.060  0.6296 -0.3197 -0.2305
 5634SOL    HW128361   2.188   0.044   7.994 -1.1969  1.2285  1.8908
 5634SOL    HW228362   2.273   4.646   8.015 -1.0002 -1.6128 -1.0294
 5635SOL     OW28363   2.719   4.220   7.015 -0.1344  0.0137  1.0035
 5635SOL    HW128364   2.700   4.207   7.108  2.0026  4.1027  2.0092
 5635SOL    HW228365   2.631   4.200   6.983  0.0125  0.6154  0.2440
 5636SOL     OW28366   3.482   1.957  11.623 -0.0537 -0.4574  0.1891
 5636SOL    HW128367   3.547   1.967  11.553 -1.1476 -0.4010 -0.8241
 5636SOL    HW228368   3.408   1.912  11.582  0.3269  0.4008 -1.4220
 5637SOL     OW28369   3.466   2.178   1.670 -0.3476 -0.2364  0.0165
 5637SOL    HW128370   3.401   2.111   1.691  0.4509 -1.3108 -0.9745
 5637SOL    HW228371   3.420   2.248   1.717  1.7787 -0.1193  1.9148
 5638SOL     OW28372   3.577   2.413   6.366 -0.5030  0.2006  0.5095
 5638SOL    HW128373   3.609   2.323   6.365 -0.0226  0.3685  1.2457
 5638SOL    HW228374   3.482   2.400   6.373 -0.4818  0.8768  2.0868
 5639SOL     OW28375   0.688   1.962   7.192  0.1513 -0.4500 -0.5781
 5639SOL    HW128376   0.615   1.974   7.253 -1.1489 -0.4462 -2.1204
 5639SOL    HW228377   0.638   1.928   7.117 -0.7758 -1.4799  0.5057
 5640SOL     OW28378   1.916   2.465  13.987  0.3193 -0.7621 -0.2891
 5640SOL    HW128379   1.923   2.401  13.915 -0.2911 -0.2882 -0.7738
 5640SOL    HW228380   1.846   2.423  14.036  0.3674  0.3923  0.7471
 5641SOL     OW28381   0.009   3.100   8.412 -0.6552  0.1092 -0.4165
 5641SOL    HW128382   4.647   3.110   8.456 -0.3158  0.8026  0.0941
 5641SOL    HW228383   0.057   3.172   8.453  0.2198  0.5383 -2.2226
 5642SOL     OW28384   1.454   2.176  11.022  0.4268  1.2568  0.3470
 5642SOL    HW128385   1.506   2.150  11.098 -0.0114  0.0832  0.2403
 5642SOL    HW228386   1.440   2.265  11.054 -1.3745  0.4150  1.9392
 5643SOL     OW28387   3.868   3.189   7.484 -0.2876 -1.0636  0.0475
 5643SOL    HW128388   3.922   3.247   7.538 -0.0238  0.3258 -1.7230
 5643SOL    HW228389   3.883   3.111   7.538  1.8844 -0.5350  0.2175
 5644SOL     OW28390   3.024   2.830   7.232 -0.5379  0.5848 -0.3619
 5644SOL    HW128391   3.109   2.807   7.270 -0.5204 -2.3864 -2.1899
 5644SOL    HW228392   3.057   2.869   7.151  0.3235  1.9733  0.6487
 5645SOL     OW28393   1.224   0.080   4.288  0.0104  0.3513 -0.3741
 5645SOL    HW128394   1.291   0.087   4.220 -0.2581  1.4708 -0.5155
 5645SOL    HW228395   1.179   0.163   4.296  2.2378  1.4242  0.8878
 5646SOL     OW28396   3.887   0.426  10.908  0.1008  0.0016  0.3706
 5646SOL    HW128397   3.975   0.455  10.932  0.3174  0.0626 -0.4799
 5646SOL    HW228398   3.839   0.486  10.965 -0.4514 -1.6131  1.5934
 5647SOL     OW28399   1.625   0.600   8.075 -0.5722  0.7454 -0.1124
 5647SOL    HW128400   1.531   0.616   8.062 -1.0791 -0.2701  2.3990
 5647SOL    HW228401   1.643   0.528   8.016 -0.1865  2.2938 -1.9030
 5648SOL     OW28402   2.028   2.819   6.200 -0.0257  0.3740  0.0013
 5648SOL    HW128403   1.953   2.851   6.149 -1.2354 -1.8292  0.4394
 5648SOL    HW228404   2.062   2.904   6.228  3.3100 -1.6128  2.0342
 5649SOL     OW28405   0.888   1.639  15.256 -0.2343 -0.1156  0.0415
 5649SOL    HW128406   0.955   1.701  15.227 -0.2195 -0.2406 -0.1857
 5649SOL    HW228407   0.821   1.700  15.288  0.9320  1.5999 -0.7672
 5650SOL     OW28408   3.781   4.110   8.786  0.3468 -0.0914  0.3628
 5650SOL    HW128409   3.757   4.035   8.840  1.9185  0.7623  2.2240
 5650SOL    HW228410   3.700   4.139   8.745  1.1045  2.9552  1.0375
 5651SOL     OW28411   1.707   1.100   0.907 -0.4802 -0.5152  0.1594
 5651SOL    HW128412   1.696   1.024   0.851  0.2351  1.3133 -2.5000
 5651SOL    HW228413   1.688   1.073   0.997 -1.5784 -0.4958 -0.0612
 5652SOL     OW28414   2.568   0.485   2.378  0.4187  1.0352  0.1245
 5652SOL    HW128415   2.637   0.441   2.328  0.0860  0.2946  0.3023
 5652SOL    HW228416   2.516   0.409   2.407  0.5348 -0.1000 -2.6529
 5653SOL     OW28417   1.703   3.423   0.546 -0.5844 -0.3905 -0.0585
 5653SOL    HW128418   1.718   3.446   0.638  0.8960 -0.8583 -0.1842
 5653SOL    HW228419   1.615   3.461   0.534  0.3213  1.4307 -0.9623
 5654SOL     OW28420   1.360   2.760   7.326 -0.0052  0.0553  0.2534
 5654SOL    HW128421   1.348   2.807   7.409 -1.0879 -3.0899  1.8589
 5654SOL    HW228422   1.444   2.793   7.294  0.1233  1.8416  2.4460
 5655SOL     OW28423   0.572   2.744  13.060 -0.3629 -0.0272 -0.2580
 5655SOL    HW128424   0.607   2.829  13.034 -1.0328  0.4909  0.5437
 5655SOL    HW228425   0.484   2.779  13.072 -0.1870  0.3352 -0.0272
 5656SOL     OW28426   2.933   0.996   6.587  0.5185  0.2368 -0.6004
 5656SOL    HW128427   2.930   1.039   6.673  0.2548  2.1765 -1.5887
 5656SOL    HW228428   2.992   0.922   6.599 -0.5589 -0.1806  2.1135
 5657SOL     OW28429   3.677   1.149  10.924 -0.6030  0.1790  0.1764
 5657SOL    HW128430   3.766   1.155  10.888 -2.7549  1.4809 -4.8929
 5657SOL    HW228431   3.623   1.177  10.849 -0.4788  0.4413  0.1856
 5658SOL     OW28432   3.564   0.638  17.638  0.5783  0.3237 -0.9244
 5658SOL    HW128433   3.571   0.642   0.042  0.4440  1.7691 -0.9755
 5658SOL    HW228434   3.500   0.709  17.636 -0.7644 -0.8034  1.5934
 5659SOL     OW28435   4.711   4.032   5.094 -0.2691  0.1997  0.2425
 5659SOL    HW128436   0.007   3.939   5.085  0.4389  0.2842  0.9089
 5659SOL    HW228437   4.616   4.033   5.081  0.0542 -1.8917 -2.3546
 5660SOL     OW28438   1.686   2.118   6.270 -0.1658 -0.5386  0.0911
 5660SOL    HW128439   1.641   2.035   6.285  0.3640 -1.0354 -1.0610
 5660SOL    HW228440   1.770   2.081   6.301  0.1165  0.0525  0.0327
 5661SOL     OW28441   2.599   3.878   7.950  0.6534 -0.1674 -0.4877
 5661SOL    HW128442   2.518   3.840   7.983  1.4026 -2.2103 -0.9810
 5661SOL    HW228443   2.631   3.911   8.034  0.1910 -2.5792  0.6389
 5662SOL     OW28444   1.362   4.225  14.444 -0.9171  0.1322  0.1151
 5662SOL    HW128445   1.361   4.215  14.349  1.0864 -0.7620  0.1878
 5662SOL    HW228446   1.270   4.211  14.467 -0.2923  1.1670  3.3000
 5663SOL     OW28447   3.393   2.820   6.902  0.0941 -0.6318 -0.8633
 5663SOL    HW128448   3.395   2.849   6.811 -1.2177 -0.2728 -0.7736
 5663SOL    HW228449   3.435   2.736   6.887 -1.2940 -1.7872  1.7175
 5664SOL     OW28450   2.989   2.329  12.905  0.1007  0.1105  0.9510
 5664SOL    HW128451   3.050   2.255  12.903  2.5772  2.1700 -0.2790
 5664SOL    HW228452   3.025   2.398  12.848 -1.7649  0.5785  0.3481
 5665SOL     OW28453   4.207   3.060  10.010  0.4228 -0.1226 -0.6952
 5665SOL    HW128454   4.283   3.003  10.001 -0.4538 -1.6995  1.8447
 5665SOL    HW228455   4.226   3.101  10.095  2.8368  1.8055 -2.1829
 5666SOL     OW28456   1.169   4.346   8.301  0.3838  0.1099  0.3621
 5666SOL    HW128457   1.179   4.252   8.285  0.1272  0.2632 -0.7438
 5666SOL    HW228458   1.074   4.348   8.311  0.1441  0.7822 -2.0297
 5667SOL     OW28459   1.764   1.743  12.009  0.2811 -0.0900 -0.1439
 5667SOL    HW128460   1.813   1.693  12.075  0.4974 -0.0011 -0.2378
 5667SOL    HW228461   1.784   1.699  11.927 -1.0648  0.8756 -0.9977
 5668SOL     OW28462   3.864   2.319   5.699 -0.5128  0.1531  0.0337
 5668SOL    HW128463   3.824   2.377   5.763 -2.4001 -1.2542  0.1256
 5668SOL    HW228464   3.815   2.239   5.714  0.5630 -1.2946 -3.9877
 5669SOL     OW28465   1.593   1.678   4.910  0.2575 -0.3742  0.1717
 5669SOL    HW128466   1.681   1.642   4.898  0.2372 -0.4055  0.1160
 5669SOL    HW228467   1.582   1.683   5.005  0.3635  3.8364 -0.0416
 5670SOL     OW28468   0.721   3.778   4.380 -0.5103 -0.3012 -0.4134
 5670SOL    HW128469   0.718   3.740   4.292  0.0260  0.9281 -0.9582
 5670SOL    HW228470   0.689   3.864   4.352  1.8556  0.7353  0.1185
 5671SOL     OW28471   2.792   1.810   6.264 -0.7246  0.0108  0.4946
 5671SOL    HW128472   2.813   1.883   6.322 -1.6517  1.2382 -0.7161
 5671SOL    HW228473   2.706   1.786   6.300  0.0039  0.7114  2.7127
 5672SOL     OW28474   3.724   4.305   7.515 -0.1311 -0.4193  0.5367
 5672SOL    HW128475   3.683   4.328   7.431 -0.6691 -0.1005  0.8879
 5672SOL    HW228476   3.778   4.239   7.472 -1.5705 -0.9456 -0.4387
 5673SOL     OW28477   3.692   3.722   1.210  0.1847  0.2275 -0.2007
 5673SOL    HW128478   3.728   3.641   1.173 -0.0158  0.3558 -0.6714
 5673SOL    HW228479   3.614   3.738   1.157  0.4777  1.1564 -0.3492
 5674SOL     OW28480   2.698   2.609   4.852 -0.4974  0.0774 -0.6989
 5674SOL    HW128481   2.641   2.553   4.904 -0.9000 -0.0602 -1.2884
 5674SOL    HW228482   2.678   2.582   4.763  0.4537 -0.2090 -0.8130
 5675SOL     OW28483   0.469   2.419   0.962  0.1111  0.4085  0.7395
 5675SOL    HW128484   0.428   2.468   0.891 -1.3089 -1.2944  0.3753
 5675SOL    HW228485   0.394   2.411   1.021 -0.0946 -1.5217  0.2353
 5676SOL     OW28486   3.203   3.169   6.852 -0.5131  0.8151  0.0905
 5676SOL    HW128487   3.253   3.251   6.857  1.6505 -0.7208  3.7833
 5676SOL    HW228488   3.165   3.172   6.764  1.3300 -1.6684 -0.7729
 5677SOL     OW28489   0.773   3.482   6.926  0.0081 -0.0983  0.0628
 5677SOL    HW128490   0.767   3.525   6.841  0.0884 -0.8310 -0.3122
 5677SOL    HW228491   0.865   3.505   6.942  0.7437 -2.1500 -1.0987
 5678SOL     OW28492   4.589   0.755   5.251  0.2615 -0.2855  0.1011
 5678SOL    HW128493   4.597   0.810   5.329 -1.0767 -1.2897  0.9380
 5678SOL    HW228494   4.666   0.699   5.257  0.0357 -0.5589  0.4231
 5679SOL     OW28495   2.856   4.193  10.823 -0.0747 -0.1377  0.0846
 5679SOL    HW128496   2.791   4.224  10.759 -2.6673 -0.9920  2.3251
 5679SOL    HW228497   2.839   4.249  10.898 -0.3952 -0.8561  0.5484
 5680SOL     OW28498   0.540   3.240   5.684  0.2661 -0.1493 -0.3111
 5680SOL    HW128499   0.582   3.325   5.673 -0.1852  0.2329  0.9464
 5680SOL    HW228500   0.459   3.250   5.634 -1.4203  1.3895  2.7177
 5681SOL     OW28501   1.027   4.207   8.692  0.1934  0.5422  0.0094
 5681SOL    HW128502   1.061   4.150   8.761  0.2826 -0.2756 -0.6961
 5681SOL    HW228503   0.960   4.148   8.659  2.8760 -1.4038 -1.9949
 5682SOL     OW28504   2.939   3.700   8.049 -0.3079  0.0960  0.0793
 5682SOL    HW128505   3.033   3.679   8.045 -0.2272  0.0751  1.8302
 5682SOL    HW228506   2.916   3.706   7.957 -0.7253 -0.6209  0.1393
 5683SOL     OW28507   3.788   1.593  14.564  0.2082 -0.0137 -0.3824
 5683SOL    HW128508   3.796   1.523  14.629 -0.8708  1.7017  1.5863
 5683SOL    HW228509   3.880   1.603  14.541  0.1716 -0.2431 -0.6370
 5684SOL     OW28510   4.270   1.490   1.800  0.2642  0.1635  0.1341
 5684SOL    HW128511   4.177   1.468   1.807  0.4116 -0.3017  0.6472
 5684SOL    HW228512   4.276   1.515   1.708 -2.9785 -0.3819 -0.2357
 5685SOL     OW28513   1.800   4.476   2.764  0.3731 -0.6609  0.2633
 5685SOL    HW128514   1.838   4.555   2.727 -3.3642  0.7449 -0.6084
 5685SOL    HW228515   1.832   4.417   2.695 -1.9752 -0.5260 -0.9465
 5686SOL     OW28516   2.617   1.120   1.579 -0.3073  0.2401 -0.5752
 5686SOL    HW128517   2.687   1.078   1.628 -0.4288 -2.5683 -2.7925
 5686SOL    HW228518   2.653   1.126   1.490 -0.4936  3.5596 -0.4177
 5687SOL     OW28519   2.794   2.358  11.649 -0.0488  0.0112  0.3039
 5687SOL    HW128520   2.729   2.426  11.630  0.7465  0.2354 -1.5162
 5687SOL    HW228521   2.875   2.381  11.603 -1.4445 -2.5366 -3.4288
 5688SOL     OW28522   1.310   4.071   6.761 -0.3509 -0.2060 -0.1499
 5688SOL    HW128523   1.245   4.034   6.821 -0.9535 -0.5463 -1.0256
 5688SOL    HW228524   1.256   4.123   6.702  2.4497  1.6056 -1.1413
 5689SOL     OW28525   0.172   1.179   3.036  0.2287  0.2830 -0.1783
 5689SOL    HW128526   0.212   1.264   3.020  1.2059 -0.1864 -0.2230
 5689SOL    HW228527   0.083   1.210   3.051 -1.0240 -2.3850 -2.1408
 5690SOL     OW28528   0.021   1.482   2.881 -0.3132 -0.3776  0.0516
 5690SOL    HW128529   0.015   1.577   2.885  0.5101 -0.3559  0.7654
 5690SOL    HW228530   4.653   1.461   2.907 -0.3437 -2.3489 -1.6387
 5691SOL     OW28531   3.150   2.926   6.472  0.3100 -0.2565 -0.2516
 5691SOL    HW128532   3.156   2.997   6.536  0.5952  2.1941 -2.9726
 5691SOL    HW228533   3.239   2.921   6.437  1.9423 -0.5411  3.9666
 5692SOL     OW28534   0.484   0.404  12.118 -0.6527  0.0408 -0.5608
 5692SOL    HW128535   0.565   0.452  12.100 -0.8778 -0.2914 -2.4049
 5692SOL    HW228536   0.512   0.318  12.149  0.0970  0.8726  1.0761
 5693SOL     OW28537   3.755   2.099   2.892  0.1654 -0.0864  0.2742
 5693SOL    HW128538   3.733   2.042   2.966  0.2614  0.8306  1.0065
 5693SOL    HW228539   3.710   2.181   2.909 -1.6226 -1.1979  0.9319
 5694SOL     OW28540   2.237   4.610   1.258  0.3807  0.6053  0.3500
 5694SOL    HW128541   2.319   4.562   1.262 -1.6961 -3.1096 -0.7323
 5694SOL    HW228542   2.207   4.583   1.171  1.2708  0.8452 -0.0195
 5695SOL     OW28543   1.757   2.374   7.894  0.5820 -0.4379 -0.3449
 5695SOL    HW128544   1.822   2.388   7.962 -1.3928  2.5683  0.9564
 5695SOL    HW228545   1.795   2.439   7.835 -2.0750  1.5057  0.0842
 5696SOL     OW28546   0.302   4.061  14.322  0.0642  0.2561  0.0927
 5696SOL    HW128547   0.345   3.984  14.361 -0.3075  0.6111  1.2189
 5696SOL    HW228548   0.376   4.119  14.306  1.5173 -1.3633  0.8739
 5697SOL     OW28549   1.927   4.383   4.122  0.2612 -0.2188 -0.2899
 5697SOL    HW128550   1.863   4.314   4.140 -0.6820  0.5990 -0.5468
 5697SOL    HW228551   1.979   4.350   4.048  1.5468  1.0184  0.0670
 5698SOL     OW28552   1.481   3.488   9.799 -0.1096 -0.0529 -0.0391
 5698SOL    HW128553   1.454   3.554   9.864  0.5123  0.9287 -0.7870
 5698SOL    HW228554   1.570   3.466   9.824  0.0259 -0.2574 -0.7259
 5699SOL     OW28555   2.829   3.894   6.632  0.5803 -0.4333  0.1733
 5699SOL    HW128556   2.740   3.923   6.652  0.1093 -0.8737 -1.2931
 5699SOL    HW228557   2.825   3.800   6.653 -0.4460 -0.7249 -1.3164
 5700SOL     OW28558   0.870   0.322   3.631 -0.2052  0.0486 -0.3144
 5700SOL    HW128559   0.922   0.317   3.551  0.9471  0.9700  0.3705
 5700SOL    HW228560   0.830   0.408   3.616 -1.5581 -1.2545 -4.1795
 5701SOL     OW28561   0.890   0.500   1.570  0.4343 -0.6914  0.0714
 5701SOL    HW128562   0.972   0.535   1.606  2.4775 -2.0245 -3.3934
 5701SOL    HW228563   0.886   0.407   1.590  2.0071 -0.3396  2.0784
 5702SOL     OW28564   2.574   0.546   0.200  0.3367  0.6864  0.1110
 5702SOL    HW128565   2.495   0.537   0.253 -0.8925 -0.8755 -2.0330
 5702SOL    HW228566   2.558   0.622   0.145  1.4559  1.5580  0.9672
 5703SOL     OW28567   4.110   4.212   4.062 -0.6516 -0.3054  0.0919
 5703SOL    HW128568   4.066   4.146   4.115  1.9189 -2.2497 -0.2147
 5703SOL    HW228569   4.034   4.267   4.044 -0.2601  0.1061 -0.3219
 5704SOL     OW28570   3.809   3.663  13.173 -0.3831  0.1242 -0.0001
 5704SOL    HW128571   3.744   3.705  13.117 -0.8884  3.7912  3.2829
 5704SOL    HW228572   3.751   3.656  13.249  0.2607 -1.2616  0.3697
 5705SOL     OW28573   0.063   1.153   4.312  0.6584 -0.7442  0.2762
 5705SOL    HW128574   0.005   1.077   4.302  0.2134 -0.4727  0.8076
 5705SOL    HW228575   0.009   1.223   4.275  1.0155 -0.3608  0.4870
 5706SOL     OW28576   2.586   4.425   9.976 -0.3062  0.9214  0.6355
 5706SOL    HW128577   2.544   4.339   9.984  2.1878 -0.3441 -0.2058
 5706SOL    HW228578   2.613   4.419   9.885  0.8891 -1.1650  1.1204
 5707SOL     OW28579   2.990   2.142  15.874 -0.3117 -0.0991  0.2773
 5707SOL    HW128580   3.055   2.144  15.803  0.1710 -0.2348  0.7121
 5707SOL    HW228581   2.953   2.230  15.867  1.9336  1.0037  2.1647
 5708SOL     OW28582   2.571   0.208   4.410  0.0377  0.2906  0.7364
 5708SOL    HW128583   2.503   0.189   4.345 -0.8027  1.2160  1.3530
 5708SOL    HW228584   2.651   0.228   4.362  0.7675 -0.8005  1.4988
 5709SOL     OW28585   0.760   3.677   0.798 -0.1363  0.0264 -0.4525
 5709SOL    HW128586   0.698   3.612   0.832 -3.1550  2.0693 -2.1241
 5709SOL    HW228587   0.823   3.669   0.870 -0.0718  0.0656 -0.5048
 5710SOL     OW28588   3.641   3.910   4.343 -0.6753 -0.7100 -0.1086
 5710SOL    HW128589   3.547   3.924   4.329 -0.1734 -0.1074 -2.9571
 5710SOL    HW228590   3.665   3.848   4.274  1.9545  1.6205 -1.2442
 5711SOL     OW28591   1.817   1.529  15.315 -0.5172 -0.2159  0.0816
 5711SOL    HW128592   1.909   1.554  15.326 -0.8064  0.0970  1.8481
 5711SOL    HW228593   1.773   1.536  15.400 -1.0511  0.7993 -0.2760
 5712SOL     OW28594   0.238   3.760   3.002 -0.1372  0.1015  0.4167
 5712SOL    HW128595   0.242   3.757   2.906 -2.2051  1.2911  0.3069
 5712SOL    HW228596   0.264   3.850   3.018 -1.9932  1.0553 -1.9196
 5713SOL     OW28597   3.482   1.144   8.158 -0.0842  0.3748 -0.4694
 5713SOL    HW128598   3.425   1.188   8.222 -0.2825  0.5960 -0.8007
 5713SOL    HW228599   3.535   1.101   8.225 -0.8493 -0.1949 -0.2340
 5714SOL     OW28600   1.722   2.060   3.870 -1.2384 -0.1316  0.4104
 5714SOL    HW128601   1.710   2.149   3.837  1.2699 -0.2446 -0.7788
 5714SOL    HW228602   1.641   2.057   3.921 -1.0456 -2.2689  0.5920
 5715SOL     OW28603   1.652   1.816   4.291 -0.1854 -0.4630 -0.6161
 5715SOL    HW128604   1.584   1.748   4.284  0.2016 -0.9723  0.6078
 5715SOL    HW228605   1.685   1.810   4.201  1.9662 -1.5225  0.2496
 5716SOL     OW28606   3.044   3.589  17.056 -0.0938 -0.2577 -0.3463
 5716SOL    HW128607   2.965   3.543  17.031 -0.6686  0.7721 -0.4353
 5716SOL    HW228608   3.091   3.531  17.116 -1.8349  0.5808  1.8498
 5717SOL     OW28609   1.653   2.517   7.337  0.1309 -0.3950 -0.9195
 5717SOL    HW128610   1.643   2.576   7.263  0.3434 -0.4529 -0.9960
 5717SOL    HW228611   1.617   2.434   7.305  0.7449 -0.0362 -2.5079
 5718SOL     OW28612   2.946   1.405   8.099 -0.1351  0.3174  0.5205
 5718SOL    HW128613   2.928   1.387   8.007 -2.8528 -0.2773  1.1838
 5718SOL    HW228614   2.887   1.339   8.137  0.9786 -0.1979  1.3839
 5719SOL     OW28615   2.736   1.027   7.776  0.5532  0.2141 -0.1077
 5719SOL    HW128616   2.668   1.024   7.844  2.1308  1.5051  1.5314
 5719SOL    HW228617   2.690   1.065   7.701 -0.6533  0.3862  0.7220
 5720SOL     OW28618   3.457   0.233   5.159 -0.0753 -0.3503 -0.5727
 5720SOL    HW128619   3.506   0.315   5.148 -0.1278 -0.3801 -0.9963
 5720SOL    HW228620   3.534   0.177   5.146 -0.0562 -0.9056  1.7926
 5721SOL     OW28621   3.880   3.291   8.659 -0.6411  0.1545 -0.0713
 5721SOL    HW128622   3.809   3.256   8.605 -0.0802 -1.3574  0.1553
 5721SOL    HW228623   3.894   3.214   8.714  0.4961  0.0772 -0.4807
 5722SOL     OW28624   4.711   3.488   4.928  0.0504  0.1361  0.0325
 5722SOL    HW128625   4.641   3.436   4.890 -0.5225 -0.3526  1.7701
 5722SOL    HW228626   0.065   3.454   4.881 -1.5625  1.1935 -3.3942
 5723SOL     OW28627   4.638   0.308   9.705 -0.2336 -0.1935  0.9886
 5723SOL    HW128628   4.708   0.243   9.713  1.5083  1.1726 -2.9749
 5723SOL    HW228629   4.601   0.288   9.618  0.1371  1.9612  0.3401
 5724SOL     OW28630   3.252   3.537   6.579 -0.5354 -0.4807 -0.4327
 5724SOL    HW128631   3.323   3.602   6.578  0.3724 -1.5558 -2.7972
 5724SOL    HW228632   3.178   3.587   6.614  0.8985  0.5280  1.1631
 5725SOL     OW28633   0.442   1.039   9.884 -0.8066 -0.4737 -0.0946
 5725SOL    HW128634   0.447   1.128   9.918 -3.9534 -0.3855  0.1249
 5725SOL    HW228635   0.402   0.993   9.957  1.6503 -0.0695  1.4978
 5726SOL     OW28636   0.124   4.696   7.200  0.3380  0.4993  0.4904
 5726SOL    HW128637   0.115   4.612   7.156  0.3021  1.1064 -0.6453
 5726SOL    HW228638   0.219   4.705   7.209  0.4377  1.3130 -1.5198
 5727SOL     OW28639   1.279   3.067   9.842 -0.3698 -0.7108 -0.0467
 5727SOL    HW128640   1.332   3.126   9.788  0.8240  1.3268  3.3224
 5727SOL    HW228641   1.352   3.010   9.866  2.6483  2.4981 -1.5653
 5728SOL     OW28642   4.314   1.970  13.123  0.0943  0.3955  0.2663
 5728SOL    HW128643   4.409   1.962  13.121  0.2028  1.8412 -0.7741
 5728SOL    HW228644   4.303   2.049  13.176  1.9981 -0.1093  1.3900
 5729SOL     OW28645   0.452   3.961   5.053 -0.2210  0.0223  0.2271
 5729SOL    HW128646   0.384   3.906   5.092 -1.1481  0.9886 -0.0428
 5729SOL    HW228647   0.529   3.921   5.093 -0.2491 -0.2767 -0.0161
 5730SOL     OW28648   0.779   2.653   7.606  0.3671 -0.2483  0.1801
 5730SOL    HW128649   0.713   2.662   7.674 -1.1492  4.1552 -1.8415
 5730SOL    HW228650   0.796   2.560   7.617  0.0737 -0.4066 -0.7067
 5731SOL     OW28651   1.341   2.608   4.412 -0.1998  0.0754  0.3575
 5731SOL    HW128652   1.354   2.588   4.319 -0.2663 -0.4344  0.4534
 5731SOL    HW228653   1.250   2.581   4.418 -0.4962  0.4281 -2.3671
 5732SOL     OW28654   1.844   4.041   5.487  0.2433 -0.1296 -0.1815
 5732SOL    HW128655   1.801   4.099   5.549  0.7686  1.2967 -1.1599
 5732SOL    HW228656   1.928   4.034   5.532  0.1945 -0.5677 -0.1628
 5733SOL     OW28657   0.989   1.338   2.948  0.6354  0.0302  0.1742
 5733SOL    HW128658   1.067   1.302   2.907  0.4846  1.4343 -1.3617
 5733SOL    HW228659   0.923   1.315   2.882  0.3159 -1.4588  1.0180
 5734SOL     OW28660   1.685   0.050   0.951  1.1380 -0.7655 -0.5876
 5734SOL    HW128661   1.649   0.138   0.944  3.4112  0.2373  0.2682
 5734SOL    HW228662   1.630   0.012   1.020  1.5107 -3.5051 -1.7642
 5735SOL     OW28663   2.787   1.998  10.565 -0.1315 -0.0579 -0.0503
 5735SOL    HW128664   2.775   2.075  10.620 -0.3041  0.7286 -1.1850
 5735SOL    HW228665   2.848   1.948  10.619 -0.3511  0.3301  0.5509
 5736SOL     OW28666   4.675   0.386  10.451  0.5160  0.3254 -0.8380
 5736SOL    HW128667   4.598   0.337  10.477  1.0353 -1.5432 -2.8713
 5736SOL    HW228668   4.700   0.431  10.532 -0.8202 -0.6027  0.0735
 5737SOL     OW28669   0.591   1.762   6.420 -0.0576  0.2280 -0.5959
 5737SOL    HW128670   0.509   1.810   6.412  1.0991  2.4959  1.1877
 5737SOL    HW228671   0.634   1.783   6.337  0.4813  1.3135 -0.0475
 5738SOL     OW28672   0.560   2.439   9.169  0.1763 -0.2178  0.0606
 5738SOL    HW128673   0.500   2.506   9.137  1.6086  1.7305  1.3695
 5738SOL    HW228674   0.626   2.499   9.205 -0.7073  1.8673 -1.7906
 5739SOL     OW28675   4.041   1.245  17.211  0.2720 -0.4430 -0.3218
 5739SOL    HW128676   4.086   1.195  17.144  0.5791 -0.8820  0.2072
 5739SOL    HW228677   4.038   1.330  17.168  3.4983  0.1572  0.6977
 5740SOL     OW28678   3.198   0.366   0.160 -0.0136  0.0624 -0.2421
 5740SOL    HW128679   3.186   0.433   0.092 -0.9774  0.3270  0.1932
 5740SOL    HW228680   3.275   0.315   0.135 -0.5451 -1.2549  0.7842
 5741SOL     OW28681   1.149   0.971  16.191  0.3101 -0.3160 -0.1248
 5741SOL    HW128682   1.209   0.910  16.234  0.3494  1.0359  1.7509
 5741SOL    HW228683   1.164   0.950  16.099 -0.9902  2.4837 -0.9689
 5742SOL     OW28684   0.429   3.724  16.845 -0.2169  0.4544  0.1453
 5742SOL    HW128685   0.455   3.815  16.828  4.3168 -1.0970 -1.2188
 5742SOL    HW228686   0.359   3.733  16.910  0.4217 -1.9953  1.1688
 5743SOL     OW28687   4.637   3.525   5.317  0.0738 -0.2245 -0.0407
 5743SOL    HW128688   4.589   3.603   5.289  0.4115  0.1218  0.3486
 5743SOL    HW228689   4.625   3.528   5.411 -0.0870  2.5232 -0.1454
 5744SOL     OW28690   1.866   2.793   4.033 -0.0235 -0.2021  0.3093
 5744SOL    HW128691   1.904   2.794   4.121  0.3062  0.0643  0.1627
 5744SOL    HW228692   1.807   2.717   4.035 -0.1579 -0.1280 -1.0834
 5745SOL     OW28693   0.754   2.950  16.172  0.7155  0.0565  0.2542
 5745SOL    HW128694   0.786   3.035  16.140  0.3299  0.0091 -0.2615
 5745SOL    HW228695   0.676   2.984  16.216  0.8219  0.8521 -0.1649
 5746SOL     OW28696   3.516   2.544   4.818  0.5885  0.0901  0.3144
 5746SOL    HW128697   3.444   2.605   4.800 -2.3713 -2.9086  1.9964
 5746SOL    HW228698   3.550   2.585   4.898  1.6078 -1.4887  0.6821
 5747SOL     OW28699   1.368   2.419  13.091  0.1096 -0.2494 -0.0609
 5747SOL    HW128700   1.422   2.460  13.022  0.2810  0.1479  0.3099
 5747SOL    HW228701   1.436   2.401  13.156  0.0849  0.1317  0.0682
 5748SOL     OW28702   3.730   0.694   7.928 -0.7639  0.2282 -0.3191
 5748SOL    HW128703   3.724   0.783   7.963 -1.5230 -0.0517  0.2764
 5748SOL    HW228704   3.812   0.700   7.878 -0.0210 -1.4713  0.6849
 5749SOL     OW28705   1.100   4.163  15.805  0.0411 -0.8444 -0.3553
 5749SOL    HW128706   1.168   4.133  15.865 -0.6217 -0.0198  0.8129
 5749SOL    HW228707   1.027   4.103  15.816 -1.1489  0.5842 -0.5009
 5750SOL     OW28708   2.375   0.501   8.503 -0.1866 -0.1596 -0.0083
 5750SOL    HW128709   2.326   0.454   8.570  0.6427 -1.7097 -0.4845
 5750SOL    HW228710   2.331   0.587   8.504  0.6813  0.2867 -0.0121
 5751SOL     OW28711   4.364   1.829   6.689 -0.7913  0.3751 -0.1023
 5751SOL    HW128712   4.293   1.825   6.624 -0.2827 -1.6573 -0.5334
 5751SOL    HW228713   4.418   1.753   6.664  1.2048  1.8582 -0.2703
 5752SOL     OW28714   2.953   1.176   7.199 -0.0197  0.5810 -0.1549
 5752SOL    HW128715   2.975   1.270   7.201  2.0786  0.0945 -0.2300
 5752SOL    HW228716   2.865   1.176   7.160 -0.2205  0.6999  0.3046
 5753SOL     OW28717   2.021   3.936   1.322  0.1872  0.1770  0.1427
 5753SOL    HW128718   2.078   3.880   1.269 -0.9694 -0.1981 -0.6982
 5753SOL    HW228719   2.086   3.959   1.388  0.6757 -1.0071  0.0764
 5754SOL     OW28720   2.911   3.555   1.520  0.3718  0.2111  0.0984
 5754SOL    HW128721   2.823   3.518   1.515  0.6407 -0.4643  0.2794
 5754SOL    HW228722   2.908   3.612   1.443  0.0822 -0.0276 -0.0688
 5755SOL     OW28723   1.295   0.393  17.326  0.2354 -0.0623 -0.0195
 5755SOL    HW128724   1.378   0.394  17.373 -0.1473  1.3871  0.6147
 5755SOL    HW228725   1.269   0.484  17.339 -0.5270  0.0608 -2.3123
 5756SOL     OW28726   0.575   3.669   7.962  0.2632  1.0100  0.3778
 5756SOL    HW128727   0.617   3.612   7.898  0.6031  0.5955  0.9668
 5756SOL    HW228728   0.624   3.649   8.042 -2.2478 -0.0450  1.6425
 5757SOL     OW28729   0.299   4.476  12.073  0.3655 -0.4629  0.0360
 5757SOL    HW128730   0.290   4.571  12.066  1.6382 -0.2649  1.0731
 5757SOL    HW228731   0.271   4.452  11.985  0.8367  0.7417 -0.4371
 5758SOL     OW28732   2.131   0.385   8.169 -0.1994 -0.1710 -0.2573
 5758SOL    HW128733   2.068   0.383   8.098  0.5740 -1.0960 -0.9272
 5758SOL    HW228734   2.122   0.472   8.207  1.0576  0.0462 -0.4458
 5759SOL     OW28735   0.488   2.776  15.843 -0.5019  0.1705 -0.1686
 5759SOL    HW128736   0.464   2.683  15.847 -0.2199  0.0597 -1.0661
 5759SOL    HW228737   0.556   2.774  15.911 -0.8373 -0.8210  0.1496
 5760SOL     OW28738   0.456   1.078  10.383 -0.1119  0.4750 -0.7169
 5760SOL    HW128739   0.370   1.109  10.352  0.2999  0.9940 -1.3385
 5760SOL    HW228740   0.478   0.999  10.334  2.1815  1.0851 -0.6584
 5761SOL     OW28741   2.771   0.615  10.830  0.2587 -0.7654  0.4829
 5761SOL    HW128742   2.808   0.691  10.785  1.4872 -0.6748  1.6578
 5761SOL    HW228743   2.830   0.543  10.809  0.1733 -0.3233 -1.3230
 5762SOL     OW28744   1.680   1.645   8.860 -0.0983 -0.0108  0.2802
 5762SOL    HW128745   1.619   1.571   8.856 -0.2231  0.1655 -0.9164
 5762SOL    HW228746   1.615   1.715   8.860 -0.3252 -0.2233 -0.1711
 5763SOL     OW28747   0.968   1.063   9.388  0.3442  0.2835 -0.4376
 5763SOL    HW128748   0.903   1.058   9.318  0.6865  0.9181 -0.8042
 5763SOL    HW228749   0.924   1.007   9.452  1.8534  1.4216  1.6361
 5764SOL     OW28750   1.758   2.669  11.903  0.0449 -0.4584  0.0489
 5764SOL    HW128751   1.764   2.576  11.879  1.7335 -0.4586  0.4392
 5764SOL    HW228752   1.846   2.708  11.901 -0.6329  1.1797  2.4681
 5765SOL     OW28753   2.278   3.567  16.691 -0.0332 -0.0729 -0.1919
 5765SOL    HW128754   2.239   3.651  16.667  1.0923  0.6009  0.3128
 5765SOL    HW228755   2.228   3.499  16.645  1.2070 -1.0052 -0.1619
 5766SOL     OW28756   4.369   0.499   0.853  0.1544 -0.2688 -0.0943
 5766SOL    HW128757   4.305   0.430   0.869 -0.2298  0.1240  0.0619
 5766SOL    HW228758   4.343   0.534   0.768 -1.3491 -0.5303  0.2752
 5767SOL     OW28759   1.033   3.361  12.279 -0.1854  0.0805 -0.3186
 5767SOL    HW128760   1.126   3.349  12.260 -0.0907  2.0763 -1.1316
 5767SOL    HW228761   0.987   3.297  12.225  0.9876 -0.5644 -0.5435
 5768SOL     OW28762   0.079   1.303  15.856 -0.4713 -0.0876  0.2609
 5768SOL    HW128763   0.121   1.389  15.848 -1.3109 -0.0052 -3.2750
 5768SOL    HW228764   0.088   1.280  15.764  0.2082 -0.4870  0.4292
 5769SOL     OW28765   3.366   3.035   2.690  0.1384  0.0481  0.7683
 5769SOL    HW128766   3.439   3.038   2.752  1.6293 -0.3126 -0.9724
 5769SOL    HW228767   3.309   2.975   2.738 -2.7671  1.1748 -1.2243
 5770SOL     OW28768   2.701   3.909   4.144 -0.1786  0.1677 -0.5926
 5770SOL    HW128769   2.635   3.889   4.078  1.1594 -0.6883 -1.6740
 5770SOL    HW228770   2.699   4.005   4.145 -0.4387  0.1425  1.3810
 5771SOL     OW28771   1.130   2.605   6.384  0.2946 -0.3187 -0.1684
 5771SOL    HW128772   1.198   2.601   6.451 -1.7493 -0.3561  1.8669
 5771SOL    HW228773   1.066   2.565   6.442  0.9570 -0.8319  0.2129
 5772SOL     OW28774   2.759   3.607  13.944 -0.6175  0.3052  0.1950
 5772SOL    HW128775   2.834   3.638  13.894 -0.1832  1.0089  1.2825
 5772SOL    HW228776   2.806   3.541  13.994  0.5040  1.1464  0.2581
 5773SOL     OW28777   1.222   3.781  13.290 -0.0115 -0.0168 -0.5567
 5773SOL    HW128778   1.313   3.810  13.291  0.1756 -0.5973 -0.9071
 5773SOL    HW228779   1.235   3.686  13.299 -1.5555 -0.1629  0.2061
 5774SOL     OW28780   1.497   2.194   6.042  0.0658 -0.2220 -0.0900
 5774SOL    HW128781   1.539   2.155   6.119  2.1095  0.1399 -1.0201
 5774SOL    HW228782   1.568   2.250   6.009  0.1867 -0.7610 -0.7435
 5775SOL     OW28783   4.444   3.722   5.350 -0.2329  0.7859 -0.3632
 5775SOL    HW128784   4.433   3.817   5.345  0.2179  0.8524 -0.0606
 5775SOL    HW228785   4.361   3.707   5.396 -1.1848 -0.6708 -2.5265
 5776SOL     OW28786   3.281   3.996  15.396 -0.6357 -0.2218 -0.3224
 5776SOL    HW128787   3.358   3.998  15.453 -0.4600 -0.7787 -0.5361
 5776SOL    HW228788   3.255   4.084  15.423  0.2351  0.0871 -0.4886
 5777SOL     OW28789   0.673   2.146  14.336  0.3839 -0.0881  0.3563
 5777SOL    HW128790   0.682   2.056  14.367  0.3735 -0.8757 -2.0098
 5777SOL    HW228791   0.697   2.191  14.418  0.0132  0.4342  0.1782
 5778SOL     OW28792   2.986   4.129   1.701 -0.1083  0.7099 -0.2319
 5778SOL    HW128793   2.931   4.128   1.779  0.8766 -2.9315  0.4566
 5778SOL    HW228794   3.044   4.058   1.729 -1.4573 -0.4922 -0.4699
 5779SOL     OW28795   2.865   2.564   2.466 -0.0716  0.1451 -0.0996
 5779SOL    HW128796   2.795   2.628   2.453  1.1361  0.6012 -4.4032
 5779SOL    HW228797   2.907   2.619   2.532 -0.3291  0.7313 -0.4214
 5780SOL     OW28798   3.058   1.798   5.480 -0.0156  0.1127 -0.2397
 5780SOL    HW128799   3.127   1.847   5.525 -2.7169  1.7058  2.1793
 5780SOL    HW228800   3.079   1.804   5.387 -1.2244 -0.0890 -0.5331
 5781SOL     OW28801   0.287   1.459   0.498 -0.5605 -0.3705  0.4376
 5781SOL    HW128802   0.321   1.389   0.443 -0.0334  0.3320 -0.1331
 5781SOL    HW228803   0.304   1.540   0.451  0.9896 -1.4075 -0.7881
 5782SOL     OW28804   1.132   0.483   5.390  0.8910 -0.1061  0.2806
 5782SOL    HW128805   1.071   0.511   5.458  2.6590 -0.0878  1.8497
 5782SOL    HW228806   1.204   0.544   5.407  1.0774 -0.4671  0.7898
 5783SOL     OW28807   1.917   0.894  15.176 -0.1327  0.3085  0.6799
 5783SOL    HW128808   1.859   0.970  15.167 -0.0021  0.4390  0.9591
 5783SOL    HW228809   2.005   0.928  15.196  0.3421 -0.6727  0.2831
 5784SOL     OW28810   4.008   1.862   8.595 -0.2589  0.7298  0.6477
 5784SOL    HW128811   3.923   1.845   8.635 -1.2748  0.4048 -1.6831
 5784SOL    HW228812   4.053   1.894   8.673  0.1035 -0.2081  0.8126
 5785SOL     OW28813   0.480   4.058  17.638 -0.8346 -0.1294  0.0242
 5785SOL    HW128814   0.569   4.037  17.611 -0.9955 -0.7990  0.0089
 5785SOL    HW228815   0.449   4.061  17.547  0.9064 -0.3006 -0.5792
 5786SOL     OW28816   3.123   1.456  13.911 -0.6426 -0.5422  0.0281
 5786SOL    HW128817   3.060   1.408  13.858 -2.5763 -0.7462  2.5033
 5786SOL    HW228818   3.093   1.545  13.890  1.1816 -0.2943 -1.4915
 5787SOL     OW28819   1.456   1.872  16.142 -0.3438  0.1873  0.5047
 5787SOL    HW128820   1.496   1.890  16.226  0.1494 -1.2084  0.5695
 5787SOL    HW228821   1.369   1.906  16.163  0.7287  3.7218 -0.7488
 5788SOL     OW28822   0.610   0.931   0.807 -0.1572 -0.1955 -0.1446
 5788SOL    HW128823   0.685   0.933   0.748 -1.7289 -1.2586 -2.1583
 5788SOL    HW228824   0.593   0.842   0.837  1.3281 -0.3147  0.3503
 5789SOL     OW28825   1.466   4.322  16.247 -0.1767 -0.3660 -0.1004
 5789SOL    HW128826   1.395   4.336  16.184 -0.3676 -0.3856  0.1092
 5789SOL    HW228827   1.500   4.409  16.268 -0.0962 -0.2284 -0.8001
 5790SOL     OW28828   4.223   0.690   2.940  0.8629 -0.4346 -0.1246
 5790SOL    HW128829   4.206   0.771   2.987 -0.6122  1.0013 -3.0720
 5790SOL    HW228830   4.214   0.719   2.849 -1.2178 -0.0710  0.1931
 5791SOL     OW28831   3.030   0.163   3.159 -0.0719  0.4598  0.2615
 5791SOL    HW128832   2.966   0.148   3.090  1.5760  1.8378 -1.5821
 5791SOL    HW228833   2.984   0.113   3.227 -0.6200  1.4544  0.6161
 5792SOL     OW28834   1.373   3.172   8.503  0.4409  0.0079 -0.7653
 5792SOL    HW128835   1.327   3.216   8.432  0.7677 -1.5664 -1.9738
 5792SOL    HW228836   1.339   3.083   8.492 -0.4411  0.4066 -1.2334
 5793SOL     OW28837   2.356   3.900  12.055 -0.0136 -0.6900  0.9381
 5793SOL    HW128838   2.333   3.811  12.083  0.8672 -1.3044 -0.2527
 5793SOL    HW228839   2.368   3.877  11.963 -1.1948 -1.8347  1.0687
 5794SOL     OW28840   3.693   0.215   4.745  0.6650  0.1871 -0.0085
 5794SOL    HW128841   3.774   0.165   4.750  1.3260  1.4285  1.3549
 5794SOL    HW228842   3.641   0.165   4.809  1.1862 -1.7736 -1.1211
 5795SOL     OW28843   1.619   2.260  15.837 -0.8396  0.4983 -0.1571
 5795SOL    HW128844   1.540   2.224  15.877  0.1209 -0.4448  0.8653
 5795SOL    HW228845   1.581   2.315  15.769 -0.2465  0.1087 -0.7955
 5796SOL     OW28846   1.831   0.201   5.552 -0.0127  0.1050  0.2118
 5796SOL    HW128847   1.893   0.273   5.557 -0.6365  0.6140  0.5708
 5796SOL    HW228848   1.885   0.122   5.559 -1.6615 -1.1530 -0.9949
 5797SOL     OW28849   4.560   1.296   4.219  0.1740  0.0130 -0.2553
 5797SOL    HW128850   4.593   1.354   4.150  0.0388  1.8010  1.1603
 5797SOL    HW228851   4.485   1.246   4.187  1.4263 -0.4499 -2.4713
 5798SOL     OW28852   2.950   3.708  13.805 -0.1832 -0.1333 -0.4426
 5798SOL    HW128853   3.018   3.774  13.821 -0.8357  0.8204 -1.5799
 5798SOL    HW228854   2.943   3.713  13.710  0.3237 -1.8133 -0.5626
 5799SOL     OW28855   1.279   1.771   2.875 -0.1999  0.0952 -0.9063
 5799SOL    HW128856   1.255   1.755   2.784 -0.2448  0.4554 -0.9585
 5799SOL    HW228857   1.194   1.803   2.904  0.1878 -1.1755  1.6842
 5800SOL     OW28858   4.159   3.904   8.300 -0.3572  0.4275  0.0598
 5800SOL    HW128859   4.203   3.980   8.338 -0.1589 -1.5319  3.7803
 5800SOL    HW228860   4.162   3.844   8.374 -0.9776 -0.8415 -0.9402
 5801SOL     OW28861   0.657   2.064   8.042  0.0810 -0.1814 -0.1058
 5801SOL    HW128862   0.736   2.091   8.088 -0.3487  1.7882 -0.5477
 5801SOL    HW228863   0.607   2.027   8.115 -0.9929  2.3346  0.4242
 5802SOL     OW28864   3.343   3.399   6.922 -0.6706  0.1287  0.1237
 5802SOL    HW128865   3.311   3.485   6.896  1.1016 -0.0767 -2.8437
 5802SOL    HW228866   3.427   3.393   6.875 -1.3455  1.4469 -1.2497
 5803SOL     OW28867   2.134   3.140   9.707  0.0851 -0.4758  0.5498
 5803SOL    HW128868   2.129   3.124   9.613 -2.9284  0.2728  0.5826
 5803SOL    HW228869   2.062   3.084   9.738  0.3860 -0.3689  1.4424
 5804SOL     OW28870   3.888   3.428   1.743 -0.0645 -0.2131 -0.8763
 5804SOL    HW128871   3.847   3.347   1.714  2.1980 -1.5188 -0.3535
 5804SOL    HW228872   3.903   3.467   1.657  0.1198  3.1615  0.6774
 5805SOL     OW28873   2.757   1.311   6.343 -0.4025 -0.6202  0.2565
 5805SOL    HW128874   2.792   1.392   6.307  1.5082 -2.1720 -1.4091
 5805SOL    HW228875   2.719   1.282   6.260  0.4067 -2.8079  0.6482
 5806SOL     OW28876   0.754   0.585   0.323  0.4379  0.3592 -0.0538
 5806SOL    HW128877   0.675   0.638   0.330 -1.2019 -1.8473 -2.1860
 5806SOL    HW228878   0.816   0.617   0.389  0.9105  0.0961 -0.3746
 5807SOL     OW28879   3.792   0.440  17.092  0.3895  0.4634 -0.1685
 5807SOL    HW128880   3.703   0.407  17.107  0.2367  1.0335  0.1793
 5807SOL    HW228881   3.828   0.402  17.173  0.5526  1.0568  0.0366
 5808SOL     OW28882   3.536   3.832  11.767  0.0244  0.3615  0.8173
 5808SOL    HW128883   3.575   3.911  11.804 -0.3578  1.0974 -0.3767
 5808SOL    HW228884   3.596   3.815  11.695  0.0392 -0.5642  1.0455
 5809SOL     OW28885   0.618   1.850   0.864  0.1009  0.2748 -0.0346
 5809SOL    HW128886   0.553   1.869   0.797 -2.1329 -4.2254  0.8610
 5809SOL    HW228887   0.560   1.823   0.936  0.7066 -0.6749  0.0975
 5810SOL     OW28888   1.885   3.406   7.019  0.3339 -0.3773  0.3561
 5810SOL    HW128889   1.941   3.445   7.087  0.8809  0.9348 -0.8537
 5810SOL    HW228890   1.938   3.327   7.015  1.6537  0.6774 -2.4493
 5811SOL     OW28891   4.642   2.007   7.584 -0.2414 -0.0843 -0.2513
 5811SOL    HW128892   4.561   1.956   7.590 -0.4351  0.0899 -1.4006
 5811SOL    HW228893   4.667   1.975   7.497  0.9014 -2.9508  1.1399
 5812SOL     OW28894   0.045   1.926   6.280  0.1551  0.2675 -0.2570
 5812SOL    HW128895   4.673   1.940   6.277  0.2961  0.8235 -2.0155
 5812SOL    HW228896   0.053   1.865   6.206  1.0644  0.5440 -0.3826
 5813SOL     OW28897   4.636   2.074  12.537 -0.2693 -0.4262 -0.0037
 5813SOL    HW128898   4.563   2.016  12.515 -0.1805 -0.6104  0.1838
 5813SOL    HW228899   4.708   2.026  12.498 -0.8235  0.9905 -2.8088
 5814SOL     OW28900   4.250   3.459  12.564 -0.4325  0.2345 -0.5159
 5814SOL    HW128901   4.306   3.468  12.641 -4.0175 -0.7574  2.2059
 5814SOL    HW228902   4.207   3.374  12.572  0.6966 -0.4609 -2.0073
 5815SOL     OW28903   4.261   1.246   3.104  0.6435  0.1968 -0.9984
 5815SOL    HW128904   4.264   1.296   3.186 -2.8753  0.5184 -1.0548
 5815SOL    HW228905   4.210   1.305   3.048  1.5411  2.4362  0.5634
 5816SOL     OW28906   2.740   3.284   5.838  0.2225  0.0072 -0.0463
 5816SOL    HW128907   2.746   3.281   5.934 -0.9442 -0.3242  0.0044
 5816SOL    HW228908   2.705   3.197   5.823 -0.4859 -0.2007  2.6849
 5817SOL     OW28909   2.956   0.604   1.510 -0.7332 -0.5014 -0.0422
 5817SOL    HW128910   3.044   0.568   1.501 -0.6649 -0.3847  0.1698
 5817SOL    HW228911   2.931   0.621   1.419  1.1736 -0.9183 -0.6594
 5818SOL     OW28912   3.797   1.013   6.901  0.2159  0.1026 -0.5254
 5818SOL    HW128913   3.805   0.978   6.990  0.7303  1.4738 -0.0296
 5818SOL    HW228914   3.758   1.099   6.917 -1.4689 -0.5793 -0.9853
 5819SOL     OW28915   3.877   3.427  17.103 -0.5017 -0.4363 -0.6434
 5819SOL    HW128916   3.832   3.426  17.018 -1.0045 -0.5391 -0.3801
 5819SOL    HW228917   3.910   3.337  17.102 -2.9145 -1.3625  1.9741
 5820SOL     OW28918   3.917   3.476   5.501 -0.3022 -0.2057  0.6019
 5820SOL    HW128919   3.932   3.416   5.428  1.5425 -0.1927  0.9831
 5820SOL    HW228920   4.009   3.476   5.528 -0.2660 -1.3298  0.4955
 5821SOL     OW28921   3.003   0.426   8.235 -0.2937  0.6055 -0.1892
 5821SOL    HW128922   3.074   0.375   8.195  1.1627  1.5652  1.2158
 5821SOL    HW228923   2.941   0.355   8.250 -0.0057  0.4311  0.1683
 5822SOL     OW28924   1.388   1.546  10.387 -0.5389 -0.8249 -0.7057
 5822SOL    HW128925   1.425   1.632  10.369 -1.5782 -0.2499 -0.0526
 5822SOL    HW228926   1.447   1.524  10.459 -1.8213 -1.2765  0.2080
 5823SOL     OW28927   3.096   2.451   5.410  0.1468  0.5093 -0.2435
 5823SOL    HW128928   3.156   2.416   5.345 -0.3405 -0.2068 -0.3175
 5823SOL    HW228929   3.140   2.435   5.494 -0.1471  1.6439  0.1268
 5824SOL     OW28930   2.410   4.107   5.979  0.4615 -0.2130  1.0947
 5824SOL    HW128931   2.415   4.036   5.915  0.3913  0.7996 -0.0350
 5824SOL    HW228932   2.500   4.108   6.009  0.2773  0.7479  1.6098
 5825SOL     OW28933   3.073   2.795   6.029  0.0958 -0.1692 -0.6063
 5825SOL    HW128934   3.110   2.809   6.115  1.3026  0.7279 -1.2722
 5825SOL    HW228935   3.145   2.837   5.981  0.7541  1.5462  1.8717
 5826SOL     OW28936   3.171   2.180   9.638  0.5942 -0.0146 -0.0204
 5826SOL    HW128937   3.166   2.084   9.629  1.3452  0.0572 -1.2070
 5826SOL    HW228938   3.242   2.185   9.701  0.6033  2.7908 -0.2647
 5827SOL     OW28939   1.743   0.839   5.794 -0.0732  0.5932 -0.4701
 5827SOL    HW128940   1.796   0.792   5.858 -3.2205 -0.5653  1.2605
 5827SOL    HW228941   1.698   0.905   5.847  2.6941  2.1170 -0.0251
 5828SOL     OW28942   2.222   3.613   5.060  0.2808 -0.5557 -0.2853
 5828SOL    HW128943   2.166   3.555   5.112  1.0841 -0.0266  1.1697
 5828SOL    HW228944   2.241   3.684   5.121  0.9624 -1.5740  0.6814
 5829SOL     OW28945   3.736   0.051   0.790  0.4600  0.1115  0.4787
 5829SOL    HW128946   3.758   4.706   0.853  1.5830 -1.2839 -1.4134
 5829SOL    HW228947   3.816   0.104   0.790 -0.5944  1.7018 -0.5881
 5830SOL     OW28948   1.807   2.392   4.460 -0.0838  0.5141  0.0608
 5830SOL    HW128949   1.781   2.328   4.394 -1.1907  1.5652 -0.5264
 5830SOL    HW228950   1.736   2.391   4.524 -1.5993 -0.2253 -1.6575
 5831SOL     OW28951   2.773   0.905   9.292  0.2876 -0.0311  0.2555
 5831SOL    HW128952   2.688   0.861   9.290  0.9879 -1.3992  0.9363
 5831SOL    HW228953   2.827   0.863   9.226 -0.9214 -2.9452  1.1252
 5832SOL     OW28954   1.857   0.594  13.506 -0.2313  0.2822  0.0714
 5832SOL    HW128955   1.810   0.517  13.539 -0.4676  0.4589  0.1522
 5832SOL    HW228956   1.937   0.549  13.479 -0.8151 -1.1430  0.6866
 5833SOL     OW28957   3.495   1.120   9.947  0.6234 -0.1188  0.1826
 5833SOL    HW128958   3.459   1.067   9.875 -0.5465  4.9181 -2.9957
 5833SOL    HW228959   3.539   1.053   9.998  0.3290  0.8847  1.7494
 5834SOL     OW28960   3.120   0.036  11.537 -0.6516 -0.2345  0.0659
 5834SOL    HW128961   3.101   0.045  11.630 -1.0054  0.2062 -0.0523
 5834SOL    HW228962   3.040   4.719  11.503 -0.2022 -0.9007 -0.2275
 5835SOL     OW28963   3.372   1.193   5.478  0.2680  0.6803 -0.1996
 5835SOL    HW128964   3.335   1.115   5.518  0.1627 -0.0117 -1.6429
 5835SOL    HW228965   3.438   1.155   5.420 -1.7625  2.1808 -3.5006
 5836SOL     OW28966   2.813   4.053   5.996  0.0083 -0.4334 -0.6708
 5836SOL    HW128967   2.770   4.099   6.068  1.7334  0.2211 -0.0557
 5836SOL    HW228968   2.765   4.086   5.921  1.2267  0.5590 -1.0182
 5837SOL     OW28969   3.357   2.653   1.927 -0.3847  0.2378 -0.2187
 5837SOL    HW128970   3.403   2.672   2.009 -0.5333  0.0373 -0.0898
 5837SOL    HW228971   3.419   2.694   1.866 -0.3680  1.0213  0.3128
 5838SOL     OW28972   1.218   3.998   4.114  0.1097 -0.6151  0.3822
 5838SOL    HW128973   1.304   3.958   4.127  0.0344 -1.3218 -1.2604
 5838SOL    HW228974   1.244   4.076   4.064  0.0524 -0.3783  0.7193
 5839SOL     OW28975   1.838   1.700  11.350 -0.4310 -0.2468  0.3227
 5839SOL    HW128976   1.777   1.763  11.388 -0.7582 -0.4841  0.1960
 5839SOL    HW228977   1.804   1.620  11.391  0.6780  0.1571  2.0221
 5840SOL     OW28978   0.964   2.333   5.622 -0.2493 -0.2104 -0.2800
 5840SOL    HW128979   0.879   2.331   5.665 -0.2965  2.1317 -0.2856
 5840SOL    HW228980   1.024   2.289   5.682  2.2717  1.4964 -1.5383
 5841SOL     OW28981   2.050   1.914   9.344  0.6387  0.2375 -0.1630
 5841SOL    HW128982   2.119   1.964   9.387 -0.3049  0.5771  0.9778
 5841SOL    HW228983   2.017   1.858   9.415  0.7825 -0.3933 -0.5989
 5842SOL     OW28984   2.683   4.502  12.008  0.4948 -0.1437  0.5776
 5842SOL    HW128985   2.698   4.427  12.067 -1.1452 -1.3004 -0.4813
 5842SOL    HW228986   2.620   4.561  12.047  0.2104 -0.3919  0.4954
 5843SOL     OW28987   3.978   2.370   3.336  0.0039  0.4888  0.6903
 5843SOL    HW128988   4.049   2.402   3.391 -0.9965  0.5360  1.9350
 5843SOL    HW228989   4.022   2.309   3.277 -0.4372 -1.2080  2.1477
 5844SOL     OW28990   2.904   1.560   6.300 -0.1977 -0.0707 -0.4489
 5844SOL    HW128991   2.857   1.639   6.273  0.3532  0.3532 -0.1885
 5844SOL    HW228992   2.979   1.565   6.241 -0.2326  1.6029 -0.3779
 5845SOL     OW28993   4.665   2.778  16.244 -0.1221 -0.4055  0.0563
 5845SOL    HW128994   4.653   2.813  16.156  0.2024  2.6745  1.2040
 5845SOL    HW228995   0.038   2.772  16.243 -0.2683 -1.7751 -4.3991
 5846SOL     OW28996   4.258   1.107   6.717 -0.3114  0.0453 -0.3155
 5846SOL    HW128997   4.269   1.053   6.639  2.0308 -2.3349  1.6673
 5846SOL    HW228998   4.217   1.049   6.781 -1.5759 -0.2837 -1.4265
 5847SOL     OW28999   4.323   0.300   6.971  0.1348  0.4568 -0.0900
 5847SOL    HW129000   4.289   0.211   6.956  0.7460  0.2116 -0.0317
 5847SOL    HW229001   4.334   0.314   7.065 -0.7883 -0.9752  0.2288
 5848SOL     OW29002   4.198   2.530   6.565  0.0879 -0.0964  0.4450
 5848SOL    HW129003   4.169   2.554   6.653  1.5587 -2.1965  1.5033
 5848SOL    HW229004   4.192   2.434   6.563 -0.9562 -0.0705  1.9809
 5849SOL     OW29005   0.876   3.598   3.049  0.4250 -0.5065 -0.1130
 5849SOL    HW129006   0.910   3.673   3.099 -1.3370  1.5791 -2.0485
 5849SOL    HW229007   0.872   3.542   3.127  3.2613  1.0494  1.1502
 5850SOL     OW29008   2.051   0.886  16.984  0.5074  0.0918 -0.1023
 5850SOL    HW129009   2.067   0.896  16.890 -0.3325 -1.8695 -0.4477
 5850SOL    HW229010   2.114   0.939  17.033  1.9669  0.3848 -2.2632
 5851SOL     OW29011   4.024   0.909   7.319  0.0321  0.8130 -0.4016
 5851SOL    HW129012   4.066   0.868   7.395 -1.8589  0.0970  0.2383
 5851SOL    HW229013   4.060   0.998   7.314 -0.0507  0.8424 -0.4648
 5852SOL     OW29014   0.557   2.653  10.671  0.5930 -0.6239 -0.2291
 5852SOL    HW129015   0.563   2.588  10.600 -2.9424 -0.1025 -1.0148
 5852SOL    HW229016   0.463   2.649  10.690  0.8035 -0.9539  0.7226
 5853SOL     OW29017   0.251   0.943   8.527 -0.0199 -0.1117  0.8672
 5853SOL    HW129018   0.328   0.973   8.480 -1.6694  3.4140  0.4397
 5853SOL    HW229019   0.238   1.004   8.600  0.9462  0.0184  0.9213
 5854SOL     OW29020   1.734   2.775   3.163 -0.0846  0.4720  0.2744
 5854SOL    HW129021   1.828   2.766   3.145 -0.6026 -1.0310 -1.6372
 5854SOL    HW229022   1.709   2.831   3.090  0.7075  2.5220  1.5757
 5855SOL     OW29023   2.380   0.863   3.309 -0.4769 -0.1066  0.3649
 5855SOL    HW129024   2.420   0.790   3.356  1.7741 -0.5205 -2.1561
 5855SOL    HW229025   2.324   0.907   3.372 -1.8832 -1.2975 -0.0363
 5856SOL     OW29026   0.456   4.197   6.500 -0.2433 -0.3056  0.2818
 5856SOL    HW129027   0.418   4.163   6.581 -0.6582 -0.2476  0.1121
 5856SOL    HW229028   0.378   4.193   6.445 -1.1975  1.4233  1.4968
 5857SOL     OW29029   1.260   3.352   5.622  0.1974  0.0690 -0.2150
 5857SOL    HW129030   1.250   3.447   5.629  0.0156 -0.0057  0.4955
 5857SOL    HW229031   1.169   3.323   5.625  1.0762 -2.6479 -0.1984
 5858SOL     OW29032   2.528   0.598   7.684 -0.2215  0.5611  0.2907
 5858SOL    HW129033   2.522   0.674   7.626  0.0264  0.0207 -0.4541
 5858SOL    HW229034   2.565   0.634   7.764  0.9654  2.0092 -0.9022
 5859SOL     OW29035   0.974   4.299   2.483  0.4444  0.1645  0.1042
 5859SOL    HW129036   0.953   4.205   2.485 -0.5688  0.3803 -0.6108
 5859SOL    HW229037   0.912   4.337   2.545  0.6543  1.6588 -0.6173
 5860SOL     OW29038   0.573   1.654   0.486 -0.1940 -0.0220  0.0363
 5860SOL    HW129039   0.536   1.635   0.572 -1.5797 -0.1597 -0.5890
 5860SOL    HW229040   0.664   1.670   0.510  0.7694 -0.5690 -3.2176
 5861SOL     OW29041   1.020   2.050   9.677  0.3531 -0.0280 -0.0300
 5861SOL    HW129042   1.098   2.002   9.707  1.5441  3.2685  2.1770
 5861SOL    HW229043   0.951   1.986   9.692 -0.9567  1.1128 -1.2763
 5862SOL     OW29044   1.742   2.471   8.342 -0.4087  0.2830 -0.0004
 5862SOL    HW129045   1.834   2.483   8.366 -0.1170  1.4893 -1.7173
 5862SOL    HW229046   1.713   2.562   8.344  0.6631  0.5812  2.1194
 5863SOL     OW29047   1.833   1.992   2.170 -0.7948  0.7179 -0.2814
 5863SOL    HW129048   1.846   2.054   2.242  2.1546 -1.1934  0.7904
 5863SOL    HW229049   1.792   2.057   2.112  1.0322  0.2049 -2.1406
 5864SOL     OW29050   4.652   2.006   8.432 -0.0402  0.3374 -0.0426
 5864SOL    HW129051   4.561   2.036   8.424 -0.1350 -0.1577 -0.7542
 5864SOL    HW229052   4.701   2.088   8.428  0.6587 -0.1533 -1.6621
 5865SOL     OW29053   4.708   1.430   7.006 -0.5584  0.1899  0.2582
 5865SOL    HW129054   4.630   1.484   7.017 -1.3897 -0.5705 -1.9497
 5865SOL    HW229055   4.711   1.425   6.911  1.2110 -0.9472  0.3601
 5866SOL     OW29056   3.097   1.592  10.672  0.1172 -0.2735  0.7145
 5866SOL    HW129057   3.045   1.592  10.592 -0.0671 -4.1205  0.8276
 5866SOL    HW229058   3.114   1.681  10.703 -1.0439 -0.4938  1.9977
 5867SOL     OW29059   2.722   0.639   3.084 -0.7479  0.0133  0.3758
 5867SOL    HW129060   2.798   0.691   3.060  0.3932 -2.6763 -1.8628
 5867SOL    HW229061   2.759   0.554   3.062  1.1732  0.6310  1.2253
 5868SOL     OW29062   1.309   1.770  15.358 -0.6609  0.4079  0.3261
 5868SOL    HW129063   1.374   1.762  15.428 -0.1502 -0.5528 -0.2694
 5868SOL    HW229064   1.313   1.864  15.339 -0.0966  0.3324  0.0809
 5869SOL     OW29065   0.190   1.322  12.398  0.0868 -0.1591  0.4058
 5869SOL    HW129066   0.133   1.247  12.381  0.2789 -0.5834  1.6057
 5869SOL    HW229067   0.272   1.274  12.382  0.0373  0.0022 -0.3332
 5870SOL     OW29068   4.663   0.255   0.512  0.1137 -0.5477  0.0832
 5870SOL    HW129069   4.644   0.294   0.597 -1.1195  1.9293 -1.3218
 5870SOL    HW229070   0.036   0.259   0.515  0.0641  0.5940  0.1913
 5871SOL     OW29071   1.315   1.086   2.196 -0.2399 -0.1887 -0.1200
 5871SOL    HW129072   1.295   1.025   2.125  1.0229  0.1926 -0.7823
 5871SOL    HW229073   1.235   1.138   2.199  0.5789  0.9913  1.2844
 5872SOL     OW29074   4.366   2.593   4.385  0.2323 -0.1151  0.3746
 5872SOL    HW129075   4.321   2.611   4.468 -1.5380 -1.8799 -0.1935
 5872SOL    HW229076   4.325   2.641   4.313 -2.5768 -1.3044  1.1585
 5873SOL     OW29077   3.553   2.324  13.389 -0.1869 -0.5616  0.2847
 5873SOL    HW129078   3.491   2.372  13.336  1.8394  2.0695  0.2994
 5873SOL    HW229079   3.588   2.397  13.440 -0.6043  1.2392 -2.0603
 5874SOL     OW29080   3.194   1.180   6.198 -0.1403  0.2697 -0.0173
 5874SOL    HW129081   3.117   1.164   6.252 -2.2123 -0.4576 -3.1679
 5874SOL    HW229082   3.164   1.163   6.109 -1.4988 -1.3733  0.7565
 5875SOL     OW29083   0.412   2.630   3.432  0.3187 -0.7772 -0.2164
 5875SOL    HW129084   0.398   2.543   3.395 -0.4255 -0.3100 -1.0239
 5875SOL    HW229085   0.491   2.603   3.479  1.9097  1.5448 -1.5827
 5876SOL     OW29086   2.741   0.712   9.633 -0.3199  0.2395  0.2271
 5876SOL    HW129087   2.666   0.652   9.632 -0.9882  1.0686  0.9602
 5876SOL    HW229088   2.776   0.692   9.546 -1.2896 -1.1182  0.1388
 5877SOL     OW29089   3.645   1.869   2.430 -0.5090  0.6699 -0.0200
 5877SOL    HW129090   3.638   1.933   2.502 -1.2308 -0.8854  1.2897
 5877SOL    HW229091   3.610   1.792   2.474 -0.9473  1.7719  1.5771
 5878SOL     OW29092   0.764   1.109  11.968 -0.1695 -0.0278 -0.0501
 5878SOL    HW129093   0.688   1.141  12.016  0.5471  1.5384  0.0535
 5878SOL    HW229094   0.740   1.017  11.961  1.6604 -0.5645  0.7732
 5879SOL     OW29095   1.217   2.846   9.298  0.1726 -0.4005 -0.5250
 5879SOL    HW129096   1.164   2.867   9.374 -0.0017  0.5618 -0.9093
 5879SOL    HW229097   1.145   2.828   9.237  0.0987 -0.1327 -0.5171
 5880SOL     OW29098   2.733   3.007   1.325 -0.3187 -0.2362 -0.3286
 5880SOL    HW129099   2.652   3.046   1.357  0.0496  1.5357 -1.5557
 5880SOL    HW229100   2.706   2.916   1.319  0.4798 -0.5828  1.2785
 5881SOL     OW29101   3.910   2.782   9.521  0.2242 -0.0730 -0.7380
 5881SOL    HW129102   3.825   2.824   9.532  0.1929 -0.2509 -0.3059
 5881SOL    HW229103   3.884   2.690   9.533  3.1405 -0.9909 -1.3689
 5882SOL     OW29104   3.399   1.933   8.536 -0.4414 -0.8181 -0.1037
 5882SOL    HW129105   3.348   1.900   8.609  1.6518 -2.1884  0.7199
 5882SOL    HW229106   3.359   2.020   8.530  1.7654  0.1878 -0.0251
 5883SOL     OW29107   3.059   4.185   9.613 -0.3287 -0.3684  0.3921
 5883SOL    HW129108   3.016   4.244   9.675 -1.2149 -0.3854 -0.2013
 5883SOL    HW229109   2.989   4.176   9.548  0.0277  0.1043 -0.0597
 5884SOL     OW29110   0.872   2.568   8.987  0.3725 -0.1326  0.1046
 5884SOL    HW129111   0.798   2.605   9.035 -1.3542 -1.0906 -1.7931
 5884SOL    HW229112   0.891   2.494   9.044  0.4556  0.2054  0.5140
 5885SOL     OW29113   0.858   0.250   5.116 -0.2513  0.8575  0.2216
 5885SOL    HW129114   0.944   0.275   5.150  0.2061  0.8448 -0.8987
 5885SOL    HW229115   0.891   0.184   5.055 -2.5993  0.1971 -0.3417
 5886SOL     OW29116   1.899   1.132   4.158  0.0251 -0.9248  0.4378
 5886SOL    HW129117   1.874   1.173   4.241  1.9053 -0.3398  0.7003
 5886SOL    HW229118   1.988   1.167   4.152  0.1570 -0.8954  2.6386
 5887SOL     OW29119   1.356   1.182   7.518 -0.5799 -0.6580  0.0005
 5887SOL    HW129120   1.334   1.123   7.590 -0.3552  0.3382  0.9006
 5887SOL    HW229121   1.267   1.193   7.483 -0.9009  2.2859  1.6684
 5888SOL     OW29122   0.672   3.193   8.794  1.3951 -0.6815  0.3714
 5888SOL    HW129123   0.639   3.106   8.774 -1.1752  0.5777 -0.8768
 5888SOL    HW229124   0.700   3.220   8.706 -0.8323  0.6874  0.0885
 5889SOL     OW29125   1.730   3.822  16.297 -0.1984 -0.3650 -0.5180
 5889SOL    HW129126   1.816   3.862  16.286  0.4227 -1.6344 -0.2619
 5889SOL    HW229127   1.675   3.899  16.312  1.1892  0.1151  2.1266
 5890SOL     OW29128   1.530   1.754   5.806  0.1704  0.0450 -0.3157
 5890SOL    HW129129   1.509   1.846   5.794  0.2970 -0.1975 -2.2842
 5890SOL    HW229130   1.607   1.759   5.863  0.5529  0.0711 -0.8345
 5891SOL     OW29131   2.472   1.645  10.417 -0.3875 -0.6281 -0.0697
 5891SOL    HW129132   2.503   1.735  10.428 -0.1885 -0.7534  0.3654
 5891SOL    HW229133   2.486   1.632  10.323  1.2394  1.2648 -0.0838
 5892SOL     OW29134   0.627   4.457   7.299  0.0941  0.1356 -0.6935
 5892SOL    HW129135   0.680   4.379   7.280 -0.5379 -0.4259 -0.1208
 5892SOL    HW229136   0.621   4.453   7.394  0.5847 -0.9701 -0.7013
 5893SOL     OW29137   4.661   4.378   7.336 -0.1451  0.0492  0.6843
 5893SOL    HW129138   4.580   4.346   7.296  0.2976  1.0167 -0.9707
 5893SOL    HW229139   4.631   4.451   7.391 -0.9079  2.0826 -2.4067
 5894SOL     OW29140   0.347   1.419   8.960  0.4797 -0.0808  0.0564
 5894SOL    HW129141   0.397   1.378   9.030 -1.9546 -0.6348  1.4713
 5894SOL    HW229142   0.380   1.509   8.962  1.8539 -0.6081  1.3629
 5895SOL     OW29143   3.408   1.387   1.906  0.0969 -0.6199  0.6494
 5895SOL    HW129144   3.412   1.302   1.950  0.3659 -1.5720 -1.2122
 5895SOL    HW229145   3.354   1.359   1.831  0.5138 -3.0627  1.2769
 5896SOL     OW29146   1.615   1.602   2.724  0.1856  0.0825 -0.0343
 5896SOL    HW129147   1.538   1.618   2.669  0.5393 -1.4104 -0.9623
 5896SOL    HW229148   1.608   1.506   2.720 -1.3101  0.2577 -1.4664
 5897SOL     OW29149   0.629   1.384   3.213  0.1599  0.5868 -0.0585
 5897SOL    HW129150   0.713   1.388   3.259  0.0696 -2.2227  0.3530
 5897SOL    HW229151   0.657   1.345   3.130  0.7570  0.0831  0.3672
 5898SOL     OW29152   1.909   1.595   8.734  0.3224  0.0199  0.1915
 5898SOL    HW129153   1.865   1.649   8.669 -0.5528 -0.5216  0.3444
 5898SOL    HW229154   1.841   1.590   8.800 -1.5802  2.5681 -1.5816
 5899SOL     OW29155   3.507   0.648   6.586  0.2611  0.4210  0.6813
 5899SOL    HW129156   3.426   0.598   6.589  0.8179 -0.3762  2.7202
 5899SOL    HW229157   3.483   0.699   6.663 -1.5293  1.4559 -0.5738
 5900SOL     OW29158   1.539   4.403   8.727 -0.8059  0.8052 -0.1167
 5900SOL    HW129159   1.466   4.412   8.667  0.3038 -0.4049 -1.6646
 5900SOL    HW229160   1.616   4.437   8.682  0.1768  0.1539  1.0618
 5901SOL     OW29161   3.518   3.888   1.448  0.1939 -0.6594  0.3508
 5901SOL    HW129162   3.459   3.903   1.522  1.8319  1.0415  1.3004
 5901SOL    HW229163   3.458   3.830   1.401 -2.1539  1.9606  0.0793
 5902SOL     OW29164   2.949   0.456   1.236  0.5214 -0.2005  0.3836
 5902SOL    HW129165   3.027   0.409   1.265 -0.2751 -2.6519 -1.4888
 5902SOL    HW229166   2.878   0.392   1.243  1.3259 -1.0210  1.0702
 5903SOL     OW29167   2.756   4.319   1.900 -0.1207  0.2387 -0.3062
 5903SOL    HW129168   2.667   4.336   1.932  0.7749  1.2078  1.6745
 5903SOL    HW229169   2.761   4.223   1.906  1.0979  0.2449 -1.2495
 5904SOL     OW29170   3.552   2.253   6.936  0.1408  0.7453 -0.2918
 5904SOL    HW129171   3.538   2.234   6.843 -0.3807 -0.0903 -0.0506
 5904SOL    HW229172   3.461   2.242   6.967  0.3648  1.5234  0.6562
 5905SOL     OW29173   1.510   4.476   1.790 -0.3151 -0.6115  0.5950
 5905SOL    HW129174   1.596   4.517   1.798 -0.9663  0.9157 -0.1470
 5905SOL    HW229175   1.513   4.427   1.872 -0.7205 -0.0810  0.9324
 5906SOL     OW29176   0.919   2.400  14.956  0.4489  0.2352 -0.2115
 5906SOL    HW129177   0.978   2.418  14.883  0.6286 -0.1514 -0.1628
 5906SOL    HW229178   0.874   2.484  14.947 -1.1503 -0.5887 -0.0224
 5907SOL     OW29179   2.071   2.861   2.020  0.3211 -0.1942 -0.1767
 5907SOL    HW129180   1.990   2.889   2.063 -0.1174 -2.3485  0.4051
 5907SOL    HW229181   2.037   2.835   1.934 -1.1117  1.3411 -0.0889
 5908SOL     OW29182   2.471   3.048   8.366 -0.2260 -0.3680 -0.0093
 5908SOL    HW129183   2.454   3.039   8.460  0.2422 -1.0841  0.0069
 5908SOL    HW229184   2.413   3.120   8.344 -0.6415 -1.7886 -3.4613
 5909SOL     OW29185   4.083   3.829   4.575 -0.1997  0.0679  0.2438
 5909SOL    HW129186   4.120   3.775   4.644  1.2910  0.9354  0.1320
 5909SOL    HW229187   4.136   3.909   4.580 -1.2778  0.7384  0.7866
 5910SOL     OW29188   2.573   2.996  10.190  0.1568 -0.1135 -0.7652
 5910SOL    HW129189   2.542   3.085  10.177  1.0261 -0.1148 -2.8424
 5910SOL    HW229190   2.618   3.001  10.275  1.1969  3.4698 -1.5344
 5911SOL     OW29191   2.974   3.837   9.016 -0.0080 -0.8371  0.3086
 5911SOL    HW129192   2.880   3.824   9.003 -0.1999  0.4451  0.5015
 5911SOL    HW229193   2.980   3.848   9.110 -1.5325 -0.3284  0.3306
 5912SOL     OW29194   3.002   2.931   0.717 -0.1551 -0.1805  0.2255
 5912SOL    HW129195   2.997   2.836   0.709 -1.6260 -0.0279 -0.6994
 5912SOL    HW229196   3.070   2.945   0.650 -0.7308  0.4412 -0.2385
 5913SOL     OW29197   2.785   3.422   5.006 -0.5522 -0.3453  0.4818
 5913SOL    HW129198   2.749   3.488   4.947 -0.0860 -1.9639 -1.6395
 5913SOL    HW229199   2.704   3.383   5.039  0.2774 -1.0934  1.6109
 5914SOL     OW29200   3.670   4.575   2.600  0.4010  0.4946  0.2744
 5914SOL    HW129201   3.721   4.558   2.679 -1.7380 -0.0258  1.5399
 5914SOL    HW229202   3.588   4.607   2.638  0.1661  1.9463 -1.4404
 5915SOL     OW29203   4.299   1.750  12.969  0.3178 -0.0171 -0.4485
 5915SOL    HW129204   4.298   1.832  13.019 -1.6956  0.0487 -0.5781
 5915SOL    HW229205   4.248   1.700  13.033  1.8175 -2.0668 -0.8606
 5916SOL     OW29206   1.282   2.044  13.238 -0.1749  0.0162  0.5398
 5916SOL    HW129207   1.300   1.962  13.284 -3.1861 -1.9200 -1.7937
 5916SOL    HW229208   1.257   2.104  13.308 -1.7989  0.4545 -0.4204
 5917SOL     OW29209   2.043   3.170   7.324  0.1196 -0.4515 -0.1173
 5917SOL    HW129210   1.976   3.232   7.353  1.9560  2.6181 -2.4682
 5917SOL    HW229211   2.027   3.090   7.375  0.3868  0.1600  0.9356
 5918SOL     OW29212   1.133   0.824   6.861  0.1220  0.8124 -0.4622
 5918SOL    HW129213   1.078   0.788   6.932  0.7876  1.0309  0.1567
 5918SOL    HW229214   1.213   0.855   6.902  0.6306 -1.9518  0.6598
 5919SOL     OW29215   3.406   0.491   4.317 -0.2571 -0.3598  0.1242
 5919SOL    HW129216   3.379   0.399   4.314 -3.4279  0.5433  2.0642
 5919SOL    HW229217   3.492   0.475   4.356 -0.3737 -0.6722  0.2548
 5920SOL     OW29218   2.496   2.379   3.948  0.0472  0.5396  0.0155
 5920SOL    HW129219   2.553   2.379   4.025  1.1127  2.4284 -0.7684
 5920SOL    HW229220   2.421   2.427   3.985 -2.1673 -2.1370 -0.9570
 5921SOL     OW29221   3.309   4.711  12.108  0.0783  0.2293  0.1782
 5921SOL    HW129222   3.214   4.714  12.096  0.3997 -0.3925 -2.4243
 5921SOL    HW229223   3.317   4.717  12.203 -1.6246 -3.5882  0.5673
 5922SOL     OW29224   4.098   4.047   9.516 -0.3382 -0.1754 -0.5573
 5922SOL    HW129225   4.006   4.058   9.495 -0.5608  0.0167  0.5180
 5922SOL    HW229226   4.127   4.134   9.543  0.3031 -0.0454 -1.6952
 5923SOL     OW29227   3.227   3.983  10.224  0.3860  0.2671 -0.4333
 5923SOL    HW129228   3.250   3.967  10.316  0.0405 -0.8828 -0.5503
 5923SOL    HW229229   3.297   4.036  10.186  0.6909 -0.6034 -1.0711
 5924SOL     OW29230   1.973   2.512   2.309 -0.7105 -0.1798  0.4252
 5924SOL    HW129231   2.048   2.538   2.255 -1.8661 -0.9588 -1.5806
 5924SOL    HW229232   2.001   2.433   2.354 -0.0801  1.0107  2.0985
 5925SOL     OW29233   3.240   3.224   8.453 -0.7411  0.1289 -0.4071
 5925SOL    HW129234   3.226   3.261   8.540 -1.8200 -0.7488 -0.1999
 5925SOL    HW229235   3.299   3.152   8.473  0.3905  0.5714 -2.1201
 5926SOL     OW29236   1.073   3.343   3.505  0.4277  0.2081  0.4873
 5926SOL    HW129237   1.089   3.322   3.597 -0.7156 -0.4102  0.5363
 5926SOL    HW229238   1.089   3.438   3.503  0.5776  0.1822  0.4464
 5927SOL     OW29239   1.591   0.451  10.647  0.2278  0.3303 -0.4404
 5927SOL    HW129240   1.523   0.394  10.612  1.0965 -0.9626 -0.0258
 5927SOL    HW229241   1.666   0.392  10.654 -1.3764 -1.5423  0.8295
 5928SOL     OW29242   2.413   0.160   4.187 -0.4775  0.0803 -0.3940
 5928SOL    HW129243   2.346   0.092   4.192  0.5266 -1.1359 -3.0061
 5928SOL    HW229244   2.373   0.219   4.123  0.5794  1.2805  0.0518
 5929SOL     OW29245   2.537   4.476   5.076  0.0703  0.0511 -0.6200
 5929SOL    HW129246   2.513   4.512   5.162  0.6456  1.6092 -1.1111
 5929SOL    HW229247   2.457   4.485   5.024  0.5740  0.3652 -1.3440
 5930SOL     OW29248   3.100   3.221   5.336 -0.6402  0.3332  0.4588
 5930SOL    HW129249   3.026   3.240   5.279  0.1329 -0.0334 -0.6614
 5930SOL    HW229250   3.091   3.302   5.387 -2.3698  1.4130 -1.5312
 5931SOL     OW29251   0.716   3.459   6.123 -0.1343  0.2163 -0.0428
 5931SOL    HW129252   0.731   3.476   6.216  2.5975  2.0862 -0.8323
 5931SOL    HW229253   0.791   3.510   6.092 -1.1075  0.9536 -1.1514
 5932SOL     OW29254   4.224   1.573   3.037 -0.6994 -0.1690  0.7211
 5932SOL    HW129255   4.133   1.564   3.010 -1.0050  1.9535  1.0534
 5932SOL    HW229256   4.258   1.645   2.984  1.0091 -2.0595 -0.7947
 5933SOL     OW29257   3.989   3.851   3.169  0.1173 -0.0989  0.2812
 5933SOL    HW129258   4.020   3.860   3.258  2.5594  1.0126 -0.6975
 5933SOL    HW229259   3.895   3.836   3.185 -0.3916  2.6622 -0.1462
 5934SOL     OW29260   0.085   1.622   5.574 -0.4182 -0.4386 -0.0808
 5934SOL    HW129261   0.139   1.551   5.541  0.6223  0.1931  0.2453
 5934SOL    HW229262   0.010   1.575   5.611 -1.0789  1.0719  0.5023
 5935SOL     OW29263   1.462   4.037   8.307  0.4935  0.3865  0.2188
 5935SOL    HW129264   1.505   3.993   8.233 -3.5405  0.0773 -1.9480
 5935SOL    HW229265   1.452   3.964   8.368 -1.0096 -0.8049 -1.4360
 5936SOL     OW29266   3.250   4.112  10.730  0.2759 -0.1806 -0.0470
 5936SOL    HW129267   3.329   4.165  10.742  1.0809 -1.8216  2.0810
 5936SOL    HW229268   3.216   4.093  10.818  0.7030 -0.6411  0.0199
 5937SOL     OW29269   0.570   0.772   0.475 -0.2206  0.2143 -0.0420
 5937SOL    HW129270   0.652   0.821   0.487 -1.0151  1.2486  1.2558
 5937SOL    HW229271   0.500   0.836   0.462  0.4534  0.3390 -3.0178
 5938SOL     OW29272   4.615   2.720   3.524 -0.0607 -0.0440 -0.3986
 5938SOL    HW129273   4.710   2.724   3.515  0.0634 -0.6324  0.6718
 5938SOL    HW229274   4.592   2.768   3.445 -2.7120  0.2598  0.5750
 5939SOL     OW29275   3.449   3.327   5.249 -0.5777 -0.3700  0.1254
 5939SOL    HW129276   3.522   3.335   5.188 -0.4851 -0.3293  0.2399
 5939SOL    HW229277   3.422   3.237   5.229  0.0125 -0.7243  0.8993
 5940SOL     OW29278   2.651   3.544   8.825 -0.3030  0.4577 -0.1094
 5940SOL    HW129279   2.745   3.538   8.808 -0.5546 -1.3402 -0.9171
 5940SOL    HW229280   2.636   3.449   8.823 -4.0328  1.0708 -1.4963
 5941SOL     OW29281   0.400   4.354   9.666 -0.3303  0.0848 -0.0228
 5941SOL    HW129282   0.420   4.338   9.758 -0.2539 -1.9212 -0.3910
 5941SOL    HW229283   0.479   4.394   9.632 -0.5963  0.4672 -0.1968
 5942SOL     OW29284   3.655   0.592   5.363 -0.1830 -0.7168 -0.2046
 5942SOL    HW129285   3.639   0.687   5.358 -0.4247 -0.8300 -1.4905
 5942SOL    HW229286   3.749   0.584   5.377  0.3056  3.7944 -0.6338
 5943SOL     OW29287   2.843   1.771   7.870 -0.3449 -0.3597 -0.2321
 5943SOL    HW129288   2.753   1.778   7.903 -0.2300 -1.3242  0.2992
 5943SOL    HW229289   2.896   1.744   7.945  0.1298 -1.3760 -0.9269
 5944SOL     OW29290   4.225   3.473  14.814 -1.1246 -0.8803 -0.9948
 5944SOL    HW129291   4.190   3.407  14.753 -0.1344 -2.3229 -0.0183
 5944SOL    HW229292   4.304   3.439  14.856 -2.0730 -1.1923  0.5547
 5945SOL     OW29293   1.851   0.023  10.445 -0.7897  0.5339  0.4718
 5945SOL    HW129294   1.881   4.655  10.445 -2.7488 -0.1220  0.3875
 5945SOL    HW229295   1.879   0.048  10.533  1.4876 -0.2681 -0.0273
 5946SOL     OW29296   3.401   3.037  14.157 -0.0255 -0.1931 -0.2061
 5946SOL    HW129297   3.452   3.008  14.081 -0.8727  1.1407 -1.2751
 5946SOL    HW229298   3.319   2.987  14.154 -0.1485  0.1101 -2.1147
 5947SOL     OW29299   3.169   2.289   3.626  0.0435 -0.0393 -0.4579
 5947SOL    HW129300   3.156   2.212   3.570 -0.6982 -0.8561  0.8367
 5947SOL    HW229301   3.224   2.251   3.694  0.3093  2.2039  0.5577
 5948SOL     OW29302   1.152   1.241  14.468 -0.1903 -0.4166  0.4645
 5948SOL    HW129303   1.242   1.232  14.502 -0.8435  1.2647  2.6383
 5948SOL    HW229304   1.134   1.334  14.483 -1.0300 -0.4082 -0.6933
 5949SOL     OW29305   3.517   2.056  13.379 -0.1492 -0.0361  0.4139
 5949SOL    HW129306   3.580   1.993  13.344  0.9618  0.2377  1.9392
 5949SOL    HW229307   3.550   2.144  13.362 -0.7466  0.0367 -0.3723
 5950SOL     OW29308   4.399   3.828   6.492 -0.4184  0.0432 -0.4463
 5950SOL    HW129309   4.482   3.823   6.540 -1.3912  1.0154  1.3718
 5950SOL    HW229310   4.433   3.874   6.415  2.6189  0.7376  1.2912
 5951SOL     OW29311   1.518   3.436   1.045 -0.6908  0.1968  0.2450
 5951SOL    HW129312   1.583   3.371   1.021 -0.9507  1.0175 -2.6598
 5951SOL    HW229313   1.577   3.498   1.088  0.7390 -1.8004  1.1179
 5952SOL     OW29314   2.900   1.413   6.827 -0.5826  0.2432 -0.2698
 5952SOL    HW129315   2.903   1.449   6.738 -0.3606 -0.0970 -0.3983
 5952SOL    HW229316   2.958   1.468   6.879 -2.2345  1.2038  0.5443
 5953SOL     OW29317   0.014   0.969  13.805  0.2253 -0.2141  0.2240
 5953SOL    HW129318   4.680   1.045  13.794  0.5717 -0.1726 -1.2531
 5953SOL    HW229319   0.051   0.948  13.719 -2.1437  0.9130 -1.0649
 5954SOL     OW29320   1.381   3.380  17.435  0.2377  0.0180  0.0444
 5954SOL    HW129321   1.395   3.426  17.518 -0.5049 -2.4750  1.5621
 5954SOL    HW229322   1.337   3.440  17.375 -1.5659 -1.3606  0.0213
 5955SOL     OW29323   0.841   3.675   9.799  0.1087 -0.0432 -0.2135
 5955SOL    HW129324   0.916   3.631   9.758  2.2545  1.8947  1.6762
 5955SOL    HW229325   0.835   3.624   9.880 -1.1977 -0.2530 -0.4359
 5956SOL     OW29326   3.875   2.189   8.168  0.4007  0.5123 -0.0502
 5956SOL    HW129327   3.910   2.144   8.245  0.0981  1.8578  0.8917
 5956SOL    HW229328   3.784   2.158   8.164  0.4160  0.5043 -0.3542
 5957SOL     OW29329   2.066   3.051  12.737 -0.0798  0.4954  0.1293
 5957SOL    HW129330   2.124   2.979  12.759  0.4755  0.1972 -2.2505
 5957SOL    HW229331   2.052   3.027  12.645 -0.9203  0.4299  0.2714
 5958SOL     OW29332   2.724   3.065   6.360 -0.5111  0.1534  0.0987
 5958SOL    HW129333   2.816   3.038   6.352 -0.7178 -0.5918  0.2469
 5958SOL    HW229334   2.739   3.150   6.401  1.0760  0.0699 -0.3189
 5959SOL     OW29335   2.940   2.401   1.406 -0.3548  0.3887  0.1256
 5959SOL    HW129336   2.941   2.349   1.487  3.1300  0.0631 -0.1188
 5959SOL    HW229337   2.879   2.467   1.436  0.0214  0.7588  0.0713
 5960SOL     OW29338   0.882   4.214   6.998 -0.0628 -0.3949 -1.0734
 5960SOL    HW129339   0.800   4.259   6.975  0.9522  2.2221  0.4007
 5960SOL    HW229340   0.941   4.286   6.977 -3.2919  2.2712 -1.0131
 5961SOL     OW29341   3.499   2.220   9.607 -0.4118 -0.4424 -1.0357
 5961SOL    HW129342   3.471   2.188   9.692  0.5545  0.0259 -0.5442
 5961SOL    HW229343   3.584   2.253   9.636 -0.4860 -1.7354  0.6509
 5962SOL     OW29344   2.439   2.384   3.618 -0.4891  0.0458  0.2544
 5962SOL    HW129345   2.378   2.456   3.599 -0.6525 -0.2077 -0.1779
 5962SOL    HW229346   2.407   2.357   3.704 -0.8784 -0.5121 -0.0661
 5963SOL     OW29347   4.013   1.956   2.994  0.0390 -0.1123 -0.9480
 5963SOL    HW129348   3.935   1.971   2.941 -1.3512 -2.5315  0.3792
 5963SOL    HW229349   3.993   1.876   3.043  0.2285 -0.2550 -1.1000
 5964SOL     OW29350   2.125   2.918   4.803  0.0198  0.1125 -0.7292
 5964SOL    HW129351   2.139   3.010   4.822 -0.4321 -0.0147  0.2123
 5964SOL    HW229352   2.033   2.906   4.825  0.7173 -1.9746  1.1801
 5965SOL     OW29353   3.871   0.510   1.677  0.1139 -0.2055  0.6089
 5965SOL    HW129354   3.938   0.500   1.610 -0.8189 -0.1055 -0.3259
 5965SOL    HW229355   3.817   0.432   1.665  0.2508 -0.1039 -0.6585
 5966SOL     OW29356   3.649   1.210   0.748 -0.2614 -0.5152  0.5411
 5966SOL    HW129357   3.617   1.215   0.658 -0.9646 -2.3146  0.6960
 5966SOL    HW229358   3.644   1.299   0.783  2.1353  0.0372 -0.5475
 5967SOL     OW29359   2.242   0.804   4.889  0.2625 -1.0410 -0.3654
 5967SOL    HW129360   2.218   0.862   4.962 -3.8786  0.7631 -3.0996
 5967SOL    HW229361   2.150   0.789   4.864  0.0383  1.3830 -1.0352
 5968SOL     OW29362   3.402   4.188  10.150 -0.5550 -0.3504  0.1480
 5968SOL    HW129363   3.439   4.217  10.234 -0.4184 -0.7764  0.2318
 5968SOL    HW229364   3.486   4.194  10.104 -2.5652 -1.3524 -3.6453
 5969SOL     OW29365   0.548   3.771   5.232 -0.3804  0.0192  0.5835
 5969SOL    HW129366   0.635   3.744   5.262  1.3640  1.4110 -3.2303
 5969SOL    HW229367   0.491   3.741   5.303 -0.2694 -1.4959  0.0242
 5970SOL     OW29368   3.630   0.598   1.603  0.0575 -0.4316  0.0966
 5970SOL    HW129369   3.641   0.582   1.510 -0.8331  1.1795 -0.2941
 5970SOL    HW229370   3.718   0.591   1.641  0.1789  0.7274  0.0442
 5971SOL     OW29371   1.421   2.583   2.719 -0.6808 -0.2691 -1.1526
 5971SOL    HW129372   1.336   2.542   2.739 -0.6362  0.5704  0.7627
 5971SOL    HW229373   1.416   2.615   2.629  0.2165 -0.5749 -1.3127
 5972SOL     OW29374   2.142   1.623   6.163  1.2574 -0.0834 -0.0616
 5972SOL    HW129375   2.174   1.647   6.250 -0.0209 -0.1465  0.4201
 5972SOL    HW229376   2.225   1.625   6.115  0.7442  0.7434 -0.9205
 5973SOL     OW29377   1.663   4.682   6.961  0.3326  0.1186 -0.0131
 5973SOL    HW129378   1.611   4.714   6.887  0.6988 -2.2528 -1.3097
 5973SOL    HW229379   1.638   4.590   6.960  2.5601 -0.5031 -0.0492
 5974SOL     OW29380   3.656   3.586  12.290 -0.0099  0.5514  0.1432
 5974SOL    HW129381   3.658   3.640  12.211 -1.1437  1.5470  0.7945
 5974SOL    HW229382   3.630   3.654  12.352 -0.6930  0.3701  0.0611
 5975SOL     OW29383   3.925   4.427  15.851  0.1563  0.5643 -0.5386
 5975SOL    HW129384   3.912   4.479  15.929  0.0284  0.3500 -0.4177
 5975SOL    HW229385   3.853   4.368  15.872  1.3933 -0.5273  0.6952
 5976SOL     OW29386   0.135   3.145  16.032  0.2043 -0.0948 -0.7133
 5976SOL    HW129387   0.051   3.098  16.035  0.5406 -0.7703 -1.6548
 5976SOL    HW229388   0.200   3.081  16.061  0.8152  0.2135 -1.4127
 5977SOL     OW29389   1.928   1.651   4.057  0.2797  0.0592 -0.0563
 5977SOL    HW129390   1.900   1.743   4.047  1.8627  0.4260 -1.0794
 5977SOL    HW229391   1.980   1.664   4.136  0.9826 -1.7355 -0.2439
 5978SOL     OW29392   1.494   1.349   3.864 -0.4654  0.0760  0.1486
 5978SOL    HW129393   1.575   1.352   3.915 -1.1405 -0.6945  1.2657
 5978SOL    HW229394   1.510   1.402   3.786  0.8699 -0.9154 -0.2610
 5979SOL     OW29395   1.336   2.022   4.287 -0.4606 -0.2376 -0.3504
 5979SOL    HW129396   1.366   1.947   4.340 -1.6139  0.0246  0.6728
 5979SOL    HW229397   1.241   2.008   4.295 -0.2471 -0.3253  2.0588
 5980SOL     OW29398   2.424   1.434   2.796  0.6052  0.0096 -0.4655
 5980SOL    HW129399   2.461   1.459   2.711  2.8393  2.1576  1.1268
 5980SOL    HW229400   2.458   1.346   2.811  0.5554 -0.6284 -4.0212
 5981SOL     OW29401   4.216   0.160  15.683 -0.1163 -0.4110  0.1331
 5981SOL    HW129402   4.236   0.216  15.608  2.6699 -0.5783  0.7864
 5981SOL    HW229403   4.128   0.189  15.709  0.0828 -0.1598  0.5233
 5982SOL     OW29404   4.434   1.657   3.965  0.3663  0.0688 -0.0523
 5982SOL    HW129405   4.447   1.705   3.883 -2.3772  0.2759 -0.3441
 5982SOL    HW229406   4.425   1.565   3.941  1.3260 -0.5321  1.8534
 5983SOL     OW29407   2.750   3.474   0.350  0.3502 -0.1584 -0.5384
 5983SOL    HW129408   2.758   3.380   0.336  2.5774  0.1457 -1.3091
 5983SOL    HW229409   2.659   3.468   0.378  0.7091 -0.7874  0.4745
 5984SOL     OW29410   1.481   1.230   7.821 -0.8664 -0.4763 -0.3379
 5984SOL    HW129411   1.513   1.276   7.743 -1.5460  2.0434  0.8874
 5984SOL    HW229412   1.394   1.263   7.843 -1.5836 -1.2268 -2.0864
 5985SOL     OW29413   1.730   4.427  10.180 -0.0284 -0.4959 -0.1093
 5985SOL    HW129414   1.664   4.358  10.173  0.1433 -0.8265  1.6195
 5985SOL    HW229415   1.722   4.456  10.271  0.0553 -0.1257 -0.2216
 5986SOL     OW29416   1.237   0.664   4.151 -0.1079 -0.5372 -0.3460
 5986SOL    HW129417   1.281   0.747   4.171 -1.3996 -0.0357  0.4425
 5986SOL    HW229418   1.145   0.693   4.149 -0.3124 -1.1472  0.1331
 5987SOL     OW29419   3.106   0.769   1.286  0.0199 -0.1279  0.1624
 5987SOL    HW129420   3.076   0.842   1.341  0.3241  1.0174 -1.2134
 5987SOL    HW229421   3.192   0.745   1.320  0.4043 -0.2852 -0.9520
 5988SOL     OW29422   4.380   1.971   3.648 -0.5293 -0.1134  0.3938
 5988SOL    HW129423   4.401   2.057   3.612 -1.5693  0.0849  0.2579
 5988SOL    HW229424   4.323   1.938   3.578  0.3734 -2.6777  0.8744
 5989SOL     OW29425   2.367   0.413   1.987  0.0596 -0.0789  0.4875
 5989SOL    HW129426   2.286   0.452   1.955  0.8746  1.7281  0.5897
 5989SOL    HW229427   2.441   0.436   1.930 -1.5320  1.0779 -1.0991
 5990SOL     OW29428   1.887   4.679  17.586  0.1616  0.3417 -0.5747
 5990SOL    HW129429   1.981   4.690  17.599  0.0889  0.9525 -0.5467
 5990SOL    HW229430   1.883   4.589  17.554  0.5263  0.1745 -0.1611
 5991SOL     OW29431   2.941   4.530   1.916 -0.2633  0.4616  0.6232
 5991SOL    HW129432   3.006   4.486   1.861 -2.4230 -2.6024  0.4910
 5991SOL    HW229433   2.879   4.457   1.920 -2.3792  2.1092 -1.8952
 5992SOL     OW29434   3.399   3.014   8.529 -0.5381 -0.2936  0.0336
 5992SOL    HW129435   3.438   3.020   8.442  0.8791 -2.5006  0.5145
 5992SOL    HW229436   3.400   2.919   8.541 -0.3676  0.3198  5.0144
 5993SOL     OW29437   2.155   3.660   3.920  0.0689 -0.2194  0.3964
 5993SOL    HW129438   2.246   3.646   3.893 -0.2322  0.6492 -1.1175
 5993SOL    HW229439   2.130   3.738   3.869  0.9861 -0.7814 -0.9037
 5994SOL     OW29440   1.956   3.375   2.937  0.3562  0.4666  0.3431
 5994SOL    HW129441   1.926   3.286   2.920  0.8738  0.0520  1.5649
 5994SOL    HW229442   1.878   3.425   2.961  0.8965  1.8519 -0.8003
 5995SOL     OW29443   4.080   1.498   3.966  0.0765  0.0903  0.6717
 5995SOL    HW129444   4.109   1.584   3.996  0.5239  0.0652  0.3169
 5995SOL    HW229445   3.999   1.530   3.926 -0.1005  0.6431  1.4869
 5996SOL     OW29446   3.158   0.961   8.077  0.0616  0.9404  0.0529
 5996SOL    HW129447   3.187   0.894   8.139 -3.4201  1.2885  2.0131
 5996SOL    HW229448   3.100   1.014   8.132 -0.6704  1.4489 -1.2085
 5997SOL     OW29449   3.175   4.132   1.331  0.3136  0.2225  0.1428
 5997SOL    HW129450   3.212   4.193   1.395 -0.6711  2.7974 -1.7030
 5997SOL    HW229451   3.191   4.177   1.248 -1.6902 -2.5246 -1.7315
 5998SOL     OW29452   3.984   3.075   5.495  0.7911  0.0853 -0.6712
 5998SOL    HW129453   3.968   3.110   5.407  0.7753 -0.3844 -0.8578
 5998SOL    HW229454   4.078   3.088   5.487  0.8980 -0.9528 -1.2322
 5999SOL     OW29455   2.497   1.238   9.903  0.2540 -0.1097 -0.4179
 5999SOL    HW129456   2.419   1.238   9.958 -0.2535  2.1846 -1.1408
 5999SOL    HW229457   2.555   1.182   9.954 -1.3834  0.5240  2.0939
 6000SOL     OW29458   3.854   1.587   7.090  0.2216 -0.0398  0.2444
 6000SOL    HW129459   3.879   1.678   7.105  0.2518 -0.0537  0.2770
 6000SOL    HW229460   3.775   1.568   7.141 -0.2296 -2.0406 -1.1967
 6001SOL     OW29461   3.118   0.979   4.135  0.4209 -0.0672  0.1874
 6001SOL    HW129462   3.181   1.035   4.181  1.1074 -0.8700  0.2480
 6001SOL    HW229463   3.062   0.945   4.205 -0.0220  1.7390  0.6944
 6002SOL     OW29464   1.021   0.401   8.678 -0.0386  0.0851  0.1838
 6002SOL    HW129465   1.052   0.329   8.732 -0.3165 -0.1186  0.0675
 6002SOL    HW229466   1.002   0.350   8.599 -0.4491  0.3004  0.1452
 6003SOL     OW29467   0.517   2.479  15.429 -0.4255  0.8459 -0.5980
 6003SOL    HW129468   0.504   2.573  15.431  2.1485  1.1879  0.6244
 6003SOL    HW229469   0.507   2.462  15.335 -2.3720  1.6274 -0.5266
 6004SOL     OW29470   1.734   1.160  10.822  0.0102  0.2984  0.1650
 6004SOL    HW129471   1.649   1.118  10.807  0.3877  0.7768 -3.3287
 6004SOL    HW229472   1.780   1.079  10.845 -0.0680  1.0675  3.0248
 6005SOL     OW29473   2.138   1.890   9.868  0.1372  0.1658 -0.0040
 6005SOL    HW129474   2.174   1.817   9.919 -0.4585  0.5361  0.9346
 6005SOL    HW229475   2.205   1.903   9.801  0.6515  0.7588  0.6252
 6006SOL     OW29476   0.375   0.037  12.705 -1.0761  0.3986  0.4905
 6006SOL    HW129477   0.311   0.096  12.745 -1.3485 -0.2867  1.0562
 6006SOL    HW229478   0.397   4.690  12.766  0.5771 -0.4355 -1.0638
 6007SOL     OW29479   0.394   1.620   6.225 -0.4811 -0.3953  0.5949
 6007SOL    HW129480   0.407   1.673   6.146 -1.5403 -2.9948 -1.3155
 6007SOL    HW229481   0.468   1.559   6.224  1.6009  2.1648 -1.0545
 6008SOL     OW29482   3.830   1.435   5.975  0.6376  0.1081 -0.3191
 6008SOL    HW129483   3.785   1.385   6.043  0.4621  2.1158  1.0346
 6008SOL    HW229484   3.920   1.403   5.968  1.1355  1.5501 -0.6795
 6009SOL     OW29485   0.985   2.441   5.351 -0.2860 -0.0770 -0.9349
 6009SOL    HW129486   1.012   2.394   5.430  0.8981  1.6924 -0.2918
 6009SOL    HW229487   0.907   2.392   5.323 -1.5852  0.8893  0.9466
 6010SOL     OW29488   0.484   1.188  12.010 -0.4163 -0.1969 -0.2232
 6010SOL    HW129489   0.512   1.204  11.920  1.8838 -0.4841  0.4321
 6010SOL    HW229490   0.393   1.214  11.998 -1.3220 -4.0973 -1.9014
 6011SOL     OW29491   2.337   1.964   9.690  0.4890 -0.0351 -0.2868
 6011SOL    HW129492   2.428   1.990   9.706  0.2037  0.1530  1.0698
 6011SOL    HW229493   2.327   1.982   9.597  1.6478 -0.1270 -0.4259
 6012SOL     OW29494   4.615   2.796   4.720 -0.6634 -0.5792  0.4856
 6012SOL    HW129495   4.569   2.840   4.648 -1.2626 -2.3063 -0.1684
 6012SOL    HW229496   4.543   2.795   4.782  0.2406 -0.8296  1.5427
 6013SOL     OW29497   3.763   2.286   8.425 -0.2138 -0.5987  0.2696
 6013SOL    HW129498   3.848   2.330   8.419 -0.4838 -0.2130 -0.6237
 6013SOL    HW229499   3.745   2.260   8.335  1.6307  0.8828 -0.5311
 6014SOL     OW29500   4.644   1.106  12.666 -0.5305  0.0786 -0.4423
 6014SOL    HW129501   0.009   1.097  12.704 -1.3071 -0.8664  1.1258
 6014SOL    HW229502   4.670   1.109  12.574  1.0616 -1.4070 -0.0405
 6015SOL     OW29503   3.241   1.888   0.585  0.2465 -0.0461  0.2965
 6015SOL    HW129504   3.231   1.961   0.645  1.0478 -0.8639  1.4422
 6015SOL    HW229505   3.337   1.880   0.581  0.0066 -2.1690 -1.5571
 6016SOL     OW29506   2.514   2.239   5.862 -0.0835 -0.7308 -0.4645
 6016SOL    HW129507   2.562   2.202   5.788  0.6014 -1.7975  0.5100
 6016SOL    HW229508   2.427   2.209   5.836 -0.7486  3.7784 -3.4097
 6017SOL     OW29509   0.655   0.033   6.858 -0.4820  0.3336  0.1826
 6017SOL    HW129510   0.731   4.715   6.900 -1.0504  0.7606  1.6213
 6017SOL    HW229511   0.600   4.678   6.846  0.9056 -0.9558  2.2548
 6018SOL     OW29512   2.159   3.693   1.297  0.3418 -0.0047  0.3543
 6018SOL    HW129513   2.104   3.617   1.279 -0.1701  0.4050  0.2199
 6018SOL    HW229514   2.220   3.685   1.223  1.2406 -0.1393  1.1087
 6019SOL     OW29515   1.672   3.319   6.901 -0.5851  0.1684 -0.0654
 6019SOL    HW129516   1.739   3.368   6.949 -0.0185  1.1877 -1.8989
 6019SOL    HW229517   1.611   3.390   6.878 -2.5034 -1.4657  0.0148
 6020SOL     OW29518   3.894   1.343   0.537  0.2019  0.2237  0.1103
 6020SOL    HW129519   3.962   1.347   0.604 -0.4048  0.3261  0.7224
 6020SOL    HW229520   3.835   1.274   0.567  2.1799 -1.3494  0.3466
 6021SOL     OW29521   0.834   0.866   2.814  0.0303 -0.2814  0.0626
 6021SOL    HW129522   0.757   0.832   2.860  1.0923 -1.5586  0.9001
 6021SOL    HW229523   0.787   0.924   2.754 -0.9164 -1.0501  0.0689
 6022SOL     OW29524   1.284   2.645   5.928 -0.6836 -0.4434 -0.2834
 6022SOL    HW129525   1.190   2.646   5.942 -0.3970  1.0305  1.5765
 6022SOL    HW229526   1.297   2.679   5.840 -0.8342 -1.6908 -0.7881
 6023SOL     OW29527   3.317   2.080   1.212  0.3661  0.7498 -0.1519
 6023SOL    HW129528   3.377   2.139   1.258  1.7979 -1.3707  0.6888
 6023SOL    HW229529   3.237   2.092   1.264  0.8841 -0.2842  0.8735
 6024SOL     OW29530   1.152   3.658   4.916  0.1455 -0.4945  0.1272
 6024SOL    HW129531   1.215   3.595   4.951  1.2789 -0.1894 -1.3528
 6024SOL    HW229532   1.192   3.659   4.829 -1.9752 -0.9769 -0.8602
 6025SOL     OW29533   2.918   2.928   1.522 -0.0892  0.7702  0.3231
 6025SOL    HW129534   2.981   2.958   1.587  2.1626  0.4398 -1.6858
 6025SOL    HW229535   2.880   3.011   1.494 -3.0601 -1.1080 -1.1555
 6026SOL     OW29536   0.911   0.041   7.915  0.0493  0.3175 -0.1607
 6026SOL    HW129537   0.831   0.072   7.872 -0.2772  0.6153  0.6616
 6026SOL    HW229538   0.895   4.670   7.930  1.0091 -0.1264 -1.8015
 6027SOL     OW29539   1.431   2.530   8.704 -0.2174 -0.0297 -0.1674
 6027SOL    HW129540   1.504   2.567   8.754  1.5576 -4.1505  0.3094
 6027SOL    HW229541   1.465   2.442   8.685  0.7993  0.4027 -0.3330
 6028SOL     OW29542   2.708   3.872   8.966 -0.3577  0.8266 -0.3559
 6028SOL    HW129543   2.629   3.822   8.949  0.1191 -0.9298  2.6329
 6028SOL    HW229544   2.672   3.920   9.041  0.1736 -0.6323  0.8237
 6029SOL     OW29545   3.251   2.646   2.652  0.2018  0.4257  0.1495
 6029SOL    HW129546   3.189   2.699   2.602 -1.0585 -1.8477 -0.7165
 6029SOL    HW229547   3.271   2.577   2.588 -0.0265  1.7661 -1.3654
 6030SOL     OW29548   4.129   0.104  14.655  0.5142 -0.0258  0.9284
 6030SOL    HW129549   4.114   0.041  14.584 -0.2158  1.2379 -0.0345
 6030SOL    HW229550   4.086   0.061  14.729 -0.9161  0.4235  0.3570
 6031SOL     OW29551   1.891   0.905   1.655  0.5064 -0.3436 -0.3320
 6031SOL    HW129552   1.796   0.911   1.644  0.0717 -0.5586  3.2326
 6031SOL    HW229553   1.898   0.977   1.718 -0.0656 -0.9394  0.4127
 6032SOL     OW29554   2.433   0.566   1.635  0.3356  0.1417  0.5402
 6032SOL    HW129555   2.510   0.613   1.668  1.2484 -0.4185 -0.7616
 6032SOL    HW229556   2.380   0.637   1.599 -1.4388 -2.2239 -1.4761
 6033SOL     OW29557   0.387   4.664   7.237  0.8928  0.1540 -0.0970
 6033SOL    HW129558   0.433   4.589   7.275 -0.9467 -0.1814  1.4740
 6033SOL    HW229559   0.444   0.018   7.248  2.8935 -1.3100 -0.2660
 6034SOL     OW29560   2.705   2.905   4.597  0.1484  0.4280 -0.3982
 6034SOL    HW129561   2.612   2.924   4.602 -0.2241 -1.5090  0.1407
 6034SOL    HW229562   2.741   2.907   4.686  0.3925  1.2562 -0.5147
 6035SOL     OW29563   4.527   1.358   0.983 -0.8321 -0.0964  0.0234
 6035SOL    HW129564   4.606   1.326   1.026 -0.1824  3.9072  1.8710
 6035SOL    HW229565   4.452   1.350   1.042 -0.9163 -0.8581 -0.1880
 6036SOL     OW29566   1.115   4.426   9.098 -0.0522 -0.1079  0.7601
 6036SOL    HW129567   1.186   4.373   9.062 -1.2724  0.0146 -1.7930
 6036SOL    HW229568   1.052   4.357   9.116  1.0116 -0.7117  2.2171
 6037SOL     OW29569   3.252   4.693   3.904  0.2616  0.3237 -0.5193
 6037SOL    HW129570   3.183   4.638   3.868 -0.2485 -0.6410  1.8941
 6037SOL    HW229571   3.259   0.038   3.836 -0.7448 -0.6442 -1.5593
 6038SOL     OW29572   2.379   2.521   4.342  0.4848 -0.4739 -0.0368
 6038SOL    HW129573   2.435   2.502   4.266 -0.0978 -1.0015 -0.3336
 6038SOL    HW229574   2.375   2.617   4.343 -0.2817 -0.4946 -1.0540
 6039SOL     OW29575   0.168   3.470   9.389 -0.1681  0.0147 -0.6262
 6039SOL    HW129576   0.189   3.379   9.410  2.1925  0.7477  0.1712
 6039SOL    HW229577   0.205   3.478   9.301  1.4950 -1.6268 -0.0599
 6040SOL     OW29578   3.504   1.008   0.858  0.2576  0.2108  0.4572
 6040SOL    HW129579   3.543   1.083   0.814  0.7714  0.7577  1.8360
 6040SOL    HW229580   3.417   1.044   0.876 -0.1479 -0.0037 -1.1027
 6041SOL     OW29581   0.489   1.559   7.492 -1.1498 -0.0830 -0.2659
 6041SOL    HW129582   0.530   1.573   7.408  1.9501  2.8997  1.7617
 6041SOL    HW229583   0.490   1.648   7.528  1.4315 -0.7244  1.2212
 6042SOL     OW29584   0.409   0.050   0.561  0.4844 -0.0626 -0.3281
 6042SOL    HW129585   0.478   4.709   0.545 -0.4433 -1.1578 -0.0330
 6042SOL    HW229586   0.402   0.038   0.656 -2.2306  0.1297 -0.4903
 6043SOL     OW29587   0.627   2.584   5.503 -0.6762 -0.0021  0.0441
 6043SOL    HW129588   0.554   2.537   5.462  0.5581 -0.3744 -1.6960
 6043SOL    HW229589   0.677   2.522   5.556 -0.3083  1.2157  1.1124
 6044SOL     OW29590   0.796   2.428   9.577 -0.7312 -0.0112 -0.0606
 6044SOL    HW129591   0.817   2.468   9.493  0.5810 -1.7181 -0.5344
 6044SOL    HW229592   0.884   2.407   9.610  0.4759  2.2608 -1.8246
 6045SOL     OW29593   3.864   3.550   4.070  0.0310  0.1268 -0.3291
 6045SOL    HW129594   3.896   3.544   4.160 -0.7905 -0.4715 -0.0818
 6045SOL    HW229595   3.831   3.462   4.057  2.2588 -0.7198 -0.2179
 6046SOL     OW29596   2.760   0.426   7.966  0.2885 -0.4536 -0.3383
 6046SOL    HW129597   2.816   0.350   7.953 -1.3610 -1.3483 -2.2031
 6046SOL    HW229598   2.768   0.429   8.061 -0.0417  0.9777 -0.3497
 6047SOL     OW29599   4.130   0.039  11.610  0.0679  0.0086 -0.5202
 6047SOL    HW129600   4.125   4.691  11.546  2.7260  0.2917 -1.0082
 6047SOL    HW229601   4.136   0.113  11.550 -1.4922  0.7307  0.1925
 6048SOL     OW29602   3.088   0.126   5.631 -0.2188  0.9078  0.2305
 6048SOL    HW129603   3.116   0.214   5.657  2.3932 -0.0660  0.7321
 6048SOL    HW229604   3.004   0.115   5.675 -0.6366 -2.4096 -1.4115
 6049SOL     OW29605   2.318   4.314   5.443  0.3020 -0.0983 -0.3343
 6049SOL    HW129606   2.398   4.266   5.463 -0.5590 -1.6992 -0.8005
 6049SOL    HW229607   2.254   4.245   5.431 -1.1042  0.5364  3.6396
 6050SOL     OW29608   3.183   0.822   3.678 -0.5641  0.6458  0.4341
 6050SOL    HW129609   3.145   0.872   3.606  0.0763  0.9779  0.3282
 6050SOL    HW229610   3.114   0.834   3.743 -0.9079  0.3609  0.1260
 6051SOL     OW29611   0.846   1.983   8.620  0.1402  0.6043  0.2214
 6051SOL    HW129612   0.867   2.025   8.536  0.1059  2.0838  0.9598
 6051SOL    HW229613   0.935   1.967   8.653  0.3444  0.5476 -0.3566
 6052SOL     OW29614   4.542   3.452   2.256  0.2206  0.4413  0.1698
 6052SOL    HW129615   4.539   3.547   2.246 -4.3914  0.4045  1.5077
 6052SOL    HW229616   4.464   3.437   2.310  1.3852 -1.9905  1.1942
 6053SOL     OW29617   0.643   0.560   4.202 -0.0558  0.4670  0.0826
 6053SOL    HW129618   0.651   0.567   4.297  0.8583  1.6896 -0.0995
 6053SOL    HW229619   0.660   0.649   4.173  1.4358 -0.4811 -1.9761
 6054SOL     OW29620   1.026   2.349   6.510 -0.1583 -0.1471 -0.3788
 6054SOL    HW129621   1.068   2.334   6.595 -0.6901 -0.6970 -0.2085
 6054SOL    HW229622   1.059   2.264   6.480  1.2638  0.9395 -1.8358
 6055SOL     OW29623   0.738   3.378   3.314  0.1482  0.4171  0.5609
 6055SOL    HW129624   0.765   3.441   3.380 -0.5063  0.9992  0.2742
 6055SOL    HW229625   0.646   3.366   3.339  0.0791 -0.1965  0.0207
 6056SOL     OW29626   3.919   4.536  14.072  0.1019  0.2769 -0.2209
 6056SOL    HW129627   3.942   4.568  14.159  0.3655  0.1226 -0.2328
 6056SOL    HW229628   3.873   4.458  14.103 -0.3022  0.7767  0.4170
 6057SOL     OW29629   1.812   4.675   0.742  0.9108  0.1776  0.7848
 6057SOL    HW129630   1.773   4.716   0.819 -3.1293 -1.1094 -0.5668
 6057SOL    HW229631   1.757   4.709   0.671  0.7592 -2.7559 -0.5084
 6058SOL     OW29632   3.859   1.288   6.631  0.1947 -0.9655  0.2111
 6058SOL    HW129633   3.925   1.327   6.575 -2.3302  0.6667 -1.5788
 6058SOL    HW229634   3.885   1.314   6.720 -1.7680  3.0351 -0.4092
 6059SOL     OW29635   3.870   1.435   3.667  1.2115 -0.7674 -0.2630
 6059SOL    HW129636   3.886   1.414   3.576  2.1766  0.1031 -0.2908
 6059SOL    HW229637   3.872   1.531   3.662 -0.9283 -0.7170 -0.1431
 6060SOL     OW29638   0.924   3.873   5.812 -0.2191  0.1529  0.6855
 6060SOL    HW129639   0.861   3.825   5.758  1.0166 -2.0521  1.2318
 6060SOL    HW229640   0.876   3.875   5.894  3.0146  0.3734  2.5792
 6061SOL     OW29641   0.293   1.028   1.057 -0.1657 -0.4419  0.0369
 6061SOL    HW129642   0.332   0.986   1.134  0.7771 -1.4105 -0.9685
 6061SOL    HW229643   0.201   1.040   1.080 -0.5488 -1.2434 -1.0385
 6062SOL     OW29644   2.943   4.007   8.438  0.4274 -0.4525 -0.6880
 6062SOL    HW129645   2.998   3.991   8.515 -0.4145  0.5422  0.1140
 6062SOL    HW229646   2.906   3.920   8.420  0.0697 -0.3219 -0.5893
 6063SOL     OW29647   4.246   3.178  12.315  0.3191  0.6135 -0.0195
 6063SOL    HW129648   4.158   3.165  12.278  0.5631  0.6234 -0.6006
 6063SOL    HW229649   4.279   3.250  12.263 -0.1391  0.2493 -0.8265
 6064SOL     OW29650   1.084   3.365   1.221  0.4510 -0.2321 -0.5464
 6064SOL    HW129651   1.149   3.427   1.188 -0.0114  0.8772  0.6608
 6064SOL    HW229652   1.119   3.283   1.186  1.0428  0.0574 -0.6302
 6065SOL     OW29653   4.622   0.338   0.799 -0.2160 -0.2001  0.5470
 6065SOL    HW129654   4.704   0.387   0.812  0.8466 -1.6374 -0.7888
 6065SOL    HW229655   4.566   0.398   0.850 -0.8155  0.4046 -0.8350
 6066SOL     OW29656   3.617   0.682   8.470  0.4087 -0.5909 -0.0561
 6066SOL    HW129657   3.527   0.648   8.474  0.4057 -0.7332 -1.1744
 6066SOL    HW229658   3.622   0.734   8.550 -0.0672  0.8404 -0.9615
 6067SOL     OW29659   4.092   3.276   8.487 -0.0293  0.6586  0.5099
 6067SOL    HW129660   4.130   3.209   8.544 -1.4147 -1.5092 -1.0874
 6067SOL    HW229661   4.026   3.310   8.548  0.4473  2.1009  0.2284
 6068SOL     OW29662   0.861   2.929   3.083  0.5571 -0.5265 -0.2308
 6068SOL    HW129663   0.942   2.885   3.058 -0.0610 -1.9112  0.1923
 6068SOL    HW229664   0.869   3.022   3.066 -0.3026 -0.4045  0.0290
 6069SOL     OW29665   4.062   1.092   6.252  0.1511 -0.7598 -0.2386
 6069SOL    HW129666   4.028   1.181   6.250  2.4053  0.1346  0.8853
 6069SOL    HW229667   4.007   1.047   6.316  0.4182  0.0712  0.5845
 6070SOL     OW29668   1.664   2.422  11.366  0.4165  0.2258  0.1286
 6070SOL    HW129669   1.702   2.335  11.358  1.8319  0.6770  2.1359
 6070SOL    HW229670   1.579   2.411  11.322  0.3590  0.1692  0.2527
 6071SOL     OW29671   0.152   0.799  17.338  0.2762  0.1748 -0.3122
 6071SOL    HW129672   0.197   0.868  17.290  1.3648  0.7979  1.6090
 6071SOL    HW229673   0.208   0.786  17.415 -0.4302  0.7172  0.3007
 6072SOL     OW29674   4.089   4.697   1.334 -0.6092 -0.0215 -0.4047
 6072SOL    HW129675   4.137   0.057   1.329  0.8979 -0.7659  1.6746
 6072SOL    HW229676   4.091   4.656   1.248 -1.7303  1.6099 -1.2224
 6073SOL     OW29677   3.034   1.470   3.423  0.4239  0.0079  0.2300
 6073SOL    HW129678   3.058   1.411   3.494 -0.4132 -2.0959 -1.2142
 6073SOL    HW229679   2.965   1.520   3.466  1.8514 -0.2230  2.7678
 6074SOL     OW29680   2.404   4.419   6.758 -0.2021  0.1815 -0.1207
 6074SOL    HW129681   2.462   4.464   6.819 -1.0725 -0.5562  1.2638
 6074SOL    HW229682   2.322   4.464   6.780 -0.3022 -0.4306  0.8109
 6075SOL     OW29683   3.586   0.201  13.508  0.2964  0.4555 -0.3043
 6075SOL    HW129684   3.512   0.173  13.453 -0.0724 -1.4633  1.1585
 6075SOL    HW229685   3.653   0.148  13.466 -1.1754 -0.2576 -1.7571
 6076SOL     OW29686   2.718   0.649   8.305 -0.0819 -0.4136  0.4062
 6076SOL    HW129687   2.736   0.559   8.278 -2.7204 -1.3304  1.7459
 6076SOL    HW229688   2.810   0.675   8.309 -0.0108 -0.7442  0.8676
 6077SOL     OW29689   1.454   4.599   0.569 -0.4381 -0.4845  0.0400
 6077SOL    HW129690   1.535   4.645   0.549 -0.4898  0.0344  1.0212
 6077SOL    HW229691   1.425   4.556   0.489  0.7614 -0.0361 -0.6247
 6078SOL     OW29692   1.520   2.794  11.945 -0.4288  0.0415  0.9241
 6078SOL    HW129693   1.466   2.744  11.884  0.8143  1.9225 -1.7290
 6078SOL    HW229694   1.608   2.758  11.932  0.1756  1.0344  2.2517
 6079SOL     OW29695   1.678   1.564   4.115 -0.1207  0.3998 -0.1264
 6079SOL    HW129696   1.697   1.611   4.034  3.2128 -1.2499 -0.2895
 6079SOL    HW229697   1.675   1.471   4.092  2.4469  0.7418 -1.7416
 6080SOL     OW29698   2.499   4.601   7.417  0.0560 -0.0410  0.2652
 6080SOL    HW129699   2.478   4.679   7.469 -2.1255  0.3396 -1.1324
 6080SOL    HW229700   2.413   4.559   7.416 -0.5853  1.2939 -1.4264
 6081SOL     OW29701   0.288   3.065   2.279 -0.5555 -0.2839 -0.2391
 6081SOL    HW129702   0.375   3.047   2.316 -0.8432 -0.9966  0.0897
 6081SOL    HW229703   0.236   2.989   2.303  0.2667 -0.6845  0.2638
 6082SOL     OW29704   0.486   1.093  16.795 -0.1170  0.1700  0.2700
 6082SOL    HW129705   0.425   1.102  16.722 -0.2287 -0.2413  0.3117
 6082SOL    HW229706   0.560   1.048  16.755 -0.4040  0.7143 -0.8883
 6083SOL     OW29707   1.043   3.095   5.895 -0.5322  0.1821  0.8260
 6083SOL    HW129708   1.023   3.189   5.903  0.7086  0.6475 -1.6714
 6083SOL    HW229709   1.012   3.066   5.981 -0.0745  0.5385  1.1125
 6084SOL     OW29710   2.024   0.683   1.690 -0.2402 -0.6792  0.6971
 6084SOL    HW129711   1.972   0.760   1.666 -1.7859 -1.9779 -0.1139
 6084SOL    HW229712   2.093   0.692   1.624 -0.0028 -1.4007  0.8430
 6085SOL     OW29713   3.056   0.426   5.983  0.0585 -0.4199 -0.3685
 6085SOL    HW129714   3.091   0.481   5.912 -1.8401  0.1570 -0.8590
 6085SOL    HW229715   3.139   0.384   6.008 -0.0459 -1.4119 -1.6883
 6086SOL     OW29716   4.248   1.354   8.461  0.2751  0.1179 -0.5105
 6086SOL    HW129717   4.208   1.391   8.383 -0.9484 -0.4892 -0.1726
 6086SOL    HW229718   4.290   1.280   8.420  0.1236 -0.3011  0.0835
 6087SOL     OW29719   0.845   1.376   6.397 -0.4805 -0.3064 -0.0842
 6087SOL    HW129720   0.760   1.420   6.396  0.9025  2.4610  3.3744
 6087SOL    HW229721   0.864   1.400   6.488 -0.7897 -0.7836  0.1086
 6088SOL     OW29722   2.534   3.159   6.913  0.9242  0.1415  0.1352
 6088SOL    HW129723   2.469   3.089   6.905  1.0030 -0.0926  1.5118
 6088SOL    HW229724   2.604   3.110   6.870 -0.7996 -0.7798 -1.6337
 6089SOL     OW29725   1.879   0.820  11.426 -0.1099 -0.5787 -0.3929
 6089SOL    HW129726   1.803   0.877  11.438  1.2438  1.3112 -0.7940
 6089SOL    HW229727   1.887   0.774  11.510 -2.0718  0.3357  0.2997
 6090SOL     OW29728   0.984   3.711   8.527  0.2423 -0.2707  0.1451
 6090SOL    HW129729   1.067   3.704   8.573 -0.9765 -3.4092  1.8517
 6090SOL    HW229730   0.925   3.688   8.599  0.2565  2.2821  0.9938
 6091SOL     OW29731   2.609   3.028   0.416  0.3839  0.3861  0.3113
 6091SOL    HW129732   2.644   2.980   0.490  2.4891 -1.6372 -1.9766
 6091SOL    HW229733   2.535   2.974   0.387  0.2214  0.8033 -0.0468
 6092SOL     OW29734   0.718   0.350   6.913  0.8135 -0.0552  0.5116
 6092SOL    HW129735   0.665   0.375   6.838  1.4031 -1.3145 -0.3234
 6092SOL    HW229736   0.695   0.258   6.919 -1.4717  0.5729  1.4955
 6093SOL     OW29737   3.334   1.392  17.009 -0.4670 -0.2484 -0.3595
 6093SOL    HW129738   3.268   1.323  16.998 -2.4961  1.3289  1.9050
 6093SOL    HW229739   3.416   1.345  16.998 -0.2911 -0.1844  0.7365
 6094SOL     OW29740   2.606   0.061   6.605 -0.0223 -0.4706  0.6771
 6094SOL    HW129741   2.548   0.134   6.583 -0.3708 -1.0798 -0.4257
 6094SOL    HW229742   2.611   0.066   6.700  2.3679 -0.2904  0.5498
 6095SOL     OW29743   2.704   3.188   3.132  1.0010 -0.2694 -0.1169
 6095SOL    HW129744   2.780   3.182   3.191  1.0079  0.8368 -0.0186
 6095SOL    HW229745   2.747   3.187   3.047  0.3732 -1.0974 -0.4231
 6096SOL     OW29746   3.998   4.130   1.428 -0.1324 -0.5313 -0.2047
 6096SOL    HW129747   3.929   4.072   1.394 -1.1651  0.4263  0.2414
 6096SOL    HW229748   4.036   4.060   1.482  1.6786 -0.6430 -1.6345
 6097SOL     OW29749   4.453   1.705   8.926  0.4770 -0.1435 -0.2609
 6097SOL    HW129750   4.502   1.649   8.866  1.5217 -1.3730  1.7365
 6097SOL    HW229751   4.394   1.751   8.867  2.3781 -0.6432 -2.5553
 6098SOL     OW29752   0.909   3.477  13.130 -0.2963 -0.8228  0.7416
 6098SOL    HW129753   0.952   3.434  13.205  1.8332 -1.7752 -1.0398
 6098SOL    HW229754   0.897   3.411  13.062 -0.5800 -1.4231  1.3676
 6099SOL     OW29755   4.313   4.358   4.832 -0.7815  0.3075 -0.3248
 6099SOL    HW129756   4.374   4.405   4.775 -0.3897  0.2829  0.0760
 6099SOL    HW229757   4.323   4.272   4.789  4.0845  0.8380 -0.2292
 6100SOL     OW29758   0.487   3.826   9.706  0.6163  0.0213  0.3100
 6100SOL    HW129759   0.412   3.860   9.754  1.1551  4.3782 -1.8822
 6100SOL    HW229760   0.521   3.902   9.659  2.1312 -1.2944 -0.7472
 6101SOL     OW29761   2.870   2.163  16.238 -0.3755 -0.4609 -0.1756
 6101SOL    HW129762   2.890   2.212  16.317 -1.6599 -0.9239  0.4349
 6101SOL    HW229763   2.924   2.086  16.257  0.5047  0.1307 -0.2577
 6102SOL     OW29764   0.129   2.240   9.537 -0.4890 -0.3936  0.2451
 6102SOL    HW129765   0.116   2.331   9.511 -0.3215 -0.2664  0.6019
 6102SOL    HW229766   0.087   2.242   9.623 -1.3437  1.5904 -0.2382
 6103SOL     OW29767   0.909   2.259   8.707 -0.5720  0.0390  0.0688
 6103SOL    HW129768   0.971   2.218   8.768  0.9175  1.6381 -0.3438
 6103SOL    HW229769   0.839   2.228   8.764  0.0800 -1.3503  0.1123
 6104SOL     OW29770   4.423   3.090   6.226  0.7352  0.2334 -0.3402
 6104SOL    HW129771   4.354   3.037   6.186  1.8292 -2.1258  0.8933
 6104SOL    HW229772   4.419   3.063   6.318 -0.8698  0.3588 -0.3722
 6105SOL     OW29773   4.704   3.486   7.094 -0.0202 -0.3506  0.1865
 6105SOL    HW129774   4.666   3.528   7.017  0.7514  0.5058  0.2774
 6105SOL    HW229775   4.703   3.552   7.163  1.4301  1.5084 -1.5665
 6106SOL     OW29776   1.821   4.269   8.056 -0.2415  0.4726  0.3111
 6106SOL    HW129777   1.757   4.340   8.070  3.1957  3.0019  3.1160
 6106SOL    HW229778   1.772   4.206   8.003 -0.3735  0.0963  0.8875
 6107SOL     OW29779   4.287   3.110   7.466  0.0266  0.3514 -0.2435
 6107SOL    HW129780   4.345   3.036   7.484  1.1963  1.7069  1.5351
 6107SOL    HW229781   4.206   3.066   7.440 -0.6301  0.4038  1.6723
 6108SOL     OW29782   1.871   0.216   5.999  0.1647  0.4939  0.1345
 6108SOL    HW129783   1.808   0.162   5.951  1.0125 -1.3033  1.0471
 6108SOL    HW229784   1.949   0.182   5.955  0.2644 -0.7423  1.2510
 6109SOL     OW29785   0.432   2.591   0.013 -0.0284 -0.5120 -0.1836
 6109SOL    HW129786   0.349   2.547  17.687 -1.5866  1.6785  1.8286
 6109SOL    HW229787   0.408   2.679   0.041  0.0691  0.1339 -2.0955
 6110SOL     OW29788   0.626   1.658   2.626 -0.4944  0.1813  0.1156
 6110SOL    HW129789   0.543   1.689   2.591  0.7339  0.3204 -2.6339
 6110SOL    HW229790   0.586   1.594   2.684  2.5464 -0.8674  1.0505
 6111SOL     OW29791   0.271   0.485  12.806 -0.1435 -0.2147  0.2078
 6111SOL    HW129792   0.258   0.508  12.714 -0.0140  1.6439  0.6481
 6111SOL    HW229793   0.297   0.568  12.845  0.7988  0.3992 -1.7056
 6112SOL     OW29794   4.679   1.215   5.260 -0.2829  0.1043 -0.2149
 6112SOL    HW129795   4.653   1.251   5.175 -3.3808 -1.4507  0.0631
 6112SOL    HW229796   4.702   1.126   5.231 -1.4027 -0.2572 -0.0100
 6113SOL     OW29797   3.625   3.236  14.137  0.1546 -0.3109  0.1406
 6113SOL    HW129798   3.678   3.157  14.144  0.0536 -0.3674  0.2645
 6113SOL    HW229799   3.543   3.196  14.167 -0.0042 -0.5562 -0.6015
 6114SOL     OW29800   3.585   4.499   6.235 -0.5062  0.4220 -0.2706
 6114SOL    HW129801   3.535   4.494   6.153 -1.3523  1.9360  0.1639
 6114SOL    HW229802   3.532   4.566   6.278  1.5668  0.6959  1.8082
 6115SOL     OW29803   0.322   1.423   0.916  0.1451 -0.4657  0.0434
 6115SOL    HW129804   0.303   1.337   0.880  1.5838 -0.4539 -0.7835
 6115SOL    HW229805   0.386   1.392   0.980 -1.9274 -4.9696 -0.0940
 6116SOL     OW29806   2.626   3.561   5.845 -0.0430 -0.4413  0.2110
 6116SOL    HW129807   2.644   3.558   5.939 -0.4611  0.1828  0.3083
 6116SOL    HW229808   2.686   3.493   5.814  0.6698  0.6799 -0.8444
 6117SOL     OW29809   2.884   1.748   4.710  0.2492 -0.2618 -0.2749
 6117SOL    HW129810   2.883   1.731   4.616 -2.3334 -0.9768 -0.1180
 6117SOL    HW229811   2.963   1.706   4.743  0.0199 -0.1358  0.4525
 6118SOL     OW29812   4.313   0.662   8.729 -0.0061 -0.2534 -0.0309
 6118SOL    HW129813   4.307   0.736   8.788  3.1664 -0.8706  1.0503
 6118SOL    HW229814   4.225   0.668   8.690  0.5551  0.7832 -1.1541
 6119SOL     OW29815   3.470   2.856  17.548 -0.4288 -0.1387  0.0562
 6119SOL    HW129816   3.489   2.841  17.455  2.1699  0.7336  0.4480
 6119SOL    HW229817   3.438   2.772  17.579 -1.5934  0.0182 -0.6955
 6120SOL     OW29818   3.522   2.395   5.204 -0.4146 -0.2412  0.2765
 6120SOL    HW129819   3.593   2.332   5.195 -0.6347 -0.4808  0.2278
 6120SOL    HW229820   3.454   2.351   5.154 -1.9718  2.3649  0.0763
 6121SOL     OW29821   2.226   0.687   7.076  1.1604  0.2574 -0.0806
 6121SOL    HW129822   2.145   0.711   7.030  1.1727  0.4506  0.0018
 6121SOL    HW229823   2.230   0.592   7.065  1.8178  0.4453 -1.5478
 6122SOL     OW29824   3.302   3.941   1.172  0.1598  0.1985  0.0382
 6122SOL    HW129825   3.255   3.954   1.254 -0.8217 -0.8016 -0.3752
 6122SOL    HW229826   3.370   4.007   1.186  1.6795 -1.9194  2.6301
 6123SOL     OW29827   4.353   2.302  15.061 -0.1411 -0.6498  0.0522
 6123SOL    HW129828   4.265   2.338  15.069 -0.5170 -1.7431  0.8032
 6123SOL    HW229829   4.352   2.245  14.985 -0.9564 -1.3042  0.5589
 6124SOL     OW29830   1.102   2.803  14.923 -0.3043 -0.1881 -0.2575
 6124SOL    HW129831   1.142   2.775  15.005 -2.2375  3.0812  1.8251
 6124SOL    HW229832   1.170   2.864  14.895 -1.2704  0.5881 -0.9669
 6125SOL     OW29833   2.014   2.707  13.931  0.0786 -0.1393  0.1406
 6125SOL    HW129834   1.967   2.625  13.945 -1.3196  1.1315  2.8152
 6125SOL    HW229835   2.028   2.748  14.016  3.7279 -2.3962  0.6510
 6126SOL     OW29836   0.073   0.209   4.195  0.2419  0.2684 -0.5360
 6126SOL    HW129837   0.124   0.248   4.124  0.3828  1.3983  0.1965
 6126SOL    HW229838   4.707   0.223   4.163 -0.3047 -2.1011 -0.1247
 6127SOL     OW29839   0.987   0.271   7.369  0.0827  0.2485 -0.3132
 6127SOL    HW129840   1.040   0.259   7.290  2.5583  2.4202  1.0205
 6127SOL    HW229841   0.898   0.254   7.337 -1.4705 -0.3898  4.3505
 6128SOL     OW29842   1.451   0.459   3.660 -0.4591 -0.2110  0.3459
 6128SOL    HW129843   1.482   0.514   3.731  1.3335  0.5380 -1.0390
 6128SOL    HW229844   1.363   0.495   3.651 -0.4671 -0.2735  0.1587
 6129SOL     OW29845   0.250   3.408   9.125 -0.0285  0.0014 -0.1779
 6129SOL    HW129846   0.247   3.457   9.043 -0.5525  0.9591  0.4065
 6129SOL    HW229847   0.344   3.404   9.137 -0.3233  1.2060  2.3908
 6130SOL     OW29848   0.841   1.210   6.842 -0.0209 -0.1334  0.4725
 6130SOL    HW129849   0.864   1.269   6.913 -0.3634 -0.6552  1.0090
 6130SOL    HW229850   0.881   1.129   6.873  0.2419 -0.1525  0.0891
 6131SOL     OW29851   0.913   3.335   5.207 -0.1449 -0.0892  0.2630
 6131SOL    HW129852   0.943   3.393   5.276 -1.3835 -1.9991  2.4023
 6131SOL    HW229853   0.977   3.266   5.222  0.5069  0.5048  0.1819
 6132SOL     OW29854   4.680   2.485   4.780 -0.4671 -0.5308  0.1958
 6132SOL    HW129855   4.710   2.554   4.720  1.3524  0.2173  1.9828
 6132SOL    HW229856   4.676   2.406   4.726 -0.3007 -1.2761  1.2959
 6133SOL     OW29857   0.686   2.175  16.302 -0.0019 -0.5563  0.3568
 6133SOL    HW129858   0.724   2.252  16.342 -0.0197 -0.3567 -0.0115
 6133SOL    HW229859   0.685   2.116  16.378  0.8039 -1.1721 -0.1035
 6134SOL     OW29860   2.984   0.350   6.516  0.5800 -0.0914 -0.2594
 6134SOL    HW129861   2.975   0.363   6.422 -2.1376 -1.1673 -0.1344
 6134SOL    HW229862   2.977   0.442   6.543  3.1615 -0.0651  0.2916
 6135SOL     OW29863   1.704   2.034   8.618 -0.1188 -0.3253  0.3859
 6135SOL    HW129864   1.798   2.048   8.605 -0.3560 -0.5735 -1.5400
 6135SOL    HW229865   1.695   2.042   8.713 -4.0511 -1.9848  0.1265
 6136SOL     OW29866   2.272   3.383   9.467 -0.4025 -0.2636 -0.2902
 6136SOL    HW129867   2.259   3.328   9.390 -0.8744 -0.2467 -0.2221
 6136SOL    HW229868   2.181   3.403   9.488 -0.6705 -0.0180 -1.6750
 6137SOL     OW29869   3.242   2.497   9.750  0.8861 -0.7341 -0.1098
 6137SOL    HW129870   3.174   2.500   9.817 -1.1796 -2.5925 -2.1246
 6137SOL    HW229871   3.240   2.591   9.732  2.7110 -0.7612 -0.4439
 6138SOL     OW29872   3.299   2.809   3.351 -0.1964 -0.1588  0.4131
 6138SOL    HW129873   3.223   2.767   3.311  0.7429 -0.6462 -0.8499
 6138SOL    HW229874   3.270   2.900   3.358 -2.0383 -0.6985 -0.1068
 6139SOL     OW29875   3.486   3.705   6.697 -0.4583 -0.1929  0.3143
 6139SOL    HW129876   3.448   3.785   6.661  1.5861 -0.5623 -2.7343
 6139SOL    HW229877   3.416   3.676   6.755 -1.4494  2.7445  0.5697
 6140SOL     OW29878   3.116   4.382   1.772  0.2007  0.2877 -0.0852
 6140SOL    HW129879   3.104   4.296   1.812  0.6458  0.6900  0.9037
 6140SOL    HW229880   3.186   4.358   1.711 -0.2737  0.5261 -0.7256
 6141SOL     OW29881   1.588   1.729   1.104  0.4489 -0.0559 -0.2077
 6141SOL    HW129882   1.587   1.822   1.126  1.3819  0.4315 -2.2918
 6141SOL    HW229883   1.527   1.687   1.165  1.4685  0.6861  1.3409
 6142SOL     OW29884   3.301   4.221  13.932 -0.1975  0.2294  0.5392
 6142SOL    HW129885   3.270   4.297  13.882 -1.4574 -0.3863  0.4033
 6142SOL    HW229886   3.235   4.226  14.000 -1.5932  0.6527 -0.8488
 6143SOL     OW29887   1.421   2.061   8.320 -0.2876  0.3645 -0.2318
 6143SOL    HW129888   1.460   2.147   8.332 -0.4354  0.6168 -1.6432
 6143SOL    HW229889   1.468   2.008   8.384  0.8350 -0.5886 -1.8750
 6144SOL     OW29890   3.519   1.299   6.639 -0.4664  0.8850 -0.0253
 6144SOL    HW129891   3.555   1.318   6.726 -1.4789 -0.7589  0.7637
 6144SOL    HW229892   3.486   1.211   6.658  2.4614 -0.4563 -1.2815
 6145SOL     OW29893   0.014   0.375  16.709  0.4334  0.0645  0.0236
 6145SOL    HW129894   0.023   0.347  16.800 -2.3502 -1.2198 -0.0960
 6145SOL    HW229895   4.687   0.456  16.719 -1.5054 -1.3962  2.4163
 6146SOL     OW29896   0.119   0.578  10.579 -0.3542 -0.1729 -0.3166
 6146SOL    HW129897   0.125   0.591  10.484  0.0517 -1.5577 -0.4837
 6146SOL    HW229898   0.128   0.669  10.609  0.5675  0.2688 -1.9201
 6147SOL     OW29899   2.509   4.024   6.963  0.7419 -0.8607 -0.4265
 6147SOL    HW129900   2.421   3.991   6.977  0.3862  0.8001  1.2742
 6147SOL    HW229901   2.559   3.993   7.039  2.2467  2.1394 -0.2020
 6148SOL     OW29902   2.095   4.521   2.249  0.6208  0.0034  0.3581
 6148SOL    HW129903   2.141   4.599   2.280 -0.5037  0.3379  1.2055
 6148SOL    HW229904   2.159   4.463   2.290  0.6133  0.1114  0.5244
 6149SOL     OW29905   2.074   3.144   6.810 -0.3808  0.3142 -0.2963
 6149SOL    HW129906   2.076   3.230   6.768  0.8940 -0.1126 -1.1225
 6149SOL    HW229907   2.031   3.144   6.895  0.5574 -0.6467  0.1807
 6150SOL     OW29908   3.376   0.688   2.161  0.2879 -0.1654 -0.0298
 6150SOL    HW129909   3.334   0.745   2.097  1.1724 -0.3544 -0.7755
 6150SOL    HW229910   3.296   0.662   2.208  1.2910 -1.3509  1.0233
 6151SOL     OW29911   3.817   2.687  11.743 -0.2082 -0.7660  0.4870
 6151SOL    HW129912   3.843   2.697  11.651 -3.0606 -1.2786 -0.3693
 6151SOL    HW229913   3.737   2.635  11.737 -1.0193  0.3251  1.8939
 6152SOL     OW29914   2.498   3.242   9.539 -0.3986  0.1118 -0.1160
 6152SOL    HW129915   2.474   3.231   9.631 -1.0602 -0.1689 -0.3184
 6152SOL    HW229916   2.417   3.288   9.517 -1.0632 -0.0582  2.0553
 6153SOL     OW29917   3.206   1.838  13.729 -0.7279 -0.2223 -0.3807
 6153SOL    HW129918   3.240   1.913  13.679  0.0062 -0.5473 -0.3679
 6153SOL    HW229919   3.229   1.864  13.818 -0.1879  0.9073 -0.8417
 6154SOL     OW29920   1.306   2.330   0.767  0.4096  0.0262  0.4752
 6154SOL    HW129921   1.394   2.353   0.797  0.7004  0.8588 -1.0281
 6154SOL    HW229922   1.294   2.239   0.797  1.0332 -1.2235 -3.1122
 6155SOL     OW29923   2.487   3.252   1.894 -0.3253  0.1654 -0.6265
 6155SOL    HW129924   2.472   3.158   1.882 -3.7088  0.8844 -2.0350
 6155SOL    HW229925   2.513   3.253   1.986 -1.5476 -0.3942 -0.2807
 6156SOL     OW29926   0.741   4.237   6.602  0.1274 -0.0894  0.4554
 6156SOL    HW129927   0.757   4.186   6.681  1.0918 -1.3459 -0.5429
 6156SOL    HW229928   0.655   4.201   6.582  1.0023 -2.2212  0.4543
 6157SOL     OW29929   0.109   0.950   9.161 -0.1640 -0.3052  0.4197
 6157SOL    HW129930   0.158   0.955   9.243  1.0262  0.3019 -0.3267
 6157SOL    HW229931   0.062   0.868   9.175  1.4146 -1.4628 -1.0692
 6158SOL     OW29932   0.231   0.495   8.173 -0.2384 -0.2948  0.2903
 6158SOL    HW129933   0.155   0.500   8.231 -0.2730 -1.5066  0.3480
 6158SOL    HW229934   0.282   0.431   8.224 -1.5016 -1.0117  0.6504
 6159SOL     OW29935   4.237   4.526   8.013 -0.2929  0.1901  0.3446
 6159SOL    HW129936   4.194   4.556   8.093 -2.8270 -0.0927 -0.9117
 6159SOL    HW229937   4.224   4.432   8.017  3.2053 -0.3258 -0.3266
 6160SOL     OW29938   1.899   1.227  11.728 -0.1591  0.6640  0.4751
 6160SOL    HW129939   1.961   1.162  11.695 -1.7254 -0.4182 -0.3773
 6160SOL    HW229940   1.833   1.211  11.660  1.9060 -1.6252 -0.9591
 6161SOL     OW29941   0.688   3.112   6.707 -0.0828 -0.3295  0.1587
 6161SOL    HW129942   0.633   3.053   6.655 -0.1002 -0.1397 -0.0386
 6161SOL    HW229943   0.759   3.050   6.725  1.6966  1.3267 -1.2447
 6162SOL     OW29944   2.651   1.044   4.527 -0.0234 -0.0597  0.6525
 6162SOL    HW129945   2.556   1.041   4.513  0.0375  1.6924 -0.0953
 6162SOL    HW229946   2.680   1.132   4.504 -0.7311  0.5069  1.9499
 6163SOL     OW29947   0.895   4.175   1.231  0.1201  0.2804 -0.3403
 6163SOL    HW129948   0.943   4.238   1.178  2.1100  0.9387  2.2111
 6163SOL    HW229949   0.838   4.150   1.158  1.0077  0.5503 -1.1322
 6164SOL     OW29950   0.081   3.880   7.214 -0.2668 -0.6906  0.2145
 6164SOL    HW129951   0.040   3.813   7.269 -1.3118  1.7742  2.4671
 6164SOL    HW229952   0.138   3.916   7.283  1.5515 -0.2998 -1.4895
 6165SOL     OW29953   4.674   4.174   5.896  0.1641  0.0301  0.1336
 6165SOL    HW129954   4.677   4.095   5.950 -1.2588  0.6620  1.1365
 6165SOL    HW229955   4.688   4.243   5.961 -2.6500  0.8927 -0.1800
 6166SOL     OW29956   2.683   3.151  17.346 -0.5881  0.5416  0.2271
 6166SOL    HW129957   2.645   3.203  17.417  0.5485 -0.4067  1.5559
 6166SOL    HW229958   2.647   3.063  17.362  1.5369 -0.4576 -0.5586
 6167SOL     OW29959   1.128   2.934   4.290 -0.1893  0.3334 -0.4897
 6167SOL    HW129960   1.115   2.933   4.385 -0.0967  1.7644 -0.4597
 6167SOL    HW229961   1.042   2.902   4.261 -0.8258  1.2535  0.3802
 6168SOL     OW29962   3.407   2.872   7.219  0.4043  0.6367 -0.5175
 6168SOL    HW129963   3.397   2.790   7.170  1.1826  0.4300 -0.3266
 6168SOL    HW229964   3.384   2.936   7.151  0.8570  1.5425  0.1894
 6169SOL     OW29965   1.095   2.878   3.977 -0.2934 -0.6296 -0.5175
 6169SOL    HW129966   1.176   2.827   3.974  1.3557  1.8242  1.9761
 6169SOL    HW229967   1.121   2.968   3.954  0.8515 -0.4919  1.2978
 6170SOL     OW29968   4.042   0.297  10.573  0.3145 -0.1620 -0.3716
 6170SOL    HW129969   4.060   0.210  10.536 -0.4917 -0.3189 -0.3926
 6170SOL    HW229970   4.054   0.352  10.496  0.7263 -0.8703 -0.8230
 6171SOL     OW29971   3.709   2.566  16.477 -0.0195 -0.1305 -0.0503
 6171SOL    HW129972   3.617   2.556  16.504  0.2761  0.6676  1.2807
 6171SOL    HW229973   3.735   2.651  16.512 -2.8801  0.2678  1.1425
 6172SOL     OW29974   0.806   3.998   7.752 -0.3832 -0.0786 -0.2488
 6172SOL    HW129975   0.778   4.049   7.828 -2.0422 -1.4082  0.0414
 6172SOL    HW229976   0.855   3.932   7.802 -2.2299 -2.2815 -1.3493
 6173SOL     OW29977   4.122   2.272   7.385 -0.1227 -0.4169 -0.3771
 6173SOL    HW129978   4.173   2.192   7.390  0.1186 -0.1847  0.8263
 6173SOL    HW229979   4.064   2.263   7.308 -0.5353 -0.9411 -0.0085
 6174SOL     OW29980   4.237   0.289   9.885  0.3601 -0.6555  0.0506
 6174SOL    HW129981   4.263   0.200   9.908 -3.0909 -1.5065  0.5873
 6174SOL    HW229982   4.143   0.287   9.905  0.2323 -1.1109 -0.5829
 6175SOL     OW29983   0.290   1.279  11.369 -0.6647  0.0730  0.1966
 6175SOL    HW129984   0.214   1.332  11.394  0.1878  0.0569  2.8207
 6175SOL    HW229985   0.303   1.290  11.275  2.3350  0.3022  0.6309
 6176SOL     OW29986   1.330   0.033   1.303  0.1615  0.3386 -0.2725
 6176SOL    HW129987   1.317   0.118   1.345 -0.0779 -0.3121  0.9730
 6176SOL    HW229988   1.245   4.715   1.318  0.1597  0.6617  0.5818
 6177SOL     OW29989   4.664   1.377   2.555  0.0909  0.4102 -0.6316
 6177SOL    HW129990   4.631   1.299   2.510  1.2373 -0.8387  0.6721
 6177SOL    HW229991   4.707   1.413   2.478  0.8678  0.9933  0.0697
 6178SOL     OW29992   0.001   4.244  11.873 -0.1532 -0.2776 -0.5027
 6178SOL    HW129993   0.080   4.207  11.911 -0.5845 -0.3545  0.3248
 6178SOL    HW229994   0.012   4.331  11.913 -0.9292 -1.3657  2.1019
 6179SOL     OW29995   1.245   2.265   5.355  0.3283 -0.0429  0.3466
 6179SOL    HW129996   1.293   2.339   5.393 -0.6278  0.9286 -0.3405
 6179SOL    HW229997   1.212   2.226   5.435  2.5613  1.0723  1.8096
 6180SOL     OW29998   3.149   4.641   5.458 -0.2737 -0.1420  0.2488
 6180SOL    HW129999   3.141   4.716   5.517 -1.4090 -1.6439  2.0062
 6180SOL    HW230000   3.067   4.665   5.416 -0.1653  1.5970  1.0074
 6181SOL     OW30001   4.038   1.662  11.513 -0.1736  0.1856  0.2742
 6181SOL    HW130002   4.119   1.611  11.519 -1.8047 -2.5648 -0.9165
 6181SOL    HW230003   3.990   1.650  11.595 -0.6739 -0.0451 -0.0532
 6182SOL     OW30004   0.864   2.900   8.841 -0.0286  0.6158  0.2831
 6182SOL    HW130005   0.826   2.984   8.868 -0.6089  0.1106  1.0287
 6182SOL    HW230006   0.851   2.886   8.747  0.0081  0.7563  0.2570
 6183SOL     OW30007   1.838   3.294   7.751 -0.0308  0.4273 -0.7056
 6183SOL    HW130008   1.920   3.343   7.741 -0.3890  0.7018 -2.2599
 6183SOL    HW230009   1.863   3.203   7.738 -0.5358  0.3054 -0.8174
 6184SOL     OW30010   0.625   0.040   7.487 -0.1125  0.2504  0.6021
 6184SOL    HW130011   0.710   0.063   7.523  0.2488  1.8292 -1.2423
 6184SOL    HW230012   0.589   0.118   7.443  1.1768  0.3603 -0.2737
 6185SOL     OW30013   3.650   3.792   7.262 -0.5737  0.1301 -0.1200
 6185SOL    HW130014   3.597   3.871   7.271 -0.8943 -0.1972  0.8491
 6185SOL    HW230015   3.715   3.806   7.331 -0.0898  0.9694 -0.7478
 6186SOL     OW30016   0.258   3.102   9.628  0.6685  0.1162 -0.3484
 6186SOL    HW130017   0.336   3.056   9.657  0.8279  0.2686 -0.5356
 6186SOL    HW230018   0.260   3.175   9.690 -2.4350  0.5367 -0.7431
 6187SOL     OW30019   0.547   1.946   6.977  0.8693  0.4112 -0.3383
 6187SOL    HW130020   0.479   2.011   6.965  1.9821  1.8210  0.9654
 6187SOL    HW230021   0.594   1.952   6.894 -0.4599 -2.6018 -1.2899
 6188SOL     OW30022   0.773   0.075   3.651 -0.5397  0.1553  0.4250
 6188SOL    HW130023   0.794   0.047   3.561  0.9161  0.6033  0.6300
 6188SOL    HW230024   0.793   0.169   3.643  1.0112 -0.1161  1.3676
 6189SOL     OW30025   2.175   1.237   3.638  0.3965 -0.0757 -0.1730
 6189SOL    HW130026   2.133   1.322   3.647 -0.8174 -0.6602 -0.3066
 6189SOL    HW230027   2.138   1.221   3.551  0.4984  0.1572 -0.2601
 6190SOL     OW30028   0.610   0.534   9.227 -0.0188  0.0669  0.5584
 6190SOL    HW130029   0.540   0.525   9.162 -0.0431  1.3271  0.4059
 6190SOL    HW230030   0.572   0.483   9.299  0.0879 -1.9499 -0.8320
 6191SOL     OW30031   1.806   3.801   5.689  0.6480 -0.1451 -0.1068
 6191SOL    HW130032   1.863   3.734   5.727 -0.8849 -1.0451  0.6157
 6191SOL    HW230033   1.719   3.765   5.706 -0.1956  2.4710  1.2349
 6192SOL     OW30034   4.583   0.923   6.668 -0.3557  0.5040 -0.2358
 6192SOL    HW130035   4.578   0.947   6.760  2.0037 -0.7469  0.2234
 6192SOL    HW230036   4.562   0.829   6.674 -0.2295  0.6955  2.9656
 6193SOL     OW30037   2.059   2.765   5.105 -0.2780 -0.0147 -0.9569
 6193SOL    HW130038   2.053   2.692   5.167  1.5876  0.6558  0.0156
 6193SOL    HW230039   2.152   2.759   5.083  0.0331 -0.8621  0.5834
 6194SOL     OW30040   4.361   0.099   4.146  0.0529 -0.7393 -0.1174
 6194SOL    HW130041   4.388   0.089   4.055 -0.2929  0.2012 -0.3267
 6194SOL    HW230042   4.272   0.130   4.133 -0.6573 -1.8143  2.3177
 6195SOL     OW30043   4.710   3.579   3.588  0.3547  0.1773 -0.3109
 6195SOL    HW130044   0.043   3.655   3.607  1.9806 -0.5556 -2.0587
 6195SOL    HW230045   0.023   3.552   3.503 -1.0064 -0.2666 -0.7250
 6196SOL     OW30046   3.127   4.257   4.418 -0.1717  0.1586 -0.0855
 6196SOL    HW130047   3.052   4.235   4.475 -2.8987  2.6067 -2.7203
 6196SOL    HW230048   3.154   4.341   4.455 -0.8742  0.5454 -0.4348
 6197SOL     OW30049   2.758   2.709   6.267  0.0165 -0.0587  0.0965
 6197SOL    HW130050   2.835   2.765   6.275 -1.8571  2.1343  2.6520
 6197SOL    HW230051   2.796   2.621   6.274  0.4279  0.2491  1.7033
 6198SOL     OW30052   2.777   0.192  15.183  0.6321  0.0031  0.1938
 6198SOL    HW130053   2.765   0.169  15.276  2.3437 -0.6025  0.2743
 6198SOL    HW230054   2.828   0.272  15.184 -0.3533  0.6070  2.2093
 6199SOL     OW30055   4.331   3.027   1.826 -0.0293  0.3327 -0.5735
 6199SOL    HW130056   4.238   3.044   1.838  0.0734 -0.1247  0.9709
 6199SOL    HW230057   4.336   2.935   1.853 -0.2180 -0.1323 -2.1253
 6200SOL     OW30058   2.248   4.160   1.038 -0.1869  0.0734 -0.0632
 6200SOL    HW130059   2.160   4.178   1.071 -1.2549 -1.6774 -1.9937
 6200SOL    HW230060   2.287   4.123   1.118  1.0239  1.4420 -0.0142
 6201SOL     OW30061   0.042   0.603   2.326  0.2019  0.4596  0.3085
 6201SOL    HW130062   4.701   0.663   2.286  0.0144 -0.5007 -0.8438
 6201SOL    HW230063   0.126   0.627   2.286  0.6421 -1.0061  0.3575
 6202SOL     OW30064   3.140   4.631   0.772 -0.4390 -0.0640  0.3884
 6202SOL    HW130065   3.181   4.715   0.794  0.0022 -0.5772  1.5424
 6202SOL    HW230066   3.080   4.628   0.847  1.8953  1.9517  2.3464
 6203SOL     OW30067   2.114   0.035   9.915 -0.1133  0.4074 -0.0795
 6203SOL    HW130068   2.145   4.706   9.990  0.7717  1.8044  0.4944
 6203SOL    HW230069   2.131   4.698   9.841  2.3437 -0.8349  1.4832
 6204SOL     OW30070   0.587   4.044  13.816  0.8144  0.5227 -0.2600
 6204SOL    HW130071   0.513   4.098  13.843  0.1193  0.1767 -1.4454
 6204SOL    HW230072   0.556   4.014  13.730 -1.1208 -1.7012  1.2122
 6205SOL     OW30073   0.320   3.007   1.492  0.2012 -0.1741 -0.1837
 6205SOL    HW130074   0.330   2.917   1.462  1.3898 -0.3575  0.7664
 6205SOL    HW230075   0.242   3.010   1.548  0.9531  1.1324  0.7777
 6206SOL     OW30076   3.864   2.595   3.230  0.2537  0.0442  0.3038
 6206SOL    HW130077   3.930   2.623   3.167 -0.0033  0.4646  0.2262
 6206SOL    HW230078   3.908   2.521   3.273  1.1706  0.1281 -0.4924
 6207SOL     OW30079   4.309   2.697   6.205  0.0814  0.1592  0.1738
 6207SOL    HW130080   4.265   2.620   6.170  2.6900 -0.6977 -1.1798
 6207SOL    HW230081   4.257   2.712   6.284  0.7710  0.3297  0.5976
 6208SOL     OW30082   2.715   4.433   3.367  0.5325  0.4452  0.3823
 6208SOL    HW130083   2.692   4.512   3.417  0.9015  0.2708  0.8232
 6208SOL    HW230084   2.644   4.371   3.383 -0.9565  2.3518  1.1824
 6209SOL     OW30085   0.887   0.112   4.760 -0.5155 -0.3917  0.1056
 6209SOL    HW130086   0.946   0.172   4.714 -0.6144 -0.9691 -0.7732
 6209SOL    HW230087   0.816   0.167   4.792  1.0122  0.6925  1.6311
 6210SOL     OW30088   1.036   2.279   0.419 -0.9130 -0.1851 -0.2047
 6210SOL    HW130089   1.061   2.298   0.328  1.7156 -0.1985  0.5157
 6210SOL    HW230090   1.116   2.249   0.463 -1.1235 -1.6575 -0.8157
 6211SOL     OW30091   0.014   3.945   9.873  0.2562 -0.0298  0.0909
 6211SOL    HW130092   4.650   3.927   9.834  1.5992  1.9490 -3.8427
 6211SOL    HW230093   4.717   3.999   9.950  2.3884 -1.3691  1.5334
 6212SOL     OW30094   0.039   3.758  13.160  0.0002  0.0510  0.1205
 6212SOL    HW130095   0.108   3.823  13.147  1.5513 -1.5476  0.3757
 6212SOL    HW230096   0.006   3.773  13.248 -1.6790 -0.3302 -0.4500
 6213SOL     OW30097   2.936   2.297   9.493 -0.2145  0.0644  0.2546
 6213SOL    HW130098   2.880   2.346   9.552 -1.0103 -0.3653 -0.1451
 6213SOL    HW230099   3.007   2.280   9.554  0.0197 -1.6238 -0.4901
 6214SOL     OW30100   2.451   2.199   3.206  0.8584 -0.1455 -0.2296
 6214SOL    HW130101   2.357   2.204   3.186  0.5551  2.6679  1.9476
 6214SOL    HW230102   2.468   2.291   3.226  2.5518 -0.7335  1.0346
 6215SOL     OW30103   3.112   0.350   7.246 -0.0408  0.4197  0.4498
 6215SOL    HW130104   3.114   0.438   7.210  1.3281  0.7134  1.2562
 6215SOL    HW230105   3.031   0.354   7.298 -0.0637 -0.5071  0.4808
 6216SOL     OW30106   1.661   3.800   5.433 -0.2950  0.3123 -0.4197
 6216SOL    HW130107   1.695   3.731   5.491  0.4633  0.4857 -0.6589
 6216SOL    HW230108   1.712   3.877   5.457 -1.9113  0.9120  1.0567
 6217SOL     OW30109   3.080   3.146   2.757  0.1806  0.3306  0.5847
 6217SOL    HW130110   3.058   3.138   2.664  0.8839 -2.5362  0.6757
 6217SOL    HW230111   3.011   3.090   2.792 -0.4582 -0.1485 -1.4065
 6218SOL     OW30112   3.786   0.182  16.849  0.7848  0.4404  0.2144
 6218SOL    HW130113   3.721   0.112  16.839  1.3639 -0.0200 -0.3895
 6218SOL    HW230114   3.840   0.154  16.922 -1.5998  0.6655  2.0468
 6219SOL     OW30115   0.707   3.967   2.029 -0.1282  0.2507  0.1595
 6219SOL    HW130116   0.670   4.013   2.105  0.1152  1.3121 -0.3727
 6219SOL    HW230117   0.665   4.020   1.961  0.8988  2.4812  1.2638
 6220SOL     OW30118   2.654   2.159  13.544 -0.7323 -0.5732  0.6644
 6220SOL    HW130119   2.601   2.223  13.496 -0.6283 -1.2642 -0.3596
 6220SOL    HW230120   2.604   2.078  13.533  0.6338 -1.3952  0.5333
 6221SOL     OW30121   2.378   2.608   6.567  0.3852 -0.0613 -0.6912
 6221SOL    HW130122   2.312   2.628   6.501  1.3708  0.6357 -1.4786
 6221SOL    HW230123   2.444   2.552   6.525 -0.6371 -1.8646  0.1249
 6222SOL     OW30124   4.595   3.119   7.083 -0.2983  0.5641 -0.4628
 6222SOL    HW130125   4.587   3.193   7.143  1.5706  0.1815  0.2646
 6222SOL    HW230126   4.622   3.160   7.001 -0.1525  1.2443 -0.0710
 6223SOL     OW30127   3.145   1.633   1.894  0.1910  0.0469  0.4734
 6223SOL    HW130128   3.126   1.727   1.894 -1.9463 -0.3928 -1.2904
 6223SOL    HW230129   3.240   1.632   1.905  0.0820 -1.8427  1.2169
 6224SOL     OW30130   4.341   4.637   5.683 -0.1635  0.4876 -0.1356
 6224SOL    HW130131   4.312   0.004   5.703  1.3730  0.7356  1.0162
 6224SOL    HW230132   4.436   4.643   5.677 -0.0862 -1.4855 -0.7670
 6225SOL     OW30133   0.044   2.478   8.170  0.0307 -0.4136  0.3189
 6225SOL    HW130134   4.688   2.480   8.115  0.9683  1.4693 -0.9584
 6225SOL    HW230135   0.088   2.415   8.112 -0.0597 -0.0448 -0.1449
 6226SOL     OW30136   0.623   1.235  13.168  0.1269  0.2212 -0.1856
 6226SOL    HW130137   0.562   1.273  13.232  2.4746  0.0477  2.1502
 6226SOL    HW230138   0.581   1.161  13.125  1.0295  0.2266 -1.0542
 6227SOL     OW30139   3.350   2.507   0.422  0.2244  0.2084  0.2927
 6227SOL    HW130140   3.381   2.431   0.470  0.4370 -0.6403 -1.1953
 6227SOL    HW230141   3.297   2.547   0.491 -0.8291  0.8930 -0.9284
 6228SOL     OW30142   1.237   1.876   1.267  0.2902  0.7209  0.3309
 6228SOL    HW130143   1.269   1.952   1.315 -1.9212  1.0547  1.2618
 6228SOL    HW230144   1.286   1.801   1.303 -0.9771 -0.3885 -0.2584
 6229SOL     OW30145   4.291   0.557   1.486 -0.2452  0.1098  0.5806
 6229SOL    HW130146   4.197   0.548   1.472 -0.0384 -0.6847 -0.2984
 6229SOL    HW230147   4.325   0.522   1.404  1.2583 -0.7501  1.5676
 6230SOL     OW30148   3.229   0.184  11.051  0.0647 -0.1542 -0.0654
 6230SOL    HW130149   3.189   0.160  11.134 -0.6104  1.0209 -0.0511
 6230SOL    HW230150   3.168   0.131  10.999 -1.1626 -0.2404  1.4594
 6231SOL     OW30151   0.489   2.859   8.338  0.3957 -0.4026 -0.2941
 6231SOL    HW130152   0.451   2.939   8.374  0.1683 -0.4535 -0.4243
 6231SOL    HW230153   0.454   2.863   8.249 -1.2974  0.1159  0.4049
 6232SOL     OW30154   2.978   1.944  15.173  0.0616  0.3657  0.5185
 6232SOL    HW130155   2.984   1.957  15.078 -2.4238 -1.0294  0.1786
 6232SOL    HW230156   2.996   1.850  15.176  0.5686  0.3797 -2.2396
 6233SOL     OW30157   2.054   3.403  13.420 -0.1815 -0.0672 -0.1214
 6233SOL    HW130158   1.972   3.354  13.425 -0.4284  0.2648 -0.9042
 6233SOL    HW230159   2.015   3.489  13.437  1.2036  0.1805  1.7859
 6234SOL     OW30160   4.146   2.025   6.308  0.2591  0.2128 -0.1726
 6234SOL    HW130161   4.071   1.980   6.269  0.0852  0.4047 -0.0569
 6234SOL    HW230162   4.208   2.025   6.235  0.6855  1.1439  0.1853
 6235SOL     OW30163   4.675   1.916   7.347  0.5632  1.1471  0.2019
 6235SOL    HW130164   4.710   1.829   7.366  0.6059  1.3697  1.1149
 6235SOL    HW230165   4.651   1.905   7.254  0.4033  2.8866  0.0326
 6236SOL     OW30166   3.590   2.270  14.323  0.0520  0.5681 -0.4622
 6236SOL    HW130167   3.509   2.316  14.302  0.4156  0.4364 -2.1785
 6236SOL    HW230168   3.562   2.197  14.268 -2.0413  2.2514 -1.6185
 6237SOL     OW30169   0.748   0.938   6.276  0.3287 -0.2867 -0.0921
 6237SOL    HW130170   0.783   1.027   6.275  1.5155 -0.7520  0.3129
 6237SOL    HW230171   0.820   0.898   6.325  0.4207 -0.4916 -0.3889
 6238SOL     OW30172   0.854   0.817   5.044  0.3996 -0.3619 -0.7931
 6238SOL    HW130173   0.794   0.887   5.016 -1.3496 -1.4126  0.3027
 6238SOL    HW230174   0.932   0.873   5.046  0.6825 -0.8564  1.2501
 6239SOL     OW30175   2.733   4.290   8.848  0.2022  0.1095 -0.4178
 6239SOL    HW130176   2.788   4.256   8.919  2.0055 -0.5697 -2.1529
 6239SOL    HW230177   2.771   4.250   8.770  0.5484 -4.0265  1.9161
 6240SOL     OW30178   3.589   1.475   1.735 -0.5194 -0.2718 -0.5181
 6240SOL    HW130179   3.543   1.503   1.656 -2.1727 -0.0091  0.5279
 6240SOL    HW230180   3.523   1.448   1.800  0.8983 -1.7681  0.3071
 6241SOL     OW30181   0.709   2.365   1.094  0.7238  0.1790  0.0866
 6241SOL    HW130182   0.724   2.422   1.170  1.5053 -0.4356  0.3942
 6241SOL    HW230183   0.620   2.389   1.069 -0.2923 -0.5304  2.9974
 6242SOL     OW30184   1.697   3.702   6.111  0.0180  0.8560  0.3309
 6242SOL    HW130185   1.618   3.750   6.135 -1.3526 -1.5576  0.6884
 6242SOL    HW230186   1.754   3.767   6.069  2.1777 -1.5237 -0.4448
 6243SOL     OW30187   2.505   0.655   4.804  0.7691 -0.3050 -0.0148
 6243SOL    HW130188   2.414   0.624   4.805 -0.2022  2.5723 -0.9033
 6243SOL    HW230189   2.552   0.572   4.815  1.0312 -0.0042  1.1188
 6244SOL     OW30190   2.525   0.160   2.771  0.2680  0.6536  0.5458
 6244SOL    HW130191   2.524   0.158   2.867  1.0618 -0.9011  0.5149
 6244SOL    HW230192   2.432   0.151   2.751  1.5106 -1.4070 -4.1188
 6245SOL     OW30193   4.616   2.939  11.579 -0.9150 -0.5211 -0.5666
 6245SOL    HW130194   4.538   2.972  11.533 -0.5352 -0.1938 -0.9755
 6245SOL    HW230195   4.674   3.015  11.574 -1.7704  0.0611 -1.6248
 6246SOL     OW30196   4.077   3.194   6.624  0.0788  0.0895  0.4042
 6246SOL    HW130197   4.088   3.288   6.612 -1.8346  0.1590 -0.7079
 6246SOL    HW230198   4.000   3.181   6.679  0.4189  0.9447  1.0896
 6247SOL     OW30199   4.264   3.545   3.240  0.2489  0.2586  0.0410
 6247SOL    HW130200   4.353   3.522   3.266  0.9319  0.6431 -1.9982
 6247SOL    HW230201   4.239   3.604   3.311  1.7533 -0.1038  0.8754
 6248SOL     OW30202   1.519   0.337   8.328 -0.2044 -0.2120 -0.3232
 6248SOL    HW130203   1.457   0.334   8.255 -1.4116 -0.0287  0.6931
 6248SOL    HW230204   1.488   0.263   8.379  0.4139 -0.1230  0.1750
 6249SOL     OW30205   1.411   4.372  15.630  0.0308  0.0643  0.3407
 6249SOL    HW130206   1.328   4.394  15.672 -0.7261 -1.1545 -0.5158
 6249SOL    HW230207   1.380   4.286  15.603  0.3340 -0.3194  1.1968
 6250SOL     OW30208   3.881   3.849  15.757 -0.0822 -0.0211  0.1715
 6250SOL    HW130209   3.967   3.848  15.798  0.1262  1.2985 -0.2450
 6250SOL    HW230210   3.886   3.909  15.683  0.4135  1.9191  1.7935
 6251SOL     OW30211   3.816   0.985  13.400  0.5847 -0.0367  0.4701
 6251SOL    HW130212   3.785   0.902  13.435 -1.5528  1.2656  1.6859
 6251SOL    HW230213   3.841   1.033  13.479 -0.9404  0.5200  0.6061
 6252SOL     OW30214   4.098   4.296  10.620  0.5614 -0.1753 -0.1624
 6252SOL    HW130215   4.043   4.228  10.581  0.4347  0.2022 -0.6434
 6252SOL    HW230216   4.066   4.300  10.710 -0.0942  0.2538 -0.4136
 6253SOL     OW30217   3.068   4.555   1.076  0.4782  0.2963  1.0410
 6253SOL    HW130218   2.985   4.509   1.085  1.0721 -1.1501 -0.9461
 6253SOL    HW230219   3.047   4.649   1.078  2.0915  0.6764 -0.2497
 6254SOL     OW30220   1.422   2.805   2.993  0.6679  0.9385 -0.7728
 6254SOL    HW130221   1.499   2.853   2.962  1.4296 -0.6741 -1.3569
 6254SOL    HW230222   1.386   2.774   2.910 -2.4827  1.3611  0.4232
 6255SOL     OW30223   3.822   0.739   8.736 -0.0786  0.1426 -0.7833
 6255SOL    HW130224   3.752   0.713   8.796 -0.7136 -1.1413 -2.0699
 6255SOL    HW230225   3.860   0.817   8.776  0.3461 -0.3829 -0.1704
 6256SOL     OW30226   0.391   0.024   9.460 -0.5230 -0.2509  0.7832
 6256SOL    HW130227   0.449   4.674   9.482  0.9781  0.5573 -0.6132
 6256SOL    HW230228   0.418   0.043   9.371  0.3936  3.8551  1.9065
 6257SOL     OW30229   1.072   4.173  15.525  0.4030  0.4211  0.2788
 6257SOL    HW130230   1.075   4.172  15.620 -1.7948  0.1784  0.3335
 6257SOL    HW230231   1.158   4.140  15.500  0.3291  1.1285 -0.9119
 6258SOL     OW30232   3.381   3.904   3.003 -0.1822 -0.3569 -0.1812
 6258SOL    HW130233   3.476   3.916   3.003 -0.3486  0.8964  1.5055
 6258SOL    HW230234   3.360   3.929   2.913 -0.4000  0.4056  0.0820
 6259SOL     OW30235   0.309   3.037  13.498  0.0395 -0.2053 -0.4603
 6259SOL    HW130236   0.232   3.006  13.545  0.5329 -1.2755 -0.3591
 6259SOL    HW230237   0.311   2.990  13.415 -1.9067 -1.1199  0.0114
 6260SOL     OW30238   4.040   3.380   9.032 -0.2847 -0.1764  0.6403
 6260SOL    HW130239   4.034   3.311   9.099 -0.6493 -0.9676 -0.2014
 6260SOL    HW230240   3.975   3.441   9.067  1.2267  0.4762  2.3272
 6261SOL     OW30241   4.163   4.508  15.728 -0.5653  0.4282  0.2835
 6261SOL    HW130242   4.074   4.473  15.735 -1.2531  1.6446 -2.3283
 6261SOL    HW230243   4.175   4.476  15.639 -1.0258 -0.0546  0.3939
 6262SOL     OW30244   3.413   1.400   8.689  0.0222 -0.2281 -0.2481
 6262SOL    HW130245   3.499   1.373   8.721  1.1981  2.0781 -1.4484
 6262SOL    HW230246   3.378   1.422   8.776 -0.0637 -0.0269 -0.3334
 6263SOL     OW30247   0.452   3.842   2.298 -0.4151 -0.2311 -0.1291
 6263SOL    HW130248   0.403   3.851   2.216 -0.2841 -1.1791 -0.3152
 6263SOL    HW230249   0.491   3.755   2.299 -0.1640 -0.1246 -0.5555
 6264SOL     OW30250   3.844   0.194   5.252  0.1523 -0.1979  0.0423
 6264SOL    HW130251   3.777   0.127   5.239  1.5781 -1.7366  0.4777
 6264SOL    HW230252   3.918   0.159   5.202  0.3393 -1.8335  1.4264
 6265SOL     OW30253   1.915   0.859   8.297 -0.1048 -0.2435 -0.4380
 6265SOL    HW130254   1.920   0.951   8.323 -3.8675  0.2663 -1.5285
 6265SOL    HW230255   1.823   0.845   8.318  0.6081 -2.0783  1.4034
 6266SOL     OW30256   0.036   4.406   1.313  0.6393 -0.0420 -0.0679
 6266SOL    HW130257   4.694   4.408   1.242  1.6109  0.5951 -0.9330
 6266SOL    HW230258   0.046   4.500   1.328  0.7303  0.2304 -1.7514
 6267SOL     OW30259   4.361   3.371   9.092  0.0611 -0.5112  0.3951
 6267SOL    HW130260   4.325   3.283   9.097 -1.3183  0.0187 -0.3385
 6267SOL    HW230261   4.438   3.361   9.035 -0.2034  0.6113 -0.1708
 6268SOL     OW30262   2.762   2.625   7.882 -0.2601 -0.5793  0.4282
 6268SOL    HW130263   2.778   2.719   7.896  1.1801 -0.5360 -1.6179
 6268SOL    HW230264   2.849   2.591   7.860  0.9275  1.9520  1.0967
 6269SOL     OW30265   3.859   3.796  14.902 -0.0294  0.1742  0.1127
 6269SOL    HW130266   3.898   3.883  14.908  1.8383 -0.7688  1.4610
 6269SOL    HW230267   3.767   3.819  14.890  0.1308 -0.2225 -1.9524
 6270SOL     OW30268   2.758   1.436   8.404 -0.0416 -0.6969 -0.2077
 6270SOL    HW130269   2.807   1.445   8.322 -0.2369  0.5043 -0.1855
 6270SOL    HW230270   2.830   1.407   8.460 -0.6923  0.2308  1.0943
 6271SOL     OW30271   3.689   2.818   8.509 -0.0978  0.5787  0.3461
 6271SOL    HW130272   3.699   2.810   8.414  1.2873 -0.9558  0.6040
 6271SOL    HW230273   3.599   2.797   8.531  0.8544 -1.5045  2.2791
 6272SOL     OW30274   2.983   1.832   6.618 -0.5937  0.1653  0.0333
 6272SOL    HW130275   2.988   1.879   6.701 -0.1955 -1.3863  0.9032
 6272SOL    HW230276   3.046   1.761   6.628 -2.1792 -1.6267 -2.7211
 6273SOL     OW30277   4.464   0.765   2.154  0.1221  0.1139 -0.4169
 6273SOL    HW130278   4.480   0.672   2.164  1.4380  0.1503 -2.1518
 6273SOL    HW230279   4.551   0.805   2.155 -0.0450  0.5054 -1.1642
 6274SOL     OW30280   1.747   3.068   6.191  0.0835  0.9078  0.3359
 6274SOL    HW130281   1.675   3.068   6.254  0.5184  1.8230  0.8302
 6274SOL    HW230282   1.815   3.124   6.229  0.2883  0.4749  0.6070
 6275SOL     OW30283   0.102   4.025   8.591 -0.5267 -0.8164 -0.2389
 6275SOL    HW130284   0.182   4.047   8.543 -1.5182  0.2893 -1.3824
 6275SOL    HW230285   0.127   4.054   8.679 -1.5350  1.1483 -0.5984
 6276SOL     OW30286   1.096   1.367   2.601  0.1905  0.4632 -0.1151
 6276SOL    HW130287   1.116   1.342   2.510 -1.1694  1.2154 -0.6196
 6276SOL    HW230288   1.047   1.446   2.579  2.0535  2.2369  2.1787
 6277SOL     OW30289   1.797   2.334   8.872  0.0011 -0.3066 -0.0112
 6277SOL    HW130290   1.786   2.336   8.967  0.7169 -0.8979  0.0839
 6277SOL    HW230291   1.886   2.366   8.859 -0.0893 -0.3652 -0.7496
 6278SOL     OW30292   1.056   0.822   9.075  0.3083 -0.5069 -0.1194
 6278SOL    HW130293   1.007   0.771   9.140 -0.4450  1.1931  0.6603
 6278SOL    HW230294   0.997   0.820   9.000  0.7284  0.7449 -0.4938
 6279SOL     OW30295   1.886   2.545   8.083  0.0610 -0.5238  0.2864
 6279SOL    HW130296   1.811   2.581   8.131 -1.3913  0.9473 -3.1215
 6279SOL    HW230297   1.915   2.495   8.160  2.0641  0.7055  0.3213
 6280SOL     OW30298   3.344   1.908   6.458  0.1829  0.0025  0.4700
 6280SOL    HW130299   3.323   1.826   6.413  0.2127  0.6426 -0.7141
 6280SOL    HW230300   3.387   1.946   6.381  2.2390 -2.0215  0.6191
 6281SOL     OW30301   4.081   3.040  11.163  0.4558  0.3614 -0.1897
 6281SOL    HW130302   4.029   3.118  11.145  0.8615  0.7156  0.1669
 6281SOL    HW230303   4.165   3.068  11.128  1.1787 -0.0345  1.2204
 6282SOL     OW30304   0.150   0.812   5.603 -0.8003  0.0045 -0.0518
 6282SOL    HW130305   0.138   0.891   5.657  0.6824 -0.0294  0.3207
 6282SOL    HW230306   0.140   0.748   5.673 -0.1028 -1.6401 -1.4631
 6283SOL     OW30307   3.923   1.615   8.484  0.4308 -0.1643  0.2153
 6283SOL    HW130308   3.834   1.598   8.515  0.2932  0.0995 -0.0326
 6283SOL    HW230309   3.934   1.709   8.500  0.1453 -0.2785  1.0846
 6284SOL     OW30310   2.297   1.721   5.096  0.3400  0.2224  0.3483
 6284SOL    HW130311   2.205   1.731   5.073 -0.1921 -0.6390  2.0840
 6284SOL    HW230312   2.324   1.637   5.059 -0.7817  0.2046 -0.4357
 6285SOL     OW30313   0.332   1.863  15.885 -0.2538 -0.5822  0.3476
 6285SOL    HW130314   0.413   1.877  15.836  1.5776  2.2776  4.2144
 6285SOL    HW230315   0.270   1.901  15.822 -1.2897 -3.5596 -0.4605
 6286SOL     OW30316   4.598   2.331  12.478 -0.5049  0.1759  0.1293
 6286SOL    HW130317   4.615   2.242  12.511 -0.4828  0.2323  0.2701
 6286SOL    HW230318   4.625   2.381  12.555  1.5700  0.3816 -0.7209
 6287SOL     OW30319   4.699   4.576   8.937 -0.4209  0.2783 -0.7170
 6287SOL    HW130320   4.656   4.631   9.003 -0.7561 -1.0251  0.1423
 6287SOL    HW230321   4.636   4.571   8.865 -1.5496 -1.7399  0.4117
 6288SOL     OW30322   4.295   0.789   7.275  0.4849  0.2218 -0.1035
 6288SOL    HW130323   4.274   0.776   7.368  0.3655 -0.1168 -0.1774
 6288SOL    HW230324   4.388   0.804   7.291  0.4094 -0.4213  0.9351
 6289SOL     OW30325   3.706   0.649   7.016 -0.3133 -0.0517  0.1322
 6289SOL    HW130326   3.615   0.659   7.043 -0.9667 -2.2830 -1.2171
 6289SOL    HW230327   3.744   0.703   7.085 -2.2754 -2.7182  3.3477
 6290SOL     OW30328   1.583   0.208  14.018 -0.5223  0.0260 -0.3473
 6290SOL    HW130329   1.636   0.280  13.982 -3.2162  1.8089 -0.7675
 6290SOL    HW230330   1.648   0.137  14.021  0.0566  0.5607 -0.1050
 6291SOL     OW30331   2.654   1.792   1.959  0.2619 -0.6255  0.5192
 6291SOL    HW130332   2.611   1.710   1.984  0.5040 -0.9412 -0.0936
 6291SOL    HW230333   2.589   1.860   1.978  1.0502  0.4874 -0.7823
 6292SOL     OW30334   0.331   1.390   7.631 -0.4308  0.5655  0.2805
 6292SOL    HW130335   0.385   1.315   7.658  4.0531  2.5189 -3.1321
 6292SOL    HW230336   0.385   1.439   7.569 -1.7414  1.5803 -0.0544
 6293SOL     OW30337   1.003   2.433   4.785  0.3071  0.3289 -0.3857
 6293SOL    HW130338   1.094   2.419   4.812  0.5161  1.3269 -0.5417
 6293SOL    HW230339   1.011   2.413   4.691 -0.9024  0.6063 -0.5439
 6294SOL     OW30340   3.901   1.067  12.409 -0.2360 -0.2561  0.2301
 6294SOL    HW130341   3.807   1.075  12.421 -0.2183  0.7343 -0.2408
 6294SOL    HW230342   3.903   1.001  12.339  0.0042  2.1237 -2.0171
 6295SOL     OW30343   4.394   2.080   1.096  0.7484 -0.6017 -0.2433
 6295SOL    HW130344   4.448   2.123   1.162 -1.2866  1.7905 -0.1381
 6295SOL    HW230345   4.320   2.058   1.153 -0.7492 -0.1699 -2.0208
 6296SOL     OW30346   0.722   3.533  16.697 -0.3455  0.4167 -0.0550
 6296SOL    HW130347   0.643   3.518  16.749  0.1311 -0.5443  0.3850
 6296SOL    HW230348   0.714   3.461  16.635  1.0724 -0.6463  1.0034
 6297SOL     OW30349   0.765   1.741   3.057 -0.3232  1.1135  0.3815
 6297SOL    HW130350   0.833   1.710   2.997  1.5769  1.9229  2.0961
 6297SOL    HW230351   0.696   1.768   2.997 -0.6187 -1.9941 -0.6881
 6298SOL     OW30352   0.706   4.473   2.931  0.4382  0.4253 -0.0533
 6298SOL    HW130353   0.798   4.472   2.956  0.8248 -2.3001 -1.6107
 6298SOL    HW230354   0.691   4.567   2.919  0.2493  0.3820 -0.1583
 6299SOL     OW30355   0.342   3.075   8.425  0.0222  0.2289  0.1889
 6299SOL    HW130356   0.252   3.067   8.394  0.4009 -0.9727 -0.6135
 6299SOL    HW230357   0.356   3.166   8.399 -0.5535  0.6953  1.5226
 6300SOL     OW30358   2.528   4.525  10.364 -0.2543  0.3541  0.1205
 6300SOL    HW130359   2.563   4.437  10.352  0.5641  0.6065  0.6360
 6300SOL    HW230360   2.594   4.573  10.312 -1.7990  0.2046 -1.9684
 6301SOL     OW30361   0.743   0.396   8.733  0.0221 -0.4076 -0.3224
 6301SOL    HW130362   0.726   0.304   8.711 -1.0756 -0.3709  0.3640
 6301SOL    HW230363   0.838   0.395   8.720 -0.0747 -1.8877 -0.9598
 6302SOL     OW30364   3.296   2.435  15.602 -0.0042 -0.4649 -0.1403
 6302SOL    HW130365   3.377   2.474  15.635 -0.0190 -2.2354  1.9561
 6302SOL    HW230366   3.274   2.487  15.525  0.0416 -1.9933 -1.1877
 6303SOL     OW30367   3.222   4.470  13.850  0.0605 -0.1216  0.1054
 6303SOL    HW130368   3.311   4.505  13.863  0.3930 -0.7696 -0.3984
 6303SOL    HW230369   3.166   4.548  13.851 -0.4921 -0.5390  1.5925
 6304SOL     OW30370   0.419   4.332  14.498 -0.2616  0.2497 -0.3905
 6304SOL    HW130371   0.449   4.325  14.407  0.2150 -0.6557 -0.1601
 6304SOL    HW230372   0.496   4.310  14.549  0.6924  0.8072 -1.5887
 6305SOL     OW30373   1.232   0.501   4.421 -0.3638 -0.3011 -0.0934
 6305SOL    HW130374   1.156   0.521   4.366 -0.5042  0.0436  0.2274
 6305SOL    HW230375   1.311   0.509   4.368 -0.3458  2.2033  0.2887
 6306SOL     OW30376   2.754   0.223   0.861 -0.7878  0.0718 -0.3080
 6306SOL    HW130377   2.716   0.151   0.811 -2.4296  0.5009  0.3322
 6306SOL    HW230378   2.677   0.247   0.912 -0.6421  2.8836 -1.3982
 6307SOL     OW30379   0.913   2.737   6.304 -0.0687 -0.3210  0.1266
 6307SOL    HW130380   1.002   2.700   6.301  0.8570  1.6253  2.9027
 6307SOL    HW230381   0.911   2.755   6.398  0.1170  2.0411 -0.3221
 6308SOL     OW30382   4.537   3.108  10.371  0.0157  0.1032  0.0059
 6308SOL    HW130383   4.559   3.019  10.341 -2.1004 -0.4322  0.0821
 6308SOL    HW230384   4.587   3.113  10.453  0.7026 -0.6272 -0.3613
 6309SOL     OW30385   0.918   2.482   2.579  0.4382 -0.0130  0.1540
 6309SOL    HW130386   0.893   2.556   2.523  0.5953 -1.7466 -2.2291
 6309SOL    HW230387   0.831   2.447   2.594  0.6108 -0.7206 -0.4798
 6310SOL     OW30388   3.697   1.885   6.294  0.1440 -0.4014  0.2909
 6310SOL    HW130389   3.670   1.833   6.370 -0.5565  0.9261  0.9412
 6310SOL    HW230390   3.654   1.840   6.221  0.6639  1.1887 -0.9876
 6311SOL     OW30391   2.661   2.175   9.624  0.2763  0.0610  0.1126
 6311SOL    HW130392   2.659   2.080   9.617  0.5066 -0.0314  1.2126
 6311SOL    HW230393   2.719   2.189   9.550 -0.3302  1.5304 -0.1030
 6312SOL     OW30394   0.890   3.910   9.245  0.0320  0.4781 -0.1361
 6312SOL    HW130395   0.978   3.898   9.280  0.1572 -1.5115 -1.1354
 6312SOL    HW230396   0.833   3.833   9.257  0.7236  0.1116  0.8052
 6313SOL     OW30397   0.167   3.039  14.708 -0.2661  0.3220  0.3942
 6313SOL    HW130398   0.191   2.983  14.633  1.2569  0.5787  0.6895
 6313SOL    HW230399   0.092   3.088  14.674  0.4504  3.4118  3.3569
 6314SOL     OW30400   2.906   3.908  16.418 -0.1273  0.1466 -0.0828
 6314SOL    HW130401   2.830   3.863  16.382  0.5790 -1.1630  0.0577
 6314SOL    HW230402   2.970   3.885  16.351  1.9230 -1.3802  2.3833
 6315SOL     OW30403   3.243   4.599   3.619 -0.2696  0.2125 -0.0454
 6315SOL    HW130404   3.176   4.543   3.579 -0.1908  0.0087  0.1094
 6315SOL    HW230405   3.219   4.689   3.597 -0.9306 -0.4323 -1.9673
 6316SOL     OW30406   0.293   2.757   5.293  0.3877 -0.2093 -0.7125
 6316SOL    HW130407   0.374   2.808   5.294 -1.0935  2.1135  0.9457
 6316SOL    HW230408   0.328   2.676   5.254 -0.4518 -0.3585 -1.1732
 6317SOL     OW30409   0.330   1.616   5.348  0.5320  0.4206  0.2184
 6317SOL    HW130410   0.250   1.572   5.317  1.1401 -0.9129  0.5315
 6317SOL    HW230411   0.398   1.549   5.344  1.3356  1.2129  0.7041
 6318SOL     OW30412   2.020   2.555   6.552 -0.3697 -0.6523  0.3456
 6318SOL    HW130413   2.033   2.622   6.485 -2.2228 -2.1908 -1.5642
 6318SOL    HW230414   2.044   2.608   6.629  1.5241  0.2727 -0.8915
 6319SOL     OW30415   0.467   3.973   4.066 -0.0346  0.1262 -0.4099
 6319SOL    HW130416   0.545   3.980   4.120  0.8304 -1.9638 -1.4085
 6319SOL    HW230417   0.498   4.015   3.986 -2.3217 -0.1806 -1.4850
 6320SOL     OW30418   2.300   2.339  10.168 -0.0002  0.2524  0.3300
 6320SOL    HW130419   2.258   2.287  10.099  0.8022 -0.2011  0.1779
 6320SOL    HW230420   2.359   2.271  10.201 -0.8894 -1.4899 -1.6154
 6321SOL     OW30421   0.627   2.493   4.349  0.0303 -0.3320  0.3951
 6321SOL    HW130422   0.579   2.514   4.429 -0.5133 -1.1977  0.2978
 6321SOL    HW230423   0.596   2.404   4.333 -2.3881  0.5133  0.4213
 6322SOL     OW30424   1.294   3.721   8.198  0.5253  0.1585  0.3777
 6322SOL    HW130425   1.340   3.657   8.252 -2.5359 -0.7010  1.9095
 6322SOL    HW230426   1.219   3.673   8.164  0.6950  0.2729 -0.1738
 6323SOL     OW30427   1.904   4.393   0.807 -0.4733 -0.4726 -0.0693
 6323SOL    HW130428   1.839   4.392   0.877 -1.0763 -0.6447 -0.6385
 6323SOL    HW230429   1.906   4.486   0.786 -0.2765 -0.0068  1.9939
 6324SOL     OW30430   1.063   4.470   5.631  0.3119  0.0008 -0.5040
 6324SOL    HW130431   1.043   4.535   5.698  1.5119 -1.6980  1.5200
 6324SOL    HW230432   1.159   4.469   5.632  0.2985  0.9633  2.0099
 6325SOL     OW30433   0.226   4.033   3.034  0.3054  0.1690 -0.1163
 6325SOL    HW130434   0.174   4.034   3.114 -0.8959 -1.8112 -0.8589
 6325SOL    HW230435   0.250   4.124   3.019 -1.5656  1.2594  3.4558
 6326SOL     OW30436   2.048   1.708   3.804 -0.1564  0.3213  0.0599
 6326SOL    HW130437   2.091   1.623   3.817 -0.2687  0.5896  2.2101
 6326SOL    HW230438   1.996   1.717   3.884 -0.7223 -1.5268 -0.0849
 6327SOL     OW30439   2.610   0.798   9.865 -0.2646 -0.4126  0.1070
 6327SOL    HW130440   2.607   0.890   9.888 -1.4881  0.1466 -2.2946
 6327SOL    HW230441   2.665   0.793   9.786  2.1899 -3.5653  2.0155
 6328SOL     OW30442   1.012   2.693   5.965 -0.0427 -0.2770  0.1173
 6328SOL    HW130443   0.972   2.751   5.900  0.9908  1.3774  0.9638
 6328SOL    HW230444   0.950   2.709   6.036  1.3646 -0.5886  1.4062
 6329SOL     OW30445   2.612   0.553   7.252 -0.1169 -0.3309 -0.3365
 6329SOL    HW130446   2.594   0.506   7.171  0.5069  1.9254 -1.7747
 6329SOL    HW230447   2.616   0.640   7.211 -0.3865  0.9599  2.3345
 6330SOL     OW30448   3.274   2.024   5.994 -0.0554  0.0427 -0.8388
 6330SOL    HW130449   3.368   2.017   5.978  0.1069 -0.0918  0.2026
 6330SOL    HW230450   3.248   2.115   5.988 -0.0509  0.2202  2.0734
 6331SOL     OW30451   3.299   2.460   6.416 -0.2129  0.0044 -0.9727
 6331SOL    HW130452   3.210   2.426   6.421 -0.7835  1.3868 -1.5033
 6331SOL    HW230453   3.289   2.540   6.363 -1.7033  1.1232  0.9856
 6332SOL     OW30454   3.461   0.540   5.116  0.6400  0.3891  0.0987
 6332SOL    HW130455   3.556   0.551   5.111  0.9219 -1.6432  1.0370
 6332SOL    HW230456   3.445   0.548   5.210 -0.3758  0.6574 -0.0937
 6333SOL     OW30457   1.111   0.401  15.051  0.1564  0.0539  0.1709
 6333SOL    HW130458   1.109   0.480  14.997  0.9580  0.6713  1.0450
 6333SOL    HW230459   1.071   0.436  15.131  3.6915  2.7454  0.7575
 6334SOL     OW30460   3.535   2.761   4.273 -0.2740 -0.4610 -0.2585
 6334SOL    HW130461   3.481   2.828   4.316  1.4002  0.0204  1.0764
 6334SOL    HW230462   3.484   2.680   4.281  1.5067 -1.4567  1.1107
 6335SOL     OW30463   2.060   1.484   7.684 -0.0205  0.0471  0.1428
 6335SOL    HW130464   2.146   1.495   7.644 -0.3715  0.7657 -0.4015
 6335SOL    HW230465   2.054   1.563   7.737  0.7808 -1.3331  2.2896
 6336SOL     OW30466   3.208   2.509   8.074 -0.1316  0.0276 -0.0780
 6336SOL    HW130467   3.175   2.575   8.135 -1.1135 -2.1618  1.7654
 6336SOL    HW230468   3.288   2.499   8.124  0.5211 -2.3971 -1.6012
 6337SOL     OW30469   2.207   3.552  16.062 -0.3057  0.0808  0.3515
 6337SOL    HW130470   2.172   3.638  16.082  1.0895  0.8233 -0.3839
 6337SOL    HW230471   2.185   3.541  15.969  0.6528  0.3283  0.1038
 6338SOL     OW30472   0.635   1.636   1.485  0.5348 -0.1543  0.4532
 6338SOL    HW130473   0.600   1.548   1.469  2.5871 -0.6806 -1.0990
 6338SOL    HW230474   0.572   1.681   1.428 -0.1504 -1.0832  0.4756
 6339SOL     OW30475   1.206   1.604   5.057  0.1400  0.1199 -0.3958
 6339SOL    HW130476   1.167   1.649   4.983  0.4037  1.6895  0.4191
 6339SOL    HW230477   1.186   1.665   5.128 -2.6318  0.4737 -1.4863
 6340SOL     OW30478   2.871   1.775  13.248 -0.5408 -0.0702  0.3752
 6340SOL    HW130479   2.905   1.686  13.253  2.6501  1.2692  2.1002
 6340SOL    HW230480   2.879   1.811  13.337 -1.3568 -0.2534  0.5295
 6341SOL     OW30481   3.359   0.014  11.381 -0.0214  0.2880 -0.3252
 6341SOL    HW130482   3.370   4.650  11.420  1.8861  0.5478 -0.2637
 6341SOL    HW230483   3.272   0.037  11.412  0.1700  1.4855 -0.6742
 6342SOL     OW30484   3.785   2.896   6.015 -0.0273  0.1068  0.0762
 6342SOL    HW130485   3.816   2.833   5.950 -1.2429  0.7045 -1.0925
 6342SOL    HW230486   3.871   2.926   6.044  0.0872 -1.6222  1.5073
 6343SOL     OW30487   2.482   0.069   8.936 -0.3212  0.6584  0.5128
 6343SOL    HW130488   2.406   0.087   8.992 -2.0430 -3.0039 -0.6275
 6343SOL    HW230489   2.544   0.072   9.009 -3.0382 -0.6275  2.8870
 6344SOL     OW30490   2.849   0.755   1.888 -0.8676  0.0061 -0.0709
 6344SOL    HW130491   2.884   0.669   1.911  0.4598  0.4110 -0.5753
 6344SOL    HW230492   2.853   0.798   1.973 -0.2100  0.1420 -0.1685
 6345SOL     OW30493   4.715   1.426   4.811  0.4157  0.3400  0.5182
 6345SOL    HW130494   4.640   1.453   4.864  0.8570  1.1728  0.7171
 6345SOL    HW230495   4.668   1.371   4.748 -0.4858 -0.3573  1.7995
 6346SOL     OW30496   0.556   1.772   1.266 -0.2074  0.1066  0.0032
 6346SOL    HW130497   0.498   1.757   1.191  1.0154 -0.8441 -0.7528
 6346SOL    HW230498   0.644   1.743   1.241 -1.2368 -4.2206  1.4797
 6347SOL     OW30499   3.429   3.558   7.164  0.0801 -0.3013  0.2654
 6347SOL    HW130500   3.503   3.543   7.223  0.5451  0.3560 -0.1497
 6347SOL    HW230501   3.423   3.475   7.116 -0.5871 -0.3433  0.4208
 6348SOL     OW30502   1.929   2.752  11.556 -0.1906 -0.4861 -0.8270
 6348SOL    HW130503   2.013   2.735  11.512 -0.4460 -1.2224 -1.0314
 6348SOL    HW230504   1.965   2.741  11.644 -1.3528 -1.1937 -0.4522
 6349SOL     OW30505   3.339   3.083   8.086 -0.2086  0.7123  0.4556
 6349SOL    HW130506   3.246   3.061   8.094 -0.5246  1.7291 -0.4534
 6349SOL    HW230507   3.349   3.156   8.025  0.0102  0.4817  0.2077
 6350SOL     OW30508   0.315   1.003   4.167 -0.1671 -0.2522  0.0423
 6350SOL    HW130509   0.250   1.065   4.134  0.6988  0.3554 -0.5262
 6350SOL    HW230510   0.394   1.057   4.169  0.1241 -0.7225  0.7768
 6351SOL     OW30511   4.051   3.857   1.502  0.6562  0.0131  0.5402
 6351SOL    HW130512   4.049   3.810   1.586  0.0913 -0.1047  0.4640
 6351SOL    HW230513   3.971   3.823   1.461  0.2803  0.9049  0.5421
 6352SOL     OW30514   0.124   0.324   8.577 -0.2182 -0.2763 -0.4215
 6352SOL    HW130515   0.216   0.343   8.597 -0.6907  0.5477  0.9812
 6352SOL    HW230516   0.132   0.240   8.532 -0.4512  0.4292 -1.7790
 6353SOL     OW30517   3.922   2.741   5.375  0.1088  0.1601 -0.3916
 6353SOL    HW130518   3.841   2.700   5.346  1.2931 -2.9282  0.7106
 6353SOL    HW230519   3.893   2.821   5.418  0.6617  0.0845  0.1331
 6354SOL     OW30520   3.020   4.223  16.492  0.4077 -0.3842  0.2056
 6354SOL    HW130521   3.004   4.297  16.550 -0.6430 -0.9085  0.5832
 6354SOL    HW230522   3.054   4.160  16.556 -0.9134 -0.6512  0.6357
 6355SOL     OW30523   1.359   4.055  15.905  0.2680 -0.6243 -0.3819
 6355SOL    HW130524   1.408   4.023  15.980 -0.3335  0.2832  0.4041
 6355SOL    HW230525   1.416   4.020  15.836 -0.5463  0.4266 -1.6026
 6356SOL     OW30526   1.298   4.506  12.345  0.3254  0.3306 -1.1672
 6356SOL    HW130527   1.256   4.534  12.264  1.6222  0.7163 -1.7024
 6356SOL    HW230528   1.376   4.561  12.350  0.2513  0.1738  1.6521
 6357SOL     OW30529   2.892   1.143   8.878  0.1745 -0.7587 -1.0549
 6357SOL    HW130530   2.904   1.232   8.912  0.9978 -0.2962 -2.5259
 6357SOL    HW230531   2.987   1.127   8.880  0.8921  3.2312 -3.6247
 6358SOL     OW30532   0.810   1.920   7.763 -0.2720  0.2443 -0.0077
 6358SOL    HW130533   0.882   1.937   7.823 -0.4422 -0.8913  0.5101
 6358SOL    HW230534   0.857   1.937   7.681  1.1690  0.0296  0.7636
 6359SOL     OW30535   3.705   0.971  13.124 -0.0986 -0.0130  0.6001
 6359SOL    HW130536   3.653   0.924  13.189 -2.1641  0.9768 -0.3561
 6359SOL    HW230537   3.648   0.978  13.047  3.6947  3.5706 -1.9235
 6360SOL     OW30538   1.690   4.075   2.590 -0.7400 -0.4995  0.0803
 6360SOL    HW130539   1.778   4.101   2.619 -0.7249  0.6429 -0.9816
 6360SOL    HW230540   1.675   4.149   2.532 -0.8256 -3.4448 -3.6200
 6361SOL     OW30541   4.584   4.094  16.637  0.4728  0.6171 -0.3758
 6361SOL    HW130542   4.559   4.186  16.627  1.8591  1.0210 -0.2095
 6361SOL    HW230543   4.673   4.104  16.673 -0.1797  0.6360  1.2575
 6362SOL     OW30544   2.224   0.693   2.134  0.5271  0.3204  0.6547
 6362SOL    HW130545   2.184   0.659   2.055  2.1655  1.7073 -0.7668
 6362SOL    HW230546   2.226   0.617   2.192 -0.1750 -1.3114 -1.4969
 6363SOL     OW30547   0.079   2.298   6.734  0.2122  0.3074 -0.3740
 6363SOL    HW130548   0.059   2.382   6.694  0.5707  0.6868  0.2426
 6363SOL    HW230549   0.124   2.264   6.657 -1.6710  2.0741 -2.2134
 6364SOL     OW30550   4.174   3.518  16.483  0.1115 -0.3408  0.5179
 6364SOL    HW130551   4.084   3.548  16.467 -0.3316 -0.8760  2.0298
 6364SOL    HW230552   4.189   3.567  16.563 -2.1559  4.0040 -1.7311
 6365SOL     OW30553   0.689   2.188   9.100 -0.0266  0.6021  0.3094
 6365SOL    HW130554   0.658   2.278   9.113 -0.5120  0.6797 -1.3186
 6365SOL    HW230555   0.603   2.145   9.099  1.1067 -1.6230 -1.4801
 6366SOL     OW30556   2.442   2.005   2.023  0.6536  0.3008  0.3672
 6366SOL    HW130557   2.372   1.944   2.043  0.5447  0.5086  0.6297
 6366SOL    HW230558   2.421   2.093   2.053  1.4638  1.5948 -2.8593
 6367SOL     OW30559   0.087   2.861   4.926 -0.1293  0.4023  0.2998
 6367SOL    HW130560   0.004   2.831   4.890 -0.1204 -1.6373  2.0158
 6367SOL    HW230561   0.139   2.784   4.903 -0.5158 -0.3319  1.8730
 6368SOL     OW30562   2.688   1.167   6.130  0.2389  0.0760  0.1188
 6368SOL    HW130563   2.727   1.094   6.081  1.4988  0.7725  0.0749
 6368SOL    HW230564   2.704   1.244   6.075 -0.7982  0.4838  0.3886
 6369SOL     OW30565   1.588   0.729  12.873  0.6076 -0.0600 -0.7336
 6369SOL    HW130566   1.619   0.673  12.801 -0.4257 -1.0554 -0.4001
 6369SOL    HW230567   1.494   0.727  12.860  0.7662 -0.5789 -1.8649
 6370SOL     OW30568   2.797   3.303   6.462 -0.6029 -0.5936 -0.3899
 6370SOL    HW130569   2.738   3.377   6.454 -0.8196 -0.7342 -0.0827
 6370SOL    HW230570   2.883   3.338   6.438 -1.2810 -0.4602 -2.6365
 6371SOL     OW30571   3.840   0.560   8.433 -0.3783 -0.5404  0.7065
 6371SOL    HW130572   3.779   0.590   8.501 -0.7844 -0.4135  0.2857
 6371SOL    HW230573   3.812   0.609   8.356 -1.8132 -1.3403  0.7166
 6372SOL     OW30574   0.185   1.822   3.476 -0.3603  0.3271  0.3955
 6372SOL    HW130575   0.203   1.728   3.486  1.8896  0.7989  0.9310
 6372SOL    HW230576   0.271   1.864   3.463  0.2049 -0.6849  0.8667
 6373SOL     OW30577   3.676   3.953  15.929 -0.0704  0.3218  0.4208
 6373SOL    HW130578   3.745   3.905  15.884  0.3414  1.5943 -0.3232
 6373SOL    HW230579   3.701   4.039  15.895  2.2445 -0.0915  1.1217
 6374SOL     OW30580   3.956   4.712  13.641  0.4198 -0.0883 -0.7354
 6374SOL    HW130581   3.886   0.024  13.697 -2.4886 -2.3274 -3.0130
 6374SOL    HW230582   3.931   4.619  13.643 -0.4482  0.1195 -1.7423
 6375SOL     OW30583   3.150   1.260   4.993 -0.3783  0.0621 -0.4318
 6375SOL    HW130584   3.077   1.309   4.954 -0.5767  0.3310  0.2759
 6375SOL    HW230585   3.108   1.174   4.993 -0.6488  0.1906  0.1469
 6376SOL     OW30586   1.019   1.801   6.451 -0.6491  0.2946 -0.1146
 6376SOL    HW130587   0.975   1.719   6.472  1.1797 -0.7367 -0.3362
 6376SOL    HW230588   1.034   1.791   6.357  0.0094 -1.1103  0.1332
 6377SOL     OW30589   3.617   1.429   4.441 -0.3932  0.8081  0.0029
 6377SOL    HW130590   3.630   1.367   4.512 -0.2154  1.6800  0.7364
 6377SOL    HW230591   3.549   1.488   4.473 -1.2185 -0.9713  1.4739
 6378SOL     OW30592   2.877   2.166  13.341  0.8636 -0.2236  0.0022
 6378SOL    HW130593   2.855   2.221  13.266 -0.7627  0.2439  0.8102
 6378SOL    HW230594   2.788   2.152  13.373  1.8188 -2.8252  1.5223
 6379SOL     OW30595   3.757   3.883   8.539 -0.3438  0.1766 -1.0060
 6379SOL    HW130596   3.823   3.820   8.569 -1.0350 -0.1175 -0.1309
 6379SOL    HW230597   3.689   3.870   8.604  0.5713  0.6871  0.0557
 6380SOL     OW30598   2.421   1.528   3.073  0.3884  0.1333  0.5553
 6380SOL    HW130599   2.342   1.535   3.128 -0.3411  3.3803 -0.9359
 6380SOL    HW230600   2.392   1.509   2.984 -1.5197  1.0164  0.9767
 6381SOL     OW30601   1.267   1.444   3.994  0.5253 -0.1041  0.1930
 6381SOL    HW130602   1.353   1.411   3.971 -0.0442  0.9300 -3.3232
 6381SOL    HW230603   1.293   1.491   4.073  0.6100  3.6870 -2.1086
 6382SOL     OW30604   3.204   0.620   5.853 -0.2161 -0.2756 -0.0301
 6382SOL    HW130605   3.279   0.574   5.816  0.5279  0.8208  0.1370
 6382SOL    HW230606   3.229   0.710   5.833  0.2814 -0.2864  0.5612
 6383SOL     OW30607   4.487   0.205   5.042  0.0895  0.2320 -0.2729
 6383SOL    HW130608   4.528   0.238   4.962 -2.1813  3.2453 -0.1704
 6383SOL    HW230609   4.397   0.196   5.012 -0.4573  1.5364  0.9417
 6384SOL     OW30610   2.141   3.158   7.642 -0.1154 -0.4532  0.1613
 6384SOL    HW130611   2.147   3.092   7.712  1.4754 -1.0090 -0.4896
 6384SOL    HW230612   2.075   3.105   7.597 -2.9303  1.7388  1.7159
 6385SOL     OW30613   3.992   0.601   6.643  0.1209 -0.3521  0.5194
 6385SOL    HW130614   3.979   0.656   6.720 -0.6825 -0.0622  0.1817
 6385SOL    HW230615   3.922   0.537   6.659 -0.7550  0.1019 -1.4332
 6386SOL     OW30616   0.080   2.486  15.828  0.0729  0.3179 -0.1472
 6386SOL    HW130617   0.122   2.401  15.839 -0.0215  0.1142 -1.3625
 6386SOL    HW230618   0.119   2.521  15.748 -2.3519 -0.5393 -1.7167
 6387SOL     OW30619   0.674   0.590   4.488 -0.3695 -0.8978  0.3402
 6387SOL    HW130620   0.761   0.594   4.528 -0.2811 -1.0198  0.1601
 6387SOL    HW230621   0.621   0.619   4.562 -2.6187 -0.6266 -1.3601
 6388SOL     OW30622   3.886   0.238   6.514 -0.4337  0.3281  0.0423
 6388SOL    HW130623   3.883   0.205   6.604  2.7484 -0.5472 -0.1768
 6388SOL    HW230624   3.799   0.268   6.489 -0.3226 -1.1182 -2.0225
 6389SOL     OW30625   4.333   4.281  10.998 -0.0935 -0.2650  0.2202
 6389SOL    HW130626   4.342   4.189  10.971  2.0987  0.0509 -0.0690
 6389SOL    HW230627   4.421   4.298  11.031 -0.5038 -0.4870  1.4246
 6390SOL     OW30628   3.396   3.208  15.912  0.0158 -0.0113  0.1085
 6390SOL    HW130629   3.435   3.151  15.979 -2.2876 -2.3885 -0.5500
 6390SOL    HW230630   3.330   3.251  15.966 -0.9472  2.2593 -2.9251
 6391SOL     OW30631   0.193   0.469   9.501 -0.5332  0.3110  0.0497
 6391SOL    HW130632   0.221   0.387   9.540  0.6582  0.8974  0.4154
 6391SOL    HW230633   0.161   0.510   9.581  1.2755 -0.7356  1.3031
 6392SOL     OW30634   2.786   3.471   7.449  0.5888 -0.7532 -1.1142
 6392SOL    HW130635   2.863   3.506   7.494 -3.2330  1.2755  3.7796
 6392SOL    HW230636   2.801   3.527   7.372 -0.5645 -0.1969 -0.9341
 6393SOL     OW30637   1.969   4.267   9.186 -0.1152 -0.2105 -0.3941
 6393SOL    HW130638   2.060   4.254   9.159  0.0272  0.3751 -0.2113
 6393SOL    HW230639   1.963   4.183   9.231  2.4698 -0.3779 -0.3564
 6394SOL     OW30640   1.641   2.751   2.697 -0.4208  0.2586  0.3825
 6394SOL    HW130641   1.580   2.764   2.625 -0.2019 -2.4002 -0.2837
 6394SOL    HW230642   1.587   2.689   2.745  1.6672 -1.0537  1.0393
 6395SOL     OW30643   3.575   0.917   3.138  0.9683 -0.2119  0.0333
 6395SOL    HW130644   3.494   0.968   3.144  1.3118 -0.2172  5.0172
 6395SOL    HW230645   3.586   0.931   3.044 -0.5292  0.5008 -0.0310
 6396SOL     OW30646   1.144   3.971  13.055  0.6245 -0.0769  0.5774
 6396SOL    HW130647   1.062   4.013  13.082 -0.1196 -1.5884  0.7001
 6396SOL    HW230648   1.148   3.913  13.131  1.9646  0.3038  0.7839
 6397SOL     OW30649   2.214   3.432  15.522  0.0993  0.7910  0.0260
 6397SOL    HW130650   2.200   3.435  15.617  0.2396 -1.9930  0.1268
 6397SOL    HW230651   2.294   3.380  15.510 -0.4307  0.1316 -0.6475
 6398SOL     OW30652   1.565   0.961   3.626  0.1461 -0.8193 -0.0045
 6398SOL    HW130653   1.593   1.009   3.548 -1.3975 -0.3938 -0.2834
 6398SOL    HW230654   1.486   1.008   3.649  0.0807 -1.5996  1.3783
 6399SOL     OW30655   3.940   3.660  10.609 -0.2592  0.2138  0.6658
 6399SOL    HW130656   3.909   3.582  10.656 -0.5335 -0.2362 -0.2514
 6399SOL    HW230657   3.870   3.669  10.545  1.0001 -3.0744 -1.1899
 6400SOL     OW30658   3.318   3.133   6.153 -0.1860  0.2430 -0.1875
 6400SOL    HW130659   3.329   3.098   6.065 -0.3801  2.0258 -0.9201
 6400SOL    HW230660   3.389   3.197   6.163  0.9001 -0.7741 -1.4957
 6401SOL     OW30661   1.518   2.496  16.746  0.4196 -0.2631 -0.4398
 6401SOL    HW130662   1.481   2.585  16.743  0.1877 -0.3415  0.2169
 6401SOL    HW230663   1.459   2.463  16.678 -0.3324 -1.3631  0.7733
 6402SOL     OW30664   4.058   0.906   5.211 -0.4322 -0.1393  0.2638
 6402SOL    HW130665   4.109   0.832   5.243 -0.0208 -0.3098 -0.7946
 6402SOL    HW230666   4.110   0.974   5.255 -0.7141  0.9294 -1.0595
 6403SOL     OW30667   3.265   2.173   8.626  0.1545 -0.2423 -0.4573
 6403SOL    HW130668   3.274   2.240   8.694 -0.0845 -0.5084 -0.1651
 6403SOL    HW230669   3.196   2.207   8.569 -1.3043 -1.6828  0.4533
 6404SOL     OW30670   0.410   2.330  11.903  0.1335 -0.4742  0.0230
 6404SOL    HW130671   0.433   2.306  11.993 -3.4567 -0.1571  1.0177
 6404SOL    HW230672   0.347   2.261  11.883  0.0386 -0.1860 -0.6699
 6405SOL     OW30673   1.253   1.907   9.778  0.4078 -0.5598 -0.0305
 6405SOL    HW130674   1.248   1.838   9.844 -1.6375  0.5583  0.9904
 6405SOL    HW230675   1.330   1.887   9.724  0.7561 -1.5943  0.8549
 6406SOL     OW30676   3.543   2.532  15.609 -0.2919  0.0073 -0.5354
 6406SOL    HW130677   3.626   2.512  15.565 -0.3015 -3.5047  1.0157
 6406SOL    HW230678   3.550   2.493  15.696  2.5675 -0.2264 -0.8504
 6407SOL     OW30679   1.769   1.800   3.658  0.8153  0.1040 -0.4250
 6407SOL    HW130680   1.700   1.850   3.613  0.8761 -0.6206 -1.3238
 6407SOL    HW230681   1.810   1.876   3.699  0.5275  0.0334 -0.0110
 6408SOL     OW30682   4.281   1.038   3.729 -0.7981 -0.2434 -0.1866
 6408SOL    HW130683   4.229   0.978   3.783 -0.2140  0.0418  0.6943
 6408SOL    HW230684   4.333   0.969   3.688 -0.3341 -0.2796  0.4502
 6409SOL     OW30685   2.119   2.757   6.922 -0.3933 -0.1076  0.2786
 6409SOL    HW130686   2.123   2.663   6.906  0.3934  0.4352 -2.7044
 6409SOL    HW230687   2.071   2.787   6.845 -0.5619  2.2453  1.2718
 6410SOL     OW30688   1.729   3.031   5.289  0.1535 -0.3106 -0.0867
 6410SOL    HW130689   1.684   3.085   5.353 -0.0021 -0.8872  0.2964
 6410SOL    HW230690   1.687   2.945   5.297  0.3531 -0.3283  0.7519
 6411SOL     OW30691   3.581   0.676   8.920  0.5294  0.2472  0.5497
 6411SOL    HW130692   3.532   0.595   8.932 -2.1710  1.8273  0.2444
 6411SOL    HW230693   3.546   0.718   8.999 -1.9271  0.2413 -0.5607
 6412SOL     OW30694   2.831   2.694   5.990  0.5411 -0.0794 -0.0212
 6412SOL    HW130695   2.922   2.715   6.010 -0.0272  0.8863  1.5027
 6412SOL    HW230696   2.792   2.691   6.077 -1.0337  0.7641 -0.7118
 6413SOL     OW30697   1.339   3.796   7.026 -0.0700  0.1964  0.1311
 6413SOL    HW130698   1.392   3.875   7.037 -1.3965  1.1141 -0.0669
 6413SOL    HW230699   1.351   3.751   7.110 -2.1689 -0.9159 -0.1641
 6414SOL     OW30700   4.578   0.131   8.315  0.1423 -0.1541 -0.4981
 6414SOL    HW130701   4.626   0.214   8.308 -0.0150 -0.2197 -2.3501
 6414SOL    HW230702   4.600   0.096   8.401  0.1784 -0.8759 -0.8065
 6415SOL     OW30703   1.902   0.492   8.468 -0.0048 -0.1127 -0.2570
 6415SOL    HW130704   1.809   0.512   8.485  0.5453  0.3502  2.1776
 6415SOL    HW230705   1.916   0.539   8.386 -0.5449 -1.2506 -1.0047
 6416SOL     OW30706   0.169   2.715   0.923 -0.3308 -0.2096  0.2503
 6416SOL    HW130707   0.184   2.715   0.829 -0.6337  3.7711  0.1804
 6416SOL    HW230708   0.077   2.688   0.931  0.2633 -1.0785  4.3564
 6417SOL     OW30709   1.862   3.779  13.821 -0.0420 -0.6254  0.6217
 6417SOL    HW130710   1.934   3.724  13.853  0.1746 -0.7602 -0.1056
 6417SOL    HW230711   1.850   3.763  13.728  2.9577 -1.2370  0.3332
 6418SOL     OW30712   1.953   1.306   0.978  1.2440  0.7031 -0.2065
 6418SOL    HW130713   2.020   1.370   0.953  0.3903  1.2066 -1.1955
 6418SOL    HW230714   2.003   1.245   1.034  0.3869  0.8414  0.7119
 6419SOL     OW30715   2.706   1.311   1.397  0.5699 -0.3699  0.4370
 6419SOL    HW130716   2.613   1.309   1.377  0.5790 -0.6012  0.4167
 6419SOL    HW230717   2.725   1.400   1.424 -4.0101  0.7768 -0.2409
 6420SOL     OW30718   1.583   2.859  15.397 -0.1204  0.2029 -0.5735
 6420SOL    HW130719   1.674   2.864  15.367 -0.4466  1.6352 -1.3240
 6420SOL    HW230720   1.555   2.928  15.337  1.2987  1.4853  0.2482
 6421SOL     OW30721   2.399   1.796  14.850 -0.0519  0.6445 -0.2066
 6421SOL    HW130722   2.343   1.826  14.778 -0.9671  1.6266  0.9071
 6421SOL    HW230723   2.339   1.793  14.925 -0.4506  1.2482 -0.5106
 6422SOL     OW30724   0.520   3.551   8.625  0.0722  0.1856 -0.5747
 6422SOL    HW130725   0.508   3.526   8.717 -0.6806  2.7710  0.0330
 6422SOL    HW230726   0.572   3.479   8.589  0.6620  1.0167 -1.3881
 6423SOL     OW30727   2.725   3.438  14.282  0.6081  0.0295 -0.7280
 6423SOL    HW130728   2.816   3.410  14.284  0.4525 -0.3982  0.2599
 6423SOL    HW230729   2.708   3.466  14.192  1.4351  2.9853  0.0606
 6424SOL     OW30730   0.542   3.644   2.758 -0.1397  0.0604 -0.4164
 6424SOL    HW130731   0.637   3.644   2.745 -0.4008 -1.8334 -2.3925
 6424SOL    HW230732   0.497   3.638   2.674  1.6164 -2.6734 -1.1490
 6425SOL     OW30733   4.302   3.874   9.541 -0.4114  0.0648 -0.1092
 6425SOL    HW130734   4.224   3.929   9.540  0.3233  1.0813 -1.9017
 6425SOL    HW230735   4.275   3.789   9.507  0.0070  1.2590 -3.3996
 6426SOL     OW30736   3.128   4.458   2.526  0.0785  0.3812 -0.0023
 6426SOL    HW130737   3.133   4.533   2.468 -1.9665 -0.0398 -0.7239
 6426SOL    HW230738   3.218   4.428   2.537 -0.1428  0.2120  1.3776
 6427SOL     OW30739   4.233   3.618   9.083 -0.8874 -0.0148  1.2211
 6427SOL    HW130740   4.161   3.584   9.031 -1.1972  1.6079  0.5729
 6427SOL    HW230741   4.283   3.538   9.101  0.2462  0.8733  2.0678
 6428SOL     OW30742   3.101   4.445  16.315  0.1371 -0.8367  0.4282
 6428SOL    HW130743   3.048   4.435  16.236  1.0481 -1.1917 -0.1422
 6428SOL    HW230744   3.070   4.378  16.376 -1.6240  0.7459  1.2504
 6429SOL     OW30745   3.605   4.661  16.058  0.3634  0.2916  0.3495
 6429SOL    HW130746   3.572   0.028  16.051  0.5431  0.4271  1.2269
 6429SOL    HW230747   3.547   4.626  16.126  1.3334  1.1332  1.5980
 6430SOL     OW30748   0.860   2.339   6.255  0.7608 -0.4004 -0.4590
 6430SOL    HW130749   0.855   2.250   6.291 -2.2768  1.3736  3.6267
 6430SOL    HW230750   0.934   2.379   6.301  0.4991 -1.7892  1.2004
 6431SOL     OW30751   1.801   0.161   2.199 -0.1923 -0.2978 -0.4182
 6431SOL    HW130752   1.725   0.172   2.257 -1.4936  0.4720 -2.2976
 6431SOL    HW230753   1.759   0.141   2.116 -1.9872 -1.1677  0.7146
 6432SOL     OW30754   2.608   0.410   6.994 -0.5546 -0.3657 -0.0507
 6432SOL    HW130755   2.639   0.371   6.912  0.0183  1.3567 -0.6497
 6432SOL    HW230756   2.607   0.335   7.053 -0.9831  0.3349  0.8321
 6433SOL     OW30757   3.296   3.029   4.677 -0.7677 -0.2015 -0.2883
 6433SOL    HW130758   3.227   3.049   4.742 -0.6455  0.1486 -0.2653
 6433SOL    HW230759   3.320   2.942   4.708  0.2586  0.4385  0.7041
 6434SOL     OW30760   2.303   1.351   1.512  0.4988  0.3422 -0.3476
 6434SOL    HW130761   2.364   1.330   1.440  1.3997  0.0946  0.4859
 6434SOL    HW230762   2.339   1.434   1.542 -1.1897  1.2516 -0.8358
 6435SOL     OW30763   3.953   4.417   0.542 -0.2953  0.2678 -0.3052
 6435SOL    HW130764   3.952   4.324   0.567  0.0262  0.0971 -0.9141
 6435SOL    HW230765   4.010   4.416   0.464  1.2404 -0.5910  0.8215
 6436SOL     OW30766   4.175   3.988   4.949  0.4923  0.3515  0.2545
 6436SOL    HW130767   4.117   4.002   4.874 -0.7431 -0.4853  1.0461
 6436SOL    HW230768   4.135   4.048   5.012  2.1993  1.7941 -0.0374
 6437SOL     OW30769   1.917   2.105   5.128  0.4870 -0.3962  0.0302
 6437SOL    HW130770   1.928   2.024   5.178 -2.3358  0.0536  1.3860
 6437SOL    HW230771   2.008   2.124   5.104 -0.3599  1.0840 -2.0756
 6438SOL     OW30772   2.105   3.757   4.866  0.3008 -0.0128  0.0229
 6438SOL    HW130773   2.123   3.841   4.909 -0.7566 -0.0729  0.5703
 6438SOL    HW230774   2.155   3.702   4.926  0.0225 -1.9727 -1.5517
 6439SOL     OW30775   0.599   4.366   0.910 -0.1480 -0.1465  0.0387
 6439SOL    HW130776   0.641   4.310   0.976  0.6198  2.9946  2.1730
 6439SOL    HW230777   0.612   4.455   0.941 -2.0958  0.3826 -0.6440
 6440SOL     OW30778   0.162   0.008   5.203  0.1718 -0.4654  0.1236
 6440SOL    HW130779   0.149   0.005   5.298  3.7735  2.9396  0.7540
 6440SOL    HW230780   0.203   0.092   5.183 -0.8444 -0.0659 -0.3134
 6441SOL     OW30781   4.089   3.232  13.982 -0.8640  0.0099  0.9621
 6441SOL    HW130782   4.025   3.163  13.965  0.6542 -1.1806  0.0883
 6441SOL    HW230783   4.132   3.187  14.055 -0.6055 -3.1793 -1.1359
 6442SOL     OW30784   0.022   3.865   5.343  0.2990 -0.0821  0.3196
 6442SOL    HW130785   4.662   3.822   5.367 -0.6298  0.0326 -2.6688
 6442SOL    HW230786   0.041   3.931   5.410 -2.0682  0.6409  0.2933
 6443SOL     OW30787   2.461   2.171   4.330 -0.8549  0.1590 -0.9408
 6443SOL    HW130788   2.456   2.230   4.405  0.6875 -1.6776  0.5868
 6443SOL    HW230789   2.368   2.150   4.321 -1.0762  0.3681  0.9074
 6444SOL     OW30790   0.763   3.713  14.646 -0.0984  0.1653  0.3395
 6444SOL    HW130791   0.701   3.661  14.594  0.3354 -0.2479  0.2436
 6444SOL    HW230792   0.718   3.735  14.728 -0.2902  0.7938  0.0678
 6445SOL     OW30793   0.750   2.179  15.403  0.0134 -0.1172 -0.3932
 6445SOL    HW130794   0.747   2.197  15.309 -0.4211 -0.0445 -0.3648
 6445SOL    HW230795   0.745   2.260  15.455  1.3033 -1.4527  1.8105
 6446SOL     OW30796   2.020   3.423   8.781  0.2825 -0.0275 -0.4650
 6446SOL    HW130797   1.945   3.482   8.773 -0.6483 -1.1108  0.1583
 6446SOL    HW230798   1.995   3.359   8.848 -0.0918 -0.4146 -0.9760
 6447SOL     OW30799   3.550   0.446   6.215  0.0997 -0.2510  0.0094
 6447SOL    HW130800   3.529   0.353   6.203  1.9661 -0.7297  0.4193
 6447SOL    HW230801   3.581   0.463   6.126 -0.9832  0.7711 -0.1620
 6448SOL     OW30802   4.637   4.556   3.257  0.1242 -0.4130 -0.1819
 6448SOL    HW130803   4.635   4.471   3.211 -0.4919 -0.1537 -0.6346
 6448SOL    HW230804   0.007   4.576   3.239  0.0897  1.1893  1.5268
 6449SOL     OW30805   2.641   0.053   2.354  0.1721  0.4396  0.3574
 6449SOL    HW130806   2.666   0.057   2.262 -0.7772 -2.9291 -0.0462
 6449SOL    HW230807   2.726   0.048   2.398 -0.1740 -1.2714  0.8187
 6450SOL     OW30808   2.092   3.906   9.024  0.4184 -0.2221  0.1445
 6450SOL    HW130809   2.135   3.833   8.981 -0.3072 -1.1064  0.9260
 6450SOL    HW230810   2.000   3.879   9.017  0.6817 -1.1186  0.2281
 6451SOL     OW30811   0.191   0.592  10.047  0.2018  0.2061 -0.1501
 6451SOL    HW130812   0.160   0.508  10.081  0.7642  0.0138 -0.1110
 6451SOL    HW230813   0.261   0.619  10.107  0.4085 -1.3511  0.3107
 6452SOL     OW30814   2.006   3.418   1.380 -0.3446 -0.0388  0.5110
 6452SOL    HW130815   2.034   3.455   1.464  1.1038  0.6637 -0.2720
 6452SOL    HW230816   2.083   3.367   1.354  0.2606  0.3919  1.4664
 6453SOL     OW30817   0.904   3.685  12.157 -0.4181  0.4759 -0.2202
 6453SOL    HW130818   0.927   3.679  12.250  0.1184  1.4736 -0.2879
 6453SOL    HW230819   0.989   3.722  12.133  0.7513 -1.3690  1.0839
 6454SOL     OW30820   2.578   0.202   1.467  0.3311  0.5312  0.4242
 6454SOL    HW130821   2.632   0.123   1.466  1.3304  1.1944  0.8995
 6454SOL    HW230822   2.522   0.186   1.543  0.8298 -1.5743  0.3548
 6455SOL     OW30823   3.587   3.721  13.888 -0.1567 -0.6661 -0.0099
 6455SOL    HW130824   3.512   3.711  13.946 -2.6167  2.1757 -2.6826
 6455SOL    HW230825   3.654   3.741  13.953  1.3216  2.1670 -2.3885
 6456SOL     OW30826   3.233   2.139   6.516  0.3958  0.3741  0.4382
 6456SOL    HW130827   3.267   2.049   6.518 -0.1500  0.1811  0.9565
 6456SOL    HW230828   3.264   2.172   6.432 -0.3328  0.1675  0.0880
 6457SOL     OW30829   1.085   3.581   0.819 -1.0804  0.2577  0.2695
 6457SOL    HW130830   1.091   3.489   0.845  1.9663  0.2275 -0.5094
 6457SOL    HW230831   1.037   3.623   0.890  1.3654  0.1361  2.0085
 6458SOL     OW30832   2.043   0.346   8.673  0.3785  0.0272 -0.4143
 6458SOL    HW130833   2.123   0.312   8.633  1.0120  1.1116 -0.0521
 6458SOL    HW230834   2.000   0.386   8.597 -2.1140 -2.8479 -0.5585
 6459SOL     OW30835   2.701   0.063   5.771  0.0660 -1.0558  0.0267
 6459SOL    HW130836   2.743   0.030   5.851 -2.4960 -1.6484  1.1156
 6459SOL    HW230837   2.760   0.130   5.735  0.6722 -1.5422  0.1148
 6460SOL     OW30838   0.495   1.966   8.771  0.0771  0.6293  0.1193
 6460SOL    HW130839   0.503   1.925   8.857  1.3468  2.0859  0.6923
 6460SOL    HW230840   0.431   2.036   8.785  1.6339  2.5805 -2.4823
 6461SOL     OW30841   1.668   2.275   7.194 -0.0432 -0.5874  0.4749
 6461SOL    HW130842   1.665   2.201   7.255  0.2459 -1.4468 -0.5470
 6461SOL    HW230843   1.609   2.257   7.121 -2.3039  1.9906  1.7106
 6462SOL     OW30844   0.658   1.921   2.490 -0.0415  0.0223 -0.3876
 6462SOL    HW130845   0.603   1.845   2.509  4.0410 -3.0915 -1.0096
 6462SOL    HW230846   0.650   1.924   2.395  1.0729  1.2120 -0.4496
 6463SOL     OW30847   2.955   0.070   1.019  0.1536 -0.1711  0.2199
 6463SOL    HW130848   2.898   0.120   0.961  0.0195 -2.2239 -1.4148
 6463SOL    HW230849   2.916   0.103   1.100 -1.3195 -0.0449 -0.5395
 6464SOL     OW30850   2.479   2.128  16.175  0.3748 -0.5026  0.5074
 6464SOL    HW130851   2.462   2.043  16.133  1.1954  0.5975 -2.0579
 6464SOL    HW230852   2.400   2.155  16.221 -2.1788 -1.2871 -3.3811
 6465SOL     OW30853   3.909   2.418   7.915 -0.1341  0.6429  0.0593
 6465SOL    HW130854   3.845   2.368   7.864  0.4672 -0.8662  0.7721
 6465SOL    HW230855   3.926   2.344   7.973 -0.0649 -0.6452 -1.6092
 6466SOL     OW30856   2.334   2.469   8.712 -0.2345  0.1736 -0.4203
 6466SOL    HW130857   2.303   2.499   8.627 -1.1185  2.4224  0.7010
 6466SOL    HW230858   2.428   2.471   8.693 -0.2332 -1.1852 -0.5587
 6467SOL     OW30859   0.780   0.488  14.822 -0.2482  0.0552  0.4539
 6467SOL    HW130860   0.766   0.581  14.836  1.8246  0.4087  0.2189
 6467SOL    HW230861   0.756   0.447  14.906  0.1186  0.8662  0.9537
 6468SOL     OW30862   1.101   0.508   2.815 -0.1898  0.5333 -0.2209
 6468SOL    HW130863   1.064   0.443   2.755 -0.0834  0.4874 -0.2374
 6468SOL    HW230864   1.152   0.560   2.752 -0.0343 -1.1284 -1.4651
 6469SOL     OW30865   2.642   4.446   5.382  0.3858 -0.4300 -0.4930
 6469SOL    HW130866   2.551   4.464   5.357 -0.1884 -0.8010  1.3526
 6469SOL    HW230867   2.661   4.357   5.353  0.5536 -0.7607  0.6608
 6470SOL     OW30868   3.694   0.234   3.595 -0.3512  0.3044  0.5985
 6470SOL    HW130869   3.745   0.152   3.592 -1.4056 -0.3220  0.0229
 6470SOL    HW230870   3.645   0.228   3.514  1.6027 -0.3441 -0.5280
 6471SOL     OW30871   3.559   2.509   3.385 -0.6940 -0.0775 -0.5140
 6471SOL    HW130872   3.588   2.426   3.347 -0.6302 -1.4940  2.6233
 6471SOL    HW230873   3.466   2.494   3.366 -1.0822  1.1190  0.5230
 6472SOL     OW30874   4.148   0.836   1.631 -0.4448  0.1312  0.3564
 6472SOL    HW130875   4.221   0.895   1.649 -0.5055  0.8520 -1.6916
 6472SOL    HW230876   4.111   0.868   1.548 -0.1702 -2.3523 -0.7203
 6473SOL     OW30877   2.049   4.275   5.661  0.1096  0.6413  0.0558
 6473SOL    HW130878   2.076   4.192   5.700 -1.5314 -1.3216 -2.9866
 6473SOL    HW230879   2.117   4.331   5.698 -0.4895 -0.2411  2.5039
 6474SOL     OW30880   3.856   1.691   3.585  0.1436 -0.1426  0.3946
 6474SOL    HW130881   3.918   1.738   3.529  0.7572 -1.6996 -0.2035
 6474SOL    HW230882   3.791   1.661   3.522  2.0829 -2.2464 -0.5894
 6475SOL     OW30883   4.476   1.599   9.210 -0.0198  0.1365  0.5025
 6475SOL    HW130884   4.406   1.533   9.208 -0.6032  0.7296  1.2403
 6475SOL    HW230885   4.506   1.586   9.120 -2.6280  1.8577 -0.5947
 6476SOL     OW30886   2.114   4.046   7.682 -0.3795  0.0236  0.1832
 6476SOL    HW130887   2.171   3.976   7.651  2.1890  1.2816  2.0670
 6476SOL    HW230888   2.065   4.073   7.604  0.3479 -0.7020 -0.5234
 6477SOL     OW30889   1.887   1.749   9.850  0.2315  0.5026 -0.2062
 6477SOL    HW130890   1.866   1.806   9.924  0.5813  0.3702 -0.0021
 6477SOL    HW230891   1.963   1.798   9.821  2.4406 -1.1358  2.7734
 6478SOL     OW30892   2.563   4.463   6.240  0.8208  0.1496 -0.0152
 6478SOL    HW130893   2.643   4.510   6.218  1.2854 -1.1144 -1.0216
 6478SOL    HW230894   2.553   4.496   6.329  1.7610  0.3507  0.0155
 6479SOL     OW30895   0.016   0.487   4.496  0.6333  0.3133  0.2933
 6479SOL    HW130896   4.654   0.445   4.477 -0.0084  1.0018  1.5791
 6479SOL    HW230897   0.009   0.579   4.470  1.7561 -0.0110 -1.1163
 6480SOL     OW30898   1.037   1.535   7.933 -0.1449  0.1891 -0.3186
 6480SOL    HW130899   0.978   1.565   8.002  0.1204 -1.7510  0.7410
 6480SOL    HW230900   1.002   1.581   7.857  0.8230  2.1204  0.3783
 6481SOL     OW30901   2.201   2.052   4.470  0.3509 -0.0585  0.0224
 6481SOL    HW130902   2.269   2.010   4.523 -0.2590 -0.9892  0.0839
 6481SOL    HW230903   2.198   2.141   4.505 -0.7595  0.0019 -0.2335
 6482SOL     OW30904   1.598   2.585   6.795 -0.2745  0.4834  0.5883
 6482SOL    HW130905   1.633   2.523   6.732 -1.2754 -0.6696  1.1491
 6482SOL    HW230906   1.508   2.554   6.805 -1.2337  2.6244 -1.3734
 6483SOL     OW30907   4.650   3.762   4.989  0.7781  0.3096 -0.0924
 6483SOL    HW130908   4.558   3.752   5.013  1.5846 -2.7033  1.8805
 6483SOL    HW230909   4.672   3.672   4.963 -1.5492 -0.0743 -0.7403
 6484SOL     OW30910   2.780   0.761   5.718  0.4820  1.1192  0.4827
 6484SOL    HW130911   2.845   0.709   5.672  1.4414  1.5448  1.3562
 6484SOL    HW230912   2.705   0.704   5.738  0.7850 -0.6576 -3.4088
 6485SOL     OW30913   2.998   1.381   5.245  0.4842  0.3794 -0.5817
 6485SOL    HW130914   3.020   1.321   5.174 -0.1539  0.0059 -0.4613
 6485SOL    HW230915   2.915   1.347   5.280 -1.1638  4.3247 -0.6009
 6486SOL     OW30916   2.874   3.719   9.967 -0.3836  0.1866  0.2535
 6486SOL    HW130917   2.848   3.635   9.930  1.1625 -0.5769  0.9323
 6486SOL    HW230918   2.969   3.721   9.960 -0.4627  1.3102 -0.4397
 6487SOL     OW30919   0.322   0.285  10.244  0.0699  0.4713  0.1373
 6487SOL    HW130920   0.238   0.323  10.220 -0.2476 -0.3315 -0.0024
 6487SOL    HW230921   0.316   0.304  10.338 -1.9154 -0.2433  0.1582
 6488SOL     OW30922   0.127   3.253   7.540  0.1405  0.0331  0.1678
 6488SOL    HW130923   0.219   3.257   7.513 -0.7575 -0.7106 -3.0088
 6488SOL    HW230924   0.080   3.223   7.462 -1.0051  2.3074 -0.0197
 6489SOL     OW30925   1.287   0.866  13.216  0.0437  0.0135  0.3844
 6489SOL    HW130926   1.200   0.871  13.256 -0.3220  1.5552 -0.6054
 6489SOL    HW230927   1.276   0.782  13.173 -1.6452  0.6121 -0.3427
 6490SOL     OW30928   2.848   4.062   2.226  0.1642 -0.2194 -0.6316
 6490SOL    HW130929   2.897   3.986   2.259 -1.8761 -0.8069  1.0439
 6490SOL    HW230930   2.894   4.133   2.270  1.3854 -1.1080 -0.4536
 6491SOL     OW30931   1.019   2.426  15.224 -0.3347 -0.0279  0.3202
 6491SOL    HW130932   0.945   2.479  15.253 -0.9531 -1.2463  0.9590
 6491SOL    HW230933   0.990   2.411  15.134  0.3969 -0.5178  0.1649
 6492SOL     OW30934   1.804   4.461   6.784  0.1468  0.2134 -0.3830
 6492SOL    HW130935   1.851   4.542   6.804  0.0379 -0.5938  3.0456
 6492SOL    HW230936   1.883   4.408   6.781 -0.6081 -1.1201  3.4456
 6493SOL     OW30937   2.202   3.483   2.855  0.0459  0.3740  0.3094
 6493SOL    HW130938   2.221   3.481   2.761  1.4484  0.7776  0.5834
 6493SOL    HW230939   2.114   3.450   2.872  0.0656  0.7819  1.1881
 6494SOL     OW30940   1.774   1.652   7.594 -0.2189 -0.8471  0.3325
 6494SOL    HW130941   1.868   1.635   7.586 -0.1301  0.5560 -1.5695
 6494SOL    HW230942   1.767   1.747   7.582 -0.8980 -0.8820  0.4192
 6495SOL     OW30943   1.430   0.086   8.400 -0.4766  0.3866 -0.1489
 6495SOL    HW130944   1.466   0.002   8.428  1.6053  2.0926  2.3197
 6495SOL    HW230945   1.363   0.048   8.343 -0.2762 -0.8215  0.4175
 6496SOL     OW30946   0.813   0.543   8.403 -0.4009 -0.4416  0.0752
 6496SOL    HW130947   0.730   0.539   8.355 -0.4769 -1.2000  0.2734
 6496SOL    HW230948   0.842   0.452   8.406 -1.6526 -0.7966  1.3049
 6497SOL     OW30949   1.384   3.962  12.947  0.2546 -0.1509 -0.0262
 6497SOL    HW130950   1.296   3.961  12.985  0.5888 -0.6803  0.7190
 6497SOL    HW230951   1.366   4.004  12.862 -0.3066 -0.3349  0.0008
 6498SOL     OW30952   2.351   3.824   2.180  0.7589  0.2154  0.3854
 6498SOL    HW130953   2.434   3.822   2.132 -0.3146  1.1045 -1.5090
 6498SOL    HW230954   2.299   3.877   2.119  1.9958  0.5794 -0.3646
 6499SOL     OW30955   1.146   1.904   6.194  0.0954  0.2092  0.2194
 6499SOL    HW130956   1.091   1.911   6.116 -1.1349 -0.2184  1.0353
 6499SOL    HW230957   1.190   1.989   6.195  1.2493 -0.3981  1.2754
 6500SOL     OW30958   1.666   1.155   6.888  0.1000  0.6284 -0.4103
 6500SOL    HW130959   1.632   1.099   6.819 -0.8502  0.3280  0.3004
 6500SOL    HW230960   1.613   1.122   6.961 -0.9127  0.1871 -1.3642
 6501SOL     OW30961   4.517   0.889   7.994 -0.3960 -0.3370 -0.5607
 6501SOL    HW130962   4.577   0.940   8.048 -1.4775 -2.1233  2.2883
 6501SOL    HW230963   4.567   0.887   7.913 -0.5256 -1.9456 -0.5906
 6502SOL     OW30964   3.636   2.908   6.273 -0.3842 -0.1074  0.0818
 6502SOL    HW130965   3.654   2.908   6.178  3.7576 -1.7166  0.8606
 6502SOL    HW230966   3.675   2.824   6.298  3.5530  1.3203 -1.2283
 6503SOL     OW30967   1.374   2.205   6.457  0.2969 -0.4345 -0.4442
 6503SOL    HW130968   1.336   2.171   6.376 -0.8395 -1.1450  0.3983
 6503SOL    HW230969   1.358   2.139   6.524  2.3579  0.0981  0.5677
 6504SOL     OW30970   2.727   0.853   5.036 -0.3382  0.0114 -0.0953
 6504SOL    HW130971   2.746   0.874   4.944  1.4940 -1.2613 -0.0060
 6504SOL    HW230972   2.760   0.764   5.045 -1.6340 -0.7125 -2.5855
 6505SOL     OW30973   0.273   1.140   8.729  0.2547  0.7340 -0.1223
 6505SOL    HW130974   0.363   1.152   8.757  0.7924 -1.9613 -0.6876
 6505SOL    HW230975   0.224   1.218   8.756 -0.3852  1.3341 -3.0014
 6506SOL     OW30976   4.394   4.026  10.945  0.6714 -0.1501 -0.0525
 6506SOL    HW130977   4.459   3.970  10.988  2.8735  1.7354 -0.9002
 6506SOL    HW230978   4.433   4.037  10.858  0.0653  2.0252 -0.0379
 6507SOL     OW30979   1.383   4.073   8.598  0.4124 -0.3471 -0.1713
 6507SOL    HW130980   1.460   4.086   8.543  0.1324  1.6314 -0.0673
 6507SOL    HW230981   1.343   4.158   8.580  0.2599 -0.4630 -0.3748
 6508SOL     OW30982   4.200   3.725   7.225  0.2464  0.3063 -0.5286
 6508SOL    HW130983   4.199   3.664   7.150 -1.2993 -1.5692  1.0193
 6508SOL    HW230984   4.290   3.753   7.239  0.8403 -0.6600 -2.3123
 6509SOL     OW30985   4.419   1.790   6.399  0.1105 -0.0183  0.2052
 6509SOL    HW130986   4.497   1.737   6.417  0.2908  0.0375 -0.4259
 6509SOL    HW230987   4.339   1.740   6.410  0.0201 -0.1995 -1.3367
 6510SOL     OW30988   3.041   1.322   5.549  0.6558  0.4565 -0.6471
 6510SOL    HW130989   3.095   1.247   5.527 -0.2074 -0.1339 -0.7511
 6510SOL    HW230990   3.097   1.400   5.547  0.0769  0.9052  0.4205
 6511SOL     OW30991   2.995   3.876   3.979  0.0536  0.8883 -0.6080
 6511SOL    HW130992   2.974   3.875   4.072  0.1350 -0.5652 -0.6043
 6511SOL    HW230993   2.992   3.967   3.950  1.6980  1.5003  1.1159
 6512SOL     OW30994   2.244   3.376   5.685 -0.4263  0.4574 -0.3332
 6512SOL    HW130995   2.288   3.291   5.689 -0.6435  0.3000 -1.2217
 6512SOL    HW230996   2.154   3.344   5.678 -0.0466 -0.6517 -0.0071
 6513SOL     OW30997   3.060   1.943   9.079 -0.4402  0.1963  0.2514
 6513SOL    HW130998   3.037   2.011   9.016 -2.8774 -2.1406 -1.3705
 6513SOL    HW230999   3.032   1.979   9.163  0.5699  0.1197  0.6288
 6514SOL     OW31000   1.720   3.006   0.633 -0.3839 -0.4646  0.1318
 6514SOL    HW131001   1.736   3.068   0.563  2.8052 -0.7334  0.5742
 6514SOL    HW231002   1.655   3.051   0.687  0.2313  2.5136 -1.6175
 6515SOL     OW31003   0.522   0.926  12.131 -0.1767  0.0656 -0.0919
 6515SOL    HW131004   0.452   0.900  12.072  0.2619  1.7408 -1.3399
 6515SOL    HW231005   0.525   1.021  12.136  0.5754 -0.0286  1.2159
 6516SOL     OW31006   3.905   1.185  14.045  0.4884  0.0781  0.2681
 6516SOL    HW131007   3.921   1.095  14.073  0.7291 -0.1889 -0.7465
 6516SOL    HW231008   3.810   1.187  14.051  0.5551 -0.1495  1.4364
 6517SOL     OW31009   2.793   2.713   1.932 -0.0565  0.5008 -0.4437
 6517SOL    HW131010   2.867   2.721   1.992 -1.2914  1.1823  0.9715
 6517SOL    HW231011   2.772   2.799   1.896  1.0729  1.0211  0.1543
 6518SOL     OW31012   0.026   4.585  13.643  0.0929  0.3392 -0.1723
 6518SOL    HW131013   4.657   4.557  13.655  0.1856 -0.4394 -1.3351
 6518SOL    HW231014   0.028   4.653  13.710 -0.6288 -0.9322  1.1540
 6519SOL     OW31015   3.182   3.333   2.300 -0.7110  0.0493  0.0885
 6519SOL    HW131016   3.251   3.378   2.349 -1.8406 -1.5411  3.1595
 6519SOL    HW231017   3.194   3.371   2.213 -1.3377 -0.1226 -0.0693
 6520SOL     OW31018   0.990   3.670  10.453  0.3001 -0.1601  0.0510
 6520SOL    HW131019   0.931   3.631  10.389 -0.3199  0.4895  0.2251
 6520SOL    HW231020   1.036   3.725  10.389 -1.2550 -0.3421 -1.2078
 6521SOL     OW31021   4.468   4.497   7.060 -0.0146  0.5273 -0.2100
 6521SOL    HW131022   4.400   4.484   6.994 -1.0227  1.4657  0.6333
 6521SOL    HW231023   4.430   4.445   7.132  0.3082  1.1124  0.3824
 6522SOL     OW31024   4.147   4.306  14.822 -0.0020  0.1576  0.9937
 6522SOL    HW131025   4.170   4.302  14.915 -0.4843  0.9576  1.1504
 6522SOL    HW231026   4.056   4.277  14.815 -0.1015  0.6734  0.2229
 6523SOL     OW31027   0.173   0.364  15.868  0.2478  0.5214 -0.2846
 6523SOL    HW131028   0.222   0.314  15.803  0.5792 -0.9378  1.0798
 6523SOL    HW231029   0.163   0.298  15.937  1.3951  0.2960 -0.3279
 6524SOL     OW31030   3.816   0.863   1.855  0.2051  0.3295  0.1777
 6524SOL    HW131031   3.778   0.791   1.804  0.7467  0.8758 -1.0089
 6524SOL    HW231032   3.768   0.858   1.938  1.1862 -0.1891  0.7124
 6525SOL     OW31033   3.246   3.868   3.547  0.2272  0.2694  0.5560
 6525SOL    HW131034   3.195   3.812   3.605 -0.4138  0.6248  0.3344
 6525SOL    HW231035   3.330   3.823   3.547  0.2005  0.2128 -1.5543
 6526SOL     OW31036   0.780   4.253   5.597 -0.3919 -0.1191  0.4505
 6526SOL    HW131037   0.797   4.310   5.672  1.5703  0.0254 -0.1247
 6526SOL    HW231038   0.685   4.267   5.605 -0.2567  0.2192  1.5781
 6527SOL     OW31039   1.708   3.228   1.591  0.0551 -0.2924  0.2455
 6527SOL    HW131040   1.651   3.298   1.622  0.7115 -0.3450  1.5808
 6527SOL    HW231041   1.796   3.260   1.609 -0.8112  1.2194  1.7885
 6528SOL     OW31042   0.181   1.781  16.703  0.1233 -0.3724 -0.3065
 6528SOL    HW131043   0.251   1.847  16.700  0.6600 -0.9950 -1.1806
 6528SOL    HW231044   0.166   1.773  16.797  1.3299 -0.9378 -0.1655
 6529SOL     OW31045   4.610   0.398   1.453  0.1238  0.2732 -0.1484
 6529SOL    HW131046   4.704   0.385   1.467  0.6016  2.8473 -1.0089
 6529SOL    HW231047   4.594   0.353   1.369 -1.3125  0.1872  0.1709
 6530SOL     OW31048   2.909   2.508   7.454 -0.1258 -0.0811 -0.0303
 6530SOL    HW131049   2.905   2.575   7.522 -0.4563 -0.7336  0.5951
 6530SOL    HW231050   2.962   2.444   7.502 -1.8441 -1.8179 -0.4665
 6531SOL     OW31051   0.721   3.973  16.217  0.5624 -0.2030 -0.0293
 6531SOL    HW131052   0.767   4.037  16.162 -0.8328 -0.2808 -1.2763
 6531SOL    HW231053   0.728   3.895  16.162  1.3108 -1.9758  2.6021
 6532SOL     OW31054   2.551   3.771   7.334  0.1074 -0.1122  0.3350
 6532SOL    HW131055   2.518   3.831   7.401 -1.3259  0.0724 -0.5438
 6532SOL    HW231056   2.574   3.691   7.380 -1.5031 -1.4838 -1.2468
 6533SOL     OW31057   1.872   1.486   8.152 -0.0291 -0.3999  0.1736
 6533SOL    HW131058   1.813   1.560   8.139  1.0089 -0.0709 -2.6614
 6533SOL    HW231059   1.825   1.419   8.102 -3.0814  1.1627  0.9039
 6534SOL     OW31060   3.243   0.493   7.555 -0.0738  0.2122  0.1832
 6534SOL    HW131061   3.165   0.548   7.565  0.1037  0.4502  0.2300
 6534SOL    HW231062   3.235   0.438   7.634  0.5394  1.9307  1.4348
 6535SOL     OW31063   1.451   1.887   2.232  0.1396 -0.2961 -0.4141
 6535SOL    HW131064   1.448   1.835   2.152 -1.9367 -0.8150 -0.0120
 6535SOL    HW231065   1.360   1.870   2.256 -0.1216  0.6419 -0.7541
 6536SOL     OW31066   0.026   0.203   3.586 -0.6016 -0.0980 -0.3096
 6536SOL    HW131067   0.067   0.130   3.632 -0.5214  0.1359 -0.0094
 6536SOL    HW231068   4.685   0.154   3.534 -1.0626 -1.3273  1.3929
 6537SOL     OW31069   2.350   1.102   8.152 -0.5774 -0.2445  0.3804
 6537SOL    HW131070   2.318   1.075   8.238 -0.5842  1.5204  0.9457
 6537SOL    HW231071   2.264   1.121   8.114  0.3991 -0.6142 -2.0124
 6538SOL     OW31072   1.101   0.974   4.144  0.0093  0.4450 -0.1197
 6538SOL    HW131073   1.091   1.052   4.198 -2.1251 -0.2402  0.4644
 6538SOL    HW231074   1.195   0.961   4.149 -0.2100 -2.5060 -3.7486
 6539SOL     OW31075   1.393   2.932  17.094 -0.1140  0.1227  0.1112
 6539SOL    HW131076   1.344   2.937  17.176  0.0518  1.7371  0.1149
 6539SOL    HW231077   1.374   2.842  17.069 -1.3946  0.7513 -1.1814
 6540SOL     OW31078   4.398   0.660   6.548  0.3643 -0.1701 -0.6274
 6540SOL    HW131079   4.402   0.601   6.623 -2.1632  1.1871  0.5810
 6540SOL    HW231080   4.305   0.650   6.531 -0.0016  1.5602  0.3410
 6541SOL     OW31081   4.526   4.203   6.196  0.0801  0.2432 -0.1894
 6541SOL    HW131082   4.440   4.235   6.168 -0.1435 -0.1171  0.0787
 6541SOL    HW231083   4.571   4.286   6.188  1.9180 -0.8682 -1.3411
 6542SOL     OW31084   2.998   1.987  14.916 -0.2329  0.1858  0.3694
 6542SOL    HW131085   2.963   1.922  14.855 -0.4126 -0.1343  0.8157
 6542SOL    HW231086   3.073   2.014  14.863 -1.3718  0.7629 -0.9389
 6543SOL     OW31087   2.874   2.606   7.180 -0.3483  0.0887  0.2788
 6543SOL    HW131088   2.864   2.581   7.272 -1.5565  0.5988  0.2828
 6543SOL    HW231089   2.927   2.682   7.201  0.9446 -0.8249  0.3347
 6544SOL     OW31090   1.909   3.735  13.306 -0.4097 -0.1676  0.1117
 6544SOL    HW131091   1.953   3.778  13.233 -0.5723  1.0264  0.7189
 6544SOL    HW231092   1.831   3.714  13.254  0.6963  1.0232 -2.0289
 6545SOL     OW31093   4.657   4.191   2.830  0.5166  0.0361 -0.0706
 6545SOL    HW131094   4.722   4.251   2.793 -0.9954 -0.3194 -3.3008
 6545SOL    HW231095   4.719   4.132   2.873  0.5026 -0.3533 -0.5887
 6546SOL     OW31096   0.992   1.133   8.985 -0.6275 -0.0322  0.1135
 6546SOL    HW131097   1.060   1.071   9.011 -0.8111 -0.9023 -1.4655
 6546SOL    HW231098   0.925   1.127   9.053  0.4127  1.7210  1.3031
 6547SOL     OW31099   4.319   1.605   1.542 -0.0138 -0.3769  0.2180
 6547SOL    HW131100   4.400   1.620   1.493 -0.7360  1.4992 -0.3971
 6547SOL    HW231101   4.277   1.680   1.501 -1.1352  0.2511  2.5324
 6548SOL     OW31102   3.058   4.418   3.521  0.6846  0.4602  0.4072
 6548SOL    HW131103   3.124   4.363   3.477  0.6200  0.0286  0.8507
 6548SOL    HW231104   2.991   4.354   3.547 -0.0205 -0.7109 -4.2098
 6549SOL     OW31105   0.423   2.954  15.059  0.0101  0.0155 -0.2868
 6549SOL    HW131106   0.349   2.903  15.028 -0.0615 -0.2493  0.3284
 6549SOL    HW231107   0.455   2.907  15.136 -0.1812 -0.9709 -0.8111
 6550SOL     OW31108   3.506   1.214   5.830 -0.1204 -0.4807 -0.4233
 6550SOL    HW131109   3.565   1.165   5.886 -1.1937 -0.6859  0.5408
 6550SOL    HW231110   3.535   1.198   5.740 -0.2531  0.2619 -0.5983
 6551SOL     OW31111   1.563   1.801  10.057  0.0104  0.3143  0.1571
 6551SOL    HW131112   1.523   1.753   9.985  0.2947  2.0071 -1.1361
 6551SOL    HW231113   1.494   1.865  10.074  0.4514  0.8746 -0.1902
 6552SOL     OW31114   0.767   2.012   6.786 -0.8102  0.7902  0.5726
 6552SOL    HW131115   0.852   2.035   6.749  0.4594 -0.0060  2.9496
 6552SOL    HW231116   0.737   2.093   6.827 -1.2514  0.6414  0.5417
 6553SOL     OW31117   1.173   2.463   2.708  0.4730  0.2133 -0.0263
 6553SOL    HW131118   1.086   2.496   2.688  0.0414  0.0023  1.5318
 6553SOL    HW231119   1.150   2.374   2.681  0.3874  1.1226 -2.9397
 6554SOL     OW31120   1.733   2.067   8.897 -0.1285 -0.0602 -0.0821
 6554SOL    HW131121   1.742   2.162   8.907 -1.9809 -0.1044  1.9611
 6554SOL    HW231122   1.789   2.036   8.968  0.4665  1.5149  0.1490
 6555SOL     OW31123   3.796   0.350   7.239  0.2321 -0.2140 -0.1723
 6555SOL    HW131124   3.830   0.267   7.273  0.5766 -1.2110 -2.9405
 6555SOL    HW231125   3.878   0.381   7.202 -0.0266  0.3159 -0.2990
 6556SOL     OW31126   3.367   1.391   7.430  0.3320  0.7943  0.6228
 6556SOL    HW131127   3.401   1.470   7.387 -1.1296  1.2757  0.3508
 6556SOL    HW231128   3.450   1.366   7.470 -0.8692 -1.6494  1.6344
 6557SOL     OW31129   4.434   2.373  16.008 -0.3812 -0.6603  0.2239
 6557SOL    HW131130   4.441   2.353  16.102  0.8357 -1.9249 -0.1335
 6557SOL    HW231131   4.482   2.299  15.972 -0.9644 -0.9138 -0.0247
 6558SOL     OW31132   1.626   3.186  10.978 -0.3658  0.4767  0.2597
 6558SOL    HW131133   1.590   3.117  10.922  1.1632 -0.8803  0.9545
 6558SOL    HW231134   1.589   3.162  11.063 -1.3173  2.1503  0.3313
 6559SOL     OW31135   1.165   2.891   4.620  0.4401 -0.8597  0.3186
 6559SOL    HW131136   1.158   2.969   4.675 -2.3721 -0.5324 -0.4760
 6559SOL    HW231137   1.251   2.897   4.579 -0.2793 -2.5894 -1.4753
 6560SOL     OW31138   1.208   2.452   6.160  0.2420  0.0312  0.1354
 6560SOL    HW131139   1.196   2.510   6.235 -0.7515 -0.0054  0.0047
 6560SOL    HW231140   1.251   2.510   6.097 -3.9273  0.6596 -2.1589
 6561SOL     OW31141   0.691   2.326   5.642  0.4898 -0.4516  0.2820
 6561SOL    HW131142   0.675   2.233   5.654 -3.4802 -0.0862 -2.3637
 6561SOL    HW231143   0.620   2.370   5.689  0.4051 -0.5113  0.2091
 6562SOL     OW31144   0.987   4.414   6.607 -0.7367  0.3333  0.4290
 6562SOL    HW131145   0.902   4.370   6.601 -0.4318 -0.5142  2.3221
 6562SOL    HW231146   1.003   4.442   6.517  1.2175  2.5178  1.4608
 6563SOL     OW31147   4.247   1.792   9.054  0.0832 -0.1885 -0.1064
 6563SOL    HW131148   4.317   1.728   9.042 -1.5148 -1.6550 -1.5744
 6563SOL    HW231149   4.228   1.787   9.148 -1.0344  0.9408 -0.2740
 6564SOL     OW31150   3.918   1.491   8.047  0.1643 -0.5560 -0.4170
 6564SOL    HW131151   3.888   1.446   8.126  1.2414 -1.0081 -0.2662
 6564SOL    HW231152   3.834   1.521   8.011  1.4736  2.3749 -1.0019
 6565SOL     OW31153   2.695   4.653   0.223  0.2370  0.6386  0.3804
 6565SOL    HW131154   2.722   0.020   0.244 -0.7145  1.0174 -0.0045
 6565SOL    HW231155   2.723   4.652   0.132 -2.4570 -2.7030 -0.4034
 6566SOL     OW31156   4.005   1.458   1.330 -0.6182  0.3300  0.1484
 6566SOL    HW131157   4.011   1.399   1.406  3.6975 -0.2369 -0.6694
 6566SOL    HW231158   4.008   1.404   1.251 -0.9243 -0.4021  0.6369
 6567SOL     OW31159   1.557   3.426   7.630 -0.0980  0.2362 -0.3330
 6567SOL    HW131160   1.499   3.424   7.553 -0.1681  1.4715 -0.2976
 6567SOL    HW231161   1.516   3.354   7.680  1.2312 -1.2976 -1.4632
 6568SOL     OW31162   4.404   3.890   4.432 -0.7862  0.8021  0.1642
 6568SOL    HW131163   4.440   3.829   4.497  1.9318  2.1316 -0.1107
 6568SOL    HW231164   4.481   3.946   4.422 -0.0545 -0.1238  0.5884
 6569SOL     OW31165   2.537   3.375   5.419 -0.6891 -0.5803 -0.2186
 6569SOL    HW131166   2.542   3.380   5.324 -4.7550  0.8767 -0.3593
 6569SOL    HW231167   2.467   3.436   5.443  1.9574  0.9676  3.4891
 6570SOL     OW31168   0.378   3.266   0.338 -0.0417  0.4275 -0.0372
 6570SOL    HW131169   0.433   3.189   0.325 -0.2267  0.2313  0.3395
 6570SOL    HW231170   0.432   3.337   0.304  1.9237 -1.2918 -0.5378
 6571SOL     OW31171   2.261   0.956   2.096 -0.3498 -0.1952 -0.1777
 6571SOL    HW131172   2.252   0.869   2.136  0.5108 -0.8100 -1.3565
 6571SOL    HW231173   2.319   0.954   2.020  1.6938  0.5900  1.3524
 6572SOL     OW31174   2.104   3.552   6.061  0.3725  0.3756 -0.1478
 6572SOL    HW131175   2.197   3.564   6.042  0.2937  0.2789 -0.5840
 6572SOL    HW231176   2.098   3.549   6.156 -2.8726 -2.0338 -0.4506
 6573SOL     OW31177   1.115   1.049  10.451 -0.2095  0.4605 -0.6449
 6573SOL    HW131178   1.026   1.025  10.478  0.1901 -1.2601 -0.8452
 6573SOL    HW231179   1.161   1.025  10.531  0.3109 -0.3594 -1.1870
 6574SOL     OW31180   0.957   1.617   2.925 -0.2704 -0.4399 -0.0774
 6574SOL    HW131181   1.021   1.628   2.854 -0.8487  2.0881 -0.1887
 6574SOL    HW231182   0.933   1.524   2.921 -0.3472 -0.4333  0.2829
 6575SOL     OW31183   3.383   0.761   1.795 -0.2167 -0.2597  0.6255
 6575SOL    HW131184   3.321   0.795   1.859 -0.7816  1.1946 -0.7069
 6575SOL    HW231185   3.464   0.808   1.815  0.1645 -1.0168  0.8694
 6576SOL     OW31186   2.373   1.135  11.265 -0.0133 -0.4258  0.0792
 6576SOL    HW131187   2.280   1.149  11.250  0.1556  0.2810 -0.2979
 6576SOL    HW231188   2.402   1.223  11.289  1.5064 -1.2188  1.1917
 6577SOL     OW31189   4.246   3.517   8.388 -0.0948 -0.3452  0.0289
 6577SOL    HW131190   4.300   3.529   8.467 -0.5979  0.5371  0.2388
 6577SOL    HW231191   4.210   3.429   8.404  0.9913 -1.0384 -1.4315
 6578SOL     OW31192   1.318   4.372   5.140  0.0871  0.8716  0.0930
 6578SOL    HW131193   1.404   4.338   5.115 -0.3459  0.5613 -0.9935
 6578SOL    HW231194   1.274   4.287   5.144  0.2645  0.7178 -1.0744
 6579SOL     OW31195   0.303   1.813   6.681 -0.2341 -0.0047 -0.0901
 6579SOL    HW131196   0.295   1.789   6.588 -0.5921 -0.0549 -0.0463
 6579SOL    HW231197   0.335   1.902   6.669  1.7776 -1.0437 -2.5304
 6580SOL     OW31198   4.020   0.636  17.541  0.0654  0.6771  0.0988
 6580SOL    HW131199   4.019   0.727  17.570 -3.1789  0.7572 -0.2025
 6580SOL    HW231200   3.933   0.627  17.503  1.2162 -3.3039 -1.5537
 6581SOL     OW31201   3.042   2.014   2.599  0.1811 -0.2438 -0.1326
 6581SOL    HW131202   2.999   1.929   2.599  1.9640 -1.1479 -0.3029
 6581SOL    HW231203   3.067   2.028   2.691 -2.0946  1.8018  0.1938
 6582SOL     OW31204   2.643   0.972   2.697 -0.3233  0.1124  0.2229
 6582SOL    HW131205   2.562   0.935   2.661 -1.2381  0.8531  1.5122
 6582SOL    HW231206   2.696   0.895   2.716 -1.2624 -0.7123 -0.5049
 6583SOL     OW31207   3.324   0.125  13.972  0.0069 -0.5037 -0.1844
 6583SOL    HW131208   3.229   0.122  13.978  0.1684 -4.7094  0.3156
 6583SOL    HW231209   3.356   0.051  14.025  1.4715  3.0729  3.8997
 6584SOL     OW31210   4.663   0.250   5.256  0.6246  0.0885 -0.0540
 6584SOL    HW131211   4.583   0.250   5.204 -0.4205  1.8764  1.5052
 6584SOL    HW231212   4.680   0.157   5.266  0.7528  0.1814  0.6356
 6585SOL     OW31213   1.239   2.432   9.446  0.2844 -0.1246 -0.0736
 6585SOL    HW131214   1.207   2.514   9.484  0.7598 -0.2423  0.5951
 6585SOL    HW231215   1.309   2.466   9.391 -0.4833  2.1284  0.3546
 6586SOL     OW31216   1.968   2.105   8.510 -0.1964  0.2204  0.2126
 6586SOL    HW131217   2.042   2.094   8.570 -0.4180  1.0055  0.6291
 6586SOL    HW231218   1.969   2.029   8.453  1.2194 -0.6699  1.4099
 6587SOL     OW31219   4.342   2.746  10.864  0.3483 -0.4260 -0.0421
 6587SOL    HW131220   4.254   2.723  10.893  0.2134 -1.1334 -1.0032
 6587SOL    HW231221   4.393   2.753  10.945 -0.5404  3.1647  0.1962
 6588SOL     OW31222   2.761   3.952   2.881  0.1782  0.2954  0.2534
 6588SOL    HW131223   2.686   3.894   2.884 -0.7435  1.5548  1.6149
 6588SOL    HW231224   2.808   3.938   2.963 -0.2181 -1.7888  0.1153
 6589SOL     OW31225   1.819   3.441   2.626 -0.4427 -0.6648 -0.0800
 6589SOL    HW131226   1.893   3.500   2.617 -1.3022  0.4156 -0.1494
 6589SOL    HW231227   1.752   3.503   2.657  0.9933  1.4183 -1.1587
 6590SOL     OW31228   1.689   3.194   0.436 -0.0736  0.2198 -0.4644
 6590SOL    HW131229   1.697   3.218   0.343 -0.3596  0.6790 -0.3739
 6590SOL    HW231230   1.697   3.275   0.486 -2.0257 -0.3968  0.8340
 6591SOL     OW31231   1.260   1.605   4.603 -0.4726 -0.0062 -0.7646
 6591SOL    HW131232   1.300   1.526   4.641  0.7182  0.5467 -0.8655
 6591SOL    HW231233   1.296   1.672   4.662 -0.1371 -1.7464  1.0236
 6592SOL     OW31234   0.435   3.208   1.722 -0.0321  0.4152  0.7757
 6592SOL    HW131235   0.395   3.132   1.765 -2.8860  1.1570 -0.5739
 6592SOL    HW231236   0.492   3.234   1.793  1.0309  0.2074  0.0061
 6593SOL     OW31237   2.361   4.426  12.249 -0.3554  0.0636  0.0554
 6593SOL    HW131238   2.412   4.502  12.220  0.0238 -1.3817 -3.0532
 6593SOL    HW231239   2.386   4.355  12.190 -0.0070 -0.4387  0.8105
 6594SOL     OW31240   4.253   1.814  13.762  0.0917 -0.4294 -0.0417
 6594SOL    HW131241   4.243   1.780  13.851 -0.9416 -1.8074 -0.6853
 6594SOL    HW231242   4.168   1.855  13.753 -1.0466 -2.5652  1.0809
 6595SOL     OW31243   0.172   1.244   2.128  0.5919 -0.3256 -0.1008
 6595SOL    HW131244   0.077   1.243   2.122  0.4424 -0.4095  2.6185
 6595SOL    HW231245   0.192   1.292   2.208  0.1635  3.1400 -2.0879
 6596SOL     OW31246   2.513   3.880   4.952  0.2116  0.6895 -0.0572
 6596SOL    HW131247   2.587   3.931   4.984 -1.0128  3.2702 -1.2925
 6596SOL    HW231248   2.445   3.888   5.019 -0.1128 -0.4002 -0.2599
 6597SOL     OW31249   4.585   0.707   5.920  0.4232  0.5836 -0.0077
 6597SOL    HW131250   4.572   0.753   6.003 -0.3237  1.3993 -0.5756
 6597SOL    HW231251   4.503   0.658   5.926  0.6233  0.4490  1.6684
 6598SOL     OW31252   1.685   1.549   9.387  0.2870  0.3446  0.3859
 6598SOL    HW131253   1.703   1.612   9.456 -0.7089  1.6318 -0.5278
 6598SOL    HW231254   1.754   1.482   9.393 -2.8231 -2.7235  2.3618
 6599SOL     OW31255   3.291   1.712   6.229 -0.2298 -0.2352  0.2641
 6599SOL    HW131256   3.234   1.638   6.250 -0.2918 -0.2222  0.1359
 6599SOL    HW231257   3.376   1.686   6.194 -0.4346 -0.6352  0.0610
 6600SOL     OW31258   2.167   2.486  11.158  0.0517 -0.4201 -0.1015
 6600SOL    HW131259   2.210   2.572  11.159 -0.2377 -0.2720 -0.8066
 6600SOL    HW231260   2.217   2.442  11.090 -0.3971  0.1106 -0.7783
 6601SOL     OW31261   0.500   2.153   5.738  0.5850 -0.1664  0.0755
 6601SOL    HW131262   0.443   2.185   5.808 -0.3491 -0.5912 -0.4870
 6601SOL    HW231263   0.427   2.132   5.680 -0.4068  1.7177  0.6340
 6602SOL     OW31264   2.478   3.176   5.980 -0.3008  0.6369 -0.3382
 6602SOL    HW131265   2.415   3.197   5.910 -2.3127  0.7523  1.5035
 6602SOL    HW231266   2.437   3.094   6.009 -0.0853  1.1100  1.2850
 6603SOL     OW31267   1.745   3.043   3.613 -0.1063  0.7764  0.4900
 6603SOL    HW131268   1.795   3.020   3.534  1.4400  2.6769  0.9312
 6603SOL    HW231269   1.763   2.967   3.669 -0.7360 -0.2882 -0.7441
 6604SOL     OW31270   0.087   3.514  14.427  0.1465 -0.3187 -0.1152
 6604SOL    HW131271   0.124   3.495  14.514  2.3849 -0.9584 -1.2090
 6604SOL    HW231272   0.081   3.428  14.386 -0.2076 -0.2466 -0.2072
 6605SOL     OW31273   2.718   1.821   6.719 -0.4071 -0.3823  0.2171
 6605SOL    HW131274   2.794   1.822   6.661 -0.1848 -0.9975  0.5013
 6605SOL    HW231275   2.708   1.915   6.734 -2.1102 -0.4904 -0.1421
 6606SOL     OW31276   1.673   4.463  12.813  0.2958 -0.1974 -0.6816
 6606SOL    HW131277   1.592   4.412  12.803 -0.7611  2.0228 -3.2195
 6606SOL    HW231278   1.672   4.512  12.731 -0.5666  1.2219  0.1887
 6607SOL     OW31279   0.073   0.668  15.988  0.4746 -0.2438  0.1413
 6607SOL    HW131280   0.109   0.699  15.905 -2.2302  0.0427 -0.9350
 6607SOL    HW231281   0.112   0.730  16.049 -3.0294  1.4547  0.6644
 6608SOL     OW31282   4.415   0.828   3.573 -0.2280  0.2329 -0.1820
 6608SOL    HW131283   4.467   0.754   3.605 -0.6293  0.3228  0.6843
 6608SOL    HW231284   4.357   0.781   3.514  0.7471 -1.3565  0.1469
 6609SOL     OW31285   1.466   1.124   7.110  0.5454  0.0192  0.6191
 6609SOL    HW131286   1.438   1.216   7.110 -3.2028 -1.1521  0.1464
 6609SOL    HW231287   1.506   1.108   7.196  2.7897  1.2226 -0.1821
 6610SOL     OW31288   4.548   3.490  12.356 -0.6981 -0.3132  0.5577
 6610SOL    HW131289   4.485   3.518  12.423 -0.1113  2.4566 -0.0437
 6610SOL    HW231290   4.608   3.564  12.356 -3.1542  1.6927  1.6142
 6611SOL     OW31291   3.992   2.449   0.718  0.1889  0.0599 -0.1099
 6611SOL    HW131292   4.078   2.465   0.756 -0.4085  1.7813  0.5643
 6611SOL    HW231293   3.987   2.529   0.665  0.8592 -0.6527 -1.2309
 6612SOL     OW31294   2.088   2.349   8.814 -0.0348 -0.5833  0.3649
 6612SOL    HW131295   2.098   2.303   8.897  0.3570 -2.7294 -0.8676
 6612SOL    HW231296   2.181   2.356   8.792 -0.1042 -1.6054 -0.2659
 6613SOL     OW31297   4.521   3.372  12.927  0.2727 -0.2065 -0.3895
 6613SOL    HW131298   4.612   3.394  12.944 -1.0066  3.5948  1.4315
 6613SOL    HW231299   4.534   3.341  12.837 -4.6276 -1.2899 -0.7771
 6614SOL     OW31300   1.337   0.931   5.460 -0.0331 -0.5869 -0.1143
 6614SOL    HW131301   1.274   0.972   5.519  0.4810  1.2037 -0.8021
 6614SOL    HW231302   1.397   1.003   5.439  2.1046 -2.4120 -0.1689
 6615SOL     OW31303   0.133   2.499   7.867  0.1158 -0.2440 -0.1382
 6615SOL    HW131304   0.047   2.468   7.895  0.6348 -1.0081  0.5987
 6615SOL    HW231305   0.178   2.416   7.855  1.3035  0.3749 -0.0531
 6616SOL     OW31306   2.423   3.759   8.980 -0.6516 -0.2568 -0.7812
 6616SOL    HW131307   2.411   3.756   8.885  2.0260  0.0875 -1.1102
 6616SOL    HW231308   2.344   3.811   8.995 -0.4886  0.0278 -0.9230
 6617SOL     OW31309   0.737   1.840  11.582  0.4801  0.2082 -0.3046
 6617SOL    HW131310   0.667   1.905  11.580  0.4992  0.2597  0.9452
 6617SOL    HW231311   0.728   1.818  11.489  1.3827 -2.4241  0.2548
 6618SOL     OW31312   2.624   1.618   4.736 -0.1157  0.4613  0.4179
 6618SOL    HW131313   2.611   1.678   4.809  2.4141  1.4164  0.0997
 6618SOL    HW231314   2.682   1.674   4.684 -0.0264 -1.9256 -2.0868
 6619SOL     OW31315   4.221   2.755  13.187 -0.5115 -0.2706 -0.2349
 6619SOL    HW131316   4.280   2.749  13.112 -1.1329 -2.4149 -0.5368
 6619SOL    HW231317   4.213   2.850  13.199  0.5216 -0.1581 -0.4505
 6620SOL     OW31318   3.068   2.980   8.014 -0.2454  0.0696 -0.2442
 6620SOL    HW131319   3.060   3.051   7.951  0.8926  0.2354 -0.2013
 6620SOL    HW231320   3.122   2.918   7.966 -1.0083 -0.5187 -0.3390
 6621SOL     OW31321   0.290   0.707  17.543 -0.0055  0.5040 -0.5092
 6621SOL    HW131322   0.334   0.749  17.617 -0.4312 -0.5419  0.3307
 6621SOL    HW231323   0.328   0.620  17.543 -1.0786  0.0372 -1.7329
 6622SOL     OW31324   1.446   4.192   4.609 -0.2912 -0.0535  0.2673
 6622SOL    HW131325   1.490   4.145   4.538 -1.8598  0.9987 -1.3971
 6622SOL    HW231326   1.358   4.159   4.595 -0.0055 -0.6597 -0.1325
 6623SOL     OW31327   1.055   4.458   8.807 -0.2967 -0.2796 -0.0932
 6623SOL    HW131328   1.037   4.367   8.783 -0.7722  0.0454 -0.9514
 6623SOL    HW231329   1.095   4.449   8.894  3.1935 -1.5811 -1.8380
 6624SOL     OW31330   0.537   3.561   2.329 -0.0192  0.5910 -0.4218
 6624SOL    HW131331   0.507   3.473   2.350 -0.6949  0.0241 -3.8712
 6624SOL    HW231332   0.594   3.538   2.256  2.2048  1.2264  1.1020
 6625SOL     OW31333   2.597   4.587   6.865 -0.1231  0.5992 -0.5293
 6625SOL    HW131334   2.583   4.682   6.863  2.9774  1.0895  1.4275
 6625SOL    HW231335   2.639   4.567   6.949 -2.2928 -0.4017  0.3339
 6626SOL     OW31336   0.059   2.522   8.558 -0.1570  0.5083 -0.3676
 6626SOL    HW131337   0.062   2.587   8.489  1.8334 -0.5168 -1.2602
 6626SOL    HW231338   4.716   2.565   8.613 -0.9061  1.0956 -1.7437
 6627SOL     OW31339   3.252   3.477   9.006  0.6064 -0.2058  0.3761
 6627SOL    HW131340   3.276   3.569   8.995  1.0028 -0.1758  1.4567
 6627SOL    HW231341   3.341   3.444   9.002  0.1652 -1.1795 -1.2976
 6628SOL     OW31342   2.337   2.258   5.492  0.1689  0.0435 -0.0472
 6628SOL    HW131343   2.360   2.174   5.531 -0.5273 -0.9531 -1.7899
 6628SOL    HW231344   2.425   2.271   5.457  0.2669  2.2471  1.0415
 6629SOL     OW31345   1.589   1.356   9.104  0.2388  1.0562  0.4234
 6629SOL    HW131346   1.685   1.361   9.107  0.4763 -1.0726 -3.0320
 6629SOL    HW231347   1.577   1.288   9.037 -0.5550  2.6571 -1.0766
 6630SOL     OW31348   2.265   4.360   8.771 -0.3814 -0.1316 -0.3771
 6630SOL    HW131349   2.191   4.303   8.790  0.3268 -1.0385 -0.3459
 6630SOL    HW231350   2.261   4.422   8.844 -0.4574  0.2379 -0.6897
 6631SOL     OW31351   2.164   1.343   6.903 -0.1843  0.3390 -0.1541
 6631SOL    HW131352   2.226   1.412   6.927  0.5399 -0.1143 -0.7316
 6631SOL    HW231353   2.223   1.268   6.902  0.2079  0.6190  2.9188
 6632SOL     OW31354   3.826   1.783   5.499 -0.6703 -0.2244 -0.0899
 6632SOL    HW131355   3.872   1.701   5.480  0.6604  0.1570  1.5599
 6632SOL    HW231356   3.832   1.825   5.413  1.9916 -0.8649 -0.1954
 6633SOL     OW31357   0.493   2.428   7.014 -0.0536  0.3887 -0.0947
 6633SOL    HW131358   0.520   2.470   7.096  2.1971  0.9726 -1.1442
 6633SOL    HW231359   0.421   2.375   7.051 -1.3433  1.6679 -0.7706
 6634SOL     OW31360   4.522   0.107   9.057  0.2852 -0.3437 -0.0416
 6634SOL    HW131361   4.453   0.104   8.991  1.1156 -1.5978 -0.8440
 6634SOL    HW231362   4.499   0.044   9.125 -2.4484  1.2422  0.4786
 6635SOL     OW31363   2.833   2.411  10.548 -0.4893 -0.4008  0.5655
 6635SOL    HW131364   2.871   2.336  10.594 -0.8292 -1.5644 -1.0438
 6635SOL    HW231365   2.738   2.402  10.556 -0.4938  0.5503  1.5573
 6636SOL     OW31366   4.037   1.219   5.704 -0.3746  0.3906  0.3010
 6636SOL    HW131367   4.083   1.238   5.622 -0.2358 -0.0342  0.2810
 6636SOL    HW231368   3.971   1.288   5.715  0.1986  1.2860 -1.7486
 6637SOL     OW31369   2.847   0.739   4.517  0.1066  0.0363  0.0367
 6637SOL    HW131370   2.901   0.668   4.483  1.4705  1.0458  0.0825
 6637SOL    HW231371   2.758   0.705   4.515 -1.0255  3.0513 -0.4061
 6638SOL     OW31372   3.328   0.480   4.729 -0.1962 -0.1158  0.5870
 6638SOL    HW131373   3.340   0.393   4.691  0.7221  0.7536 -1.0934
 6638SOL    HW231374   3.239   0.502   4.702 -0.6878  0.8232  2.8849
 6639SOL     OW31375   1.607   2.239   8.414 -0.9008 -0.3202 -0.4595
 6639SOL    HW131376   1.674   2.172   8.407  0.2933  0.8587 -0.2684
 6639SOL    HW231377   1.650   2.324   8.412  1.0564 -1.3150 -0.4982
 6640SOL     OW31378   2.574   3.292  15.771 -0.0699 -0.2767  0.6529
 6640SOL    HW131379   2.656   3.286  15.819 -0.6543 -0.0772  1.6795
 6640SOL    HW231380   2.537   3.365  15.820 -1.7025  0.0309 -1.0169
 6641SOL     OW31381   1.650   2.250  13.276 -0.3702  0.2939  0.5433
 6641SOL    HW131382   1.692   2.193  13.340  0.1979  0.2282  0.1128
 6641SOL    HW231383   1.581   2.285  13.332  0.9691  3.7622  0.0632
 6642SOL     OW31384   1.066   4.418   6.974 -0.0625  0.0077  0.2083
 6642SOL    HW131385   1.029   4.455   7.054  0.6783  1.9271 -0.3355
 6642SOL    HW231386   1.146   4.386   7.015  0.6986  1.0649 -0.4440
 6643SOL     OW31387   4.237   0.148  12.948 -0.1365 -0.2486  0.1776
 6643SOL    HW131388   4.236   0.138  13.044 -1.1066 -2.0967 -0.0208
 6643SOL    HW231389   4.265   0.238  12.933  0.2663 -0.6927 -1.6561
 6644SOL     OW31390   0.865   1.745   0.829 -0.3776 -0.0307 -0.2911
 6644SOL    HW131391   0.770   1.757   0.819 -1.0470 -4.7310  0.3471
 6644SOL    HW231392   0.870   1.662   0.877  0.3689 -0.2120 -0.6978
 6645SOL     OW31393   0.526   1.810   4.494  0.4461 -0.6343  0.0298
 6645SOL    HW131394   0.462   1.862   4.445  2.0784  0.6059 -0.7826
 6645SOL    HW231395   0.468   1.734   4.493  0.4557 -0.6134 -1.4463
 6646SOL     OW31396   0.757   3.078   5.647 -0.4086 -0.0784 -0.5768
 6646SOL    HW131397   0.731   3.009   5.586  1.0641  0.4447 -1.7921
 6646SOL    HW231398   0.679   3.133   5.656 -1.3860 -1.9119  2.2185
 6647SOL     OW31399   0.213   4.653   9.214 -0.2345 -0.3600 -0.0752
 6647SOL    HW131400   0.236   4.709   9.140 -1.4122  1.6804  1.0957
 6647SOL    HW231401   0.127   4.684   9.243 -0.1105 -2.0412  2.1008
 6648SOL     OW31402   0.692   3.687   7.069 -0.4393  0.0523  0.6860
 6648SOL    HW131403   0.732   3.634   7.000 -1.0196  1.8493 -1.0105
 6648SOL    HW231404   0.732   3.644   7.145 -0.1382  0.2571  0.6449
 6649SOL     OW31405   1.999   3.900  16.216  0.1116  0.9762 -0.5721
 6649SOL    HW131406   2.059   3.851  16.273  0.1930 -0.3485 -1.7954
 6649SOL    HW231407   1.995   3.836  16.145 -0.1840  0.3104  0.0467
 6650SOL     OW31408   2.275   0.158   9.108 -0.4513 -0.1704  0.5133
 6650SOL    HW131409   2.270   0.076   9.157 -0.4454 -0.6588 -0.3147
 6650SOL    HW231410   2.245   0.212   9.182 -2.7473 -1.5948  0.6426
 6651SOL     OW31411   3.999   2.454   8.380 -0.5166 -0.6250  0.0336
 6651SOL    HW131412   4.008   2.530   8.438 -2.2074 -0.0593 -0.4408
 6651SOL    HW231413   3.982   2.482   8.290 -1.1399  0.2709  0.4270
 6652SOL     OW31414   4.205   1.661   6.973  0.0413  0.1255 -0.1744
 6652SOL    HW131415   4.158   1.678   7.055 -0.0809 -2.5921  0.3216
 6652SOL    HW231416   4.235   1.750   6.959  1.4820 -0.3183  0.1216
 6653SOL     OW31417   0.126   1.612  12.280  0.5426  0.1978  0.2021
 6653SOL    HW131418   0.198   1.556  12.308  1.9031  1.3360 -1.0379
 6653SOL    HW231419   0.162   1.686  12.232  1.2220  0.4494  1.0875
 6654SOL     OW31420   0.810   3.402   5.805 -0.8420  0.2002 -0.0773
 6654SOL    HW131421   0.857   3.483   5.821 -0.3124  0.1348 -1.2739
 6654SOL    HW231422   0.879   3.354   5.758 -0.9707 -0.9439  0.8828
 6655SOL     OW31423   4.697   2.590  13.769  0.1044 -0.3991  0.4565
 6655SOL    HW131424   4.681   2.532  13.694 -2.2302 -1.6726  1.9407
 6655SOL    HW231425   4.675   2.534  13.843  2.2496  0.2119  1.5524
 6656SOL     OW31426   3.165   2.937   0.498 -0.7364  0.4257 -0.9934
 6656SOL    HW131427   3.166   3.020   0.450  0.8206  0.7552 -0.4072
 6656SOL    HW231428   3.129   2.876   0.434 -0.2893  1.6853 -2.4437
 6657SOL     OW31429   0.043   3.401  15.917  0.2429  0.3905 -0.1478
 6657SOL    HW131430   0.060   3.325  15.973  2.0599  0.0326 -1.2126
 6657SOL    HW231431   4.699   3.360  15.861  0.4313 -2.1357  1.4574
 6658SOL     OW31432   1.072   0.762   7.523 -0.2733  0.3095 -0.0575
 6658SOL    HW131433   0.980   0.766   7.550 -0.7264 -3.1739 -1.0196
 6658SOL    HW231434   1.103   0.843   7.563  0.0096  0.7791 -1.2219
 6659SOL     OW31435   4.528   2.624   4.954  0.6842 -0.0208 -0.3477
 6659SOL    HW131436   4.554   2.560   5.020  1.5922 -1.1758 -1.8248
 6659SOL    HW231437   4.563   2.576   4.879  2.5582  1.0492 -0.1597
 6660SOL     OW31438   4.571   0.297   4.070  0.4004 -0.3460 -0.4685
 6660SOL    HW131439   4.633   0.341   4.012  0.1080 -1.0395 -1.3127
 6660SOL    HW231440   4.493   0.298   4.015 -1.1534  0.2693  1.7224
 6661SOL     OW31441   1.125   4.051   6.503  0.3435 -0.0072 -0.1330
 6661SOL    HW131442   1.110   4.048   6.408 -2.9196 -1.5628  0.4319
 6661SOL    HW231443   1.043   4.077   6.545  0.3857  1.1098 -0.7328
 6662SOL     OW31444   2.683   4.333  14.183 -0.7130 -0.0566  0.1909
 6662SOL    HW131445   2.680   4.290  14.269 -0.0151  0.6336  0.5591
 6662SOL    HW231446   2.685   4.256  14.126  0.1147 -0.5493  0.8771
 6663SOL     OW31447   3.677   3.786   8.795 -0.0237  0.2585 -0.3697
 6663SOL    HW131448   3.713   3.704   8.827  1.5940  1.4629  0.9432
 6663SOL    HW231449   3.596   3.804   8.842  1.2697 -0.4145  2.0937
 6664SOL     OW31450   1.928   1.366  12.522  0.0282 -0.1646  0.4206
 6664SOL    HW131451   1.918   1.384  12.429  1.8304  0.4825  0.3498
 6664SOL    HW231452   1.839   1.399  12.540 -0.1367 -1.3137  1.6657
 6665SOL     OW31453   2.217   3.510   7.312 -0.0588 -0.1286  0.5460
 6665SOL    HW131454   2.130   3.524   7.274 -0.4890 -0.0528  1.5799
 6665SOL    HW231455   2.244   3.428   7.271  2.4686  0.6031  0.7563
 6666SOL     OW31456   0.489   3.402  14.345  0.2580  0.4426 -0.3371
 6666SOL    HW131457   0.488   3.469  14.277 -2.6083  0.1764 -0.5306
 6666SOL    HW231458   0.502   3.326  14.288  0.4764  0.0671  0.2137
 6667SOL     OW31459   1.889   1.902   7.129 -0.0005  0.0297  0.2664
 6667SOL    HW131460   1.940   1.959   7.071 -1.0956  0.9602  0.2134
 6667SOL    HW231461   1.835   1.853   7.067 -0.0525  0.2028  0.1727
 6668SOL     OW31462   3.723   0.393   3.824 -1.0443  0.1166  0.6359
 6668SOL    HW131463   3.730   0.481   3.786  0.5350 -0.3544 -0.1764
 6668SOL    HW231464   3.713   0.353   3.738  0.2727  0.7543  0.1791
 6669SOL     OW31465   3.197   3.713  13.535  0.2704  0.0064  0.0940
 6669SOL    HW131466   3.107   3.711  13.502  0.0703 -0.7359  0.6839
 6669SOL    HW231467   3.248   3.697  13.456 -0.1366 -2.2446  0.2947
 6670SOL     OW31468   3.974   4.286   5.723  0.2843  0.3174 -0.1955
 6670SOL    HW131469   3.920   4.210   5.703  0.0256  0.7421 -1.1023
 6670SOL    HW231470   4.035   4.278   5.650  0.6944  0.2781  0.1496
 6671SOL     OW31471   1.355   3.033  12.046  0.4484  0.5788  0.3667
 6671SOL    HW131472   1.438   3.080  12.040  0.5242  0.0909 -2.1180
 6671SOL    HW231473   1.388   2.944  12.055 -0.6406 -0.1151 -2.5680
 6672SOL     OW31474   1.987   2.860   6.726 -0.5454 -0.2088  0.0142
 6672SOL    HW131475   1.897   2.860   6.693 -0.9465 -0.3939  1.0955
 6672SOL    HW231476   1.994   2.942   6.775 -1.1777 -0.1122 -0.0482
 6673SOL     OW31477   2.777   2.100   3.855 -0.3794  0.4185  0.2544
 6673SOL    HW131478   2.683   2.114   3.842 -0.8500 -1.0034  2.3239
 6673SOL    HW231479   2.808   2.138   3.772 -0.7939 -0.2948 -0.2299
 6674SOL     OW31480   3.783   3.812   4.130  0.2815 -0.4474 -0.1758
 6674SOL    HW131481   3.863   3.825   4.182 -0.2460 -2.7780  1.2111
 6674SOL    HW231482   3.795   3.724   4.095  0.8727 -0.4943  0.1309
 6675SOL     OW31483   0.749   3.189  16.815  0.0895  0.0033  0.1571
 6675SOL    HW131484   0.695   3.217  16.741 -0.3617  1.3095  0.9868
 6675SOL    HW231485   0.696   3.220  16.888  0.4350 -1.3380  0.9838
 6676SOL     OW31486   0.714   3.332   9.067  0.5391 -0.1173  0.3419
 6676SOL    HW131487   0.796   3.370   9.034 -0.0485  0.4559 -0.4600
 6676SOL    HW231488   0.693   3.287   8.984  1.9414  0.8968 -0.5638
 6677SOL     OW31489   4.124   1.328   6.519  0.3621  0.1377  0.1718
 6677SOL    HW131490   4.152   1.253   6.572 -1.4335 -0.8132 -0.2233
 6677SOL    HW231491   4.210   1.362   6.494  0.4295  0.6238  1.0762
 6678SOL     OW31492   1.836   4.498  17.338  0.6034  0.1278  0.1194
 6678SOL    HW131493   1.875   4.412  17.323 -0.7790 -0.6343  0.9051
 6678SOL    HW231494   1.914   4.547  17.310  0.0890  0.8287 -0.0892
 6679SOL     OW31495   4.518   2.386   5.932  0.0189 -0.0169 -0.5068
 6679SOL    HW131496   4.573   2.308   5.942  0.6316  0.2502 -1.7762
 6679SOL    HW231497   4.434   2.347   5.906 -0.1546 -0.8513  1.3141
 6680SOL     OW31498   4.648   0.478   5.420  0.1800  0.5467 -0.0526
 6680SOL    HW131499   4.646   0.394   5.374 -0.9732  1.2839 -1.3562
 6680SOL    HW231500   0.015   0.504   5.399  1.0666 -4.2948 -2.2938
 6681SOL     OW31501   3.896   4.002  11.128 -0.0814  0.1197 -0.3033
 6681SOL    HW131502   3.862   4.090  11.145 -0.5720 -0.3719  1.2020
 6681SOL    HW231503   3.980   4.012  11.083  0.6290 -1.6258  0.6562
 6682SOL     OW31504   0.366   0.864   2.512  0.6527 -0.3670  0.7085
 6682SOL    HW131505   0.287   0.887   2.561  0.3942  2.9665 -1.2622
 6682SOL    HW231506   0.402   0.797   2.571  2.1290  1.3008  1.6938
 6683SOL     OW31507   1.979   3.978   3.432  0.0472 -0.5746 -0.5469
 6683SOL    HW131508   1.960   3.931   3.513  1.1508 -0.6089 -0.3144
 6683SOL    HW231509   1.927   3.930   3.367 -2.5465 -0.5610  1.5255
 6684SOL     OW31510   1.175   1.198   6.319 -0.3849 -0.1545 -0.4109
 6684SOL    HW131511   1.090   1.158   6.300 -0.3067 -0.3679 -0.3102
 6684SOL    HW231512   1.169   1.265   6.251  0.7174  0.8276  0.4572
 6685SOL     OW31513   4.218   2.513   5.179 -0.2728  0.5832  0.3229
 6685SOL    HW131514   4.191   2.605   5.185 -0.0573  0.6732 -0.0975
 6685SOL    HW231515   4.311   2.524   5.199 -0.2453  3.6084 -1.3901
 6686SOL     OW31516   0.138   4.451   4.316  0.1721  0.0345 -0.5590
 6686SOL    HW131517   0.220   4.428   4.273  1.3695  1.5978  0.9109
 6686SOL    HW231518   0.090   4.496   4.247  0.4772 -0.3435 -1.0210
 6687SOL     OW31519   0.801   2.164   2.507  0.1967 -0.4570 -0.0324
 6687SOL    HW131520   0.738   2.234   2.521  0.6150 -0.4046  1.5875
 6687SOL    HW231521   0.744   2.088   2.523 -0.2169 -0.0118  0.5704
 6688SOL     OW31522   2.828   1.959   4.339 -0.5969 -0.0334  0.0702
 6688SOL    HW131523   2.780   2.015   4.401  1.0016 -0.9756  2.1470
 6688SOL    HW231524   2.907   1.929   4.383 -0.4981 -1.3839 -1.0241
 6689SOL     OW31525   1.858   3.521   6.642 -0.3365 -0.1479 -0.0248
 6689SOL    HW131526   1.933   3.466   6.665 -0.6905 -1.2239 -1.4273
 6689SOL    HW231527   1.893   3.607   6.664 -0.9869  0.1570 -0.2057
 6690SOL     OW31528   2.271   3.509  12.356  0.3700  0.1118 -0.0602
 6690SOL    HW131529   2.200   3.520  12.418 -1.3545 -2.4743 -1.5843
 6690SOL    HW231530   2.343   3.488  12.416 -1.8260 -1.9614  1.8396
 6691SOL     OW31531   4.222   3.118   5.186 -0.0059 -0.0579  0.1982
 6691SOL    HW131532   4.189   3.039   5.143  0.1669  0.0046 -0.0536
 6691SOL    HW231533   4.290   3.148   5.125 -2.9209  2.8765 -1.6648
 6692SOL     OW31534   2.511   3.049  11.286  0.2862 -0.7626  0.4618
 6692SOL    HW131535   2.461   3.040  11.367  0.7154 -1.6578  0.6272
 6692SOL    HW231536   2.547   2.962  11.273  0.6244 -0.2991 -1.7077
 6693SOL     OW31537   1.430   2.844   2.559  0.0958 -0.8618  0.2853
 6693SOL    HW131538   1.382   2.846   2.477  0.8548 -1.7059 -0.1755
 6693SOL    HW231539   1.396   2.924   2.600  0.3549 -0.9149  0.6129
 6694SOL     OW31540   2.124   4.534   7.543 -0.3185 -0.0304  0.4875
 6694SOL    HW131541   2.083   4.448   7.553  1.1677 -0.7669  0.1366
 6694SOL    HW231542   2.161   4.550   7.630  0.3081 -1.3773  0.4696
 6695SOL     OW31543   3.711   0.812  10.964 -0.4783 -0.4151 -0.4183
 6695SOL    HW131544   3.763   0.868  11.021  0.3753 -1.5693 -0.0574
 6695SOL    HW231545   3.773   0.806  10.891 -0.3727  0.6889 -0.4151
 6696SOL     OW31546   2.801   2.411   4.435 -0.7161  0.3756 -0.0404
 6696SOL    HW131547   2.884   2.380   4.399 -0.4534 -0.3139  1.1562
 6696SOL    HW231548   2.826   2.490   4.483  0.7351 -0.0721 -0.0765
 6697SOL     OW31549   2.796   2.320  11.936  0.4791 -0.1715  0.1811
 6697SOL    HW131550   2.772   2.300  11.845 -0.0216  2.4457 -0.2851
 6697SOL    HW231551   2.876   2.268  11.937  0.4217 -0.2769 -0.4971
 6698SOL     OW31552   2.765   1.947   3.184 -0.1874 -0.0391 -0.4706
 6698SOL    HW131553   2.682   1.926   3.227 -1.1564 -0.7688 -2.6800
 6698SOL    HW231554   2.759   1.873   3.124  3.0724  0.6812 -1.6894
 6699SOL     OW31555   0.497   1.378   4.136 -0.5223 -0.8287  0.7623
 6699SOL    HW131556   0.567   1.313   4.142  0.0533 -0.1361  1.6057
 6699SOL    HW231557   0.417   1.331   4.157 -1.7887  1.6109  1.3745
 6700SOL     OW31558   2.873   3.528   2.006  0.3041  0.5321 -0.7801
 6700SOL    HW131559   2.886   3.443   2.048 -0.2494  0.5849 -0.5056
 6700SOL    HW231560   2.914   3.511   1.921  0.3198 -3.8920  0.0968
 6701SOL     OW31561   2.215   3.728   7.698 -0.0950  0.0307 -0.4749
 6701SOL    HW131562   2.145   3.739   7.633 -2.2841 -0.4299  1.8258
 6701SOL    HW231563   2.167   3.717   7.779  0.8027 -2.3996 -0.2935
 6702SOL     OW31564   3.931   1.142   2.418  0.4727  0.9242 -0.0899
 6702SOL    HW131565   3.875   1.170   2.490  2.5647  1.1159  1.4538
 6702SOL    HW231566   3.922   1.047   2.413  0.2469  0.8091  2.3666
 6703SOL     OW31567   4.363   0.203   5.703  0.4970 -0.1960 -0.0160
 6703SOL    HW131568   4.431   0.140   5.723  1.5129  0.7177 -0.5861
 6703SOL    HW231569   4.367   0.255   5.783 -0.8876  4.0451 -2.6654
 6704SOL     OW31570   3.165   2.904   8.770  0.2134  0.3049 -0.1983
 6704SOL    HW131571   3.116   2.946   8.700 -1.2149  0.1683  0.6960
 6704SOL    HW231572   3.226   2.976   8.780 -0.6434  0.7233  2.0446
 6705SOL     OW31573   4.052   3.842  16.854 -0.2946  0.0058  0.3382
 6705SOL    HW131574   4.055   3.938  16.856 -1.0911  0.0531 -0.7397
 6705SOL    HW231575   3.969   3.821  16.897 -0.8648  1.7625  0.0900
 6706SOL     OW31576   3.685   3.409   8.135 -0.0247 -0.4367 -0.3230
 6706SOL    HW131577   3.668   3.413   8.040  0.2738 -3.5268 -0.5196
 6706SOL    HW231578   3.776   3.382   8.131 -0.7045 -2.4699 -2.7007
 6707SOL     OW31579   3.583   1.471  16.613  0.0553 -0.2742  0.5621
 6707SOL    HW131580   3.551   1.385  16.640  2.2353 -1.8768 -1.9744
 6707SOL    HW231581   3.621   1.499  16.697  1.5824  0.1528 -0.2736
 6708SOL     OW31582   3.555   0.855  15.701 -0.4846  0.0133 -0.6849
 6708SOL    HW131583   3.530   0.946  15.681 -1.5130 -0.0513  0.2956
 6708SOL    HW231584   3.479   0.808  15.668  0.8720 -2.8417  0.2423
 6709SOL     OW31585   1.744   2.151  15.018  0.0312 -0.3838  0.7398
 6709SOL    HW131586   1.676   2.132  15.082  0.2956  1.2498  1.5077
 6709SOL    HW231587   1.757   2.069  14.971  1.9597 -0.6223  1.6914
 6710SOL     OW31588   4.689   1.990   3.492  0.1661 -0.1662 -0.2372
 6710SOL    HW131589   0.015   2.053   3.438  0.6799 -1.7897 -1.6555
 6710SOL    HW231590   0.020   1.913   3.470  1.0489  0.4634 -0.3037
 6711SOL     OW31591   0.560   4.132   5.247  0.1886  0.0315  0.1230
 6711SOL    HW131592   0.637   4.188   5.241  0.3192  0.0524  2.0930
 6711SOL    HW231593   0.552   4.109   5.155  0.5691 -0.5902  0.2444
 6712SOL     OW31594   0.608   3.978  14.517 -0.2413  0.3449 -0.0005
 6712SOL    HW131595   0.613   4.070  14.543 -3.1303  0.3726  0.4535
 6712SOL    HW231596   0.625   3.927  14.597 -0.1047  1.6042  0.7734
 6713SOL     OW31597   1.510   3.460   8.568 -0.6373  0.2146 -0.4102
 6713SOL    HW131598   1.447   3.388   8.560 -0.7113  0.1881  0.3692
 6713SOL    HW231599   1.591   3.417   8.595  0.3212  2.1182 -0.3418
 6714SOL     OW31600   4.712   2.613   2.486  0.2131 -0.4438  0.9427
 6714SOL    HW131601   0.021   2.557   2.556 -0.1725  0.0506  1.5152
 6714SOL    HW231602   0.068   2.619   2.431 -0.8120 -0.3093 -0.4987
 6715SOL     OW31603   2.594   1.118   7.531 -0.0098 -0.3849  1.1348
 6715SOL    HW131604   2.515   1.135   7.582 -1.2763  1.1148 -1.3268
 6715SOL    HW231605   2.596   1.022   7.537  0.1400 -0.4361  0.2798
 6716SOL     OW31606   2.758   4.506   2.890 -0.6755  0.1665  0.3877
 6716SOL    HW131607   2.770   4.418   2.855  1.9853  1.1893 -1.3514
 6716SOL    HW231608   2.797   4.497   2.977 -1.3604  1.0771  0.7933
 6717SOL     OW31609   2.771   1.413   5.993  0.3089  0.3935  0.6774
 6717SOL    HW131610   2.804   1.375   5.912 -1.3796  0.5409 -0.0767
 6717SOL    HW231611   2.839   1.481   5.995  0.8628 -0.1308 -0.7405
 6718SOL     OW31612   2.168   1.128   4.017 -0.1121 -0.1635  0.0455
 6718SOL    HW131613   2.228   1.196   3.989 -1.5927  1.0927 -0.0643
 6718SOL    HW231614   2.097   1.128   3.953  0.5831  0.6650 -0.7305
 6719SOL     OW31615   4.381   2.200   3.981 -0.1630  0.0133 -0.3730
 6719SOL    HW131616   4.451   2.197   3.916 -0.3051  3.2722 -0.6797
 6719SOL    HW231617   4.429   2.179   4.062  0.0005  1.1078 -0.1842
 6720SOL     OW31618   0.332   2.061   5.558  0.0498  0.0318 -0.5460
 6720SOL    HW131619   0.248   2.096   5.529  0.3242  0.2328 -1.0925
 6720SOL    HW231620   0.338   1.985   5.501 -1.9465  1.5809 -2.7976
 6721SOL     OW31621   0.727   3.363   6.607 -0.1864 -0.3643 -0.1770
 6721SOL    HW131622   0.719   3.270   6.631 -0.0875  0.2528  2.2594
 6721SOL    HW231623   0.698   3.400   6.691 -1.8254 -0.2866 -0.7849
 6722SOL     OW31624   1.552   1.830  15.511 -0.2257 -0.3512  0.0338
 6722SOL    HW131625   1.635   1.878  15.506  0.2434 -1.2268 -0.7853
 6722SOL    HW231626   1.581   1.740  15.492 -1.0440 -0.3821 -1.1225
 6723SOL     OW31627   2.102   2.142   9.002  0.1049  0.1208 -0.2933
 6723SOL    HW131628   2.115   2.112   8.912  1.0008 -2.5438  0.7318
 6723SOL    HW231629   2.029   2.087   9.031 -0.1334  0.4951 -0.1887
 6724SOL     OW31630   4.057   2.627  14.337 -0.2573 -0.0906  0.0668
 6724SOL    HW131631   4.043   2.558  14.402 -4.0456 -0.0074 -0.6330
 6724SOL    HW231632   4.143   2.599  14.307 -0.4565 -0.9462  0.2963
 6725SOL     OW31633   1.635   2.305   3.784 -0.5045 -0.1713  0.4908
 6725SOL    HW131634   1.548   2.290   3.820  0.0525  2.0555  2.8090
 6725SOL    HW231635   1.610   2.308   3.691  0.5462 -0.0710  0.2105
 6726SOL     OW31636   2.457   1.035   9.374  0.4849 -0.0195  0.4316
 6726SOL    HW131637   2.483   1.125   9.392 -1.1569  0.6966 -0.7218
 6726SOL    HW231638   2.513   0.984   9.432 -0.7984 -0.8782  0.9370
 6727SOL     OW31639   2.310   0.422   7.829  0.2614 -0.0609 -0.1910
 6727SOL    HW131640   2.293   0.484   7.900 -3.5523 -0.2330 -0.9324
 6727SOL    HW231641   2.348   0.484   7.766 -0.2901  1.1393  0.6598
 6728SOL     OW31642   0.883   1.592   2.555 -0.2225 -0.3444 -0.4451
 6728SOL    HW131643   0.796   1.598   2.595  0.0701  0.3609  0.0884
 6728SOL    HW231644   0.859   1.536   2.481 -2.9551 -2.7914  2.3084
 6729SOL     OW31645   0.796   3.427   2.635  0.0809  0.2066 -0.1816
 6729SOL    HW131646   0.874   3.378   2.659  0.6561  1.2101  0.0190
 6729SOL    HW231647   0.761   3.413   2.723  1.8327 -0.1179  0.4568
 6730SOL     OW31648   1.506   2.355  10.383 -0.0318 -0.0886  0.3310
 6730SOL    HW131649   1.552   2.350  10.467 -1.3781 -0.3154  1.0518
 6730SOL    HW231650   1.514   2.448  10.362  1.9397 -0.8345 -2.3424
 6731SOL     OW31651   3.353   1.687   8.310  0.0215 -0.4474 -0.0732
 6731SOL    HW131652   3.329   1.668   8.401 -2.1846 -1.9771 -0.9525
 6731SOL    HW231653   3.268   1.671   8.267  0.3758 -2.4830 -0.0295
 6732SOL     OW31654   3.737   2.247   4.132  0.2778 -0.4859  0.1264
 6732SOL    HW131655   3.684   2.249   4.211  1.3995  3.5108  0.7810
 6732SOL    HW231656   3.688   2.178   4.087  0.8560 -0.4430 -0.5718
 6733SOL     OW31657   0.575   2.210   4.354  0.2197  0.2447 -0.6042
 6733SOL    HW131658   0.514   2.210   4.428  0.0991  2.4468 -0.6873
 6733SOL    HW231659   0.515   2.185   4.283  1.0594  0.2603 -1.3207
 6734SOL     OW31660   0.641   2.629   5.056  0.0536 -0.0720  0.0440
 6734SOL    HW131661   0.726   2.668   5.032  1.3604 -2.7464  0.3782
 6734SOL    HW231662   0.579   2.689   5.013 -1.0969 -0.3355  1.3439
 6735SOL     OW31663   0.887   4.625  13.350 -0.5935  0.4022 -0.0016
 6735SOL    HW131664   0.836   4.595  13.275  0.4399  1.5345 -1.1463
 6735SOL    HW231665   0.817   4.663  13.405 -0.2710  1.1909 -0.1306
 6736SOL     OW31666   0.785   1.893  14.302 -0.2997  0.3921  0.1175
 6736SOL    HW131667   0.778   1.798  14.311 -1.2503  0.4918  0.4367
 6736SOL    HW231668   0.876   1.898  14.333  0.0203  2.0555 -1.1267
 6737SOL     OW31669   4.448   1.848   8.631  0.8429  0.4754 -0.5754
 6737SOL    HW131670   4.506   1.897   8.573  1.8876 -1.7850 -1.4549
 6737SOL    HW231671   4.382   1.914   8.651  0.9844  0.6700 -0.7550
 6738SOL     OW31672   2.585   1.066   0.494 -0.8209  0.0079 -0.2933
 6738SOL    HW131673   2.550   1.091   0.409  0.1123  3.1239  0.2185
 6738SOL    HW231674   2.530   0.991   0.515 -0.3398  0.0910  1.3262
 6739SOL     OW31675   4.478   3.324   8.449  0.1536 -0.0781  0.7709
 6739SOL    HW131676   4.462   3.303   8.358  0.4311  1.2093  0.4149
 6739SOL    HW231677   4.485   3.240   8.494 -0.1177 -1.5258 -1.9691
 6740SOL     OW31678   3.191   0.519   1.769 -0.5097  0.7467 -0.2533
 6740SOL    HW131679   3.259   0.587   1.773 -0.1942  0.3513  1.0057
 6740SOL    HW231680   3.232   0.475   1.694 -0.2687 -0.0657  0.3557
 6741SOL     OW31681   2.558   2.179   2.332  0.9409  0.5003  0.0254
 6741SOL    HW131682   2.571   2.121   2.407  0.0478  0.5445  0.2262
 6741SOL    HW231683   2.484   2.144   2.282  2.1925 -0.1291 -1.3864
 6742SOL     OW31684   0.676   2.679   6.195  0.0530  0.0205  0.6888
 6742SOL    HW131685   0.759   2.705   6.234  1.4428  0.0117 -2.2032
 6742SOL    HW231686   0.640   2.763   6.166  1.2057 -0.9178 -3.5785
 6743SOL     OW31687   1.155   1.973   7.137 -0.2670  0.1032  0.2585
 6743SOL    HW131688   1.129   2.045   7.195  0.3613 -1.7164  2.8066
 6743SOL    HW231689   1.251   1.981   7.137 -0.0715 -2.5009 -0.3093
 6744SOL     OW31690   3.077   1.487  17.023  0.3136 -0.0639  0.2944
 6744SOL    HW131691   3.083   1.536  17.105 -0.7623 -0.6321  0.7153
 6744SOL    HW231692   3.169   1.470  17.002 -0.4123 -1.4107 -1.8270
 6745SOL     OW31693   3.604   4.102   4.092 -0.4760  0.4121 -0.2275
 6745SOL    HW131694   3.605   4.198   4.093  2.7012  0.3855 -0.6248
 6745SOL    HW231695   3.685   4.087   4.141 -0.6916  0.8489  0.2651
 6746SOL     OW31696   2.838   2.562   9.416  0.5373  0.2883 -0.2527
 6746SOL    HW131697   2.748   2.543   9.390  0.0721  1.0506  0.8123
 6746SOL    HW231698   2.833   2.554   9.511 -2.3010 -1.1227 -0.5339
 6747SOL     OW31699   2.672   3.996   1.398 -0.0477 -0.1262  0.7172
 6747SOL    HW131700   2.746   4.057   1.397 -1.6965  1.8601  0.3242
 6747SOL    HW231701   2.655   3.993   1.492 -0.8621 -0.2703  0.5596
 6748SOL     OW31702   4.409   3.977   1.147  0.1239 -0.0603  0.0440
 6748SOL    HW131703   4.348   4.009   1.081  1.7265  0.6347 -1.0852
 6748SOL    HW231704   4.342   3.938   1.204 -0.0979  0.0777 -0.1233
 6749SOL     OW31705   2.556   2.860   7.232 -0.2862  0.2769 -0.2746
 6749SOL    HW131706   2.583   2.805   7.305 -1.0887 -1.6716 -1.4412
 6749SOL    HW231707   2.632   2.917   7.220  0.0073 -0.2239 -0.8372
 6750SOL     OW31708   1.557   4.229   4.863  0.6029  0.4253  0.7725
 6750SOL    HW131709   1.632   4.173   4.843  1.3996  1.0033  2.1353
 6750SOL    HW231710   1.515   4.219   4.777  0.4658  0.5443  0.8248
 6751SOL     OW31711   3.341   1.350   8.299 -0.0044 -0.1714  0.2376
 6751SOL    HW131712   3.323   1.371   8.208  0.9138 -1.3634 -0.2131
 6751SOL    HW231713   3.419   1.402   8.318 -0.0278  0.6432 -1.9558
 6752SOL     OW31714   1.233   3.428   3.814 -0.7387 -0.2221 -0.2169
 6752SOL    HW131715   1.250   3.455   3.724 -0.0273 -1.1731 -0.3689
 6752SOL    HW231716   1.137   3.427   3.814 -0.7117 -3.0764 -3.4738
 6753SOL     OW31717   0.630   2.726  16.068  0.0281 -0.0548  0.1495
 6753SOL    HW131718   0.694   2.787  16.105 -0.1442 -0.7470  1.5987
 6753SOL    HW231719   0.620   2.658  16.135 -2.1210 -3.1511 -3.3099
 6754SOL     OW31720   4.589   2.742  16.532 -0.2777 -0.5588  0.6052
 6754SOL    HW131721   4.556   2.823  16.571  1.0084 -0.2174  1.0052
 6754SOL    HW231722   4.635   2.778  16.457  2.5877  2.3002  3.7192
 6755SOL     OW31723   0.250   0.206   9.614  0.2880  0.7550  0.3606
 6755SOL    HW131724   0.308   0.148   9.564 -0.3338  1.3359 -1.0409
 6755SOL    HW231725   0.175   0.152   9.638 -0.4904  1.8268  0.3460
 6756SOL     OW31726   3.663   0.015   6.516 -0.4606 -0.2476 -0.0399
 6756SOL    HW131727   3.623   0.083   6.571  0.5065  1.2729 -1.2121
 6756SOL    HW231728   3.596   4.717   6.451 -0.6998 -0.4594  0.2714
 6757SOL     OW31729   1.300   3.452  12.879 -0.2924  0.5595  0.2336
 6757SOL    HW131730   1.373   3.514  12.885  0.9677 -0.9462  0.4403
 6757SOL    HW231731   1.298   3.413  12.792  2.0464 -0.8395  0.8260
 6758SOL     OW31732   0.417   4.199   1.263 -0.4315 -0.1496 -0.5113
 6758SOL    HW131733   0.411   4.290   1.293 -2.7816 -0.1660 -0.8798
 6758SOL    HW231734   0.343   4.159   1.309 -0.7042  0.6381 -0.2597
 6759SOL     OW31735   1.925   3.855   1.571 -0.1128 -0.0745 -0.1566
 6759SOL    HW131736   1.831   3.843   1.570 -0.5252  2.9810  2.0423
 6759SOL    HW231737   1.952   3.877   1.481  1.0352 -0.9503 -0.0328
 6760SOL     OW31738   1.642   1.530  12.303  0.2891  0.1356  0.0834
 6760SOL    HW131739   1.671   1.440  12.290 -2.2924 -0.4485 -1.7313
 6760SOL    HW231740   1.633   1.516  12.397 -0.9996 -0.3014 -0.0979
 6761SOL     OW31741   1.945   4.507   1.999 -0.5904 -0.7993 -0.0851
 6761SOL    HW131742   2.027   4.489   1.953 -0.2251 -1.6379  0.8984
 6761SOL    HW231743   1.988   4.536   2.079 -0.5488 -2.2052  0.4014
 6762SOL     OW31744   1.608   3.219  17.426 -0.4121  0.5025  0.3255
 6762SOL    HW131745   1.571   3.143  17.472 -1.7976  2.3549  2.2898
 6762SOL    HW231746   1.531   3.276  17.422 -1.5079 -1.1147 -1.4801
 6763SOL     OW31747   1.015   3.673   2.012 -0.0894  0.1618 -0.3887
 6763SOL    HW131748   0.989   3.607   1.948 -0.7756  0.6044 -0.5772
 6763SOL    HW231749   1.093   3.709   1.968 -0.6076 -1.2717 -2.4904
 6764SOL     OW31750   1.625   1.855   6.627  0.0442  0.3322 -0.4024
 6764SOL    HW131751   1.628   1.760   6.638  1.4063  0.3842 -0.3149
 6764SOL    HW231752   1.556   1.886   6.686 -0.8871 -3.8235  0.6812
 6765SOL     OW31753   2.861   1.957   9.332 -0.0299  0.6368  0.4451
 6765SOL    HW131754   2.934   1.927   9.386  0.6727 -2.5597 -2.2355
 6765SOL    HW231755   2.830   1.869   9.307 -0.1436  0.5844  0.7643
 6766SOL     OW31756   3.140   3.665   4.593  0.0725  0.0362 -0.1306
 6766SOL    HW131757   3.091   3.658   4.510  0.7728 -1.1637 -0.4390
 6766SOL    HW231758   3.187   3.746   4.575 -1.4928  1.0546  0.3249
 6767SOL     OW31759   4.702   1.170   6.307 -0.2784 -0.0457 -0.1783
 6767SOL    HW131760   4.638   1.101   6.325  0.7369 -1.1261 -0.7298
 6767SOL    HW231761   4.647   1.247   6.293  0.6932  0.5125 -0.9067
 6768SOL     OW31762   1.954   2.775   2.428 -0.4834 -0.0979  0.3607
 6768SOL    HW131763   1.925   2.811   2.343 -1.9665 -2.5537 -0.1941
 6768SOL    HW231764   1.960   2.680   2.418  1.2615  0.1429 -0.7595
 6769SOL     OW31765   4.011   4.626  14.811  0.1117 -0.1884 -0.0609
 6769SOL    HW131766   3.922   4.643  14.843  0.0932  0.7242 -0.5957
 6769SOL    HW231767   3.991   4.555  14.750  2.7023 -1.1389  0.1998
 6770SOL     OW31768   3.667   1.553   7.934  0.0153 -0.7236 -0.5123
 6770SOL    HW131769   3.576   1.523   7.934  0.2700 -1.4939 -0.0769
 6770SOL    HW231770   3.655   1.644   7.962 -1.2692 -0.6534 -1.3246
 6771SOL     OW31771   1.407   0.351   6.348 -0.1638  0.6884  0.4327
 6771SOL    HW131772   1.346   0.356   6.421  0.7542 -1.6041  1.3450
 6771SOL    HW231773   1.380   0.433   6.307 -2.0391 -1.1535 -1.9914
 6772SOL     OW31774   2.866   0.797   2.824 -0.1742 -0.3171 -0.1242
 6772SOL    HW131775   2.952   0.825   2.794  1.8295 -2.2732  3.8237
 6772SOL    HW231776   2.853   0.868   2.888  2.0173 -0.8695  0.9371
 6773SOL     OW31777   2.544   2.751   3.609 -0.2132  0.0184  0.0880
 6773SOL    HW131778   2.607   2.786   3.546  1.2222  0.9777  2.0485
 6773SOL    HW231779   2.597   2.686   3.655  1.0115  0.5383 -0.5968
 6774SOL     OW31780   3.062   0.210   2.163 -0.0701 -0.4481 -0.0322
 6774SOL    HW131781   3.139   0.184   2.112 -0.8220 -1.6110 -0.5839
 6774SOL    HW231782   3.011   0.129   2.154  1.6797 -1.4219 -1.2343
 6775SOL     OW31783   3.130   4.431   7.194  0.6148  0.5417  0.3243
 6775SOL    HW131784   3.223   4.438   7.172  0.1656 -2.4054 -2.4851
 6775SOL    HW231785   3.102   4.340   7.185  1.6150  0.3262 -0.6334
 6776SOL     OW31786   4.139   1.773   5.883  0.7573 -0.0808 -0.4347
 6776SOL    HW131787   4.050   1.765   5.850  0.4827 -2.9072  1.0522
 6776SOL    HW231788   4.185   1.797   5.802  0.6861  0.0895 -0.4246
 6777SOL     OW31789   3.549   2.809   3.478  0.1965 -0.0878 -0.1285
 6777SOL    HW131790   3.464   2.767   3.477 -0.0986  0.4911  0.6215
 6777SOL    HW231791   3.558   2.847   3.565  0.8628  0.4560 -0.4341
 6778SOL     OW31792   3.100   1.322  16.280 -0.6071  0.4855  0.2966
 6778SOL    HW131793   3.128   1.296  16.192 -2.1310 -2.4599  0.6711
 6778SOL    HW231794   3.052   1.244  16.307 -2.4755  0.8487 -1.9815
 6779SOL     OW31795   0.160   3.988   9.371 -0.8627 -0.4290  0.4706
 6779SOL    HW131796   0.205   4.068   9.400 -0.9571  0.3249 -1.4303
 6779SOL    HW231797   0.152   3.941   9.453  2.1305 -0.1484  0.9172
 6780SOL     OW31798   2.633   0.135   4.931  0.0730 -0.1295  0.6526
 6780SOL    HW131799   2.698   0.114   4.999 -1.4568  0.8080  2.3973
 6780SOL    HW231800   2.606   0.047   4.903 -1.2551  1.2432 -2.3605
 6781SOL     OW31801   3.684   3.368   3.106  0.3960  0.1800  0.9593
 6781SOL    HW131802   3.738   3.369   3.184 -0.9594  0.6484  1.8887
 6781SOL    HW231803   3.757   3.352   3.046  1.7541  1.3042  2.3141
 6782SOL     OW31804   4.267   1.954   6.051  0.2723 -0.1702 -0.3838
 6782SOL    HW131805   4.211   1.892   6.004  0.7765 -0.9867  0.0838
 6782SOL    HW231806   4.346   1.938   5.999 -0.7758 -0.5037 -1.8581
 6783SOL     OW31807   3.634   4.687   4.592 -0.0430 -0.0527 -0.6051
 6783SOL    HW131808   3.703   4.703   4.528  0.3031  0.8006 -0.0240
 6783SOL    HW231809   3.624   4.592   4.584  1.4722 -0.2447 -0.1797
 6784SOL     OW31810   0.433   4.632  16.768  0.5547 -0.3654 -0.1044
 6784SOL    HW131811   0.389   4.717  16.761 -1.3127 -1.2757  0.5350
 6784SOL    HW231812   0.510   4.652  16.716 -0.0947 -0.3523 -1.0563
 6785SOL     OW31813   2.750   2.909   1.755  0.2778 -0.3862 -0.5997
 6785SOL    HW131814   2.821   2.933   1.695  0.2804 -0.5808 -0.6743
 6785SOL    HW231815   2.675   2.899   1.697 -1.4096  2.2393  1.1291
 6786SOL     OW31816   4.337   4.369   7.528  0.4323  0.6671  0.2957
 6786SOL    HW131817   4.288   4.374   7.609 -2.4221  1.3254 -1.4580
 6786SOL    HW231818   4.412   4.428   7.534  1.0190 -0.1197  0.7404
 6787SOL     OW31819   2.934   0.442  16.392 -0.4704  0.7945  0.3753
 6787SOL    HW131820   3.004   0.462  16.329  0.1287 -1.2971  0.3936
 6787SOL    HW231821   2.933   0.527  16.437  0.0390  0.5177  0.9085
 6788SOL     OW31822   1.450   1.347   6.747  0.5020 -0.1539 -0.4553
 6788SOL    HW131823   1.406   1.270   6.710 -0.1828 -0.7276  1.5806
 6788SOL    HW231824   1.439   1.336   6.841  3.0130 -2.6902 -0.4236
 6789SOL     OW31825   2.930   3.332   3.971 -0.0500 -0.3000 -0.3684
 6789SOL    HW131826   2.972   3.368   4.049 -1.2864 -0.1353  0.2225
 6789SOL    HW231827   2.937   3.237   3.968 -0.0546 -0.3667  1.6476
 6790SOL     OW31828   1.013   0.674   6.055  0.1186  0.1160 -0.0925
 6790SOL    HW131829   0.973   0.597   6.096  2.4673 -2.0837 -1.9748
 6790SOL    HW231830   1.057   0.638   5.979  0.6566  1.4525 -0.4126
 6791SOL     OW31831   2.840   2.967   4.351  0.5075 -0.4008  0.0436
 6791SOL    HW131832   2.812   2.946   4.440 -0.4668  0.8091  0.0268
 6791SOL    HW231833   2.778   2.920   4.296  1.6222 -1.3597 -0.3961
 6792SOL     OW31834   2.881   4.471   8.492  0.3018 -0.5093  0.2273
 6792SOL    HW131835   2.814   4.404   8.494  2.0780 -2.2935  0.4010
 6792SOL    HW231836   2.839   4.541   8.542 -1.4809 -0.1056 -1.8903
 6793SOL     OW31837   0.225   2.104   6.899 -0.1792  0.2335  0.7809
 6793SOL    HW131838   0.289   2.090   6.829 -0.7738  0.9493  0.0922
 6793SOL    HW231839   0.187   2.186   6.866  0.2168  0.5713  1.1640
 6794SOL     OW31840   3.333   2.707   0.215  0.2022  0.1868  0.0935
 6794SOL    HW131841   3.353   2.632   0.270 -0.9521  1.3581  2.1041
 6794SOL    HW231842   3.325   2.665   0.129 -0.6098 -3.3739  1.9420
 6795SOL     OW31843   4.350   1.881  16.773 -0.1016 -0.2180  0.6815
 6795SOL    HW131844   4.352   1.819  16.846  1.5280  0.6575  1.3889
 6795SOL    HW231845   4.310   1.820  16.711 -0.2502 -0.2976  0.8533
 6796SOL     OW31846   1.760   2.794   7.753 -0.0925 -0.5556 -0.1191
 6796SOL    HW131847   1.809   2.712   7.745  0.2075 -0.0759 -3.1246
 6796SOL    HW231848   1.723   2.796   7.665 -1.5642  1.9119  0.5744
 6797SOL     OW31849   3.294   2.407   5.687  0.0986  0.0314 -0.5205
 6797SOL    HW131850   3.378   2.374   5.717 -1.4138 -2.7833  0.6341
 6797SOL    HW231851   3.326   2.484   5.641 -1.7084  0.6601 -0.7262
 6798SOL     OW31852   3.246   3.924   4.519 -0.1560  0.4558  0.2260
 6798SOL    HW131853   3.288   3.949   4.438 -2.1280  2.2296 -0.2370
 6798SOL    HW231854   3.158   3.957   4.501 -1.6954 -2.4638  2.2575
 6799SOL     OW31855   3.056   4.687  12.072 -0.0189 -0.5750 -0.0369
 6799SOL    HW131856   3.053   4.595  12.047  1.5722 -0.6222 -0.0183
 6799SOL    HW231857   2.987   4.690  12.139 -0.4008  1.2967 -0.5046
 6800SOL     OW31858   4.343   3.375   1.120  0.5634 -0.7945  0.3519
 6800SOL    HW131859   4.408   3.423   1.068 -0.0615 -1.2558 -0.8571
 6800SOL    HW231860   4.305   3.318   1.052  0.3343  0.3440 -0.4711
 6801SOL     OW31861   1.372   1.115   3.740  0.3737  0.0547 -0.1644
 6801SOL    HW131862   1.298   1.175   3.730 -1.1332 -1.6745  0.6181
 6801SOL    HW231863   1.422   1.152   3.812 -0.3936 -1.8194  1.3105
 6802SOL     OW31864   0.710   3.820  15.979 -0.0587 -0.0978 -0.3361
 6802SOL    HW131865   0.648   3.884  15.945  0.2463  0.1491 -0.4356
 6802SOL    HW231866   0.659   3.740  15.987  0.0232  0.0137  1.2306
 6803SOL     OW31867   1.630   2.045   7.375  0.4365 -0.3912  0.3517
 6803SOL    HW131868   1.562   2.080   7.433 -1.2563  2.0954 -3.1184
 6803SOL    HW231869   1.572   1.980   7.335  0.4439  0.9982 -1.8909
 6804SOL     OW31870   4.609   1.949  16.703  0.1251  0.0112  0.5439
 6804SOL    HW131871   4.646   2.013  16.764  0.0522  1.5126 -1.0043
 6804SOL    HW231872   4.529   1.911  16.741  0.3135  1.2549  2.2004
 6805SOL     OW31873   1.804   2.669  13.757 -0.1781 -0.0268  0.0414
 6805SOL    HW131874   1.874   2.664  13.821 -1.2773 -0.9025  1.1725
 6805SOL    HW231875   1.744   2.727  13.804  1.4433 -0.2007  2.2887
 6806SOL     OW31876   1.057   2.480  14.739 -0.9363  0.2380  0.8886
 6806SOL    HW131877   1.077   2.574  14.731 -0.0869 -0.1265 -1.4073
 6806SOL    HW231878   0.976   2.460  14.693  0.4174  0.1059 -1.4654
 6807SOL     OW31879   4.230   0.739  13.559 -0.1719 -0.1522 -0.1859
 6807SOL    HW131880   4.224   0.829  13.527 -1.8954 -0.1099  0.2823
 6807SOL    HW231881   4.314   0.729  13.604  0.1216 -0.5584 -0.8253
 6808SOL     OW31882   2.366   3.361   0.780 -0.0569 -0.7818  0.5138
 6808SOL    HW131883   2.297   3.400   0.727  0.8050 -0.9678 -0.7638
 6808SOL    HW231884   2.395   3.299   0.712  1.3567  2.4664 -1.8337
 6809SOL     OW31885   3.460   3.444  12.399 -0.0903 -0.3301 -0.5129
 6809SOL    HW131886   3.378   3.493  12.398  0.2997  0.3687  1.6122
 6809SOL    HW231887   3.527   3.501  12.362  0.8413 -2.1932 -1.6922
 6810SOL     OW31888   2.502   1.291   1.785 -0.0846 -0.3381 -0.0106
 6810SOL    HW131889   2.519   1.254   1.698 -2.0940 -0.0506 -0.5312
 6810SOL    HW231890   2.530   1.219   1.841  1.3110 -1.0472 -1.5970
 6811SOL     OW31891   2.293   1.807   8.271 -0.1052 -0.2631  0.4574
 6811SOL    HW131892   2.304   1.716   8.300 -0.6226 -0.3209  0.4725
 6811SOL    HW231893   2.359   1.854   8.322  1.1575 -0.5584 -0.8804
 6812SOL     OW31894   2.696   0.090   2.083  0.0227 -0.3280 -1.1115
 6812SOL    HW131895   2.753   0.087   2.006  0.2903 -2.8470 -0.8026
 6812SOL    HW231896   2.606   0.085   2.050 -0.6621  0.8609  0.5907
 6813SOL     OW31897   4.389   0.081  14.718  0.2213  0.2965  0.2129
 6813SOL    HW131898   4.422   0.160  14.675 -0.0698  0.8511  1.0088
 6813SOL    HW231899   4.296   0.084  14.696  0.0060 -1.6117  0.7975
 6814SOL     OW31900   1.976   1.784   5.513 -0.0461 -0.3884 -0.1438
 6814SOL    HW131901   2.013   1.708   5.558 -1.1087 -1.6757 -1.4563
 6814SOL    HW231902   1.957   1.748   5.426 -0.2229  0.7595 -0.5730
 6815SOL     OW31903   0.788   1.672   1.214  0.1262 -0.2125 -0.2652
 6815SOL    HW131904   0.877   1.704   1.196  0.0015 -0.4513 -1.3004
 6815SOL    HW231905   0.780   1.617   1.136 -2.4543  0.6066 -0.5763
 6816SOL     OW31906   3.175   0.298   2.392 -0.5332 -0.6095 -0.0557
 6816SOL    HW131907   3.103   0.332   2.446  0.0194  0.9021 -0.2537
 6816SOL    HW231908   3.130   0.270   2.313  0.7062  0.6018 -1.1916
 6817SOL     OW31909   3.461   3.219   0.174 -0.0887  0.1939 -0.2127
 6817SOL    HW131910   3.543   3.268   0.189 -0.9083  1.2120  0.9639
 6817SOL    HW231911   3.493   3.133   0.201 -0.5670  0.0520 -0.1020
 6818SOL     OW31912   2.943   1.736  14.759  0.1904 -0.3284  0.0250
 6818SOL    HW131913   2.997   1.660  14.739  1.5523  0.4814  0.6454
 6818SOL    HW231914   2.895   1.687  14.825 -1.0730  1.4766  0.4531
 6819SOL     OW31915   1.063   0.209   5.308  0.6987  0.2529 -0.0210
 6819SOL    HW131916   0.985   0.176   5.353  0.7092 -2.1358 -1.7952
 6819SOL    HW231917   1.073   0.296   5.347  0.5939 -0.1188  0.8249
 6820SOL     OW31918   2.184   3.768   4.159  0.3303 -0.4682  0.3099
 6820SOL    HW131919   2.179   3.725   4.074  1.1951 -1.0931  0.5794
 6820SOL    HW231920   2.111   3.731   4.209  0.3784 -1.1730 -0.1488
 6821SOL     OW31921   1.367   3.080  13.791 -0.4315  0.1128 -0.5436
 6821SOL    HW131922   1.306   3.138  13.835 -0.2400  0.3616 -0.6048
 6821SOL    HW231923   1.433   3.073  13.860 -1.5232  0.3523  0.5261
 6822SOL     OW31924   0.370   0.981  11.739  0.3380  0.3279  0.2734
 6822SOL    HW131925   0.351   1.021  11.654  4.1426 -0.5737 -0.9899
 6822SOL    HW231926   0.425   1.055  11.767 -0.0830  1.0384 -0.7513
 6823SOL     OW31927   2.382   0.199   4.976 -0.5033 -0.3145 -0.1002
 6823SOL    HW131928   2.475   0.182   4.966 -0.3019  1.2063 -0.8553
 6823SOL    HW231929   2.371   0.270   4.911  0.7019 -1.2196 -1.2924
 6824SOL     OW31930   1.092   0.404   3.924  0.4396 -0.5582  0.4596
 6824SOL    HW131931   1.120   0.411   3.832 -0.1274 -2.2211  0.1517
 6824SOL    HW231932   1.049   0.489   3.934  1.6119 -0.0676  1.3065
 6825SOL     OW31933   2.524   3.454   7.549 -0.0928  0.1681  0.0994
 6825SOL    HW131934   2.606   3.462   7.500 -0.8269  0.1187 -1.1379
 6825SOL    HW231935   2.470   3.400   7.491  0.5077 -2.1275  1.6670
 6826SOL     OW31936   0.614   0.314   4.066 -0.2204  0.0163  0.3518
 6826SOL    HW131937   0.691   0.260   4.084 -0.9381 -1.6242 -1.5315
 6826SOL    HW231938   0.615   0.377   4.138  0.9557  0.3683  0.0338
 6827SOL     OW31939   3.008   2.175   8.873 -0.2600 -0.1764 -0.4450
 6827SOL    HW131940   2.939   2.179   8.939 -1.3004 -1.6111 -1.4651
 6827SOL    HW231941   3.045   2.263   8.881  0.7539 -0.5271 -1.3051
 6828SOL     OW31942   4.468   4.265   4.286  1.2270  0.0238 -0.0575
 6828SOL    HW131943   4.539   4.249   4.348 -0.4799  1.4286  2.2404
 6828SOL    HW231944   4.497   4.350   4.254 -0.4438  1.0925  1.2759
 6829SOL     OW31945   2.951   0.292   0.036  0.3272 -0.2348 -0.0440
 6829SOL    HW131946   2.925   0.360   0.098  0.0980  0.5177 -0.9728
 6829SOL    HW231947   3.046   0.294   0.046  0.2629 -0.5487  0.6587
 6830SOL     OW31948   4.511   1.133   9.736  0.1405  0.1421 -0.1085
 6830SOL    HW131949   4.434   1.188   9.724 -0.3930 -0.0641  2.3551
 6830SOL    HW231950   4.553   1.128   9.650 -0.7913  1.5384 -0.6465
 6831SOL     OW31951   0.949   3.513   1.747 -0.3266  0.5916  0.1623
 6831SOL    HW131952   0.898   3.432   1.746  1.3830 -0.4527 -0.6498
 6831SOL    HW231953   0.992   3.511   1.662  0.7607  0.2947  0.7295
 6832SOL     OW31954   4.678   3.095   4.960 -0.2314  0.1785 -0.0979
 6832SOL    HW131955   4.635   3.022   5.004  0.0414  0.5790  0.8471
 6832SOL    HW231956   0.041   3.085   5.002 -1.3208 -0.1818  2.0478
 6833SOL     OW31957   4.630   1.899   4.708  0.0258 -1.0997 -0.0744
 6833SOL    HW131958   4.629   1.811   4.669  1.9552 -1.4255  0.5804
 6833SOL    HW231959   4.675   1.951   4.642  0.3003 -1.6513 -0.3279
 6834SOL     OW31960   4.163   1.442  13.378 -0.0294 -0.2413  0.6297
 6834SOL    HW131961   4.111   1.362  13.382  0.4841 -0.7386 -2.5397
 6834SOL    HW231962   4.245   1.413  13.420 -0.9630 -1.6057  1.5123
 6835SOL     OW31963   3.520   1.826   2.849 -0.7017 -0.5050 -0.1795
 6835SOL    HW131964   3.513   1.745   2.798 -0.2363  0.0729 -1.1577
 6835SOL    HW231965   3.613   1.850   2.842 -1.0094  1.9778  4.2655
 6836SOL     OW31966   3.996   3.058   2.179  0.4539 -0.2628  0.1456
 6836SOL    HW131967   3.966   2.998   2.247 -0.5016 -1.9748 -1.7785
 6836SOL    HW231968   3.928   3.125   2.169  0.5879 -0.2042 -0.3705
 6837SOL     OW31969   2.171   0.375   7.055  0.0952 -0.0636 -0.5344
 6837SOL    HW131970   2.201   0.398   7.143 -0.6957 -0.2375 -0.2167
 6837SOL    HW231971   2.080   0.401   7.070  0.1127 -1.6700  2.3299
 6838SOL     OW31972   3.967   4.024   4.205  0.3342 -0.2347  0.0696
 6838SOL    HW131973   3.988   3.948   4.259 -0.1484 -1.2117 -1.1130
 6838SOL    HW231974   3.880   4.000   4.171 -0.6241  2.2284  0.7677
 6839SOL     OW31975   4.628   4.124   1.001 -0.3276  0.3753 -0.0011
 6839SOL    HW131976   4.583   4.041   0.988  0.5949 -0.2580  0.8903
 6839SOL    HW231977   4.665   4.110   1.088  1.1924  0.1018 -0.6913
 6840SOL     OW31978   4.508   2.409   2.400 -0.2270 -0.4910  1.0532
 6840SOL    HW131979   4.418   2.439   2.417  0.0554  0.9059  0.0352
 6840SOL    HW231980   4.553   2.491   2.418 -0.8256  0.0032  0.2996
 6841SOL     OW31981   0.428   3.974   8.766  0.1980  0.0034 -0.5102
 6841SOL    HW131982   0.382   4.050   8.804  1.2995 -0.0055  0.8444
 6841SOL    HW231983   0.487   3.941   8.834  1.4359 -1.5427 -2.3754
 6842SOL     OW31984   3.226   2.593   9.426  0.6152 -0.1985  0.8047
 6842SOL    HW131985   3.272   2.584   9.510  0.3963  1.6076  1.1300
 6842SOL    HW231986   3.246   2.511   9.381  0.3799 -0.4982  1.2389
 6843SOL     OW31987   4.055   4.088   1.809  0.5939 -0.4571  0.2377
 6843SOL    HW131988   4.086   4.036   1.883 -0.6204 -1.3203  0.1510
 6843SOL    HW231989   3.989   4.138   1.857  1.2454  1.2697 -0.6676
 6844SOL     OW31990   2.406   2.569   2.589  0.8213  0.6856  0.2091
 6844SOL    HW131991   2.383   2.538   2.502 -2.6202  0.0323  1.3222
 6844SOL    HW231992   2.476   2.509   2.615 -0.0277 -0.3061  0.2472
 6845SOL     OW31993   2.134   2.529  11.575 -0.1944  0.2057  0.0130
 6845SOL    HW131994   2.157   2.609  11.527 -1.3412  0.2608 -0.4496
 6845SOL    HW231995   2.119   2.562  11.663 -2.3696 -1.1417  0.1491
 6846SOL     OW31996   0.929   3.810   1.237 -0.7042 -0.1962 -0.0383
 6846SOL    HW131997   0.899   3.901   1.237  0.3381  0.1429  0.9656
 6846SOL    HW231998   0.857   3.766   1.283  0.7827 -2.8084 -0.1879
 6847SOL     OW31999   2.784   4.050   7.589 -0.1998 -0.5451  0.2260
 6847SOL    HW132000   2.758   3.958   7.594 -0.3449 -0.5449 -0.4742
 6847SOL    HW232001   2.707   4.093   7.627  0.4505 -0.9383  1.9826
 6848SOL     OW32002   2.611   1.288   2.199 -0.0355  0.0826 -0.0718
 6848SOL    HW132003   2.529   1.308   2.246  0.0853  1.0221 -0.2501
 6848SOL    HW232004   2.594   1.211   2.145 -0.2874  2.1713 -2.9522
 6849SOL     OW32005   3.483   1.198  12.963  0.8529  0.2279 -0.0726
 6849SOL    HW132006   3.578   1.203  12.948  0.9740 -2.3844 -0.1414
 6849SOL    HW232007   3.449   1.241  12.884 -2.2707 -1.0585  0.6024
 6850SOL     OW32008   2.887   0.452   7.377 -0.0118 -0.3732  0.1978
 6850SOL    HW132009   2.807   0.504   7.369 -1.0149 -1.8628  0.4634
 6850SOL    HW232010   2.937   0.519   7.423  0.9738 -0.0931 -1.2505
 6851SOL     OW32011   2.461   3.931   9.821 -0.2960  0.1495 -0.1311
 6851SOL    HW132012   2.368   3.923   9.840 -1.1524  0.2113 -4.2254
 6851SOL    HW232013   2.485   3.839   9.835  1.6951  0.5096 -1.1847
 6852SOL     OW32014   3.575   2.841   3.799 -0.0399 -0.1909  0.1591
 6852SOL    HW132015   3.663   2.838   3.836  0.4038 -2.3216 -1.0896
 6852SOL    HW232016   3.528   2.886   3.870  2.7648  0.3762  1.6615
 6853SOL     OW32017   1.726   1.360   2.287 -0.2151  0.3176  0.1612
 6853SOL    HW132018   1.790   1.431   2.291 -1.2334  1.3311 -1.9044
 6853SOL    HW232019   1.751   1.321   2.371 -1.3146 -1.0139 -0.1275
 6854SOL     OW32020   3.098   0.335   0.421  0.3252 -0.3565 -0.1121
 6854SOL    HW132021   3.116   0.328   0.327 -0.1772  0.2771 -0.2573
 6854SOL    HW232022   3.095   0.429   0.438 -1.2022 -0.2393 -1.0058
 6855SOL     OW32023   1.713   1.371   7.934 -0.0144 -0.0422 -0.0967
 6855SOL    HW132024   1.653   1.297   7.929  0.2220 -0.3469  1.6794
 6855SOL    HW232025   1.773   1.360   7.860  0.7784  0.4686  0.4683
 6856SOL     OW32026   1.547   2.145   3.251  0.7849 -0.2881  0.0341
 6856SOL    HW132027   1.528   2.087   3.176  0.3932  0.0224 -0.1063
 6856SOL    HW232028   1.470   2.200   3.266  1.2609  0.9372 -1.9804
 6857SOL     OW32029   4.683   3.336  10.784 -0.2322  0.5950 -0.2214
 6857SOL    HW132030   4.691   3.248  10.747 -0.1358 -0.4174  2.1959
 6857SOL    HW232031   0.046   3.379  10.781 -0.6318  1.4226  0.3489
 6858SOL     OW32032   3.195   2.169  16.367 -0.1857  0.3597  0.1653
 6858SOL    HW132033   3.168   2.228  16.297  1.6624  1.4662  0.3824
 6858SOL    HW232034   3.129   2.100  16.360  0.3043 -0.1957  1.0706
 6859SOL     OW32035   2.996   2.395  17.047 -0.5753  0.3496  0.0652
 6859SOL    HW132036   2.950   2.350  17.118  1.1573 -0.0872  0.8888
 6859SOL    HW232037   2.929   2.460  17.023 -0.4545 -0.5353 -2.6061
 6860SOL     OW32038   2.078   0.641   8.282  0.2658 -0.0650 -0.0010
 6860SOL    HW132039   2.119   0.655   8.368  0.6610 -2.2802  0.1837
 6860SOL    HW232040   2.009   0.706   8.286 -0.1069 -0.5009  0.6870
 6861SOL     OW32041   1.843   4.354   5.503  0.4173 -0.2668  0.2429
 6861SOL    HW132042   1.914   4.387   5.447  0.9804  1.0425  1.7412
 6861SOL    HW232043   1.903   4.318   5.568  0.4936  0.3612  0.5201
 6862SOL     OW32044   4.181   1.417  12.137 -0.0270  0.3095 -0.2803
 6862SOL    HW132045   4.120   1.437  12.066 -1.7225 -3.2111  0.1821
 6862SOL    HW232046   4.114   1.410  12.205 -0.5088  2.2969 -0.5493
 6863SOL     OW32047   2.960   4.251   6.226 -0.9741  0.1290  0.0314
 6863SOL    HW132048   2.905   4.258   6.148 -1.4109 -0.1253  0.3157
 6863SOL    HW232049   2.969   4.155   6.229  2.2798  0.4311 -0.9563
 6864SOL     OW32050   4.197   4.410   0.857  0.0562 -0.7304  0.3011
 6864SOL    HW132051   4.278   4.425   0.906  0.0647 -0.2021  0.1214
 6864SOL    HW232052   4.239   4.378   0.777  0.9922 -0.6250  0.7462
 6865SOL     OW32053   2.391   0.099  13.362  0.0300 -1.1442 -0.6615
 6865SOL    HW132054   2.479   0.133  13.376 -1.2143  1.9553 -0.3091
 6865SOL    HW232055   2.431   0.024  13.317  1.3880 -0.6272 -0.3062
 6866SOL     OW32056   2.835   2.028   5.455 -0.4632 -0.2480 -0.2155
 6866SOL    HW132057   2.922   1.996   5.432 -1.4458 -2.4673 -0.8863
 6866SOL    HW232058   2.835   2.110   5.405  2.8133  0.4134  0.9025
 6867SOL     OW32059   1.640   2.153  11.591 -0.2777 -0.7089  0.3070
 6867SOL    HW132060   1.611   2.190  11.674 -0.9569 -1.6427  0.4868
 6867SOL    HW232061   1.715   2.211  11.577 -1.7625  1.0381 -0.4500
 6868SOL     OW32062   3.463   1.256   2.783 -0.5627  0.2300  0.1393
 6868SOL    HW132063   3.558   1.247   2.790 -0.6638  0.2795  1.6261
 6868SOL    HW232064   3.434   1.278   2.872  0.9171 -2.6436  1.3463
 6869SOL     OW32065   2.825   0.963   3.048 -0.1289  0.0945  0.5051
 6869SOL    HW132066   2.817   1.055   3.022 -0.2546 -0.6196 -2.0270
 6869SOL    HW232067   2.737   0.952   3.082 -0.3595 -0.4454 -0.2745
 6870SOL     OW32068   3.453   4.273   2.001 -0.2775  0.5357  0.0934
 6870SOL    HW132069   3.515   4.311   2.064  0.6375  2.5699 -2.0560
 6870SOL    HW232070   3.482   4.182   1.995 -1.0908  0.4174 -2.0192
 6871SOL     OW32071   2.544   3.044  16.925  0.3046  0.7024 -0.4480
 6871SOL    HW132072   2.569   3.107  16.858  0.9211  0.4652 -0.4461
 6871SOL    HW232073   2.519   3.102  16.997 -1.6053 -0.0655 -0.4883
 6872SOL     OW32074   1.727   0.709   2.461 -0.7541 -0.4430 -0.0963
 6872SOL    HW132075   1.649   0.740   2.414 -0.7186  0.5863  0.5249
 6872SOL    HW232076   1.694   0.691   2.549  2.1884 -0.6338  0.9779
 6873SOL     OW32077   4.151   1.369   7.014 -0.1366  0.3301  0.2619
 6873SOL    HW132078   4.229   1.327   6.977  1.0894  3.9714 -1.3349
 6873SOL    HW232079   4.181   1.459   7.026 -2.7581  0.8618  2.7114
 6874SOL     OW32080   0.076   3.236   4.391  0.0964 -0.3107  0.2281
 6874SOL    HW132081   0.098   3.257   4.482 -0.6260 -1.6551  0.7154
 6874SOL    HW232082   0.145   3.280   4.342 -0.0824 -1.1160 -0.7452
 6875SOL     OW32083   3.959   1.827  15.950 -0.2023  0.3500  0.0823
 6875SOL    HW132084   3.999   1.914  15.959  1.1970 -0.2702 -0.1950
 6875SOL    HW232085   3.879   1.839  16.002  0.2181 -0.0023  0.8153
 6876SOL     OW32086   1.062   0.401   4.947 -0.0219  0.5953 -0.1670
 6876SOL    HW132087   1.042   0.467   4.882 -0.5304  0.5341 -0.0691
 6876SOL    HW232088   1.040   0.445   5.029  1.9944 -0.5622  1.0101
 6877SOL     OW32089   2.237   2.402  10.877  0.4886  0.4697  0.2278
 6877SOL    HW132090   2.159   2.349  10.864  1.1496 -0.5510  0.4104
 6877SOL    HW232091   2.231   2.478  10.818  0.7293 -0.7278 -1.3497
 6878SOL     OW32092   3.127   0.892   7.446  0.0115 -0.0464  0.0953
 6878SOL    HW132093   3.161   0.973   7.408  1.3581  0.1567  1.7211
 6878SOL    HW232094   3.188   0.878   7.519  0.4751  0.2802 -0.2243
 6879SOL     OW32095   2.962   0.464   1.925  0.5907  0.0594 -0.0989
 6879SOL    HW132096   2.979   0.424   2.011 -0.1582 -0.1978 -0.0726
 6879SOL    HW232097   3.049   0.469   1.886 -0.7049  0.0008 -2.9927
 6880SOL     OW32098   0.767   3.692   9.364 -0.3409  0.7279  0.1376
 6880SOL    HW132099   0.690   3.670   9.417 -0.3399 -0.5098 -0.3793
 6880SOL    HW232100   0.823   3.619   9.390 -1.3107  0.1258  0.5691
 6881SOL     OW32101   1.240   0.070   4.643  0.5079  0.6500  0.3387
 6881SOL    HW132102   1.208   0.104   4.559  0.0218  1.1002  0.7017
 6881SOL    HW232103   1.296   0.141   4.674 -1.8800  2.4264  0.6179
 6882SOL     OW32104   3.137   3.699  13.161  0.1174  0.0819  0.1093
 6882SOL    HW132105   3.225   3.715  13.195  0.3784  0.7724 -0.8694
 6882SOL    HW232106   3.082   3.745  13.224 -0.8220  0.2298 -0.8177
 6883SOL     OW32107   2.261   0.438   7.293 -0.6147  0.1266  0.4093
 6883SOL    HW132108   2.277   0.519   7.342 -0.2092  0.5883 -0.4854
 6883SOL    HW232109   2.237   0.378   7.364 -1.2639  1.0150  0.9485
 6884SOL     OW32110   2.656   0.465   1.151  0.7967  0.1772 -0.2613
 6884SOL    HW132111   2.615   0.549   1.131  2.1382  0.8354 -0.2774
 6884SOL    HW232112   2.667   0.466   1.246  0.3586 -1.1255 -0.1954
 6885SOL     OW32113   2.050   4.174   9.558  0.1233  0.2679 -0.2178
 6885SOL    HW132114   2.046   4.127   9.474 -0.0158 -0.9298  0.4528
 6885SOL    HW232115   2.104   4.119   9.615  1.1053  1.1332 -0.3234
 6886SOL     OW32116   1.647   4.256  11.521 -0.6094 -0.0366  0.1478
 6886SOL    HW132117   1.722   4.266  11.462 -1.4173 -0.2178 -0.9071
 6886SOL    HW232118   1.578   4.271  11.456 -1.3409 -4.6182 -0.1450
 6887SOL     OW32119   0.440   1.325   9.743  0.5005  0.4294  0.0485
 6887SOL    HW132120   0.435   1.418   9.722 -2.9438  0.5271  1.3533
 6887SOL    HW232121   0.456   1.329   9.837  0.1539 -0.1793  0.1372
 6888SOL     OW32122   0.178   2.734   6.800 -0.3605 -0.3686  0.3334
 6888SOL    HW132123   0.167   2.641   6.782  1.5166 -0.6403  0.5728
 6888SOL    HW232124   0.105   2.758   6.857 -0.6427  0.9962 -0.5999
 6889SOL     OW32125   2.957   2.493   8.596 -0.0842  0.6437 -0.6101
 6889SOL    HW132126   2.943   2.534   8.511  2.8951  2.3538 -0.2583
 6889SOL    HW232127   2.971   2.561   8.662 -1.1493 -0.9038  1.2264
 6890SOL     OW32128   2.448   0.267   8.719 -0.2256  0.5192 -0.3466
 6890SOL    HW132129   2.471   0.200   8.783 -1.3981 -0.2554 -0.7411
 6890SOL    HW232130   2.391   0.217   8.661  0.9215 -1.6952  0.3967
 6891SOL     OW32131   3.654   1.385   7.471  0.5034 -0.4795  0.4245
 6891SOL    HW132132   3.662   1.416   7.381 -1.1639 -0.2568  0.3628
 6891SOL    HW232133   3.711   1.453   7.508 -1.7968  1.9341 -0.3998
 6892SOL     OW32134   2.793   1.227   5.346  0.1965  0.7461  0.0260
 6892SOL    HW132135   2.807   1.223   5.441 -1.2724  0.7316  0.2455
 6892SOL    HW232136   2.762   1.136   5.339 -1.2225  1.2975 -0.8943
 6893SOL     OW32137   3.381   1.592   4.845  0.2464  0.0484 -0.0823
 6893SOL    HW132138   3.369   1.538   4.922 -1.9905  2.3971  1.2036
 6893SOL    HW232139   3.379   1.684   4.872 -0.3248  0.3270 -1.0441
 6894SOL     OW32140   0.794   4.316   1.431  0.0016 -0.2534  0.5841
 6894SOL    HW132141   0.820   4.248   1.370  0.1355 -2.2228  2.8684
 6894SOL    HW232142   0.877   4.349   1.467 -0.5576  1.8896 -0.0860
 6895SOL     OW32143   2.215   4.545   5.532  0.0584 -0.1668 -0.1156
 6895SOL    HW132144   2.234   4.466   5.482  0.6270  0.0902 -0.3096
 6895SOL    HW232145   2.194   4.601   5.458 -1.9147  0.1534  0.6758
 6896SOL     OW32146   1.406   1.779   0.915  0.1267  0.0552 -0.5821
 6896SOL    HW132147   1.476   1.753   0.975  1.7616  3.4276 -0.9898
 6896SOL    HW232148   1.351   1.701   0.914 -0.2593  0.3238 -0.2526
 6897SOL     OW32149   1.977   1.216  12.168  0.1465  0.1132  0.3691
 6897SOL    HW132150   2.032   1.288  12.197  0.9942 -1.0622  1.6537
 6897SOL    HW232151   2.044   1.151  12.146  0.5347  0.9513 -0.9407
 6898SOL     OW32152   4.476   3.753  13.043 -0.2748 -0.1097  0.4945
 6898SOL    HW132153   4.466   3.794  13.129  2.3979 -1.6331  1.5527
 6898SOL    HW232154   4.565   3.783  13.026 -0.2991 -0.8813 -1.0428
 6899SOL     OW32155   2.235   2.629  13.054 -0.6694 -0.1522  0.3198
 6899SOL    HW132156   2.231   2.534  13.070  0.5734 -0.3545 -0.5658
 6899SOL    HW232157   2.156   2.650  13.104 -0.5398  0.5561  0.2138
 6900SOL     OW32158   3.429   4.176   8.960  0.2712 -0.0325  0.1550
 6900SOL    HW132159   3.353   4.215   9.004  0.7252  0.9535  0.0560
 6900SOL    HW232160   3.469   4.248   8.912  0.5394 -0.2359  0.0759
 6901SOL     OW32161   2.079   1.533  11.346  0.1660 -0.1967 -0.0593
 6901SOL    HW132162   2.025   1.609  11.325 -0.0563 -0.7032 -1.3539
 6901SOL    HW232163   2.035   1.466  11.294  2.2361 -0.4856 -1.4751
 6902SOL     OW32164   0.799   0.964   9.563 -0.0775  0.0835  0.7515
 6902SOL    HW132165   0.718   1.012   9.580  0.5413  1.5781 -0.5225
 6902SOL    HW232166   0.758   0.884   9.530 -0.2001  1.1120 -1.6244
 6903SOL     OW32167   0.977   1.390   5.509  0.2391  0.1559  0.0610
 6903SOL    HW132168   0.948   1.310   5.467 -0.4316  1.0987 -1.2496
 6903SOL    HW232169   0.900   1.445   5.523 -0.6128 -0.8191 -0.8642
 6904SOL     OW32170   3.043   4.583   6.251 -0.1498 -0.2822 -0.1421
 6904SOL    HW132171   3.067   4.648   6.317  0.7452  0.2240 -0.9478
 6904SOL    HW232172   3.052   4.498   6.294 -2.0801  0.0397  0.8802
 6905SOL     OW32173   3.577   1.088   2.219 -0.0438  0.3390 -0.1897
 6905SOL    HW132174   3.615   1.016   2.168  0.6935  1.0804 -0.6891
 6905SOL    HW232175   3.638   1.160   2.202  1.5703 -0.8316  0.7086
 6906SOL     OW32176   2.690   2.060   4.534  1.0062 -0.1703 -0.4684
 6906SOL    HW132177   2.626   2.131   4.528 -0.4825 -1.4540  0.2090
 6906SOL    HW232178   2.707   2.059   4.628 -0.6750 -0.8983 -0.1816
 6907SOL     OW32179   4.644   4.690   8.093 -0.6948 -0.2376  0.5202
 6907SOL    HW132180   4.688   4.617   8.139  1.0233  0.1825 -0.4553
 6907SOL    HW232181   4.612   0.021   8.166 -1.0601 -0.7293  0.7157
 6908SOL     OW32182   1.592   4.637  17.298  0.3136 -0.0877  0.4335
 6908SOL    HW132183   1.686   4.629  17.317  0.5543 -0.5210 -0.9299
 6908SOL    HW232184   1.578   4.550  17.260 -3.1952  1.4472 -1.8267
 6909SOL     OW32185   1.377   4.476   0.330 -0.0025 -0.6813 -0.0815
 6909SOL    HW132186   1.328   4.477   0.248 -2.0324  1.8108  1.1402
 6909SOL    HW232187   1.464   4.499   0.300 -0.3426  1.2494  0.3807
 6910SOL     OW32188   3.851   3.993  10.790 -0.1941 -0.0336  0.1433
 6910SOL    HW132189   3.850   3.910  10.838 -1.1262 -1.0722 -1.6826
 6910SOL    HW232190   3.937   4.025  10.817 -0.6086  0.8201  0.4797
 6911SOL     OW32191   1.188   0.180   0.988  0.5327 -0.3088  0.1216
 6911SOL    HW132192   1.276   0.204   0.960 -0.5680  2.8718 -0.6505
 6911SOL    HW232193   1.171   0.271   1.012  1.1990  0.2687 -1.5721
 6912SOL     OW32194   3.747   0.257   1.664  0.4151 -0.2807  0.1202
 6912SOL    HW132195   3.815   0.190   1.674  0.7294  0.2431  1.4582
 6912SOL    HW232196   3.673   0.213   1.707 -0.1167  0.9233  0.4313
 6913SOL     OW32197   0.200   3.843   7.852 -0.0754 -0.2138 -0.0622
 6913SOL    HW132198   0.204   3.774   7.786 -0.8501  0.3111 -0.6483
 6913SOL    HW232199   0.195   3.791   7.932 -1.4428  0.0383  0.0237
 6914SOL     OW32200   3.838   0.974   4.540  0.1680  0.4273 -0.4413
 6914SOL    HW132201   3.835   0.887   4.580 -1.1074  1.2706  1.3323
 6914SOL    HW232202   3.830   1.024   4.621  0.2282 -1.6178  0.8159
 6915SOL     OW32203   2.332   1.336   6.225 -0.0261  0.3866  0.5511
 6915SOL    HW132204   2.391   1.343   6.150 -0.2016 -1.5430  0.2311
 6915SOL    HW232205   2.381   1.393   6.285 -0.9951  0.5928  1.1508
 6916SOL     OW32206   1.492   0.481   4.243 -0.7919  0.0016 -0.4296
 6916SOL    HW132207   1.530   0.569   4.235 -1.5283  0.3224 -0.4126
 6916SOL    HW232208   1.461   0.453   4.157  0.9072 -1.3628 -0.6050
 6917SOL     OW32209   3.275   3.215  12.762  0.0918  0.9223  0.4017
 6917SOL    HW132210   3.261   3.236  12.670  2.3155  0.4257 -0.0541
 6917SOL    HW232211   3.216   3.272  12.812  1.7441  1.4993  1.6799
 6918SOL     OW32212   2.119   0.234   4.686  0.0793 -0.0236  0.3738
 6918SOL    HW132213   2.025   0.245   4.677  0.2245 -0.0708 -1.1856
 6918SOL    HW232214   2.156   0.261   4.602  0.5761  0.0669  0.6228
 6919SOL     OW32215   0.402   0.345  16.333 -0.4122 -0.0047 -0.1160
 6919SOL    HW132216   0.362   0.431  16.342  0.9759  0.8075 -1.7129
 6919SOL    HW232217   0.339   0.296  16.280  0.2180 -0.2067 -0.6796
 6920SOL     OW32218   4.494   0.050   3.066 -0.0355 -0.2230 -0.8374
 6920SOL    HW132219   4.569   0.108   3.074 -0.3387  0.0826 -0.2253
 6920SOL    HW232220   4.483   0.034   2.973 -2.5031  2.4350 -1.0059
 6921SOL     OW32221   0.019   1.142   6.966  0.3497  0.0519 -0.4504
 6921SOL    HW132222   0.023   1.237   6.973 -0.6367 -0.0297  1.1365
 6921SOL    HW232223   4.648   1.132   6.950  0.1309  2.0729 -0.3765
 6922SOL     OW32224   3.062   1.510  12.521  0.8498 -0.1300 -0.4371
 6922SOL    HW132225   2.984   1.542  12.476  0.2633  1.2041  1.5058
 6922SOL    HW232226   3.049   1.416  12.515 -0.3181  0.1303 -1.8779
 6923SOL     OW32227   0.439   1.755   5.741  0.0133  0.6346  0.0075
 6923SOL    HW132228   0.534   1.759   5.748  0.1358  0.2486 -1.5077
 6923SOL    HW232229   0.418   1.676   5.692  0.9374  0.0648  0.5359
 6924SOL     OW32230   1.041   1.767   9.512 -0.0802 -0.3377 -0.4427
 6924SOL    HW132231   1.064   1.675   9.504  2.4245  0.1175  1.9077
 6924SOL    HW232232   1.127   1.808   9.516 -0.1742 -0.2436  0.7225
 6925SOL     OW32233   0.935   0.730   4.175 -0.0025 -0.3271 -0.2367
 6925SOL    HW132234   0.982   0.813   4.166  0.9452 -0.6171  2.0694
 6925SOL    HW232235   0.843   0.747   4.154 -0.2179 -1.5592 -0.3346
 6926SOL     OW32236   0.913   0.255  13.993  0.3033 -0.1141  0.6640
 6926SOL    HW132237   0.822   0.283  13.979  0.4122  0.5277  1.2290
 6926SOL    HW232238   0.949   0.322  14.052  0.0827  1.0676 -0.5358
 6927SOL     OW32239   2.933   4.234   9.839  0.3748 -0.5068 -0.2935
 6927SOL    HW132240   3.006   4.231   9.901  0.4703  1.3364 -0.3200
 6927SOL    HW232241   2.886   4.153   9.860 -0.2497  0.0892  0.6071
 6928SOL     OW32242   2.213   1.164   8.611 -0.0550  0.6241  0.8072
 6928SOL    HW132243   2.281   1.226   8.633  1.6723 -0.7138 -0.7449
 6928SOL    HW232244   2.200   1.112   8.690  0.7437  2.4974  2.1519
 6929SOL     OW32245   1.678   1.290   1.462 -0.7676 -0.4620  0.4374
 6929SOL    HW132246   1.715   1.266   1.547  1.4502 -3.7338 -1.4973
 6929SOL    HW232247   1.627   1.211   1.449  1.3915 -2.0909  1.8513
 6930SOL     OW32248   1.341   0.663   4.995  0.8990 -0.4439 -0.1757
 6930SOL    HW132249   1.339   0.719   4.917  0.6629  0.4653  0.4881
 6930SOL    HW232250   1.289   0.713   5.057  0.6518  0.2822 -0.9665
 6931SOL     OW32251   3.331   1.234   7.693  0.2408 -0.2025  0.3338
 6931SOL    HW132252   3.303   1.170   7.758 -0.6412  1.8041  1.9568
 6931SOL    HW232253   3.413   1.191   7.668  0.3315 -0.2507  0.7202
 6932SOL     OW32254   0.639   4.564  11.875 -0.1930 -0.5092  0.3236
 6932SOL    HW132255   0.721   4.545  11.830 -0.1127  0.5055  0.0396
 6932SOL    HW232256   0.645   4.655  11.902  1.0367 -0.9588  1.5281
 6933SOL     OW32257   3.943   0.098   4.786  0.4172 -0.0060  0.7101
 6933SOL    HW132258   3.980   0.010   4.793  0.1995 -0.1660 -0.1638
 6933SOL    HW232259   3.997   0.139   4.718  4.0752 -0.6739  3.1844
 6934SOL     OW32260   1.513   3.414   7.171  0.1580 -0.2650 -0.2686
 6934SOL    HW132261   1.447   3.389   7.107  0.8189 -0.1168 -1.0100
 6934SOL    HW232262   1.551   3.327   7.185 -0.5513 -0.4841  0.3147
 6935SOL     OW32263   2.367   1.917   5.488  0.5101  0.3638 -0.2393
 6935SOL    HW132264   2.335   1.838   5.445 -0.1032  0.1562  0.5805
 6935SOL    HW232265   2.461   1.904   5.482 -0.0111 -3.0374 -0.8874
 6936SOL     OW32266   2.573   2.406  11.243  0.2344 -0.1456 -0.0030
 6936SOL    HW132267   2.526   2.448  11.315 -1.1599 -1.4154 -0.1780
 6936SOL    HW232268   2.507   2.383  11.177  0.3376 -0.2705 -0.0632
 6937SOL     OW32269   0.649   3.890   8.945  0.1916  0.4257 -0.2404
 6937SOL    HW132270   0.743   3.896   8.926  0.2302 -0.8307 -0.4243
 6937SOL    HW232271   0.636   3.801   8.976  0.3286  0.4939  0.0202
 6938SOL     OW32272   2.392   3.601  12.766 -0.1888  0.2481 -0.0903
 6938SOL    HW132273   2.356   3.592  12.678 -0.6272 -2.4993  0.3750
 6938SOL    HW232274   2.474   3.648  12.752 -0.6749  0.8107 -1.1218
 6939SOL     OW32275   3.980   0.780  10.068 -0.1805 -0.3290  0.2800
 6939SOL    HW132276   4.001   0.833   9.992  1.6101 -2.0289 -0.4193
 6939SOL    HW232277   4.054   0.799  10.126  0.3100  1.7981 -1.0418
 6940SOL     OW32278   1.972   2.132   4.674 -0.1090 -0.3658 -0.1055
 6940SOL    HW132279   1.882   2.108   4.651  0.2564 -1.8710  0.0476
 6940SOL    HW232280   2.019   2.062   4.629 -1.7335 -1.8915  0.5444
 6941SOL     OW32281   4.690   2.210   2.396 -0.3802  0.3867 -0.4024
 6941SOL    HW132282   4.622   2.275   2.380 -0.9297  0.1271  0.8406
 6941SOL    HW232283   4.642   2.128   2.386 -0.3607  0.0556  2.0445
 6942SOL     OW32284   2.444   4.580  16.694 -0.1241 -0.3353 -0.3270
 6942SOL    HW132285   2.531   4.616  16.676 -0.6323  0.9414 -0.2745
 6942SOL    HW232286   2.431   4.525  16.617 -1.9544  0.1251 -0.3634
 6943SOL     OW32287   4.015   4.061   7.754 -0.0917  0.0563  0.4492
 6943SOL    HW132288   4.054   4.121   7.691 -0.9861 -1.8135 -1.9078
 6943SOL    HW232289   4.072   3.983   7.747 -0.3377  0.1048 -2.0603
 6944SOL     OW32290   3.925   3.432  10.785  0.2906  0.2539 -0.1428
 6944SOL    HW132291   4.018   3.432  10.810  0.3006  2.3133 -0.1093
 6944SOL    HW232292   3.870   3.438  10.863 -1.5797 -0.5740 -1.4014
 6945SOL     OW32293   0.225   1.909   7.090  0.2841  0.2388 -0.0427
 6945SOL    HW132294   0.132   1.887   7.095  0.9033 -2.1592  1.0678
 6945SOL    HW232295   0.238   1.985   7.034  0.0480  0.7276  0.5590
 6946SOL     OW32296   4.451   3.990   7.077 -0.1040  0.1077  0.1800
 6946SOL    HW132297   4.448   4.079   7.041  1.4925  0.3224  0.6205
 6946SOL    HW232298   4.424   3.940   7.000 -0.9279 -0.4214  0.8062
 6947SOL     OW32299   4.198   1.612   6.387  0.2084 -0.4224  0.0445
 6947SOL    HW132300   4.125   1.560   6.420 -0.2652 -0.4275 -0.9930
 6947SOL    HW232301   4.208   1.590   6.294  2.9109  1.4717 -0.1247
 6948SOL     OW32302   2.260   1.196  10.861 -0.1084 -0.1782  0.6032
 6948SOL    HW132303   2.232   1.266  10.919  1.8144  0.5297  0.6684
 6948SOL    HW232304   2.202   1.124  10.888  1.5257 -1.1282  1.5452
 6949SOL     OW32305   1.497   1.352   0.868  0.4953 -0.2287 -0.0074
 6949SOL    HW132306   1.415   1.342   0.820  0.0140  1.5244  0.4196
 6949SOL    HW232307   1.457   1.345   0.955  0.4893 -3.8913 -0.3151
 6950SOL     OW32308   4.389   0.279   5.458 -0.5675  0.0842 -0.2694
 6950SOL    HW132309   4.411   0.372   5.468  0.1742 -0.2760  1.5594
 6950SOL    HW232310   4.397   0.248   5.548 -2.6415 -2.9632 -1.1274
 6951SOL     OW32311   1.325   4.648   5.051  0.1397  0.1277 -0.4703
 6951SOL    HW132312   1.320   4.568   5.104  0.8443  1.8085  2.1134
 6951SOL    HW232313   1.375   4.610   4.979  0.5286 -1.8496  0.8406
 6952SOL     OW32314   4.458   1.860   9.263 -0.2765 -0.1395 -0.1306
 6952SOL    HW132315   4.491   1.774   9.237 -0.7018  0.1518 -1.6261
 6952SOL    HW232316   4.381   1.843   9.317 -0.6152 -0.1357 -0.6231
 6953SOL     OW32317   0.240   4.550   2.697  0.2477 -0.0492  0.2320
 6953SOL    HW132318   0.210   4.575   2.610 -0.0367 -0.4516  0.2177
 6953SOL    HW232319   0.221   4.457   2.709 -0.6035  0.2200  0.8989
 6954SOL     OW32320   2.101   3.403   9.142 -0.2948 -0.1821 -0.0022
 6954SOL    HW132321   2.007   3.423   9.148 -0.1146  0.4269  0.8341
 6954SOL    HW232322   2.092   3.310   9.162 -1.1646 -0.1820 -0.3735
 6955SOL     OW32323   3.787   1.040  11.970  0.2175  0.2109 -0.3311
 6955SOL    HW132324   3.787   1.105  11.900 -1.5709 -0.8344 -1.2898
 6955SOL    HW232325   3.796   0.958  11.921  0.5113 -0.9547  1.6482
 6956SOL     OW32326   0.300   4.142  16.872 -0.2757  0.1103  0.4046
 6956SOL    HW132327   0.284   4.161  16.964 -1.2997 -0.0454  0.2600
 6956SOL    HW232328   0.371   4.204  16.854 -1.0882  0.5372 -1.4135
 6957SOL     OW32329   0.350   3.007   1.862  0.1435  0.4364 -0.1909
 6957SOL    HW132330   0.311   2.924   1.834 -1.2236  1.1768 -0.4870
 6957SOL    HW232331   0.299   3.037   1.937  1.0887  2.0554 -0.1857
 6958SOL     OW32332   2.663   2.620   6.515  0.3356  0.0345  0.6054
 6958SOL    HW132333   2.629   2.551   6.458  0.2615  1.4556 -1.0582
 6958SOL    HW232334   2.711   2.677   6.454  1.1580 -0.3497  0.8916
 6959SOL     OW32335   1.427   4.597   4.401  0.1528  0.1664  0.1020
 6959SOL    HW132336   1.343   4.624   4.362  1.2198  2.7542 -0.4115
 6959SOL    HW232337   1.403   4.581   4.492  2.2593 -0.4225  0.5456
 6960SOL     OW32338   2.567   1.147   4.146 -0.3478 -0.2916  0.0833
 6960SOL    HW132339   2.626   1.074   4.165  0.1416  0.4416  1.3076
 6960SOL    HW232340   2.591   1.180   4.060 -0.7126 -1.1303 -0.3509
 6961SOL     OW32341   4.343   1.211  10.572 -0.7341 -0.0084 -0.2103
 6961SOL    HW132342   4.390   1.167  10.644 -2.6346 -0.0717  0.9922
 6961SOL    HW232343   4.374   1.301  10.579 -0.2511 -0.2531  0.8833
 6962SOL     OW32344   2.879   2.526   3.451  0.5330  0.7100  0.2892
 6962SOL    HW132345   2.858   2.507   3.359  1.2097  1.0085  0.0764
 6962SOL    HW232346   2.852   2.446   3.497  0.3070  0.0821 -0.9321
 6963SOL     OW32347   1.932   4.127   2.671 -0.5001  0.2069  0.2402
 6963SOL    HW132348   1.929   4.205   2.615  1.8824  0.3422  0.2883
 6963SOL    HW232349   2.002   4.076   2.631 -0.5188  0.3510  0.0164
 6964SOL     OW32350   2.139   4.364   1.369  0.0953 -0.0322  0.4516
 6964SOL    HW132351   2.113   4.456   1.377  0.9993  0.2611  0.0755
 6964SOL    HW232352   2.230   4.362   1.396 -0.0232 -2.0828  0.6797
 6965SOL     OW32353   1.148   1.193  10.216  0.1301 -0.1862  1.0872
 6965SOL    HW132354   1.118   1.169  10.304 -0.0493  1.0416  1.3680
 6965SOL    HW232355   1.110   1.124  10.162 -2.0298  0.2578  2.0428
 6966SOL     OW32356   4.487   4.278   5.155 -0.2581  0.0262  0.2337
 6966SOL    HW132357   4.394   4.285   5.173 -0.2968 -1.6603  0.7417
 6966SOL    HW232358   4.477   4.281   5.060  0.7391  0.9657  0.1601
 6967SOL     OW32359   4.187   0.933   4.110 -0.9003  0.8922 -0.3438
 6967SOL    HW132360   4.097   0.932   4.140 -0.8319  0.7711 -0.1438
 6967SOL    HW232361   4.183   0.877   4.033  0.2890  0.2063  0.0887
 6968SOL     OW32362   0.032   2.031   4.500  0.3629  0.3513  0.3340
 6968SOL    HW132363   0.121   1.998   4.489 -0.6056 -1.0002 -3.3721
 6968SOL    HW232364   4.718   1.990   4.422  2.3137 -0.8841  0.0799
 6969SOL     OW32365   4.033   2.164   8.406  0.2337 -0.1414 -0.0683
 6969SOL    HW132366   4.057   2.255   8.390 -1.1829  0.3353  0.4972
 6969SOL    HW232367   4.013   2.162   8.499  0.0029  0.4810 -0.1082
 6970SOL     OW32368   2.395   1.739   7.862 -0.2970 -0.4716  0.0564
 6970SOL    HW132369   2.439   1.680   7.924  2.3414 -0.8944 -2.2212
 6970SOL    HW232370   2.307   1.748   7.898 -0.2725  1.4852 -0.3441
 6971SOL     OW32371   3.396   2.401  14.165 -0.2716  0.2133  0.6220
 6971SOL    HW132372   3.377   2.426  14.074  3.2723  0.8903  0.0963
 6971SOL    HW232373   3.315   2.357  14.189 -2.6133  2.5233 -2.8665
 6972SOL     OW32374   1.064   0.326   9.483 -0.1756  0.4379 -0.4891
 6972SOL    HW132375   1.106   0.390   9.425 -0.2133 -0.9360 -2.0170
 6972SOL    HW232376   0.972   0.326   9.457 -0.5383 -0.5218  0.8036
 6973SOL     OW32377   4.687   0.601   8.009 -0.6843  0.1243 -0.3708
 6973SOL    HW132378   4.709   0.641   8.093 -0.9955  1.7226 -1.0554
 6973SOL    HW232379   4.600   0.561   8.017 -0.1866 -0.4923  1.9578
 6974SOL     OW32380   0.236   4.192   8.830  0.4738 -0.5891  0.2636
 6974SOL    HW132381   0.151   4.230   8.849  0.9812  0.5757  0.2088
 6974SOL    HW232382   0.296   4.222   8.898 -0.4015  1.3519  0.1717
 6975SOL     OW32383   1.478   2.040   3.967 -0.3254  1.0877  0.2945
 6975SOL    HW132384   1.418   2.024   3.894  0.0524 -1.1339  0.4616
 6975SOL    HW232385   1.427   2.011   4.043 -2.6094  4.1293 -0.0904
 6976SOL     OW32386   3.512   0.704   0.897 -0.0360 -0.0396  0.5118
 6976SOL    HW132387   3.496   0.789   0.856  0.5196 -1.4710 -2.7399
 6976SOL    HW232388   3.596   0.722   0.939  0.4194  0.2707 -0.5232
 6977SOL     OW32389   0.443   1.324   6.592 -0.4544 -0.2174 -0.0428
 6977SOL    HW132390   0.494   1.342   6.671  1.2825 -0.3775 -1.1252
 6977SOL    HW232391   0.394   1.254   6.634  1.1466 -2.1269 -1.3400
 6978SOL     OW32392   1.974   4.559  10.725 -0.1854 -0.0446  0.7378
 6978SOL    HW132393   1.987   4.532  10.634 -0.9140 -0.2236  0.6815
 6978SOL    HW232394   2.000   4.651  10.729 -0.2683  0.0011  0.2834
 6979SOL     OW32395   2.311   3.645   3.031  0.2931 -0.2998  0.3133
 6979SOL    HW132396   2.223   3.642   3.067  1.0252 -2.4849  1.8723
 6979SOL    HW232397   2.290   3.587   2.958  0.1097 -0.0228  0.1440
 6980SOL     OW32398   1.514   3.075   6.952 -0.6416  0.2888  0.0756
 6980SOL    HW132399   1.580   3.143   6.942  1.0383 -1.7748 -2.7384
 6980SOL    HW232400   1.452   3.104   6.885 -3.0975 -4.6072  0.1693
 6981SOL     OW32401   4.272   2.955  17.618 -0.1496  0.2031 -0.3484
 6981SOL    HW132402   4.255   2.862  17.601 -0.3025  0.2738 -0.5860
 6981SOL    HW232403   4.231   2.959   0.013  1.0333 -2.1527  0.3178
 6982SOL     OW32404   4.585   0.813   7.307 -0.0533 -0.0289  0.4008
 6982SOL    HW132405   4.656   0.877   7.316 -0.0606  0.1639 -0.8293
 6982SOL    HW232406   4.630   0.738   7.345 -0.7087 -0.0659  1.0932
 6983SOL     OW32407   4.284   2.584  15.920  0.1547  0.4952 -0.1054
 6983SOL    HW132408   4.342   2.514  15.949 -0.4419 -0.0013 -0.1146
 6983SOL    HW232409   4.250   2.617  16.003  1.4341  1.2930  0.1039
 6984SOL     OW32410   4.523   1.361  17.642  0.0954  0.8241  0.7072
 6984SOL    HW132411   4.614   1.341  17.621  0.1882  2.3539 -0.3751
 6984SOL    HW232412   4.522   1.448  17.602 -0.9891  0.9343  0.9621
 6985SOL     OW32413   0.049   4.719  11.677 -0.4569  0.1125 -0.2280
 6985SOL    HW132414   0.082   0.086  11.679  1.0969 -0.5247  2.5733
 6985SOL    HW232415   0.052   4.707  11.582  0.0117 -0.1119 -0.1848
 6986SOL     OW32416   0.961   3.011   9.106 -0.3342 -0.5201 -0.4178
 6986SOL    HW132417   0.967   2.937   9.045  0.7362  0.8969 -2.0286
 6986SOL    HW232418   0.871   3.007   9.137 -0.3725  2.2993 -0.1888
 6987SOL     OW32419   0.535   0.255  10.038 -0.0671  0.2400  0.7281
 6987SOL    HW132420   0.589   0.325  10.003 -0.4362  0.8000  1.2855
 6987SOL    HW232421   0.462   0.284  10.092 -1.9750 -3.3915  0.1441
 6988SOL     OW32422   0.976   1.657   7.700  0.1266  0.2778  0.1338
 6988SOL    HW132423   1.037   1.659   7.627  1.2642  0.7018  1.1072
 6988SOL    HW232424   0.899   1.697   7.660  0.1925  1.5610  1.2995
 6989SOL     OW32425   3.167   3.682  12.901 -0.1099 -0.4089 -0.2825
 6989SOL    HW132426   3.142   3.674  12.993  0.0703  1.6951 -0.0487
 6989SOL    HW232427   3.225   3.758  12.903 -1.1579  0.3572  0.9996
 6990SOL     OW32428   1.575   1.681   9.148 -0.0028  0.1904 -0.1245
 6990SOL    HW132429   1.616   1.657   9.231  0.2669 -1.5555 -0.7508
 6990SOL    HW232430   1.576   1.595   9.106 -2.2493  1.2447 -2.3327
 6991SOL     OW32431   1.821   1.043   7.971  0.6915  0.2273 -0.3502
 6991SOL    HW132432   1.774   1.049   8.054 -1.0352  2.0407 -1.4713
 6991SOL    HW232433   1.903   1.034   8.019  0.5206 -0.3822 -0.1728
 6992SOL     OW32434   2.322   0.680   6.335 -0.2928  0.1813 -0.1615
 6992SOL    HW132435   2.328   0.774   6.319  0.2292  0.3824  1.1505
 6992SOL    HW232436   2.302   0.632   6.255 -1.9499 -0.8975  0.8866
 6993SOL     OW32437   1.567   1.034   2.287  0.0787  0.0884 -0.5201
 6993SOL    HW132438   1.556   0.943   2.315  0.3842  0.0466 -0.5364
 6993SOL    HW232439   1.483   1.054   2.245 -0.7977 -0.2111  1.0866
 6994SOL     OW32440   0.684   2.691  10.931 -1.0198  0.5834 -0.4594
 6994SOL    HW132441   0.701   2.657  10.843  1.5873  0.3959  0.0890
 6994SOL    HW232442   0.602   2.645  10.944 -0.0449 -1.0963 -0.2021
 6995SOL     OW32443   0.155   2.731   7.709  0.2930  0.5192 -0.2158
 6995SOL    HW132444   0.115   2.663   7.764 -0.5499 -0.1993 -1.7085
 6995SOL    HW232445   0.230   2.677   7.684 -1.3297 -2.3287  1.0241
 6996SOL     OW32446   2.033   4.214   4.582 -0.2279  0.0942 -0.4647
 6996SOL    HW132447   2.088   4.254   4.515  1.1449 -0.9385  0.0297
 6996SOL    HW232448   2.093   4.144   4.609  0.0433  0.8152  0.8399
 6997SOL     OW32449   2.426   2.802  11.572  0.5988 -0.3117  0.0019
 6997SOL    HW132450   2.338   2.786  11.538 -0.4056  3.2008  0.9519
 6997SOL    HW232451   2.468   2.837  11.494  2.2309 -0.1757  0.9383
 6998SOL     OW32452   4.488   0.164   7.346  0.4218  0.3340 -0.1371
 6998SOL    HW132453   4.549   0.237   7.359 -1.7707  2.2692 -0.7350
 6998SOL    HW232454   4.485   0.143   7.252  1.7552  1.9421 -0.5435
 6999SOL     OW32455   0.358   2.759   5.778  0.2315 -0.0259 -0.4877
 6999SOL    HW132456   0.365   2.779   5.872 -3.3876  0.6927 -0.3825
 6999SOL    HW232457   0.401   2.834   5.736 -1.2162  0.8761 -0.3586
 7000SOL     OW32458   0.744   4.643   1.273 -0.0935  0.3647  0.4381
 7000SOL    HW132459   0.805   4.610   1.207 -1.3451 -0.9711 -0.0709
 7000SOL    HW232460   0.753   4.571   1.336  0.4114 -0.3813 -0.4984
 7001SOL     OW32461   0.857   3.276  10.216 -0.0295  0.0970 -0.3740
 7001SOL    HW132462   0.856   3.241  10.305  0.4604 -0.3906 -0.5551
 7001SOL    HW232463   0.848   3.371  10.225 -1.9004 -0.2998  1.7760
 7002SOL     OW32464   0.714   0.920  16.712 -0.3268  0.1474  0.3911
 7002SOL    HW132465   0.710   0.842  16.767 -0.6030  0.1557  0.3804
 7002SOL    HW232466   0.808   0.929  16.727 -0.6179  1.2502  1.4708
 7003SOL     OW32467   4.414   4.617   2.175  0.3476 -0.5944  0.7482
 7003SOL    HW132468   4.401   4.678   2.102  0.5032  0.3025  1.4712
 7003SOL    HW232469   4.335   4.564   2.181 -0.2088  0.3230  1.5305
 7004SOL     OW32470   3.338   2.247  17.388 -0.0207 -0.4058 -0.0159
 7004SOL    HW132471   3.275   2.302  17.435  0.9443  0.1397  0.6232
 7004SOL    HW232472   3.393   2.320  17.363 -1.1774  0.5671  0.2526
 7005SOL     OW32473   3.682   3.686   3.830 -0.0892  0.0862  0.4539
 7005SOL    HW132474   3.778   3.688   3.830 -0.0827 -0.3102  0.6209
 7005SOL    HW232475   3.649   3.604   3.793  1.8827 -1.0310  1.1781
 7006SOL     OW32476   1.541   0.904   1.935  0.0635 -0.5022  0.3324
 7006SOL    HW132477   1.589   0.972   1.888  0.8763  0.1014  2.0177
 7006SOL    HW232478   1.454   0.925   1.901 -0.4040  0.6483  2.2318
 7007SOL     OW32479   0.927   2.848   6.569  0.3413 -0.0203  0.4189
 7007SOL    HW132480   0.857   2.858   6.633 -0.8821  0.0799 -0.9272
 7007SOL    HW232481   1.008   2.865   6.618 -0.2040  0.3067  1.1997
 7008SOL     OW32482   2.699   1.933  10.918 -0.2611  0.3510  0.0884
 7008SOL    HW132483   2.622   1.982  10.893 -0.1926  0.3000 -0.2261
 7008SOL    HW232484   2.712   1.961  11.008 -1.1703 -0.0939  0.3500
 7009SOL     OW32485   3.163   4.692   2.908  0.2511 -0.0047 -0.4632
 7009SOL    HW132486   3.201   0.051   2.943  1.4050 -0.2167 -1.2238
 7009SOL    HW232487   3.193   4.627   2.971  0.9791  0.5208 -0.2686
 7010SOL     OW32488   1.111   1.155   8.188  0.0039  0.0246  0.3695
 7010SOL    HW132489   1.180   1.221   8.179 -0.2004  0.1081 -0.5800
 7010SOL    HW232490   1.150   1.086   8.241  1.2774  1.4230  1.2549
 7011SOL     OW32491   0.656   2.894   5.483 -0.2103 -0.5238 -0.4041
 7011SOL    HW132492   0.675   2.800   5.488  4.0236  0.3701  0.4488
 7011SOL    HW232493   0.599   2.896   5.407 -1.2495 -0.8939  0.3682
 7012SOL     OW32494   0.240   4.526  16.938 -0.3219 -0.2614 -0.3499
 7012SOL    HW132495   0.310   4.545  16.876 -1.1246 -0.1078 -1.1987
 7012SOL    HW232496   0.211   4.616  16.954  0.6117 -0.0061 -0.0847
 7013SOL     OW32497   2.498   0.065  11.823  0.1457 -0.2477  0.1134
 7013SOL    HW132498   2.414   0.093  11.860  1.5398  0.9313  2.3882
 7013SOL    HW232499   2.465   0.002  11.760 -1.3697 -0.3840  1.0406
 7014SOL     OW32500   0.075   2.694  13.343  0.6255  0.2994 -0.1442
 7014SOL    HW132501   0.143   2.761  13.333  0.2874  0.6607  0.0009
 7014SOL    HW232502   0.082   2.683  13.438 -0.1323 -1.6868 -0.3115
 7015SOL     OW32503   3.727   3.765   2.705  0.9435  0.4272  0.0572
 7015SOL    HW132504   3.651   3.707   2.704  1.7775 -0.6540 -0.9524
 7015SOL    HW232505   3.773   3.721   2.776  2.3715  1.4041 -0.2744
 7016SOL     OW32506   1.177   3.299   2.998 -0.4205  0.0966 -0.7100
 7016SOL    HW132507   1.130   3.284   3.080  0.9081  0.2777  0.0867
 7016SOL    HW232508   1.189   3.393   3.006 -1.9320  0.0829  1.7930
 7017SOL     OW32509   2.260   4.052  11.131  0.3103  0.0346  0.3983
 7017SOL    HW132510   2.263   4.104  11.051 -0.4299 -0.5850 -0.0319
 7017SOL    HW232511   2.351   4.063  11.159  0.7053 -1.1909 -0.4080
 7018SOL     OW32512   3.545   1.114  15.679 -0.4157 -0.0868 -0.0388
 7018SOL    HW132513   3.552   1.103  15.774 -1.2988  0.5648  0.0945
 7018SOL    HW232514   3.462   1.156  15.662 -1.2083 -1.6610 -0.0637
 7019SOL     OW32515   2.269   2.859   8.504  0.4408  0.2068  0.0083
 7019SOL    HW132516   2.184   2.825   8.478  0.3441 -0.3077  0.9928
 7019SOL    HW232517   2.278   2.837   8.597 -0.5241 -0.8398 -0.1538
 7020SOL     OW32518   1.874   0.171   3.423  0.7363  0.5230  0.1569
 7020SOL    HW132519   1.818   0.146   3.496 -0.5712 -3.6222 -2.2172
 7020SOL    HW232520   1.846   0.103   3.362  0.5797  0.4541  0.3048
 7021SOL     OW32521   4.525   4.495   4.141 -0.2571  0.1281 -0.3733
 7021SOL    HW132522   4.558   4.579   4.109  0.0078 -0.2212 -1.0070
 7021SOL    HW232523   4.452   4.492   4.078 -1.0145 -1.4819  0.5771
 7022SOL     OW32524   3.578   2.613   8.183  0.8405 -0.2074 -1.0160
 7022SOL    HW132525   3.584   2.576   8.095  2.6875 -0.5751 -0.7293
 7022SOL    HW232526   3.538   2.697   8.161 -0.6279 -0.6564 -0.0651
 7023SOL     OW32527   2.772   2.470   3.199  0.6320 -0.0297 -0.2275
 7023SOL    HW132528   2.810   2.430   3.121 -1.7443 -1.4646 -0.6374
 7023SOL    HW232529   2.725   2.397   3.239  1.9251 -1.6677 -1.7340
 7024SOL     OW32530   0.712   2.692   9.175 -0.2705  0.0948 -0.0384
 7024SOL    HW132531   0.632   2.742   9.190 -0.5980  0.4363 -3.0545
 7024SOL    HW232532   0.772   2.721   9.244 -1.4034  1.9962  0.1541
 7025SOL     OW32533   0.450   0.427   6.803  0.7736  0.2762 -0.2386
 7025SOL    HW132534   0.381   0.491   6.782  2.4462  2.0047 -0.4761
 7025SOL    HW232535   0.455   0.365   6.731  2.6792  0.4258 -0.2235
 7026SOL     OW32536   1.405   3.274   4.070  0.3509  0.1695 -0.4624
 7026SOL    HW132537   1.339   3.336   4.102 -0.0600 -0.3401 -0.3249
 7026SOL    HW232538   1.474   3.329   4.034  0.5369 -0.8988 -1.7324
 7027SOL     OW32539   3.541   1.314   1.067 -0.4320  0.0983 -0.1739
 7027SOL    HW132540   3.537   1.353   0.979  1.0459 -0.1981 -0.3687
 7027SOL    HW232541   3.457   1.268   1.067 -0.7002  0.5928 -1.0721
 7028SOL     OW32542   3.582   0.189  13.993 -0.6427  0.3351  0.1217
 7028SOL    HW132543   3.597   0.111  14.047 -2.5621 -0.8170 -0.9888
 7028SOL    HW232544   3.494   0.163  13.963 -2.6159  1.8918  4.6089
 7029SOL     OW32545   2.706   2.208   5.666  0.0626  0.3779 -0.4702
 7029SOL    HW132546   2.770   2.150   5.624 -0.3588 -0.4221 -0.0040
 7029SOL    HW232547   2.736   2.294   5.639  3.0832  0.3019  2.6502
 7030SOL     OW32548   3.010   3.623   2.818 -0.1225  0.5475 -0.4392
 7030SOL    HW132549   3.036   3.680   2.890 -2.3101 -2.3113  2.5931
 7030SOL    HW232550   3.016   3.534   2.854 -1.4641  0.2848 -0.8664
 7031SOL     OW32551   3.028   2.139   7.373 -0.5271 -0.0523  0.2398
 7031SOL    HW132552   3.111   2.125   7.418  0.0169  0.7477 -0.5138
 7031SOL    HW232553   2.967   2.071   7.402 -0.1486  0.0130  1.1785
 7032SOL     OW32554   1.200   3.785   6.133  0.3629  0.0254  0.1391
 7032SOL    HW132555   1.270   3.813   6.193  1.4977 -1.3009 -0.5599
 7032SOL    HW232556   1.216   3.832   6.052 -0.6870 -1.1961 -0.7623
 7033SOL     OW32557   1.087   1.693   8.936 -0.5270 -0.1781  0.0787
 7033SOL    HW132558   1.100   1.787   8.951 -2.4008  0.2981 -1.3949
 7033SOL    HW232559   1.151   1.654   8.996  0.2548  1.6895  0.4565
 7034SOL     OW32560   2.122   0.209   3.277 -0.3751 -0.1540 -0.1054
 7034SOL    HW132561   2.186   0.279   3.292 -0.1603 -0.5470  0.8683
 7034SOL    HW232562   2.046   0.234   3.328 -0.5020  2.6479 -1.6856
 7035SOL     OW32563   0.610   0.554   2.897  0.3537 -0.5875 -0.2378
 7035SOL    HW132564   0.520   0.522   2.885  0.2866 -0.9552  1.2177
 7035SOL    HW232565   0.591   0.648   2.898  1.3798 -0.3608 -1.7973
 7036SOL     OW32566   0.305   2.913   3.246  0.5084  0.0310 -0.1451
 7036SOL    HW132567   0.396   2.911   3.216  0.5883 -2.0171  0.2687
 7036SOL    HW232568   0.270   2.853   3.180  0.6098  0.4892 -0.6176
 7037SOL     OW32569   1.742   1.068   9.234 -0.0860  0.5014  0.4358
 7037SOL    HW132570   1.775   1.137   9.292 -1.0035  0.0611  1.4760
 7037SOL    HW232571   1.650   1.069   9.259 -0.2166  0.0537 -0.0296
 7038SOL     OW32572   3.705   2.161   6.359  0.1713  0.2610  0.4943
 7038SOL    HW132573   3.725   2.072   6.329  0.3951 -0.2108  2.0643
 7038SOL    HW232574   3.789   2.193   6.392  1.8857 -1.1916 -2.4368
 7039SOL     OW32575   2.837   0.972   1.675 -0.3930  0.3477  0.2742
 7039SOL    HW132576   2.863   0.912   1.745 -0.3562 -0.1246 -0.1480
 7039SOL    HW232577   2.911   1.028   1.653  0.3013 -1.0781 -1.0164
 7040SOL     OW32578   1.581   3.209   0.797  0.2603  0.2678  0.0805
 7040SOL    HW132579   1.524   3.280   0.769  0.0683  0.3464  0.6762
 7040SOL    HW232580   1.638   3.253   0.860  1.0189  0.1652 -0.5241
 7041SOL     OW32581   1.210   3.684   6.793 -0.4225  0.0990 -0.1133
 7041SOL    HW132582   1.248   3.713   6.876  1.6199 -1.3591 -0.5181
 7041SOL    HW232583   1.245   3.760   6.747  0.6330 -0.6628 -0.5737
 7042SOL     OW32584   1.635   3.175   5.491  0.8389 -0.7682  0.1176
 7042SOL    HW132585   1.681   3.127   5.559  0.2074  1.2840  2.0076
 7042SOL    HW232586   1.646   3.266   5.521 -0.6673 -0.0083 -1.5953
 7043SOL     OW32587   0.610   3.106   2.140  0.3096 -0.3962  1.0838
 7043SOL    HW132588   0.585   3.051   2.214  2.0394  0.3487  2.2381
 7043SOL    HW232589   0.688   3.155   2.169  0.2526  0.7179 -0.6393
 7044SOL     OW32590   3.019   4.178   7.140  0.0060 -0.4002 -0.5339
 7044SOL    HW132591   2.989   4.111   7.080 -1.3060 -0.0635 -0.2593
 7044SOL    HW232592   2.944   4.203   7.194  1.0001  0.3835  0.4905
 7045SOL     OW32593   0.385   3.250  13.637  0.1138  0.2014 -0.1895
 7045SOL    HW132594   0.366   3.184  13.570  1.6035 -2.2550  1.7941
 7045SOL    HW232595   0.389   3.334  13.592  1.0158  1.2014  1.7997
 7046SOL     OW32596   0.417   3.676   4.128  0.3236  0.8652 -0.6410
 7046SOL    HW132597   0.417   3.771   4.120 -2.3547  0.7892 -1.6084
 7046SOL    HW232598   0.388   3.658   4.217  1.6847 -1.4021 -0.6730
 7047SOL     OW32599   3.986   0.599  15.533 -0.2983 -0.0426  0.3193
 7047SOL    HW132600   3.926   0.664  15.570 -0.4467 -0.3558  0.6307
 7047SOL    HW232601   4.068   0.632  15.571  0.0749  0.5132 -0.9609
 7048SOL     OW32602   4.244   3.771   3.396  0.2377  0.1403 -0.6294
 7048SOL    HW132603   4.221   3.733   3.480  2.1531 -2.4915 -1.2837
 7048SOL    HW232604   4.215   3.863   3.397 -0.8780 -0.2186 -0.1281
 7049SOL     OW32605   1.703   1.804   6.924 -0.0265 -0.2086  0.3716
 7049SOL    HW132606   1.677   1.883   6.876  1.7034 -0.0163 -0.2346
 7049SOL    HW232607   1.620   1.756   6.920 -0.4646  0.7064 -2.2478
 7050SOL     OW32608   4.522   3.564  12.625  0.2412 -0.4253  0.4821
 7050SOL    HW132609   4.602   3.607  12.595  0.1266 -0.4800  0.0934
 7050SOL    HW232610   4.462   3.639  12.631  0.6799 -0.2055  2.0425
 7051SOL     OW32611   3.082   2.536   2.898  0.2208  0.0787  0.8199
 7051SOL    HW132612   3.009   2.586   2.862 -0.2647  1.2293  3.3619
 7051SOL    HW232613   3.152   2.601   2.886  0.1478  0.3416  1.7648
 7052SOL     OW32614   3.784   3.998   2.557 -0.3891 -0.0433 -0.2191
 7052SOL    HW132615   3.750   3.923   2.607  0.7531  0.0591  0.7185
 7052SOL    HW232616   3.738   4.071   2.598  1.0545  0.6411  0.1625
 7053SOL     OW32617   1.232   1.396   8.513 -0.1986 -0.3028 -0.0939
 7053SOL    HW132618   1.144   1.371   8.540  0.6488 -3.0647  0.0602
 7053SOL    HW232619   1.280   1.316   8.531  0.7998  0.1161 -0.8522
 7054SOL     OW32620   0.458   1.991   9.089  0.3179  0.6771 -0.2676
 7054SOL    HW132621   0.495   1.903   9.101  2.6433  1.5721 -0.9045
 7054SOL    HW232622   0.447   2.022   9.179  0.5098 -1.9033  0.6607
 7055SOL     OW32623   0.439   2.956  17.567 -0.0033  0.1990 -0.3930
 7055SOL    HW132624   0.426   2.988  17.656 -0.5618  0.4985 -0.5789
 7055SOL    HW232625   0.534   2.970  17.562 -0.0299  0.6622  0.3915
 7056SOL     OW32626   3.637   2.546  17.139 -0.0686  0.3443 -0.0264
 7056SOL    HW132627   3.558   2.507  17.102 -0.3635 -0.3654  1.3260
 7056SOL    HW232628   3.620   2.640  17.136  0.1789  0.3975  0.2196
 7057SOL     OW32629   4.288   0.130   8.315 -0.2903 -0.4459 -0.0592
 7057SOL    HW132630   4.285   0.181   8.396  1.8489  1.0730 -0.9226
 7057SOL    HW232631   4.383   0.134   8.302 -0.3327  0.6080 -0.0038
 7058SOL     OW32632   1.628   2.804  14.759 -0.1648  0.1691 -0.1966
 7058SOL    HW132633   1.571   2.733  14.728 -0.9047  0.6319  0.1053
 7058SOL    HW232634   1.593   2.817  14.847  1.0669  0.2936  0.2648
 7059SOL     OW32635   0.636   2.732   1.365  0.6007 -0.2857 -0.2333
 7059SOL    HW132636   0.670   2.643   1.358  0.4786 -0.4421  1.1043
 7059SOL    HW232637   0.653   2.758   1.275  0.1712 -2.5015 -0.9448
 7060SOL     OW32638   3.358   1.426   7.136 -0.1492  0.4153  0.4471
 7060SOL    HW132639   3.292   1.422   7.067 -0.2507 -0.0490  0.5737
 7060SOL    HW232640   3.313   1.464   7.211 -1.4883 -0.4428  0.0753
 7061SOL     OW32641   3.416   3.888  15.950  0.4848  0.0988  0.0088
 7061SOL    HW132642   3.511   3.891  15.939  0.3205  0.8722 -1.2021
 7061SOL    HW232643   3.404   3.975  15.989 -1.5751  0.9352 -2.5031
 7062SOL     OW32644   2.956   1.813  12.242  0.0514  0.2947 -0.4592
 7062SOL    HW132645   2.909   1.738  12.278 -0.6194  2.0787  2.3616
 7062SOL    HW232646   2.949   1.876  12.314 -0.4498  1.5379 -1.5929
 7063SOL     OW32647   1.728   0.447   1.892  0.2591 -0.5528 -0.3739
 7063SOL    HW132648   1.667   0.375   1.877  0.3598 -1.2271  2.4130
 7063SOL    HW232649   1.692   0.507   1.827  0.7067 -0.4959 -0.5742
 7064SOL     OW32650   3.875   1.725   5.818 -0.2565  0.3060  0.4193
 7064SOL    HW132651   3.853   1.707   5.726 -2.3682 -1.8030  1.3310
 7064SOL    HW232652   3.871   1.635   5.849  2.2868  0.5701  1.4968
 7065SOL     OW32653   1.317   4.127   2.061  0.1848  0.2603 -0.6772
 7065SOL    HW132654   1.239   4.168   2.022 -0.8838  0.6267  1.7902
 7065SOL    HW232655   1.373   4.202   2.040 -0.2565  1.0223  0.8174
 7066SOL     OW32656   1.678   0.747   2.107 -0.1625  0.0985 -0.1051
 7066SOL    HW132657   1.648   0.768   2.195  0.2572 -1.9160  0.5277
 7066SOL    HW232658   1.621   0.799   2.051 -1.5681 -0.9912  0.2905
 7067SOL     OW32659   0.694   3.753  11.789 -0.0093  0.0668 -0.2949
 7067SOL    HW132660   0.773   3.756  11.736  0.6873  0.6945  0.7892
 7067SOL    HW232661   0.640   3.827  11.763 -0.0775  0.4655  0.9801
 7068SOL     OW32662   2.952   2.763   1.298 -0.4377 -0.7588 -0.3365
 7068SOL    HW132663   3.034   2.730   1.336  0.2549  1.3827  0.0259
 7068SOL    HW232664   2.901   2.768   1.379  0.6319  1.3785  0.1976
 7069SOL     OW32665   3.290   0.100   6.209 -0.0713 -0.4830  0.0787
 7069SOL    HW132666   3.208   0.063   6.175  0.0477 -0.7644  0.0921
 7069SOL    HW232667   3.260   0.187   6.233 -1.1658 -1.5083  2.3901
 7070SOL     OW32668   1.778   3.856  13.520  0.1091 -0.4069 -0.2037
 7070SOL    HW132669   1.690   3.819  13.519  0.4429 -1.1605 -1.2384
 7070SOL    HW232670   1.819   3.817  13.443  1.3844 -1.1253  0.8194
 7071SOL     OW32671   1.507   4.695   2.128 -0.3370  0.2049  0.0520
 7071SOL    HW132672   1.414   4.717   2.126 -0.0262  1.4014 -1.1836
 7071SOL    HW232673   1.522   0.012   2.214 -0.9695 -0.2698  0.3855
 7072SOL     OW32674   3.321   0.416   3.054  0.2196  0.7429 -0.4132
 7072SOL    HW132675   3.390   0.476   3.084  1.8571 -0.8928 -0.9732
 7072SOL    HW232676   3.366   0.332   3.060  0.7348  0.8835 -2.6755
 7073SOL     OW32677   2.342   1.460   7.643  0.6794  0.1164 -0.6766
 7073SOL    HW132678   2.336   1.550   7.611 -0.2458 -0.1489 -1.2323
 7073SOL    HW232679   2.382   1.409   7.572 -0.5504 -0.2045 -1.1393
 7074SOL     OW32680   0.467   1.221   8.115 -0.5379 -0.4904  0.5120
 7074SOL    HW132681   0.420   1.171   8.181 -1.1358 -2.9156 -1.7738
 7074SOL    HW232682   0.537   1.261   8.167 -0.6417  0.9235 -0.4193
 7075SOL     OW32683   3.467   0.992   2.469 -0.3195 -0.1895  0.1408
 7075SOL    HW132684   3.470   0.897   2.460 -0.7892 -0.1565 -0.3804
 7075SOL    HW232685   3.494   1.014   2.380 -0.5184 -0.5943 -0.0229
 7076SOL     OW32686   0.176   1.191  10.724 -0.1413  0.6007 -0.1036
 7076SOL    HW132687   0.096   1.138  10.724  0.7606 -0.7760  1.8494
 7076SOL    HW232688   0.231   1.132  10.775 -1.7895 -0.0998  0.8769
 7077SOL     OW32689   2.422   1.484   3.628 -0.4280  0.3574 -0.0848
 7077SOL    HW132690   2.433   1.508   3.536 -0.4495 -1.0258 -0.4472
 7077SOL    HW232691   2.330   1.510   3.639 -1.0500 -1.4069 -1.0861
 7078SOL     OW32692   0.368   3.869  15.413 -0.2077 -0.7933 -0.4622
 7078SOL    HW132693   0.310   3.907  15.348 -1.7034 -0.1754  1.2296
 7078SOL    HW232694   0.453   3.908  15.391 -0.1330  0.6354  2.3730
 7079SOL     OW32695   4.564   3.637   6.909  0.5767  0.1532  0.1946
 7079SOL    HW132696   4.532   3.711   6.856  0.2806 -0.0081  0.1445
 7079SOL    HW232697   4.609   3.590   6.839  0.8451 -2.6409  2.3050
 7080SOL     OW32698   1.474   3.737  13.487  0.3034  0.2078  0.0547
 7080SOL    HW132699   1.386   3.752  13.520 -0.2593  0.3953 -1.5145
 7080SOL    HW232700   1.489   3.644  13.505  1.5354  0.0875 -1.6211
 7081SOL     OW32701   3.336   0.823  17.622 -0.0259 -0.7237 -0.1981
 7081SOL    HW132702   3.280   0.861  17.554 -0.8353 -1.5594 -0.0040
 7081SOL    HW232703   3.316   0.893  17.685  0.5471  1.6192 -2.5837
 7082SOL     OW32704   1.852   4.450   9.340 -1.1160 -0.1652  1.1578
 7082SOL    HW132705   1.920   4.517   9.355 -0.1358 -1.1431  1.0919
 7082SOL    HW232706   1.904   4.388   9.288 -0.3724  2.3403 -1.1272
 7083SOL     OW32707   3.751   2.107  15.320 -0.1966 -0.4724 -0.0439
 7083SOL    HW132708   3.714   2.138  15.238 -0.5090 -0.6097  0.0470
 7083SOL    HW232709   3.675   2.078  15.369 -1.1745  1.4340 -0.4321
 7084SOL     OW32710   4.349   0.049   1.951  0.1513  0.0634  0.4701
 7084SOL    HW132711   4.402   0.020   1.877 -0.6561 -0.1649 -0.0159
 7084SOL    HW232712   4.278   0.083   1.898  0.9959  1.4119  0.1920
 7085SOL     OW32713   0.516   3.578   7.434  0.3066  0.6542 -0.4556
 7085SOL    HW132714   0.472   3.553   7.515 -0.0440 -1.7964 -1.3908
 7085SOL    HW232715   0.567   3.649   7.473 -3.3123  2.4450  0.9365
 7086SOL     OW32716   4.624   0.422   6.125 -0.3955 -0.1749 -0.4017
 7086SOL    HW132717   4.628   0.390   6.215 -1.0761  0.6100 -0.0910
 7086SOL    HW232718   4.572   0.355   6.082  2.1938 -1.1202 -2.0647
 7087SOL     OW32719   4.212   1.010   4.690 -0.5939 -0.0939 -0.0519
 7087SOL    HW132720   4.210   0.922   4.727  1.7379 -0.0455  0.1748
 7087SOL    HW232721   4.159   0.990   4.613 -0.7585 -1.4507  0.4119
 7088SOL     OW32722   1.848   3.498   9.174 -0.6234  0.5994 -0.1171
 7088SOL    HW132723   1.803   3.571   9.131 -0.6498 -0.5863 -2.0911
 7088SOL    HW232724   1.806   3.498   9.260  0.4299  1.3021  0.4038
 7089SOL     OW32725   1.441   0.431   5.971  0.6553  0.6992 -0.4350
 7089SOL    HW132726   1.405   0.346   5.947 -0.2469  0.2790  2.4070
 7089SOL    HW232727   1.525   0.409   6.011 -0.2021  0.2912  1.1520
 7090SOL     OW32728   3.032   0.663   7.531  0.4420 -0.2668 -0.4102
 7090SOL    HW132729   3.052   0.743   7.482 -0.0411  0.6887  0.9325
 7090SOL    HW232730   2.980   0.701   7.602  1.8805  2.9924 -1.0897
 7091SOL     OW32731   4.130   4.433   0.340  0.0112  0.4178 -0.1578
 7091SOL    HW132732   4.083   4.474   0.267  1.1450  1.3562 -0.3479
 7091SOL    HW232733   4.208   4.399   0.297  0.5275  1.5989 -0.1489
 7092SOL     OW32734   3.963   1.353   7.216  0.2687 -0.1193 -0.0563
 7092SOL    HW132735   4.035   1.357   7.153  0.6013  1.0414  0.3996
 7092SOL    HW232736   3.932   1.443   7.200 -2.0370 -0.9958 -0.4881
 7093SOL     OW32737   2.042   3.913  12.066  0.2615  0.2680 -0.2585
 7093SOL    HW132738   1.975   3.981  12.055 -1.0649 -1.0291 -0.1953
 7093SOL    HW232739   2.090   3.931  11.986  0.9670  0.8664  0.2975
 7094SOL     OW32740   4.099   3.389   3.922  0.0115  0.0068 -0.2950
 7094SOL    HW132741   4.036   3.321   3.941 -1.1212  0.9006 -0.8464
 7094SOL    HW232742   4.155   3.384   3.999  1.2219  0.4021 -1.1478
 7095SOL     OW32743   2.074   1.140   9.137  0.1062 -0.4933 -0.0718
 7095SOL    HW132744   2.042   1.101   9.218 -1.6882  1.2864  0.0779
 7095SOL    HW232745   2.156   1.179   9.167 -0.3187 -0.2735  0.7978
 7096SOL     OW32746   1.662   4.584   5.648  0.0674  0.0163 -0.2165
 7096SOL    HW132747   1.721   4.530   5.596 -0.7877  0.1904 -1.3672
 7096SOL    HW232748   1.647   4.663   5.596 -0.9284  1.5429  2.3866
 7097SOL     OW32749   2.854   0.491   0.217  0.1372  0.0985  0.3347
 7097SOL    HW132750   2.761   0.496   0.195  0.2301 -0.6906 -0.2486
 7097SOL    HW232751   2.901   0.574   0.209  0.8647 -0.3877 -0.3693
 7098SOL     OW32752   2.315   1.483  10.566  0.8479  0.0351  0.5136
 7098SOL    HW132753   2.366   1.514  10.641  1.3033 -0.0175  0.2231
 7098SOL    HW232754   2.353   1.538  10.497 -2.4219  0.4785 -0.9729
 7099SOL     OW32755   2.177   1.981   0.859 -0.0054 -0.4710  0.8034
 7099SOL    HW132756   2.210   1.973   0.948  3.0074 -1.6450 -0.4177
 7099SOL    HW232757   2.194   2.074   0.840 -1.0907 -0.7935 -1.7046
 7100SOL     OW32758   0.458   1.113   7.646 -0.4104  0.3318 -0.3503
 7100SOL    HW132759   0.382   1.107   7.588 -0.4023  0.9037 -0.4182
 7100SOL    HW232760   0.498   1.030   7.624  0.1490  0.4847  0.0867
 7101SOL     OW32761   3.335   4.078  11.217 -0.0205  0.5022  0.0597
 7101SOL    HW132762   3.301   4.166  11.236 -0.7670  0.7658 -2.5553
 7101SOL    HW232763   3.349   4.097  11.124  0.9955 -0.5853  0.0077
 7102SOL     OW32764   3.384   3.615   5.159  0.1365  0.7605 -0.1491
 7102SOL    HW132765   3.394   3.525   5.190  0.3809  0.7614 -0.2213
 7102SOL    HW232766   3.290   3.630   5.165 -0.1900 -0.8408 -1.3749
 7103SOL     OW32767   3.581   1.083   4.334  0.6340 -0.4914 -0.1152
 7103SOL    HW132768   3.618   1.081   4.423 -1.1139 -0.4746  0.6014
 7103SOL    HW232769   3.580   0.990   4.313  0.7299 -0.0542 -2.0061
 7104SOL     OW32770   3.476   3.518   4.728  0.2046 -0.2072  0.2290
 7104SOL    HW132771   3.480   3.549   4.637  0.1181 -2.0992 -0.4329
 7104SOL    HW232772   3.386   3.534   4.756  0.2557  1.0968 -0.3419
 7105SOL     OW32773   0.760   3.621  10.748  0.1089  0.1847  0.6930
 7105SOL    HW132774   0.847   3.626  10.789 -0.1347  1.1289  1.1141
 7105SOL    HW232775   0.776   3.584  10.662 -0.4353  0.9360  0.2660
 7106SOL     OW32776   2.153   3.508   6.352  0.1044  0.0875 -0.2751
 7106SOL    HW132777   2.248   3.505   6.342  0.0763 -0.0119 -0.5146
 7106SOL    HW232778   2.140   3.603   6.358 -0.4253 -0.0792  1.3563
 7107SOL     OW32779   4.036   1.366   1.879  0.4396  0.4422  0.2128
 7107SOL    HW132780   4.045   1.281   1.923  0.0872  0.0781 -0.4154
 7107SOL    HW232781   3.954   1.349   1.832  0.3198  1.6070 -0.0055
 7108SOL     OW32782   4.078   0.923   3.522 -0.2767  0.2528 -0.2942
 7108SOL    HW132783   4.147   0.874   3.475  0.0448  0.9039 -0.4997
 7108SOL    HW232784   4.072   0.990   3.454 -0.4635  0.5725  0.0420
 7109SOL     OW32785   2.065   2.284  11.742  0.5727 -0.3535  0.2582
 7109SOL    HW132786   2.086   2.207  11.796  0.2549  0.0192  0.9232
 7109SOL    HW232787   2.143   2.338  11.749  0.7846 -0.6105 -0.1093
 7110SOL     OW32788   3.279   1.604   8.569 -0.9178 -0.0623  0.5821
 7110SOL    HW132789   3.307   1.514   8.590  1.2018  0.3421 -0.4835
 7110SOL    HW232790   3.198   1.616   8.618 -1.3701  0.5191 -0.3061
 7111SOL     OW32791   4.361   0.680  15.600  0.3734 -0.7826  0.4178
 7111SOL    HW132792   4.357   0.587  15.575 -3.0645 -0.8059  0.9230
 7111SOL    HW232793   4.288   0.680  15.663 -0.8230  1.8266 -0.9846
 7112SOL     OW32794   2.448   1.215   3.681 -0.1967 -0.0143 -0.4924
 7112SOL    HW132795   2.355   1.192   3.678 -0.3151  0.2207  1.2813
 7112SOL    HW232796   2.447   1.308   3.658  0.0028  0.3000  0.7409
 7113SOL     OW32797   0.185   2.873  14.935 -0.3063  0.0480 -0.1996
 7113SOL    HW132798   0.186   2.930  14.858  0.0940 -0.2418 -0.4107
 7113SOL    HW232799   0.096   2.888  14.967  0.0807  1.9584 -0.0279
 7114SOL     OW32800   2.539   4.654  13.218  0.3022  0.5674  0.0572
 7114SOL    HW132801   2.503   4.573  13.182  1.6149  0.3047 -0.6517
 7114SOL    HW232802   2.621   4.649  13.169  0.1420 -2.1604  0.0791
 7115SOL     OW32803   0.768   3.010   5.117 -0.7259 -0.4414  0.3582
 7115SOL    HW132804   0.775   3.025   5.023  0.4654  2.0926  0.8586
 7115SOL    HW232805   0.857   2.986   5.141 -0.5113  1.4327  1.5043
 7116SOL     OW32806   3.215   1.571   5.259 -0.3498 -0.2183 -0.1532
 7116SOL    HW132807   3.125   1.544   5.241 -0.6841  0.2853  0.7319
 7116SOL    HW232808   3.226   1.536   5.348  1.1876 -2.4657 -1.2154
 7117SOL     OW32809   0.287   0.784   3.191  0.1345 -0.3018  0.2989
 7117SOL    HW132810   0.371   0.824   3.169  0.4104 -2.1001 -1.9821
 7117SOL    HW232811   0.303   0.749   3.278 -0.6911  0.1277  0.6253
 7118SOL     OW32812   1.901   4.564  10.020 -0.0569 -0.6224 -0.4603
 7118SOL    HW132813   1.969   4.499  10.034 -0.3040 -0.9915 -1.0031
 7118SOL    HW232814   1.828   4.526  10.070  1.5964 -0.8172  1.8050
 7119SOL     OW32815   0.911   3.345   9.966  0.8738  0.0784 -0.0108
 7119SOL    HW132816   0.894   3.288  10.041 -2.1629  3.2912  1.7617
 7119SOL    HW232817   0.883   3.429  10.003  2.1697  0.8112 -0.6835
 7120SOL     OW32818   3.640   1.079  12.348 -0.0068 -0.1144  0.2047
 7120SOL    HW132819   3.545   1.090  12.347  0.0240 -0.1672 -2.4801
 7120SOL    HW232820   3.661   1.134  12.273  0.9071 -0.5751  0.1289
 7121SOL     OW32821   3.165   3.341   7.263 -0.0287  0.1475 -0.4337
 7121SOL    HW132822   3.070   3.345   7.263 -0.0421 -0.3289  0.4349
 7121SOL    HW232823   3.188   3.409   7.326 -1.5353  1.8780 -1.7612
 7122SOL     OW32824   1.113   4.267   5.987 -0.1669 -0.4665  0.3699
 7122SOL    HW132825   1.078   4.215   5.915  1.6553 -0.2027 -0.7032
 7122SOL    HW232826   1.207   4.262   5.974 -0.8404 -0.4992 -4.3056
 7123SOL     OW32827   4.546   1.102  16.608  0.0426 -0.3086  0.3563
 7123SOL    HW132828   4.469   1.158  16.599 -0.2667 -0.9814 -1.2384
 7123SOL    HW232829   4.586   1.100  16.521  0.5618 -0.2311  0.5944
 7124SOL     OW32830   2.543   2.045   6.298  0.1727 -0.5801 -0.2337
 7124SOL    HW132831   2.579   2.011   6.216  3.7672 -0.5423  1.3399
 7124SOL    HW232832   2.556   2.139   6.282  0.7566 -0.3702  1.4553
 7125SOL     OW32833   2.645   3.407   7.115 -0.2331 -0.4972  0.0933
 7125SOL    HW132834   2.623   3.438   7.028  0.5382 -0.6208 -0.1497
 7125SOL    HW232835   2.563   3.370   7.146  0.5278 -2.6011 -0.3990
 7126SOL     OW32836   2.437   0.575  15.064  0.5856  0.6708  0.1278
 7126SOL    HW132837   2.390   0.503  15.105 -2.5486  1.6113 -1.8190
 7126SOL    HW232838   2.455   0.536  14.979  0.4488  0.4799  0.1858
 7127SOL     OW32839   3.183   1.756   8.910  0.0367  0.6018 -0.2948
 7127SOL    HW132840   3.140   1.804   8.981  0.1795 -0.1745  0.3244
 7127SOL    HW232841   3.253   1.814   8.881  0.8088 -1.0145 -1.7009
 7128SOL     OW32842   3.027   3.743   8.780 -0.6729  0.5292  0.5093
 7128SOL    HW132843   3.053   3.829   8.746 -1.4018  0.2224 -0.8492
 7128SOL    HW232844   3.024   3.767   8.872  1.2623  0.6751  0.5371
 7129SOL     OW32845   1.556   0.715  10.615 -0.0260  0.1908 -0.1663
 7129SOL    HW132846   1.582   0.625  10.633 -1.3467 -0.1824 -0.1429
 7129SOL    HW232847   1.600   0.766  10.683  0.8940  2.2371 -2.3009
 7130SOL     OW32848   3.812   3.733  10.878 -0.0832 -0.4596 -1.0518
 7130SOL    HW132849   3.901   3.697  10.877 -0.0869 -0.5438  2.5892
 7130SOL    HW232850   3.791   3.718  10.970  2.2333 -0.9683 -0.5989
 7131SOL     OW32851   0.821   3.047   2.752  0.1452  0.6249 -0.0221
 7131SOL    HW132852   0.811   3.074   2.843  0.9420  0.3861  0.1311
 7131SOL    HW232853   0.886   3.110   2.723 -1.3597  0.7278 -3.1372
 7132SOL     OW32854   1.815   3.216   9.783 -0.8186 -0.4756 -0.2355
 7132SOL    HW132855   1.862   3.133   9.788  0.2415  0.2335  1.4130
 7132SOL    HW232856   1.871   3.273   9.836 -1.2229 -0.2646 -0.0324
 7133SOL     OW32857   3.700   3.583   5.621  0.2059 -0.0785 -0.6085
 7133SOL    HW132858   3.766   3.550   5.560  0.8657  2.9812 -1.5543
 7133SOL    HW232859   3.620   3.549   5.581 -1.6944  0.2296  2.9202
 7134SOL     OW32860   0.795   0.711   9.316 -0.3706  0.2407 -0.1032
 7134SOL    HW132861   0.744   0.643   9.271  0.5578 -0.1753 -0.5220
 7134SOL    HW232862   0.745   0.727   9.397 -0.1455 -0.2701  0.1366
 7135SOL     OW32863   4.503   0.995   6.434 -0.0420 -0.8666  0.1823
 7135SOL    HW132864   4.536   0.964   6.518  4.6621  0.3146 -1.2205
 7135SOL    HW232865   4.410   1.012   6.450  0.2819 -0.2954  1.4430
 7136SOL     OW32866   0.563   3.291   1.963  0.2131  0.0186 -0.3950
 7136SOL    HW132867   0.589   3.236   2.037  0.2386  0.5084 -0.0425
 7136SOL    HW232868   0.644   3.313   1.918 -0.7572  2.6347 -0.8905
 7137SOL     OW32869   1.898   3.609   8.536  0.0037 -0.3715 -0.4041
 7137SOL    HW132870   1.895   3.598   8.441  0.7950 -1.7907 -0.2635
 7137SOL    HW232871   1.837   3.540   8.564  1.6146 -1.7611 -0.3125
 7138SOL     OW32872   4.365   4.495   3.211  0.1057 -0.3520  0.7940
 7138SOL    HW132873   4.434   4.561   3.202 -1.0123  0.4725 -1.6708
 7138SOL    HW232874   4.414   4.416   3.188 -4.1032 -1.0088 -5.9437
 7139SOL     OW32875   2.079   4.255  13.121 -0.8242  0.6028 -0.1602
 7139SOL    HW132876   2.124   4.173  13.102 -0.1033  1.1779 -0.9285
 7139SOL    HW232877   1.987   4.227  13.114 -0.2254 -1.2285 -0.9340
 7140SOL     OW32878   3.622   3.512  14.236 -0.0422 -0.0516  0.3865
 7140SOL    HW132879   3.559   3.569  14.191  1.6333  2.2641  0.9717
 7140SOL    HW232880   3.618   3.433  14.182 -0.4113  1.1599 -1.3528
 7141SOL     OW32881   1.077   2.867   5.075  0.4815  0.1996  0.7582
 7141SOL    HW132882   1.109   2.927   5.007 -0.2573  1.1192  1.2132
 7141SOL    HW232883   1.151   2.859   5.135 -0.0720  1.7416  1.6655
 7142SOL     OW32884   1.673   3.921  12.757  0.5752  0.3523  0.6060
 7142SOL    HW132885   1.588   3.959  12.778  1.7654  2.5793  1.2781
 7142SOL    HW232886   1.723   3.994  12.721 -1.3527  2.3418  1.9892
 7143SOL     OW32887   3.495   0.254   4.561  0.0510  0.5380  0.0476
 7143SOL    HW132888   3.411   0.208   4.557 -1.1867  2.9265 -1.2297
 7143SOL    HW232889   3.541   0.196   4.622 -2.3297  0.1498  1.4883
 7144SOL     OW32890   2.347   4.638   2.034  0.1516 -0.2915 -0.1325
 7144SOL    HW132891   2.360   4.600   2.121 -2.1636  0.5232  0.5645
 7144SOL    HW232892   2.390   4.721   2.056 -0.7820  0.6037 -1.6646
 7145SOL     OW32893   4.642   3.630   4.232  0.0816  0.1187 -0.0889
 7145SOL    HW132894   4.701   3.692   4.275  0.5168  0.1807 -0.7952
 7145SOL    HW232895   4.703   3.583   4.176  0.4279  1.0060 -0.4494
 7146SOL     OW32896   0.611   3.453   1.410 -0.2373  0.1715 -0.2655
 7146SOL    HW132897   0.520   3.426   1.423  0.1625 -0.3267  1.6007
 7146SOL    HW232898   0.642   3.364   1.393  0.3254  0.1533  0.8457
 7147SOL     OW32899   1.710   4.707   7.221  0.0442  0.2277  0.1700
 7147SOL    HW132900   1.692   0.076   7.241 -3.6109 -0.4688  0.2078
 7147SOL    HW232901   1.684   4.703   7.129 -0.5746 -0.3133  0.3603
 7148SOL     OW32902   1.607   3.858   2.791 -0.3580  0.3857  0.6294
 7148SOL    HW132903   1.674   3.889   2.852 -1.7341  0.1801  2.2323
 7148SOL    HW232904   1.588   3.933   2.733  3.9985  2.0747  1.4098
 7149SOL     OW32905   3.072   3.447   7.006 -0.3712  0.0005  0.1790
 7149SOL    HW132906   3.130   3.394   7.061  0.8073 -1.4678 -2.4586
 7149SOL    HW232907   3.131   3.509   6.962  1.7695 -2.3018 -0.1959
 7150SOL     OW32908   4.674   4.318   4.454 -0.3347 -0.3438 -0.1516
 7150SOL    HW132909   0.019   4.362   4.403  0.9622  0.2937  2.1132
 7150SOL    HW232910   4.710   4.229   4.451 -1.5971 -0.7829 -2.0602
 7151SOL     OW32911   3.239   1.839  12.750 -0.2691  0.3994 -0.5240
 7151SOL    HW132912   3.168   1.854  12.687 -1.9679  0.0675  1.3246
 7151SOL    HW232913   3.267   1.758  12.708 -0.5308 -1.1459  2.3208
 7152SOL     OW32914   3.472   2.851   8.083  0.7062 -0.1194  0.2548
 7152SOL    HW132915   3.412   2.925   8.074  0.1759 -0.6951 -0.8474
 7152SOL    HW232916   3.524   2.872   8.005 -2.7943  3.1547 -1.1978
 7153SOL     OW32917   1.185   1.370   9.792  0.0491 -0.1478 -0.4161
 7153SOL    HW132918   1.112   1.405   9.844 -0.7847 -1.3115 -0.7964
 7153SOL    HW232919   1.150   1.326   9.714 -0.5070 -0.5506  0.0619
 7154SOL     OW32920   2.749   3.725   3.843  0.8628 -0.2703 -0.0224
 7154SOL    HW132921   2.813   3.769   3.898  1.0217  0.4389 -0.7632
 7154SOL    HW232922   2.750   3.634   3.870  2.2317  0.2607  1.6978
 7155SOL     OW32923   0.217   3.235   1.140  0.2838  0.4683 -0.6865
 7155SOL    HW132924   0.135   3.190   1.158 -1.3030  3.4828 -0.4313
 7155SOL    HW232925   0.275   3.176   1.091  0.2699  0.0850 -0.2368
 7156SOL     OW32926   0.031   0.302  17.060  0.3875 -0.3653 -0.3235
 7156SOL    HW132927   4.664   0.336  17.063  0.7382  0.6697 -1.2268
 7156SOL    HW232928   0.065   0.339  17.141  1.7151 -0.1508 -0.9811
 7157SOL     OW32929   2.687   0.723   6.539 -0.4513 -0.0669  0.0318
 7157SOL    HW132930   2.647   0.806   6.564  0.2886  0.4760 -0.5771
 7157SOL    HW232931   2.688   0.727   6.443  0.4742 -0.6913  0.0172
 7158SOL     OW32932   1.758   0.674   4.936 -0.0822 -0.0897 -0.3060
 7158SOL    HW132933   1.701   0.750   4.924 -0.6193 -0.2748  1.0936
 7158SOL    HW232934   1.722   0.626   5.011  0.6145  0.4185  0.3602
 7159SOL     OW32935   3.473   0.788  10.157  0.7282 -0.1509  0.1499
 7159SOL    HW132936   3.494   0.880  10.177  0.1875 -0.2961  1.3755
 7159SOL    HW232937   3.549   0.752  10.203  1.1346 -0.5538 -0.8384
 7160SOL     OW32938   0.455   2.225  10.256 -0.5492 -0.1051 -0.3002
 7160SOL    HW132939   0.476   2.199  10.167  0.9798 -0.7118  0.2406
 7160SOL    HW232940   0.535   2.204  10.305  0.0120  0.4110 -1.0076
 7161SOL     OW32941   1.533   2.280   0.130 -0.5076 -0.5562 -0.0189
 7161SOL    HW132942   1.614   2.249   0.089  0.3898  0.1006  1.2695
 7161SOL    HW232943   1.511   2.332   0.053  1.7154  1.5416  0.7382
 7162SOL     OW32944   3.217   2.486  11.171 -0.0619  0.3597  0.0036
 7162SOL    HW132945   3.215   2.398  11.134  2.1660 -0.5136  1.9968
 7162SOL    HW232946   3.311   2.503  11.181 -0.6314  2.9339  1.1369
 7163SOL     OW32947   2.792   1.147   4.921  0.0596 -0.8887 -0.1993
 7163SOL    HW132948   2.758   1.229   4.887  0.7269  0.3670  2.1821
 7163SOL    HW232949   2.755   1.074   4.870  0.5947  0.3352 -2.3481
 7164SOL     OW32950   4.591   3.284  17.291  0.0025  0.7802 -0.4527
 7164SOL    HW132951   4.657   3.222  17.260 -3.4077 -1.6067 -3.0042
 7164SOL    HW232952   4.517   3.257  17.237  0.5118 -1.9219  0.1550
 7165SOL     OW32953   2.998   2.631  13.087 -0.0144 -0.4967  0.1291
 7165SOL    HW132954   3.026   2.540  13.076 -0.2208 -0.2166 -2.5013
 7165SOL    HW232955   2.903   2.629  13.096 -0.2490  2.3001 -1.8777
 7166SOL     OW32956   4.701   0.972   4.748 -0.0622  0.2095 -0.5093
 7166SOL    HW132957   4.673   0.909   4.682  1.4977 -0.2881 -0.6914
 7166SOL    HW232958   4.644   0.942   4.820 -0.5453  0.1017 -0.9335
 7167SOL     OW32959   2.886   2.229  14.963  0.4174 -0.6249  0.7182
 7167SOL    HW132960   2.796   2.210  14.938 -0.7239  4.2163  1.1540
 7167SOL    HW232961   2.928   2.142  14.959  2.1714  0.2658 -0.6309
 7168SOL     OW32962   4.587   2.716   5.421 -0.2047 -0.0782 -0.1228
 7168SOL    HW132963   4.673   2.739   5.456  0.3066 -1.1671 -0.6699
 7168SOL    HW232964   4.568   2.787   5.360  1.0614  0.6302  0.3066
 7169SOL     OW32965   2.533   0.262  11.516 -0.4706  0.2505  0.3839
 7169SOL    HW132966   2.583   0.262  11.598 -0.2350 -0.8203  0.2351
 7169SOL    HW232967   2.609   0.286  11.463  0.3727  0.4510  1.6766
 7170SOL     OW32968   1.996   3.503   9.534  0.2428 -0.0990  0.0243
 7170SOL    HW132969   2.033   3.495   9.623 -1.1386  1.5484  0.7446
 7170SOL    HW232970   1.905   3.478   9.550  0.4000 -0.3629  0.5310
 7171SOL     OW32971   3.541   2.701  11.687 -0.0044  0.1393  0.1430
 7171SOL    HW132972   3.584   2.770  11.637  1.6454  0.1894  1.6358
 7171SOL    HW232973   3.451   2.701  11.656  0.7691 -2.6930 -2.1746
 7172SOL     OW32974   4.478   2.179   7.837 -0.0700 -0.0586  0.1055
 7172SOL    HW132975   4.446   2.224   7.916  0.9522 -0.5443  0.8047
 7172SOL    HW232976   4.570   2.176   7.862  0.0036 -0.1125 -0.1806
 7173SOL     OW32977   0.875   2.851   5.789  0.2492  0.2286  0.4580
 7173SOL    HW132978   0.836   2.934   5.761  1.0751  0.0310 -1.2754
 7173SOL    HW232979   0.804   2.788   5.784 -0.1296  0.5331  1.9320
 7174SOL     OW32980   4.032   0.901   0.958 -0.2186 -0.0836 -0.1834
 7174SOL    HW132981   4.076   0.857   0.885  1.7734 -1.8485  2.0796
 7174SOL    HW232982   4.019   0.990   0.927 -1.4808  0.4815  1.9514
 7175SOL     OW32983   0.550   2.200   0.816  0.5649  0.2575  0.0053
 7175SOL    HW132984   0.467   2.153   0.829  1.2400 -1.3682 -1.6368
 7175SOL    HW232985   0.528   2.288   0.846  1.5720  1.6070 -3.2237
 7176SOL     OW32986   0.545   0.762   6.651 -0.0650  0.3946 -0.3474
 7176SOL    HW132987   0.571   0.853   6.636 -0.8459  0.5194 -0.9317
 7176SOL    HW232988   0.478   0.750   6.584 -2.9794  1.6563  2.3258
 7177SOL     OW32989   4.500   3.843   2.851  0.3061 -0.9680 -0.4720
 7177SOL    HW132990   4.426   3.836   2.911  0.4774  1.1285 -0.0396
 7177SOL    HW232991   4.465   3.928   2.825 -1.3483 -1.5869 -0.3080
 7178SOL     OW32992   4.343   0.101   7.723 -0.5989  0.2693  0.1571
 7178SOL    HW132993   4.288   0.125   7.798 -1.4490  1.4773 -0.8512
 7178SOL    HW232994   4.400   0.033   7.758 -0.8508  0.1562  0.3455
 7179SOL     OW32995   2.366   3.308   3.823 -0.3861 -0.0630  0.4325
 7179SOL    HW132996   2.409   3.359   3.892 -0.0673  0.7287 -0.3540
 7179SOL    HW232997   2.273   3.332   3.830 -1.1472 -3.1731  0.9379
 7180SOL     OW32998   3.239   3.612   7.379  0.0483 -0.2306  0.1539
 7180SOL    HW132999   3.327   3.591   7.410 -0.5269 -0.3658  1.6868
 7180SOL    HW233000   3.261   3.646   7.292  2.8754  0.9538  1.3423
 7181SOL     OW33001   3.105   3.684   3.268 -0.0049 -0.0788  0.4038
 7181SOL    HW133002   3.125   3.697   3.361 -0.4770 -0.2592  0.5313
 7181SOL    HW233003   3.073   3.595   3.255 -0.0321 -0.0926  0.5649
 7182SOL     OW33004   1.321   2.174   0.514  0.2450  0.1188  0.2825
 7182SOL    HW133005   1.321   2.252   0.569  0.0388  1.1629 -1.2134
 7182SOL    HW233006   1.317   2.110   0.586 -1.2811  1.8091  1.7106
 7183SOL     OW33007   3.552   2.378   7.223  0.3980 -0.8084 -0.0803
 7183SOL    HW133008   3.529   2.335   7.141  0.5575 -0.4854 -0.2955
 7183SOL    HW233009   3.642   2.358   7.251  1.6517  0.2897 -3.3674
 7184SOL     OW33010   4.076   3.070  15.644 -0.0725 -0.1554  0.0543
 7184SOL    HW133011   4.112   2.993  15.688  2.6143  1.3127  0.4583
 7184SOL    HW233012   4.126   3.069  15.562 -1.0232 -0.1578 -0.5209
 7185SOL     OW33013   2.223   0.273  16.904  0.4623 -0.1863  0.2167
 7185SOL    HW133014   2.202   0.200  16.846  0.9632  0.0659 -0.2893
 7185SOL    HW233015   2.196   0.350  16.855 -0.5729 -1.2526 -0.8872
 7186SOL     OW33016   0.312   2.467  10.687 -0.6744 -0.3802  0.2836
 7186SOL    HW133017   0.289   2.558  10.707  0.9234 -0.1634  1.0969
 7186SOL    HW233018   0.233   2.429  10.725 -1.0432 -0.1466 -0.2396
 7187SOL     OW33019   0.510   3.417   9.220 -0.1524 -0.1647 -0.0957
 7187SOL    HW133020   0.505   3.349   9.287  2.0117  1.1900  1.4298
 7187SOL    HW233021   0.591   3.391   9.177 -1.1084 -2.0599 -0.7567
 7188SOL     OW33022   2.412   0.687   5.099  0.9045 -0.1221 -0.0116
 7188SOL    HW133023   2.447   0.768   5.136  2.0026  0.1804 -1.7187
 7188SOL    HW233024   2.384   0.720   5.014  4.1862 -0.5568 -1.2489
 7189SOL     OW33025   3.395   0.695   8.716  0.1220 -0.1443 -0.1138
 7189SOL    HW133026   3.418   0.693   8.809  0.4250  0.9726 -0.1663
 7189SOL    HW233027   3.301   0.703   8.703  0.2542 -0.6188 -1.3700
 7190SOL     OW33028   4.644   1.894  11.062  0.4073 -0.0232 -0.0201
 7190SOL    HW133029   4.575   1.862  11.122 -0.0698 -0.5395 -0.8464
 7190SOL    HW233030   0.001   1.902  11.115  1.4484 -0.5449 -1.4991
 7191SOL     OW33031   0.896   1.432  16.281 -0.2379 -0.0751  0.7086
 7191SOL    HW133032   0.894   1.342  16.312 -1.2441  1.0820  3.9088
 7191SOL    HW233033   0.807   1.437  16.247 -0.2267 -0.6521  0.6055
 7192SOL     OW33034   4.166   4.094   3.028  0.0138  0.0057 -0.3996
 7192SOL    HW133035   4.211   4.097   2.944  0.1404 -4.4077 -0.4608
 7192SOL    HW233036   4.144   4.002   3.015 -2.9386  0.5836  0.5506
 7193SOL     OW33037   0.962   1.196  12.127  0.1176  0.8107 -0.7811
 7193SOL    HW133038   0.956   1.166  12.218  1.8823 -0.1958 -1.0030
 7193SOL    HW233039   0.890   1.156  12.078  0.9877  0.2245 -1.5763
 7194SOL     OW33040   0.677   1.052   6.005  0.6373  0.3064 -0.5035
 7194SOL    HW133041   0.700   0.975   5.954 -1.1926 -0.1765 -0.5840
 7194SOL    HW233042   0.705   1.007   6.084  1.7799  1.9949  0.0609
 7195SOL     OW33043   3.415   1.235   3.695  0.1686  0.1076  0.0636
 7195SOL    HW133044   3.466   1.308   3.730  0.2313 -0.1574  0.5248
 7195SOL    HW233045   3.455   1.177   3.760  2.8373  1.2708 -0.5703
 7196SOL     OW33046   0.190   2.543   4.459 -0.0992  0.0577  0.3146
 7196SOL    HW133047   0.259   2.588   4.508 -0.6883  1.9054 -0.5513
 7196SOL    HW233048   0.233   2.460   4.436  0.1963  0.8027 -1.8804
 7197SOL     OW33049   4.054   3.104   5.862 -0.1002  0.0940 -0.0961
 7197SOL    HW133050   4.148   3.123   5.867  0.0597 -0.7152 -0.0401
 7197SOL    HW233051   4.028   3.092   5.953 -1.3177 -0.5784 -0.5308
 7198SOL     OW33052   0.653   1.065   3.226  0.6500 -0.3038  0.1973
 7198SOL    HW133053   0.588   1.128   3.195  0.2174  0.0465  1.8065
 7198SOL    HW233054   0.729   1.120   3.245  0.1841  0.5991 -0.5685
 7199SOL     OW33055   2.556   0.797  14.395  0.1167  0.6391  0.6484
 7199SOL    HW133056   2.649   0.784  14.414 -0.6598 -0.7909  3.4107
 7199SOL    HW233057   2.565   0.879  14.345  0.0210 -0.0097 -0.4296
 7200SOL     OW33058   1.667   2.608   9.736  0.0073  0.2311 -0.1831
 7200SOL    HW133059   1.616   2.610   9.816  1.1280  2.7986  0.4697
 7200SOL    HW233060   1.728   2.680   9.752 -0.2286 -0.1497  2.3297
 7201SOL     OW33061   2.551   0.291   5.896 -0.0697  0.3236 -0.1413
 7201SOL    HW133062   2.563   0.207   5.851 -0.1661 -1.3535  2.9671
 7201SOL    HW233063   2.461   0.283   5.929  0.2414 -1.0143  0.3976
 7202SOL     OW33064   1.633   2.985   4.139  0.3943  0.5190  0.3983
 7202SOL    HW133065   1.611   2.894   4.159  2.6314  0.0093  0.5371
 7202SOL    HW233066   1.614   2.991   4.046 -1.5341 -0.0197  0.7598
 7203SOL     OW33067   3.855   2.090   4.412  0.0206 -0.1508 -0.0809
 7203SOL    HW133068   3.936   2.096   4.362  0.0525 -0.1049 -0.0228
 7203SOL    HW233069   3.816   2.176   4.395  1.4615  0.6000  0.3785
 7204SOL     OW33070   4.400   4.680  15.718  0.0257 -0.0292  0.5156
 7204SOL    HW133071   4.357   4.604  15.758 -0.4370  0.0787  0.2271
 7204SOL    HW233072   4.326   0.012  15.692 -0.7981 -1.0783  0.6337
 7205SOL     OW33073   2.520   4.255   8.698  0.0574 -0.1024  0.5131
 7205SOL    HW133074   2.587   4.287   8.759  0.4860 -0.2265  0.1108
 7205SOL    HW233075   2.475   4.333   8.667  1.5191  0.0647 -1.1925
 7206SOL     OW33076   1.392   2.986   7.484  0.0432  0.5085  0.0609
 7206SOL    HW133077   1.433   3.073   7.482 -3.3497  2.0996  0.2166
 7206SOL    HW233078   1.420   2.958   7.571  1.0213  1.0458 -0.0762
 7207SOL     OW33079   2.447   4.359   1.025 -0.2542  0.1303 -0.0790
 7207SOL    HW133080   2.371   4.365   0.968  0.0058 -1.4968 -0.5795
 7207SOL    HW233081   2.454   4.265   1.042 -0.8859  0.5640  2.6315
 7208SOL     OW33082   2.668   0.400   2.788 -0.0925 -0.0515 -0.1805
 7208SOL    HW133083   2.630   0.315   2.768 -0.4249  0.2587 -0.8803
 7208SOL    HW233084   2.619   0.457   2.730  0.0959 -1.5962 -1.8628
 7209SOL     OW33085   3.064   0.937   4.741 -0.3552 -0.4856 -0.0015
 7209SOL    HW133086   3.014   0.869   4.695  0.9756  0.0435 -2.2371
 7209SOL    HW233087   3.096   0.885   4.815 -0.1992  2.8430  2.2680
 7210SOL     OW33088   2.846   1.634  12.422  0.5022 -0.1722 -0.3937
 7210SOL    HW133089   2.778   1.572  12.448  0.6249  0.8057  2.2975
 7210SOL    HW233090   2.805   1.716  12.453 -3.4234 -2.5530  0.8118
 7211SOL     OW33091   4.038   1.868   8.026  0.6308  0.2975  0.1847
 7211SOL    HW133092   4.105   1.804   8.003  1.2927  0.6141  1.2474
 7211SOL    HW233093   4.016   1.846   8.117 -1.0065 -2.0958 -0.7934
 7212SOL     OW33094   0.866   3.962  16.522 -0.3533 -0.3572 -0.1989
 7212SOL    HW133095   0.832   3.930  16.605 -1.5005 -0.2217 -0.6170
 7212SOL    HW233096   0.958   3.977  16.543  0.3606 -1.4804 -2.5332
 7213SOL     OW33097   0.873   1.400  10.351 -0.2143  0.1791  0.3067
 7213SOL    HW133098   0.961   1.427  10.375  0.0270  1.1201 -1.6627
 7213SOL    HW233099   0.822   1.471  10.392 -0.0607 -0.0710  0.9273
 7214SOL     OW33100   2.383   2.149   1.322 -0.1510 -0.7134  0.1849
 7214SOL    HW133101   2.369   2.243   1.335 -2.1135 -0.9166 -0.4907
 7214SOL    HW233102   2.456   2.122   1.378 -0.1818  0.9015  1.0070
 7215SOL     OW33103   1.463   0.219   0.824 -0.2559  0.3875 -0.3587
 7215SOL    HW133104   1.458   0.128   0.794 -0.7593  0.2550  0.1420
 7215SOL    HW233105   1.452   0.262   0.739 -0.4771 -0.5635 -0.8114
 7216SOL     OW33106   4.643   2.246  16.622  0.3806  0.2564  0.1499
 7216SOL    HW133107   0.006   2.234  16.663  0.1847 -0.7098  0.2701
 7216SOL    HW233108   4.624   2.338  16.643  0.7357  0.2529  0.4889
 7217SOL     OW33109   1.023   0.989   7.353 -0.0729 -0.3663  0.8794
 7217SOL    HW133110   0.982   0.911   7.391 -1.2153 -1.4173 -2.4613
 7217SOL    HW233111   0.961   1.058   7.376 -0.6332  0.4440 -3.1197
 7218SOL     OW33112   4.279   2.196   2.508 -0.1176 -0.5362  0.2680
 7218SOL    HW133113   4.272   2.107   2.474  1.2721 -0.6883  0.3693
 7218SOL    HW233114   4.217   2.245   2.455  1.4317  0.9549 -0.1606
 7219SOL     OW33115   4.424   0.165   0.732 -0.1639 -1.0998  0.0984
 7219SOL    HW133116   4.492   0.232   0.726  0.1925 -1.4925 -0.1917
 7219SOL    HW233117   4.358   0.213   0.782  1.3914 -0.6932  1.7684
 7220SOL     OW33118   0.541   0.728   6.175  0.0706 -0.0021 -0.4339
 7220SOL    HW133119   0.512   0.699   6.261  0.9932  0.9239  0.1924
 7220SOL    HW233120   0.575   0.816   6.190 -0.5877  0.2562 -0.4594
 7221SOL     OW33121   3.183   4.002   5.431  0.0681  0.5852 -0.2459
 7221SOL    HW133122   3.105   3.973   5.480 -0.3154  3.4393  0.8428
 7221SOL    HW233123   3.249   3.944   5.469 -1.2552 -2.0173 -1.9423
 7222SOL     OW33124   1.379   2.790   8.134  0.3103  0.3366 -0.2536
 7222SOL    HW133125   1.456   2.839   8.105  0.2444 -0.3555 -1.5945
 7222SOL    HW233126   1.384   2.806   8.228 -2.2641  2.3482 -0.4674
 7223SOL     OW33127   0.661   4.428  10.150 -0.2192 -0.5275  0.5118
 7223SOL    HW133128   0.684   4.364  10.083 -0.1889  0.3463 -0.3135
 7223SOL    HW233129   0.668   4.380  10.232  2.0242 -1.2246 -0.0795
 7224SOL     OW33130   0.901   0.010   7.537 -0.0432 -0.0481  0.3799
 7224SOL    HW133131   0.892   4.643   7.569 -1.8269  0.6691  1.8994
 7224SOL    HW233132   0.989   0.007   7.500 -0.5747 -3.4395 -0.5732
 7225SOL     OW33133   1.950   2.239   5.643 -0.5790  0.5928 -0.0290
 7225SOL    HW133134   1.967   2.183   5.568  2.0182 -0.2418  1.1512
 7225SOL    HW233135   1.960   2.331   5.619  0.0061  0.1855 -1.3376
 7226SOL     OW33136   0.571   1.491   5.734 -0.3291  0.6338 -0.0228
 7226SOL    HW133137   0.571   1.399   5.757 -2.0597  0.7239  0.2856
 7226SOL    HW233138   0.486   1.511   5.772  0.4019 -1.0595  2.4856
 7227SOL     OW33139   4.132   0.225   4.088 -0.1686  0.2936  0.0206
 7227SOL    HW133140   4.126   0.321   4.089  2.1033  0.4372 -0.6746
 7227SOL    HW233141   4.073   0.213   4.013  1.2415 -2.2487 -0.6796
 7228SOL     OW33142   2.424   2.399   7.417  0.3687 -0.2983 -0.4105
 7228SOL    HW133143   2.364   2.423   7.346  1.1094  0.6782 -0.7053
 7228SOL    HW233144   2.451   2.311   7.393 -0.1283 -0.6766  0.4206
 7229SOL     OW33145   1.403   4.284   9.525 -0.5169 -0.3208 -0.1671
 7229SOL    HW133146   1.462   4.352   9.492 -0.5170 -0.9689 -1.5197
 7229SOL    HW233147   1.366   4.328   9.601 -0.0506 -0.9697  0.4364
 7230SOL     OW33148   0.798   0.139   5.390 -0.1383 -0.1398 -0.0001
 7230SOL    HW133149   0.764   0.107   5.306  0.1790  0.9960 -0.5637
 7230SOL    HW233150   0.734   0.091   5.443 -1.3652  2.1005  0.5187
 7231SOL     OW33151   4.282   4.174   1.672  0.3686 -0.3292 -0.4589
 7231SOL    HW133152   4.333   4.147   1.749 -2.0159  0.3391  1.3782
 7231SOL    HW233153   4.193   4.147   1.696 -0.4545  0.9575 -2.0289
 7232SOL     OW33154   4.555   4.364   0.867 -0.1821 -0.0202 -0.0176
 7232SOL    HW133155   4.565   4.342   0.775  0.2265 -0.5698  0.1578
 7232SOL    HW233156   4.586   4.282   0.905  1.1347 -0.2752 -1.6507
 7233SOL     OW33157   4.398   2.125   2.181 -0.1269  0.1111 -0.3398
 7233SOL    HW133158   4.446   2.085   2.253  1.1489  0.2495 -1.1156
 7233SOL    HW233159   4.414   2.069   2.105 -3.1561 -0.2236 -0.7294
 7234SOL     OW33160   4.057   3.687   2.246  0.4072  0.5302  0.0289
 7234SOL    HW133161   4.138   3.638   2.230 -0.0554 -1.0644  2.5367
 7234SOL    HW233162   4.084   3.753   2.310  0.8581  0.8177 -0.4574
 7235SOL     OW33163   0.670   4.010   4.256 -0.0232 -0.1126  0.1575
 7235SOL    HW133164   0.640   4.095   4.290  0.6735  1.1222 -2.3383
 7235SOL    HW233165   0.758   4.036   4.230 -0.7213  2.8636  0.7088
 7236SOL     OW33166   2.218   3.999   4.686 -0.6423  0.5074 -0.2415
 7236SOL    HW133167   2.213   3.904   4.696 -0.0650  0.6794  1.5715
 7236SOL    HW233168   2.182   4.023   4.771  0.0817 -3.8445  1.2990
 7237SOL     OW33169   3.327   4.266   2.956  0.1126  0.4604 -0.1878
 7237SOL    HW133170   3.271   4.304   3.024 -0.0455  0.9192 -0.5750
 7237SOL    HW233171   3.273   4.193   2.926 -1.9370  3.0109 -2.6142
 7238SOL     OW33172   3.493   0.424   7.912  0.3173 -0.0237  0.1132
 7238SOL    HW133173   3.473   0.445   8.003  0.0285 -1.0070  0.2743
 7238SOL    HW233174   3.423   0.472   7.869  1.5030  0.3274 -1.4387
 7239SOL     OW33175   3.072   4.438  12.619 -0.1244  0.0672 -0.0232
 7239SOL    HW133176   3.029   4.405  12.698  1.3902 -1.4410  0.1688
 7239SOL    HW233177   3.136   4.368  12.610  0.4348  0.7526 -1.2886
 7240SOL     OW33178   1.928   2.149   9.671 -1.2280  0.3091 -0.1590
 7240SOL    HW133179   1.842   2.186   9.689 -1.0915  0.1964  0.7427
 7240SOL    HW233180   1.990   2.213   9.706 -0.2941 -1.5869  1.7010
 7241SOL     OW33181   2.111   3.155   8.031 -0.3232 -0.0856 -0.0718
 7241SOL    HW133182   2.125   3.087   8.097 -1.6504 -0.1944  0.0852
 7241SOL    HW233183   2.195   3.160   7.985 -0.3311 -1.1694 -0.2034
 7242SOL     OW33184   3.531   0.347   7.159  0.5321  0.2989  0.4374
 7242SOL    HW133185   3.504   0.434   7.128 -2.0408 -0.8463 -0.5529
 7242SOL    HW233186   3.621   0.369   7.180  0.7243 -0.2881  0.2200
 7243SOL     OW33187   3.244   1.173   8.646  0.8142 -0.3968 -0.2872
 7243SOL    HW133188   3.239   1.152   8.739  0.6964 -0.7240 -0.3667
 7243SOL    HW233189   3.320   1.230   8.644  0.3623  0.2476  1.1149
 7244SOL     OW33190   4.188   4.058   6.702 -0.0867  0.2945  0.0541
 7244SOL    HW133191   4.197   4.117   6.627 -0.5069 -0.9770 -0.9924
 7244SOL    HW233192   4.250   4.099   6.763 -2.0182  3.9609 -0.4359
 7245SOL     OW33193   3.822   0.803  12.536 -0.0436 -0.1343 -0.0002
 7245SOL    HW133194   3.835   0.816  12.442 -2.1069  0.9677 -0.1373
 7245SOL    HW233195   3.741   0.848  12.559  1.2031  2.2552 -0.3123
 7246SOL     OW33196   3.846   3.108   5.218 -0.8801 -0.1279 -0.4955
 7246SOL    HW133197   3.776   3.117   5.283 -0.8140  0.4868 -0.5141
 7246SOL    HW233198   3.896   3.188   5.232  1.5915 -2.3661  3.6573
 7247SOL     OW33199   2.706   3.520   8.408 -0.5608 -0.5192  0.1111
 7247SOL    HW133200   2.689   3.437   8.453  0.2231 -0.2392  0.9339
 7247SOL    HW233201   2.704   3.585   8.478 -1.0475 -1.3192  0.8433
 7248SOL     OW33202   1.146   2.699  15.202 -0.6286 -0.1003 -0.0273
 7248SOL    HW133203   1.110   2.610  15.199  0.4396 -0.5463  0.1631
 7248SOL    HW233204   1.236   2.677  15.227 -0.9722 -0.8285  0.5605
 7249SOL     OW33205   0.359   0.308   6.041 -0.9983 -0.3707 -0.0181
 7249SOL    HW133206   0.298   0.381   6.027  0.8433  0.8995 -1.5418
 7249SOL    HW233207   0.368   0.312   6.136  1.1997  4.9451 -0.4490
 7250SOL     OW33208   2.205   0.514   2.337 -0.2664 -0.4654  0.0693
 7250SOL    HW133209   2.134   0.537   2.396 -0.3607  1.3640 -0.7483
 7250SOL    HW233210   2.168   0.433   2.303  0.0189  1.0305 -3.8730
 7251SOL     OW33211   2.914   0.016   4.809 -0.0433 -0.1978  0.1329
 7251SOL    HW133212   2.964   0.083   4.854 -1.1948 -0.3791  1.6757
 7251SOL    HW233213   2.846   0.072   4.771 -0.9722 -0.5718  1.2271
 7252SOL     OW33214   2.176   2.218   5.978  0.2061  0.0412  0.3843
 7252SOL    HW133215   2.168   2.288   5.913 -1.4371 -2.1782 -1.8389
 7252SOL    HW233216   2.242   2.162   5.937  0.9155 -0.1547  1.7972
 7253SOL     OW33217   0.603   4.466  15.264 -0.5341  0.5291  0.5696
 7253SOL    HW133218   0.534   4.487  15.326  0.0036  0.0344  1.3404
 7253SOL    HW233219   0.634   4.555  15.247 -0.3797  0.2984 -0.3561
 7254SOL     OW33220   4.439   1.156  14.535 -0.1801 -0.3300 -0.1698
 7254SOL    HW133221   4.525   1.176  14.572  0.2454 -0.0366 -1.3405
 7254SOL    HW233222   4.464   1.132  14.446  0.8113 -1.2575  0.3487
 7255SOL     OW33223   3.038   3.974   6.295 -0.0435 -0.3510  0.0417
 7255SOL    HW133224   3.050   3.951   6.203 -1.7936 -1.2662  0.0268
 7255SOL    HW233225   3.115   4.029   6.307 -1.8936  2.2668 -0.0812
 7256SOL     OW33226   2.112   4.307   2.849 -0.3997  0.0364  0.0011
 7256SOL    HW133227   2.121   4.362   2.926 -2.4294  0.2550  0.0691
 7256SOL    HW233228   2.057   4.235   2.880 -2.0057  0.9121 -0.8372
 7257SOL     OW33229   1.256   3.012  14.883 -0.3543  0.1723 -0.0538
 7257SOL    HW133230   1.242   3.070  14.958 -0.6747  0.7523 -0.5670
 7257SOL    HW233231   1.337   3.049  14.847 -0.5129 -0.2943 -0.8921
 7258SOL     OW33232   3.030   4.406  12.152  0.5900  0.6108  0.0979
 7258SOL    HW133233   2.984   4.392  12.235 -0.8942  0.9132 -0.6957
 7258SOL    HW233234   2.996   4.338  12.094 -2.6616 -1.5028  4.4601
 7259SOL     OW33235   1.691   2.025  13.441  0.6450 -0.2387 -0.0368
 7259SOL    HW133236   1.696   2.002  13.534  0.8312  1.3220  0.3534
 7259SOL    HW233237   1.676   1.938  13.406 -1.6124 -0.6300  1.8679
 7260SOL     OW33238   0.264   3.264   6.608  0.5967 -0.0267  0.0372
 7260SOL    HW133239   0.187   3.244   6.555 -1.1945  0.7975  2.3597
 7260SOL    HW233240   0.243   3.351   6.641  1.2234  1.0826 -2.4878
 7261SOL     OW33241   3.772   1.172  14.700 -0.3177 -0.2886  0.2278
 7261SOL    HW133242   3.737   1.096  14.655 -1.4208  0.9123 -0.9393
 7261SOL    HW233243   3.729   1.150  14.783 -2.9245 -0.9800 -1.3254
 7262SOL     OW33244   3.169   4.203   5.251 -0.2242 -0.2136  0.3079
 7262SOL    HW133245   3.172   4.129   5.312 -2.2303 -0.1653  0.4517
 7262SOL    HW233246   3.181   4.273   5.314 -0.1243 -0.6624  0.7896
 7263SOL     OW33247   0.467   0.903   7.963  0.1096 -0.2837 -0.4564
 7263SOL    HW133248   0.420   0.843   8.021 -0.1001  0.1463 -0.1874
 7263SOL    HW233249   0.401   0.959   7.923 -0.2013 -0.3966 -0.0978
 7264SOL     OW33250   4.514   0.200   2.196 -0.0251 -0.2144  0.7197
 7264SOL    HW133251   4.446   0.133   2.184 -0.2384  0.0860  0.2535
 7264SOL    HW233252   4.499   0.250   2.115 -0.1394 -0.1320  0.7911
 7265SOL     OW33253   4.635   2.129   4.225 -0.6841 -0.6090 -0.2916
 7265SOL    HW133254   4.712   2.148   4.171  0.5124 -2.6001  0.6967
 7265SOL    HW233255   4.604   2.216   4.248 -0.6329 -0.6813  0.0523
 7266SOL     OW33256   0.597   0.724   8.302  0.2119 -0.6004 -0.5503
 7266SOL    HW133257   0.604   0.750   8.394 -0.9516 -0.2998 -0.5506
 7266SOL    HW233258   0.645   0.797   8.263  0.1623 -0.3395 -0.1247
 7267SOL     OW33259   4.697   3.164   1.858  0.2468 -0.1469 -0.4117
 7267SOL    HW133260   0.056   3.155   1.906  1.0630  0.2364 -1.7201
 7267SOL    HW233261   4.647   3.151   1.939  0.0435 -1.1215 -0.6957
 7268SOL     OW33262   2.767   0.955   6.870 -0.3128  0.1631  0.1258
 7268SOL    HW133263   2.706   1.015   6.828 -1.2232 -0.9108 -0.0983
 7268SOL    HW233264   2.845   1.011   6.862 -1.5811  1.8414 -0.4430
 7269SOL     OW33265   1.483   3.363  15.268 -0.6850  0.5710 -0.4666
 7269SOL    HW133266   1.483   3.357  15.173  0.6588 -1.0679 -0.3766
 7269SOL    HW233267   1.393   3.395  15.271 -0.8424  0.0931  0.3177
 7270SOL     OW33268   3.448   0.703   6.271  0.6277  0.1274  0.5821
 7270SOL    HW133269   3.479   0.707   6.361 -2.7904  2.2410  1.6432
 7270SOL    HW233270   3.480   0.617   6.242 -2.4316 -1.6734  2.4958
 7271SOL     OW33271   0.491   4.254   7.748 -0.7038 -0.2396 -0.0966
 7271SOL    HW133272   0.554   4.194   7.707  0.7337  0.6107  0.8835
 7271SOL    HW233273   0.466   4.305   7.671  2.0657  0.6410 -0.4128
 7272SOL     OW33274   0.779   4.225   7.259  0.5285  0.6271  0.4221
 7272SOL    HW133275   0.809   4.221   7.169 -4.9414 -1.5924 -1.2753
 7272SOL    HW233276   0.860   4.257   7.299  0.8406 -1.8096  1.7128
 7273SOL     OW33277   2.696   4.233   8.466 -0.4105 -0.2100 -0.0806
 7273SOL    HW133278   2.688   4.138   8.459  0.5482 -0.3341  0.4293
 7273SOL    HW233279   2.645   4.242   8.546 -0.2364 -0.5354  0.0684
 7274SOL     OW33280   1.666   0.129   1.588 -0.2402  0.0852  0.1929
 7274SOL    HW133281   1.628   0.166   1.667 -1.6581 -0.5610 -0.1838
 7274SOL    HW233282   1.752   0.169   1.594 -0.1310  0.1401 -1.6448
 7275SOL     OW33283   0.368   2.089   7.622  0.4040  0.1965  0.1370
 7275SOL    HW133284   0.443   2.085   7.682 -1.2003  0.2164  2.1441
 7275SOL    HW233285   0.339   2.180   7.622  1.6049  0.5843 -1.2683
 7276SOL     OW33286   3.766   0.539  13.945 -0.1773  0.0557 -0.1363
 7276SOL    HW133287   3.813   0.585  14.015 -0.5554 -0.3194  0.3662
 7276SOL    HW233288   3.758   0.610  13.882  0.5928  0.3133  0.0547
 7277SOL     OW33289   3.730   0.660  11.352  0.2556 -0.3720  0.6098
 7277SOL    HW133290   3.661   0.713  11.393  0.8725  0.6608  0.3228
 7277SOL    HW233291   3.683   0.578  11.339 -0.3166 -0.0172  0.4229
 7278SOL     OW33292   2.250   0.224   5.940  0.0247  0.0349  0.4758
 7278SOL    HW133293   2.293   0.158   5.995 -1.8732 -2.9181 -1.5424
 7278SOL    HW233294   2.174   0.178   5.904  0.3402 -1.3003  1.4855
 7279SOL     OW33295   4.051   3.537   2.686 -0.3490  0.1945 -0.0996
 7279SOL    HW133296   3.962   3.504   2.692  0.0799 -0.9129  0.1590
 7279SOL    HW233297   4.039   3.632   2.697 -3.1952  0.0105 -1.9153
 7280SOL     OW33298   0.060   3.233   9.153 -0.7571  0.1432  0.4403
 7280SOL    HW133299   0.095   3.145   9.167  0.4074  0.7535  1.4182
 7280SOL    HW233300   0.138   3.289   9.155 -1.0354  0.5491 -0.0639
 7281SOL     OW33301   2.707   1.872  15.244 -0.3136  0.1840  0.7813
 7281SOL    HW133302   2.692   1.909  15.331  1.6121 -1.4142  1.7732
 7281SOL    HW233303   2.777   1.924  15.207  0.1115  0.9007  2.6022
 7282SOL     OW33304   0.351   0.726  12.903  0.1692 -0.5216  0.1898
 7282SOL    HW133305   0.296   0.802  12.923  1.1452  0.2786 -0.1598
 7282SOL    HW233306   0.423   0.761  12.955  1.3199 -0.5974 -1.3691
 7283SOL     OW33307   1.893   0.381   7.834 -0.5593  0.5403  0.6738
 7283SOL    HW133308   1.821   0.425   7.788 -1.3044 -1.1062  0.2535
 7283SOL    HW233309   1.853   0.365   7.919 -0.8300  0.3887  0.5203
 7284SOL     OW33310   0.620   0.974   1.105  0.5778 -0.1345 -0.5317
 7284SOL    HW133311   0.643   0.947   1.016 -0.0790  0.1382 -0.7855
 7284SOL    HW233312   0.685   0.927   1.158 -0.8193 -2.2423 -0.6964
 7285SOL     OW33313   1.371   0.831   4.767 -0.3439  0.3936  0.3480
 7285SOL    HW133314   1.394   0.805   4.678  1.6445  1.1134  0.6407
 7285SOL    HW233315   1.301   0.894   4.747 -1.4817 -1.1069 -0.3384
 7286SOL     OW33316   0.536   0.294   7.956 -0.2778  0.1403 -0.1703
 7286SOL    HW133317   0.449   0.330   7.935 -1.3221 -0.5770  2.9090
 7286SOL    HW233318   0.563   0.271   7.867 -1.2721 -2.3948  0.1934
 7287SOL     OW33319   3.147   3.092   3.080  0.3535  0.1263  0.3304
 7287SOL    HW133320   3.113   3.056   3.161 -0.5147  1.1383  0.4074
 7287SOL    HW233321   3.229   3.046   3.062  0.0336 -0.4491  0.3363
 7288SOL     OW33322   3.664   1.291   6.893  0.0311 -0.1071  0.2219
 7288SOL    HW133323   3.739   1.351   6.887 -2.0203  2.2256 -1.7359
 7288SOL    HW233324   3.660   1.271   6.987  1.8968  2.1813  0.7967
 7289SOL     OW33325   2.987   4.418  16.658 -0.0163  0.3052  0.3174
 7289SOL    HW133326   2.948   4.498  16.694 -1.9466 -0.4136 -0.1928
 7289SOL    HW233327   3.038   4.391  16.734 -1.7585 -1.8762  0.7038
 7290SOL     OW33328   0.353   3.163   2.626  0.2555  0.2053  0.1710
 7290SOL    HW133329   0.397   3.135   2.707  1.0105  2.0609  0.3946
 7290SOL    HW233330   0.432   3.194   2.583  1.8065 -1.2025  2.0194
 7291SOL     OW33331   1.118   4.027  10.464  0.4638  0.4408 -0.0889
 7291SOL    HW133332   1.045   4.041  10.523  1.0008 -0.7166  0.8524
 7291SOL    HW233333   1.080   3.962  10.404 -1.3371  2.2541 -0.8948
 7292SOL     OW33334   0.881   4.654   8.700  0.4613 -0.7045  0.2489
 7292SOL    HW133335   0.940   4.616   8.765  0.7574 -2.6748 -1.1740
 7292SOL    HW233336   0.838   4.583   8.652 -0.1724 -0.1562 -0.0006
 7293SOL     OW33337   0.075   1.065   6.596 -0.0348  0.3293  0.1155
 7293SOL    HW133338   0.062   1.094   6.506  2.8960 -2.1164 -1.0815
 7293SOL    HW233339   4.720   1.013   6.617 -0.1446  0.2556 -0.4891
 7294SOL     OW33340   0.815   1.702   3.331  0.1373 -0.3687  0.0044
 7294SOL    HW133341   0.882   1.765   3.354 -0.9279  1.3849 -1.7419
 7294SOL    HW233342   0.798   1.733   3.242  0.4245  0.4571  0.2361
 7295SOL     OW33343   2.913   3.546  11.641  0.6768 -0.2024 -0.2184
 7295SOL    HW133344   2.954   3.496  11.570  0.5379  0.2458 -0.6112
 7295SOL    HW233345   2.842   3.482  11.648  0.2252  0.4029  0.6997
 7296SOL     OW33346   1.395   2.266  11.530 -0.0271 -0.3754  0.1020
 7296SOL    HW133347   1.470   2.208  11.537  0.7174  0.7904  1.6407
 7296SOL    HW233348   1.410   2.321  11.606 -1.5480  0.1162  0.0433
 7297SOL     OW33349   4.018   3.957   6.953  0.1228 -0.0452  0.3092
 7297SOL    HW133350   4.032   3.864   6.969 -0.6801  0.4045  3.6715
 7297SOL    HW233351   3.994   3.959   6.861  2.5616 -0.0185 -0.3229
 7298SOL     OW33352   3.865   4.207   6.022 -0.1877 -0.4151  0.0889
 7298SOL    HW133353   3.899   4.117   6.019  1.4242  0.2308 -1.0614
 7298SOL    HW233354   3.852   4.243   5.934  4.0128 -0.5287 -0.5927
 7299SOL     OW33355   1.890   1.617  12.214  0.4507 -0.3951 -0.2080
 7299SOL    HW133356   1.825   1.569  12.265 -0.9808  0.2318 -1.4005
 7299SOL    HW233357   1.909   1.697  12.263 -2.7007 -0.5561  1.2837
 7300SOL     OW33358   4.715   1.747   2.901 -0.3702 -0.4374 -0.4622
 7300SOL    HW133359   4.691   1.796   2.980  0.3843  0.0473 -0.5216
 7300SOL    HW233360   4.682   1.804   2.832  0.0796  1.5102  0.9386
 7301SOL     OW33361   2.994   3.890   1.270 -0.3603  0.4581 -0.0728
 7301SOL    HW133362   2.993   3.970   1.322  1.5930 -0.8291  1.9216
 7301SOL    HW233363   3.027   3.916   1.184  1.1469 -2.4769 -0.3691
 7302SOL     OW33364   3.371   3.574   0.754 -0.4625 -0.2038  0.2176
 7302SOL    HW133365   3.379   3.490   0.710  0.6920 -0.9521  1.8222
 7302SOL    HW233366   3.408   3.629   0.684 -0.6491 -0.9091 -0.4302
 7303SOL     OW33367   2.877   0.075   4.043 -0.0525  0.1480  0.0909
 7303SOL    HW133368   2.850   0.129   4.117 -1.7337  2.1688 -2.0075
 7303SOL    HW233369   2.852   4.712   4.079 -1.8838  0.7468  0.2615
 7304SOL     OW33370   0.590   0.088   3.246  0.0150 -0.7609 -0.4097
 7304SOL    HW133371   0.508   0.110   3.201 -0.7362  2.2439  2.4268
 7304SOL    HW233372   0.558   0.109   3.334  2.0672  0.5666  0.0012
 7305SOL     OW33373   4.185   1.948   3.822 -0.2191  0.3971  0.0830
 7305SOL    HW133374   4.187   1.852   3.831  3.5248  0.6265  1.4874
 7305SOL    HW233375   4.258   1.963   3.762 -0.8519  2.1449 -0.2532
 7306SOL     OW33376   2.552   2.689  13.860 -0.4160  0.0594  0.3039
 7306SOL    HW133377   2.636   2.646  13.845  1.7356  3.5973  2.1831
 7306SOL    HW233378   2.566   2.774  13.819  1.1244 -0.1776  0.3499
 7307SOL     OW33379   0.365   2.064   3.108 -0.3942  0.1346  0.4792
 7307SOL    HW133380   0.419   2.080   3.030  1.4905  1.6347  2.0845
 7307SOL    HW233381   0.279   2.098   3.086 -0.0144  0.6984 -0.1346
 7308SOL     OW33382   0.809   0.910   7.563 -0.5106 -0.1913  0.0687
 7308SOL    HW133383   0.774   0.930   7.650 -0.0290  0.6858  0.0545
 7308SOL    HW233384   0.787   0.988   7.513  1.0796  0.7434  0.8688
 7309SOL     OW33385   0.580   3.273   1.042 -0.4133  0.0748 -0.1860
 7309SOL    HW133386   0.618   3.246   1.125 -1.2655 -3.6001 -0.9983
 7309SOL    HW233387   0.515   3.204   1.034 -1.3715  0.9212  0.3550
 7310SOL     OW33388   4.212   3.234   4.733 -0.2100  0.0640 -0.8404
 7310SOL    HW133389   4.169   3.148   4.731 -0.8686  0.3879 -0.1525
 7310SOL    HW233390   4.240   3.239   4.824 -2.2250  0.3475 -0.2396
 7311SOL     OW33391   1.931   1.171   4.822 -0.5315  0.0757  0.0065
 7311SOL    HW133392   1.921   1.076   4.814 -0.9592  0.2999 -1.9411
 7311SOL    HW233393   2.026   1.173   4.811 -0.4529 -0.3906  0.6037
 7312SOL     OW33394   2.241   4.070   4.286  0.2328 -0.5293  0.0771
 7312SOL    HW133395   2.222   4.072   4.192  0.4714  1.3207  0.0570
 7312SOL    HW233396   2.281   3.984   4.300  2.3644  0.4020 -0.2651
 7313SOL     OW33397   0.401   4.459  11.802 -0.0699  0.7812  0.7756
 7313SOL    HW133398   0.373   4.545  11.772 -0.8290 -0.5193 -2.2700
 7313SOL    HW233399   0.489   4.484  11.832  1.6459 -0.6694 -2.9850
 7314SOL     OW33400   1.888   4.679   5.360  0.4619 -0.4007  0.8899
 7314SOL    HW133401   1.924   0.016   5.294 -0.8309 -0.5838  0.0118
 7314SOL    HW233402   1.942   4.603   5.342  1.5943  0.1700  1.9270
 7315SOL     OW33403   0.453   2.166   4.110 -0.0133 -0.5474 -0.4799
 7315SOL    HW133404   0.533   2.137   4.065  0.9185  0.3215  0.6080
 7315SOL    HW233405   0.411   2.225   4.048 -0.8907  1.1924  1.7780
 7316SOL     OW33406   3.828   2.739   5.757  0.6350 -0.6944  0.0610
 7316SOL    HW133407   3.802   2.777   5.673  1.8148  2.3037  1.0340
 7316SOL    HW233408   3.920   2.764   5.753  0.0502  1.7048  1.4882
 7317SOL     OW33409   3.692   4.638   1.564 -0.4005  0.3992 -0.1856
 7317SOL    HW133410   3.754   4.684   1.621 -0.0589 -0.8997  0.4990
 7317SOL    HW233411   3.657   4.575   1.628 -1.0323  1.8399  0.8758
 7318SOL     OW33412   2.562   1.421   7.852  0.0481 -0.1371 -0.3562
 7318SOL    HW133413   2.520   1.407   7.937 -1.7111  0.6124 -1.0852
 7318SOL    HW233414   2.493   1.410   7.786 -0.4193 -0.0806  0.1168
 7319SOL     OW33415   2.981   2.038  15.471  0.0883  0.3333 -0.1029
 7319SOL    HW133416   2.979   2.017  15.378 -0.5769 -1.3178  0.2884
 7319SOL    HW233417   2.889   2.056  15.487 -0.0833 -0.6230  0.0166
 7320SOL     OW33418   0.529   0.096   3.519  0.4714 -0.1949  0.3267
 7320SOL    HW133419   0.494   0.184   3.535  0.0227 -0.3666  0.2906
 7320SOL    HW233420   0.581   0.088   3.599 -1.4297  0.4349  1.6441
 7321SOL     OW33421   0.044   2.130   5.257 -0.5654  0.2977  0.5191
 7321SOL    HW133422   0.066   2.115   5.349  2.8360 -1.3950 -0.5558
 7321SOL    HW233423   0.127   2.103   5.219 -0.3615  0.4328  0.8611
 7322SOL     OW33424   3.096   3.040   5.128 -0.1716 -0.6837 -0.1504
 7322SOL    HW133425   3.110   3.098   5.203 -0.4328 -1.9886  0.9068
 7322SOL    HW233426   3.008   3.015   5.157 -0.6677  2.2210  0.8522
 7323SOL     OW33427   4.456   4.624   4.410 -0.3197 -0.3788  0.2277
 7323SOL    HW133428   4.452   4.616   4.315 -1.3297 -2.4121  0.4476
 7323SOL    HW233429   4.535   4.571   4.421 -0.2066 -0.1477  0.5303
 7324SOL     OW33430   2.104   0.919  11.312 -0.0241  0.0542 -0.0458
 7324SOL    HW133431   2.029   0.860  11.321  0.0374 -0.2113 -1.2958
 7324SOL    HW233432   2.177   0.858  11.316 -1.3310 -1.4690  0.4978
 7325SOL     OW33433   2.558   0.397   4.621  0.1543 -0.2205  0.0229
 7325SOL    HW133434   2.653   0.389   4.628  0.0081  0.8132  3.2781
 7325SOL    HW233435   2.537   0.322   4.565  0.2277 -1.2801  1.3997
 7326SOL     OW33436   3.898   0.193   6.783  0.1566 -0.1135 -0.1214
 7326SOL    HW133437   3.885   0.142   6.863  1.2432  1.2515  0.9197
 7326SOL    HW233438   3.876   0.277   6.822 -0.2729  0.4975 -1.7186
 7327SOL     OW33439   1.665   2.602   7.072 -0.3528  0.8792 -0.1395
 7327SOL    HW133440   1.757   2.579   7.060 -1.2886 -2.7850 -0.3669
 7327SOL    HW233441   1.632   2.595   6.982  1.1725  1.9070 -0.7703
 7328SOL     OW33442   2.667   0.441   8.537 -0.4070  0.3091  0.1692
 7328SOL    HW133443   2.594   0.405   8.588 -1.7108  1.5874 -0.8025
 7328SOL    HW233444   2.624   0.487   8.465 -0.7171  0.2063  0.2890
 7329SOL     OW33445   4.104   3.960   2.061  0.7324 -0.1220 -0.5033
 7329SOL    HW133446   4.079   3.874   2.026 -0.9265  1.0597 -2.2536
 7329SOL    HW233447   4.190   3.935   2.094  1.4346  0.3219 -1.9940
 7330SOL     OW33448   0.406   1.198  12.292 -0.2512 -0.6620 -0.0085
 7330SOL    HW133449   0.500   1.180  12.302  0.3321  1.4530 -1.5641
 7330SOL    HW233450   0.416   1.227  12.201 -1.7095 -0.4034 -0.0899
 7331SOL     OW33451   1.388   2.049  12.986  0.1978 -0.5277 -0.2796
 7331SOL    HW133452   1.340   2.028  13.066 -0.2191 -1.5379 -0.7905
 7331SOL    HW233453   1.473   2.062  13.027  0.1690 -0.8776 -0.1132
 7332SOL     OW33454   2.166   2.015   8.669  0.5647 -0.3216  0.2691
 7332SOL    HW133455   2.239   1.958   8.645  1.4757  0.3578  1.3932
 7332SOL    HW233456   2.135   1.974   8.750  1.1165 -0.8938  0.1886
 7333SOL     OW33457   2.087   3.232   6.018  0.0882  0.2396  0.0066
 7333SOL    HW133458   2.109   3.321   6.042  2.1210 -0.8210  2.0706
 7333SOL    HW233459   2.059   3.230   5.926 -0.2787  1.2125  0.0996
 7334SOL     OW33460   1.981   3.178  14.970  0.1074  0.2598  0.0365
 7334SOL    HW133461   1.946   3.202  14.885  0.8062 -1.4339 -0.7374
 7334SOL    HW233462   2.001   3.085  14.958  2.4612  0.4849  2.1714
 7335SOL     OW33463   3.585   4.113  11.039 -0.1409  0.3869 -0.1932
 7335SOL    HW133464   3.610   4.092  10.948  0.2551 -0.3736  0.0859
 7335SOL    HW233465   3.579   4.028  11.082  0.4293  0.6363  0.3686
 7336SOL     OW33466   4.139   0.980  12.563 -0.0472  0.4639  0.2846
 7336SOL    HW133467   4.072   0.972  12.496 -0.0719  0.3477  0.3242
 7336SOL    HW233468   4.208   1.020  12.511  1.2700 -1.7375  0.3479
 7337SOL     OW33469   4.212   0.726   5.624 -0.0362  0.3781  0.0580
 7337SOL    HW133470   4.297   0.681   5.629 -1.7537 -2.9252 -0.7617
 7337SOL    HW233471   4.177   0.694   5.707 -0.4999 -1.2123 -0.7642
 7338SOL     OW33472   1.757   2.606   3.376  0.1250 -0.0636 -0.3424
 7338SOL    HW133473   1.757   2.662   3.299  2.1022 -1.4792 -1.3873
 7338SOL    HW233474   1.696   2.535   3.355  0.4322 -0.4744  0.1353
 7339SOL     OW33475   3.721   2.636   7.592 -0.3356 -0.0022  0.2763
 7339SOL    HW133476   3.791   2.571   7.587  1.2126  1.7908 -1.3716
 7339SOL    HW233477   3.655   2.616   7.526  0.3520  1.2518 -0.7901
 7340SOL     OW33478   0.192   1.425   5.032  0.3542  0.1722 -0.2971
 7340SOL    HW133479   0.242   1.410   4.952  0.6870  1.3045 -0.2954
 7340SOL    HW233480   0.127   1.477   4.986 -0.5456  1.2408  2.1779
 7341SOL     OW33481   2.693   2.549  16.176 -0.1929 -0.0725 -0.1760
 7341SOL    HW133482   2.625   2.613  16.197 -0.2773  0.1014 -0.9735
 7341SOL    HW233483   2.733   2.521  16.258 -0.8818 -0.9471 -0.1373
 7342SOL     OW33484   2.645   1.665   6.950 -1.4135 -0.0805  0.1446
 7342SOL    HW133485   2.660   1.736   6.888  1.8838 -1.9923 -1.2471
 7342SOL    HW233486   2.638   1.721   7.027 -0.8102 -0.9086  0.8047
 7343SOL     OW33487   2.402   2.828   7.595 -0.2732  0.1684  0.0265
 7343SOL    HW133488   2.355   2.883   7.532 -0.3827  1.3865  1.1628
 7343SOL    HW233489   2.491   2.817   7.563 -0.0423  0.0188  0.7281
 7344SOL     OW33490   1.486   1.356   6.026  0.0553  0.0400  0.3743
 7344SOL    HW133491   1.542   1.395   5.959 -1.3446 -1.3038 -1.5829
 7344SOL    HW233492   1.522   1.395   6.106 -1.7392  0.3545  1.0540
 7345SOL     OW33493   3.599   0.977  17.374  0.4417  0.1679  0.2115
 7345SOL    HW133494   3.636   0.978  17.462  1.3898 -2.0098 -0.1595
 7345SOL    HW233495   3.517   1.026  17.384 -0.4726 -1.0565 -1.1495
 7346SOL     OW33496   1.120   1.650   5.485 -0.3663 -0.4495  0.5260
 7346SOL    HW133497   1.067   1.572   5.469 -0.1670 -0.2759 -0.9301
 7346SOL    HW233498   1.206   1.628   5.450 -0.3633  1.5285 -0.7023
 7347SOL     OW33499   3.920   2.421   6.758  0.0732 -0.3233  0.1930
 7347SOL    HW133500   3.935   2.507   6.797 -1.6027  0.1739 -0.2666
 7347SOL    HW233501   3.922   2.356   6.828  0.4955  1.5242  1.9128
 7348SOL     OW33502   2.728   4.018   5.094  0.2451 -0.1231  0.0513
 7348SOL    HW133503   2.803   3.958   5.096  0.2965 -0.0364  0.6404
 7348SOL    HW233504   2.745   4.076   5.168 -1.0116  0.7602 -0.3611
 7349SOL     OW33505   4.476   2.789   9.372  0.1952  0.2286  0.3074
 7349SOL    HW133506   4.543   2.835   9.322 -0.4243 -1.1372 -1.7531
 7349SOL    HW233507   4.395   2.808   9.324 -0.7266  2.2032  2.6219
 7350SOL     OW33508   1.712   3.910  16.654  0.5160  0.4275  0.1449
 7350SOL    HW133509   1.757   3.950  16.579 -0.7373 -0.8428 -1.2963
 7350SOL    HW233510   1.785   3.908  16.716 -0.0227  2.7317  0.8630
 7351SOL     OW33511   0.234   0.278  14.105  0.3546  0.6641  0.3745
 7351SOL    HW133512   0.211   0.281  14.198 -1.4159 -1.7526  0.0054
 7351SOL    HW233513   0.325   0.258  14.123  1.0595  2.1722 -1.5569
 7352SOL     OW33514   2.890   3.383   7.888 -0.0449  0.5554  0.0173
 7352SOL    HW133515   2.883   3.464   7.940  0.6789 -0.1325  1.1785
 7352SOL    HW233516   2.799   3.377   7.860 -0.0929 -2.0544  0.7059
 7353SOL     OW33517   2.278   2.547   8.461 -0.1626  0.3146 -0.3997
 7353SOL    HW133518   2.261   2.507   8.376 -0.9714 -2.1592  0.9130
 7353SOL    HW233519   2.221   2.624   8.457 -2.5620 -1.3155  1.5030
 7354SOL     OW33520   2.680   0.114   8.285 -0.5705 -0.1907 -0.4132
 7354SOL    HW133521   2.600   0.096   8.235 -1.6760 -0.6568  1.5117
 7354SOL    HW233522   2.733   0.039   8.258  1.0126  1.1893 -1.1066
 7355SOL     OW33523   4.133   0.290   1.902 -0.3796  0.3374  0.5409
 7355SOL    HW133524   4.124   0.221   1.837  1.0914  0.4934  0.1977
 7355SOL    HW233525   4.051   0.281   1.952 -2.5113 -0.2893 -3.1070
 7356SOL     OW33526   0.010   2.379  16.941 -0.0016 -0.4045 -0.0309
 7356SOL    HW133527   4.719   2.447  16.875 -0.6819 -0.3763  0.1306
 7356SOL    HW233528   4.643   2.348  16.954  1.0478 -1.3964  4.6553
 7357SOL     OW33529   1.197   3.624   5.641  0.4570 -0.0837  0.1911
 7357SOL    HW133530   1.152   3.589   5.718  0.6037 -0.6604  0.0177
 7357SOL    HW233531   1.180   3.717   5.656 -2.6762 -0.6307 -0.1123
 7358SOL     OW33532   3.282   3.714  15.315 -0.5936  0.4156  0.0141
 7358SOL    HW133533   3.279   3.653  15.389 -0.2113 -0.1938 -0.4759
 7358SOL    HW233534   3.221   3.780  15.347  1.9978  1.8157  2.0778
 7359SOL     OW33535   0.396   2.280  15.589  0.1229 -0.0121 -0.1079
 7359SOL    HW133536   0.444   2.332  15.524  0.1210  1.6098  1.1709
 7359SOL    HW233537   0.469   2.240  15.636  1.1906  1.1442 -0.7706
 7360SOL     OW33538   3.389   2.019   4.090  0.1570 -0.3626  0.3171
 7360SOL    HW133539   3.469   2.035   4.041 -0.0488  0.0683  0.1167
 7360SOL    HW233540   3.362   1.941   4.042 -0.7701 -0.5189  1.0811
 7361SOL     OW33541   4.227   3.224   2.158 -0.1726 -0.2454  0.1108
 7361SOL    HW133542   4.181   3.145   2.188  0.1707 -1.3320 -2.1961
 7361SOL    HW233543   4.160   3.272   2.108  0.5222 -0.6092 -1.1565
 7362SOL     OW33544   2.262   2.623  14.212  1.0388 -0.1651 -0.0346
 7362SOL    HW133545   2.179   2.670  14.206  1.0746  0.2701  2.7632
 7362SOL    HW233546   2.302   2.654  14.131 -0.7125 -1.3370 -1.3505
 7363SOL     OW33547   4.454   1.672   5.839 -0.1418 -0.2361  0.2502
 7363SOL    HW133548   4.479   1.591   5.796  0.8166  1.1289 -1.7619
 7363SOL    HW233549   4.377   1.699   5.789  0.6007  1.3890 -0.0456
 7364SOL     OW33550   3.763   1.446   5.696 -0.2199  0.4024  0.0788
 7364SOL    HW133551   3.741   1.369   5.644 -1.7749 -0.5000  2.0480
 7364SOL    HW233552   3.788   1.431   5.787  0.4989  1.7797  0.1116
 7365SOL     OW33553   1.749   3.165   2.629  0.2450 -0.0510  0.3579
 7365SOL    HW133554   1.772   3.250   2.590  0.3536 -0.4212 -0.3773
 7365SOL    HW233555   1.836   3.126   2.636 -0.4978 -1.9634 -1.0912
 7366SOL     OW33556   2.412   3.442   1.244 -0.1588 -0.6811  0.3551
 7366SOL    HW133557   2.506   3.431   1.228 -0.2653  2.1029 -2.2998
 7366SOL    HW233558   2.408   3.534   1.219 -0.9533 -0.5328  1.0586
 7367SOL     OW33559   1.403   3.203   7.715 -0.8712 -0.1263 -0.2666
 7367SOL    HW133560   1.404   3.108   7.709 -1.5716 -0.1255 -0.4379
 7367SOL    HW233561   1.447   3.205   7.800 -0.2196 -0.7875 -0.5903
 7368SOL     OW33562   1.523   1.577   7.996 -0.1004 -0.1088  0.2617
 7368SOL    HW133563   1.476   1.497   8.021 -2.5853  0.6356 -2.0876
 7368SOL    HW233564   1.607   1.538   7.971 -0.0781  0.0384  0.1101
 7369SOL     OW33565   3.459   1.182  12.124 -0.0917 -0.3554 -0.2621
 7369SOL    HW133566   3.387   1.222  12.075 -1.3835  1.2573  3.0020
 7369SOL    HW233567   3.420   1.171  12.211 -0.8692 -0.2781 -0.6051
 7370SOL     OW33568   2.216   1.402  11.065  0.3911  0.1208  0.0884
 7370SOL    HW133569   2.218   1.485  11.017  0.0908 -0.1061 -0.3133
 7370SOL    HW233570   2.153   1.414  11.136 -1.4193 -0.5619 -1.4136
 7371SOL     OW33571   3.036   1.614  15.566 -0.3534  0.4483 -0.0145
 7371SOL    HW133572   3.112   1.564  15.597  0.1950  1.4813  0.3162
 7371SOL    HW233573   3.075   1.686  15.515  2.0809 -0.1776  0.9644
 7372SOL     OW33574   1.713   0.665   1.485  0.1203  0.4270  0.6655
 7372SOL    HW133575   1.684   0.687   1.574 -0.5851 -1.0642  0.7864
 7372SOL    HW233576   1.742   0.750   1.450  0.1879  1.0960  2.3599
 7373SOL     OW33577   4.675   1.728   8.499  0.0512  0.4245  0.0640
 7373SOL    HW133578   4.672   1.815   8.459 -1.1153  0.4619  0.2419
 7373SOL    HW233579   0.046   1.720   8.520 -0.2109 -2.9681 -0.0329
 7374SOL     OW33580   2.065   1.740   7.767  0.0180  0.1288  0.3169
 7374SOL    HW133581   2.083   1.823   7.723  1.3168 -0.3555 -0.0672
 7374SOL    HW233582   2.100   1.764   7.853 -0.9839  2.2351  0.1567
 7375SOL     OW33583   4.174   0.851   2.740  0.0284 -0.2085 -0.0321
 7375SOL    HW133584   4.194   0.881   2.651 -0.8311 -1.2974 -0.5953
 7375SOL    HW233585   4.079   0.857   2.744 -0.0517 -0.5403 -1.3356
 7376SOL     OW33586   0.602   0.300   7.702 -0.2267 -0.3010 -0.1591
 7376SOL    HW133587   0.545   0.294   7.625  0.0149  0.0425 -0.3673
 7376SOL    HW233588   0.653   0.381   7.692  0.1853 -0.5206  0.2068
 7377SOL     OW33589   3.036   2.579   5.046 -0.3990 -0.1467 -0.1116
 7377SOL    HW133590   3.015   2.608   4.957  0.0706  1.1910  0.2076
 7377SOL    HW233591   2.978   2.504   5.057 -1.1459  0.5402  0.6662
 7378SOL     OW33592   2.688   1.963  15.494  0.2561 -0.8049 -0.4732
 7378SOL    HW133593   2.720   1.936  15.580 -1.3571  0.8766  0.6620
 7378SOL    HW233594   2.594   1.978  15.509 -0.1283 -2.7666 -0.8960
 7379SOL     OW33595   4.705   4.122   7.120 -0.0729 -0.5249 -0.5626
 7379SOL    HW133596   4.630   4.136   7.177  0.7137  1.0110  0.0812
 7379SOL    HW233597   0.016   4.037   7.149 -0.2638 -0.0927  0.8919
 7380SOL     OW33598   4.223   2.865   5.524  0.2389  0.3840  0.2186
 7380SOL    HW133599   4.209   2.959   5.534  1.9497  0.5556  0.9371
 7380SOL    HW233600   4.162   2.836   5.592  1.4998  1.6975  1.8957
 7381SOL     OW33601   3.103   0.708  14.109  0.2478 -0.1247 -0.1142
 7381SOL    HW133602   3.177   0.658  14.143  0.3028 -0.3835 -0.6212
 7381SOL    HW233603   3.027   0.664  14.148 -0.8354  1.3953 -0.5155
 7382SOL     OW33604   0.215   1.167   3.940  0.5471 -0.3258  0.2128
 7382SOL    HW133605   0.288   1.189   3.882  1.8946 -4.9698  0.1518
 7382SOL    HW233606   0.174   1.249   3.968 -0.4882 -0.9811  0.6136
 7383SOL     OW33607   1.228   4.230   7.935  0.8311  0.6047  0.6305
 7383SOL    HW133608   1.168   4.304   7.930 -1.9567 -1.4395  3.4462
 7383SOL    HW233609   1.209   4.196   8.023  0.8787 -0.7539  0.1184
 7384SOL     OW33610   4.466   2.538   5.582  0.3146 -0.7280 -0.7130
 7384SOL    HW133611   4.378   2.521   5.547 -0.2867  2.4049 -0.6640
 7384SOL    HW233612   4.497   2.606   5.523  1.0156  1.1752  1.8494
 7385SOL     OW33613   1.298   4.518  14.560 -0.3513 -0.0084 -0.0930
 7385SOL    HW133614   1.252   4.463  14.623  0.1962 -1.0604 -0.6211
 7385SOL    HW233615   1.379   4.468  14.552  0.8334  1.9538 -0.3041
 7386SOL     OW33616   2.734   3.227   0.293 -0.2725  0.3289  0.4673
 7386SOL    HW133617   2.676   3.214   0.218 -0.2827  1.9498  0.1926
 7386SOL    HW233618   2.733   3.141   0.335 -1.3357  0.2618  0.2884
 7387SOL     OW33619   0.422   1.825   4.899  0.2421 -0.0954 -0.3701
 7387SOL    HW133620   0.482   1.750   4.894 -0.8975 -0.9318 -1.3257
 7387SOL    HW233621   0.346   1.795   4.851 -0.3167 -0.5556  0.8043
 7388SOL     OW33622   1.928   3.020   7.755  0.0423 -0.2428 -0.6588
 7388SOL    HW133623   2.007   2.983   7.795  0.4395  0.2382 -0.9967
 7388SOL    HW233624   1.887   2.935   7.744 -0.2682 -0.2189  0.3456
 7389SOL     OW33625   2.272   0.301   6.788  0.5489  0.0589  0.0787
 7389SOL    HW133626   2.256   0.373   6.848 -2.8940  0.2598 -1.0692
 7389SOL    HW233627   2.181   0.269   6.786  1.2821 -2.0134 -0.5825
 7390SOL     OW33628   4.581   1.024   3.441  0.0840  0.1819  0.2339
 7390SOL    HW133629   4.631   1.056   3.516  1.5550 -0.7524 -0.3381
 7390SOL    HW233630   4.518   0.966   3.484 -0.7637 -0.9043 -2.4304
 7391SOL     OW33631   4.092   2.925   7.718 -0.0146 -0.4596  0.1292
 7391SOL    HW133632   4.047   2.845   7.744 -0.8668 -0.2687 -0.7525
 7391SOL    HW233633   4.015   2.974   7.747 -0.9289 -0.7186 -1.8471
 7392SOL     OW33634   2.178   0.364   3.582 -0.1602 -0.4477  0.0940
 7392SOL    HW133635   2.238   0.379   3.509  0.6211  3.0941  1.4415
 7392SOL    HW233636   2.119   0.436   3.561  1.9227  1.0663 -0.5593
 7393SOL     OW33637   1.557   0.823   1.135 -0.1090 -0.5690 -0.8693
 7393SOL    HW133638   1.601   0.753   1.184 -1.1771 -1.6225 -1.4150
 7393SOL    HW233639   1.510   0.764   1.076 -3.0808  1.2968 -0.3865
 7394SOL     OW33640   0.919   3.241   8.157  0.5270  0.3411  0.1941
 7394SOL    HW133641   0.891   3.229   8.066  2.3536  0.8745 -0.4325
 7394SOL    HW233642   0.957   3.328   8.150 -1.2072  1.1245  0.5218
 7395SOL     OW33643   1.657   3.140   5.927 -0.2305 -0.5819 -0.3244
 7395SOL    HW133644   1.618   3.102   6.006  0.9620 -3.5630 -1.1617
 7395SOL    HW233645   1.576   3.160   5.880  0.4116  1.9668 -0.3641
 7396SOL     OW33646   1.523   0.740  11.007  0.4230 -0.0493 -0.3569
 7396SOL    HW133647   1.597   0.722  11.066 -1.7309  3.4862  3.4460
 7396SOL    HW233648   1.504   0.653  10.971  2.4608 -1.0127  0.8380
 7397SOL     OW33649   2.209   4.581   8.931 -0.1803 -0.2952 -0.4060
 7397SOL    HW133650   2.284   4.568   8.988 -0.0957 -0.6809 -0.6052
 7397SOL    HW233651   2.175   4.670   8.944 -0.8533 -0.2846 -2.1829
 7398SOL     OW33652   1.372   1.664   3.144  0.1491  0.2275  0.3328
 7398SOL    HW133653   1.350   1.711   3.064 -2.7716 -0.4651  0.7408
 7398SOL    HW233654   1.284   1.678   3.179 -0.3026 -2.7193  0.4551
 7399SOL     OW33655   1.196   1.252   3.585  0.4232 -0.0485  0.5719
 7399SOL    HW133656   1.136   1.179   3.600  0.1579 -0.4736 -2.4480
 7399SOL    HW233657   1.260   1.217   3.523 -1.0690 -0.4120 -0.7537
 7400SOL     OW33658   1.022   1.932  14.450  0.0831 -0.2413 -0.1154
 7400SOL    HW133659   1.075   1.856  14.426  2.8942  1.5164  0.4900
 7400SOL    HW233660   1.067   1.973  14.524 -2.4582  1.0131  0.7426
 7401SOL     OW33661   3.832   0.493  15.299 -0.3000  0.0779 -1.2685
 7401SOL    HW133662   3.870   0.555  15.361  0.0692 -1.6627  0.2075
 7401SOL    HW233663   3.823   0.422  15.361  0.3614  0.2255 -1.0029
 7402SOL     OW33664   3.815   0.992   0.720 -0.3268  0.0511  0.6568
 7402SOL    HW133665   3.749   1.061   0.728  0.5556  0.9950 -0.1760
 7402SOL    HW233666   3.887   1.047   0.690 -0.3897 -0.5346 -0.5614
 7403SOL     OW33667   3.704   2.536   0.272 -0.0897  0.7910 -0.0540
 7403SOL    HW133668   3.608   2.540   0.276 -0.2013 -2.8674  1.8266
 7403SOL    HW233669   3.715   2.464   0.334 -1.6920 -0.2906 -1.0226
 7404SOL     OW33670   2.945   0.342   8.580  0.1796 -0.9920  0.7632
 7404SOL    HW133671   2.954   0.247   8.594  0.1924 -1.0025  0.6825
 7404SOL    HW233672   2.856   0.342   8.545  0.5909 -2.9722 -0.2875
 7405SOL     OW33673   2.539   3.758   1.608  0.4638  0.5277  0.0780
 7405SOL    HW133674   2.452   3.742   1.571  0.1505  0.9723  0.6188
 7405SOL    HW233675   2.510   3.833   1.661  0.1823  0.5507 -0.1084
 7406SOL     OW33676   3.072   4.515   6.804 -0.8711 -0.3882 -0.4499
 7406SOL    HW133677   3.130   4.505   6.879 -1.9305 -0.2098  0.3907
 7406SOL    HW233678   3.002   4.451   6.818 -1.1985  0.2955  0.9769
 7407SOL     OW33679   2.639   2.132  10.028 -0.2056 -0.5107 -0.5566
 7407SOL    HW133680   2.723   2.103  10.065 -0.0944 -0.4998 -0.7945
 7407SOL    HW233681   2.580   2.099  10.095  1.4679  0.1581  1.2658
 7408SOL     OW33682   4.527   0.024  16.995 -0.6537 -0.2986 -0.2825
 7408SOL    HW133683   4.537   0.102  17.050 -2.9517  0.6381 -1.2144
 7408SOL    HW233684   4.475   0.062  16.925  0.7433 -1.4992 -1.9776
 7409SOL     OW33685   4.042   0.018   6.424 -0.0878 -0.7390  0.6050
 7409SOL    HW133686   4.083   0.010   6.510  0.5151 -0.8640  0.3109
 7409SOL    HW233687   3.973   0.083   6.438 -1.2017 -1.0687 -3.4502
 7410SOL     OW33688   1.863   2.654   8.637 -0.0028 -0.2856 -0.0795
 7410SOL    HW133689   1.905   2.719   8.693 -1.4097  2.1105 -1.8107
 7410SOL    HW233690   1.810   2.606   8.702 -0.0269  0.9996  0.8423
 7411SOL     OW33691   0.045   1.694   6.729 -0.8667 -0.0259 -0.5392
 7411SOL    HW133692   0.135   1.716   6.705  0.0701 -1.2863  1.7793
 7411SOL    HW233693   0.010   1.781   6.750 -0.2999 -0.3071  1.5400
 7412SOL     OW33694   4.291   1.005  15.581  0.1341 -0.1109  0.1243
 7412SOL    HW133695   4.283   1.078  15.642  0.8073  1.1132 -1.2531
 7412SOL    HW233696   4.202   0.969  15.583  0.7342 -1.5454  0.5356
 7413SOL     OW33697   4.351   0.269   9.604 -0.2820  0.0266 -0.6395
 7413SOL    HW133698   4.314   0.274   9.693  0.2195 -0.6958 -0.3916
 7413SOL    HW233699   4.370   0.361   9.591 -0.6564  0.0647 -0.9178
 7414SOL     OW33700   4.356   3.117  11.147  0.2949 -0.6173  0.2395
 7414SOL    HW133701   4.401   3.132  11.230  2.7997 -0.5462 -1.1416
 7414SOL    HW233702   4.428   3.071  11.105 -0.0423 -0.6197 -0.3337
 7415SOL     OW33703   1.225   0.597  16.054  0.4322  0.4028 -0.5182
 7415SOL    HW133704   1.217   0.628  15.964 -0.2737  1.5059 -0.0770
 7415SOL    HW233705   1.290   0.662  16.079 -0.6929  1.4104 -0.2217
 7416SOL     OW33706   2.614   2.133   4.841 -0.1408  0.3650 -0.1275
 7416SOL    HW133707   2.529   2.155   4.803  0.2707  1.7248 -0.2579
 7416SOL    HW233708   2.590   2.160   4.930 -0.6828 -0.1337 -0.1229
 7417SOL     OW33709   2.674   0.205   5.439 -0.1210 -0.1462  0.2012
 7417SOL    HW133710   2.599   0.153   5.469 -1.6533  1.8928 -0.1482
 7417SOL    HW233711   2.648   0.236   5.353 -0.5088  1.2757  0.8327
 7418SOL     OW33712   2.512   2.840  15.477 -0.4367 -0.4274  0.6901
 7418SOL    HW133713   2.441   2.866  15.537 -0.2407 -1.5115  1.3911
 7418SOL    HW233714   2.560   2.920  15.456 -2.4884  0.3174 -1.1531
 7419SOL     OW33715   1.325   1.153   4.580  0.0714  0.0849  0.0074
 7419SOL    HW133716   1.389   1.212   4.620  0.4427 -1.1617  1.2486
 7419SOL    HW233717   1.380   1.099   4.524 -0.4268  0.4866 -0.8615
 7420SOL     OW33718   2.087   3.678   8.883 -0.2089  0.4043  0.1837
 7420SOL    HW133719   2.000   3.695   8.849  0.1636  0.6290 -0.6619
 7420SOL    HW233720   2.092   3.582   8.885 -0.0260  0.4163  0.3986
 7421SOL     OW33721   1.093   2.511   6.926 -0.8492 -0.0556  0.4395
 7421SOL    HW133722   1.094   2.604   6.906 -3.7372 -0.3483 -1.0901
 7421SOL    HW233723   1.071   2.521   7.018  0.2092  1.4399  0.5218
 7422SOL     OW33724   1.050   1.514  16.074  0.5639  0.1739  0.0110
 7422SOL    HW133725   0.971   1.495  16.125 -1.5769  5.5448 -1.3103
 7422SOL    HW233726   1.045   1.460  15.995 -0.0904 -0.6752  0.6282
 7423SOL     OW33727   4.351   0.580   7.649 -0.7319 -0.2065 -0.0979
 7423SOL    HW133728   4.445   0.572   7.666 -0.1502 -1.3130 -3.9194
 7423SOL    HW233729   4.335   0.494   7.610 -1.5645 -0.5667  1.0324
 7424SOL     OW33730   1.569   1.717   6.162  0.6303 -0.4348 -0.3405
 7424SOL    HW133731   1.561   1.802   6.205  2.6758 -1.3636  1.8169
 7424SOL    HW233732   1.650   1.724   6.111  1.2964 -0.4333  0.7214
 7425SOL     OW33733   2.977   2.073   5.792  0.1277  0.8366  0.0864
 7425SOL    HW133734   3.068   2.044   5.779 -0.3457  0.3534 -2.2047
 7425SOL    HW233735   2.948   2.033   5.873 -2.5440  0.3955 -1.0968
 7426SOL     OW33736   1.164   0.438  16.276 -0.2888  0.3399  0.7024
 7426SOL    HW133737   1.094   0.504  16.272  1.2694  2.0680  1.8841
 7426SOL    HW233738   1.213   0.478  16.204 -1.8226  2.5398  0.8828
 7427SOL     OW33739   3.674   2.537   3.034 -0.1959  0.1541 -0.2369
 7427SOL    HW133740   3.624   2.618   3.025 -0.0547  0.0859 -1.6426
 7427SOL    HW233741   3.739   2.578   3.091  0.5547 -2.5596  0.8725
 7428SOL     OW33742   3.947   3.734   4.888 -0.8217  0.2844  0.2145
 7428SOL    HW133743   3.910   3.655   4.927  1.6797 -1.1896 -0.4073
 7428SOL    HW233744   3.866   3.774   4.858 -0.2670 -0.3889 -2.1653
 7429SOL     OW33745   3.360   0.222   1.648  0.2668 -0.5557 -0.4482
 7429SOL    HW133746   3.404   0.192   1.568  1.1247 -0.7438  0.0973
 7429SOL    HW233747   3.438   0.260   1.688  0.5661 -2.5437  0.8743
 7430SOL     OW33748   0.280   0.675  16.929 -0.1055 -0.0596  0.0612
 7430SOL    HW133749   0.284   0.750  16.870  2.1470  1.4942  2.2348
 7430SOL    HW233750   0.184   0.672  16.938 -0.4142  2.1476 -2.5799
 7431SOL     OW33751   3.201   1.612  14.708 -0.0412 -0.1830  0.2471
 7431SOL    HW133752   3.191   1.670  14.633  1.7864 -0.8979 -0.5522
 7431SOL    HW233753   3.289   1.578  14.695 -0.3451 -1.1614  0.7136
 7432SOL     OW33754   2.683   1.824   0.587 -0.5316 -0.0338 -0.8092
 7432SOL    HW133755   2.678   1.901   0.643 -2.3013 -0.6477 -0.1062
 7432SOL    HW233756   2.735   1.856   0.513  0.1308 -0.1789 -0.4077
 7433SOL     OW33757   0.824   1.471   3.468  0.1190  0.6401 -0.0324
 7433SOL    HW133758   0.830   1.516   3.383  0.9443  0.5361 -0.0326
 7433SOL    HW233759   0.792   1.540   3.526 -1.4275 -0.1869  0.0784
 7434SOL     OW33760   3.596   4.555   0.688 -0.4714  0.0263  0.2686
 7434SOL    HW133761   3.588   4.541   0.594 -2.3194 -2.0902  0.7516
 7434SOL    HW233762   3.629   4.644   0.700  1.2808 -0.5542 -0.3688
 7435SOL     OW33763   1.742   2.969   1.690 -0.2798 -0.3142  0.5916
 7435SOL    HW133764   1.696   3.051   1.669 -1.4825 -0.8498  1.1148
 7435SOL    HW233765   1.677   2.903   1.714  1.6374 -2.6835 -0.9111
 7436SOL     OW33766   4.491   3.276   5.171  0.4479  0.5438 -0.6629
 7436SOL    HW133767   4.582   3.302   5.156  0.6445 -0.9363 -1.9914
 7436SOL    HW233768   4.497   3.248   5.263 -2.0660  1.9499 -0.0752
 7437SOL     OW33769   3.961   4.401   1.559  0.1480  0.5421  0.1393
 7437SOL    HW133770   4.036   4.452   1.529  1.5559 -0.8069  1.3475
 7437SOL    HW233771   3.992   4.316   1.529  0.5801  1.4342 -1.9364
 7438SOL     OW33772   3.958   2.370   4.056 -0.5380  0.3997 -0.3796
 7438SOL    HW133773   3.865   2.355   4.038 -0.4099  0.5736 -1.1748
 7438SOL    HW233774   3.990   2.285   4.027  0.9683  0.8159  0.1024
 7439SOL     OW33775   3.235   1.676   7.929 -0.3799  0.1278  0.5315
 7439SOL    HW133776   3.252   1.703   7.838  1.7124 -0.8445  0.6285
 7439SOL    HW233777   3.251   1.758   7.976  1.3645  0.0196  0.1463
 7440SOL     OW33778   1.799   2.196   8.186 -0.6968  0.4322  0.2986
 7440SOL    HW133779   1.846   2.193   8.103 -1.1451  2.3211 -0.0370
 7440SOL    HW233780   1.864   2.249   8.231 -0.5336 -0.0916  0.6672
 7441SOL     OW33781   3.866   4.693   4.436 -0.3308 -0.1220  0.0842
 7441SOL    HW133782   3.903   4.643   4.508  2.1599  0.2649 -0.9445
 7441SOL    HW233783   3.931   4.686   4.366  0.2430  2.2744  0.3955
 7442SOL     OW33784   1.371   3.139   6.713 -0.1239 -0.0480 -0.4119
 7442SOL    HW133785   1.330   3.224   6.725 -1.3801 -0.6341 -0.5552
 7442SOL    HW233786   1.450   3.173   6.671 -1.1384  3.7276  0.7088
 7443SOL     OW33787   3.186   1.171   2.322 -0.8516  0.3186  1.1576
 7443SOL    HW133788   3.239   1.162   2.401  1.2122 -1.3024 -0.4107
 7443SOL    HW233789   3.123   1.237   2.349  0.8379  2.0461  0.8580
 7444SOL     OW33790   3.524   0.206   6.126  0.5399 -0.3870  0.0825
 7444SOL    HW133791   3.456   0.147   6.159  0.1306 -0.3537 -0.6979
 7444SOL    HW233792   3.588   0.137   6.107  1.5083  0.7653 -0.7809
 7445SOL     OW33793   4.690   0.071  13.803  0.8683 -0.2531  0.7234
 7445SOL    HW133794   4.595   0.080  13.795  0.8606 -0.4889  0.5596
 7445SOL    HW233795   4.716   0.159  13.828  1.0365  0.2751 -1.2966
 7446SOL     OW33796   3.115   0.776   7.866  0.1903 -0.6421  0.8723
 7446SOL    HW133797   3.040   0.761   7.809  0.3262  0.7234  0.3278
 7446SOL    HW233798   3.099   0.861   7.907  0.0132  0.2977 -1.1378
 7447SOL     OW33799   3.639   4.526  15.737  0.6638 -0.1232 -0.4078
 7447SOL    HW133800   3.674   4.527  15.826  1.8743  1.1575 -0.8978
 7447SOL    HW233801   3.549   4.549  15.762  0.0980 -0.8586 -1.7510
 7448SOL     OW33802   0.349   2.596  11.887 -0.4444 -0.2183 -0.0360
 7448SOL    HW133803   0.412   2.606  11.816 -0.5437 -0.1518 -0.1163
 7448SOL    HW233804   0.366   2.507  11.916  0.2331 -0.0764 -0.0020
 7449SOL     OW33805   3.439   2.280  11.929  0.3312 -0.8754 -1.2627
 7449SOL    HW133806   3.468   2.371  11.924 -1.9584  0.0289  1.8513
 7449SOL    HW233807   3.522   2.235  11.943  1.5895  1.2435 -1.9041
 7450SOL     OW33808   1.111   2.113   8.817 -0.2469 -0.1418  0.1971
 7450SOL    HW133809   1.197   2.154   8.808 -1.1167  1.1375 -2.3125
 7450SOL    HW233810   1.125   2.040   8.757  0.9747  0.8938 -0.7965
 7451SOL     OW33811   1.604   2.848   7.222  0.3544 -1.0830  0.2922
 7451SOL    HW133812   1.613   2.777   7.159  0.7353 -0.5567 -0.2350
 7451SOL    HW233813   1.606   2.927   7.168 -0.1739 -0.9191  0.5059
 7452SOL     OW33814   2.105   2.017   5.488  0.3894  0.1558  0.0838
 7452SOL    HW133815   2.189   1.995   5.528  0.9867 -0.1538 -1.3614
 7452SOL    HW233816   2.056   1.935   5.497 -0.0102  0.4107  0.2545
 7453SOL     OW33817   3.731   0.736  10.194 -0.1290  0.1678 -0.3721
 7453SOL    HW133818   3.724   0.643  10.173 -2.1500  0.0227  0.9331
 7453SOL    HW233819   3.826   0.744  10.192 -0.1510  0.9790  1.8057
 7454SOL     OW33820   1.790   0.215   4.124 -0.6305 -0.5251 -0.2825
 7454SOL    HW133821   1.722   0.270   4.084 -0.3110 -0.4691 -0.7565
 7454SOL    HW233822   1.789   0.241   4.216  1.0370 -2.2067  0.2017
 7455SOL     OW33823   1.301   1.194   4.903 -0.4548 -0.0615  0.0130
 7455SOL    HW133824   1.337   1.282   4.906  2.8373 -1.3574 -0.7618
 7455SOL    HW233825   1.382   1.146   4.886  0.1637  0.6177  1.1053
 7456SOL     OW33826   1.175   4.109   2.887 -0.4145 -0.7778 -0.2740
 7456SOL    HW133827   1.099   4.057   2.911 -1.0602  0.4724  0.3786
 7456SOL    HW233828   1.183   4.078   2.797  0.7296  0.4848 -0.6041
 7457SOL     OW33829   2.004   1.600   1.177 -0.2195  0.1647 -0.3656
 7457SOL    HW133830   2.077   1.630   1.230  0.2092 -0.7942 -0.4153
 7457SOL    HW233831   1.954   1.548   1.240  0.2056  0.6127  0.3392
 7458SOL     OW33832   4.622   2.202  11.201  0.0297  0.2924  0.4299
 7458SOL    HW133833   4.586   2.280  11.160 -1.4806 -1.3611 -1.4015
 7458SOL    HW233834   4.714   2.226  11.210 -0.1564  0.4488  1.8966
 7459SOL     OW33835   0.175   1.110   4.847  0.1443  0.2703  0.1785
 7459SOL    HW133836   0.092   1.075   4.815 -0.7487  2.0196  0.5547
 7459SOL    HW233837   0.185   1.074   4.935 -0.1683 -3.5000 -1.3532
 7460SOL     OW33838   0.645   1.057   4.341  0.2150  0.5008 -0.4678
 7460SOL    HW133839   0.601   1.079   4.423 -1.2933  0.0940 -1.1736
 7460SOL    HW233840   0.695   1.137   4.324  3.0693 -0.6781  2.4824
 7461SOL     OW33841   4.220   0.469  17.398 -0.3087  0.0733  0.3610
 7461SOL    HW133842   4.255   0.544  17.350  1.0192  0.8534  2.5159
 7461SOL    HW233843   4.145   0.508  17.445 -1.1568 -2.0456  0.7585
 7462SOL     OW33844   3.425   4.397  12.075 -0.4982 -0.1417 -0.2189
 7462SOL    HW133845   3.477   4.356  12.144 -0.2949 -2.0842 -1.5068
 7462SOL    HW233846   3.421   4.319  12.019 -0.2470  0.8779 -1.6576
 7463SOL     OW33847   0.607   4.556   3.500 -0.1039  0.1430  0.6446
 7463SOL    HW133848   0.668   4.627   3.477  0.6950 -1.5320 -2.4449
 7463SOL    HW233849   0.539   4.604   3.546  0.1805  1.7931 -0.6286
 7464SOL     OW33850   4.511   1.845   5.416 -0.0390  0.4519  0.3113
 7464SOL    HW133851   4.498   1.760   5.457 -1.1762  0.7578  0.5909
 7464SOL    HW233852   4.605   1.863   5.424 -0.2717  1.7484  0.1383
 7465SOL     OW33853   0.391   3.924   3.526  0.2415 -0.0006  0.0790
 7465SOL    HW133854   0.315   3.922   3.584  0.6376  1.9653  0.6668
 7465SOL    HW233855   0.461   3.917   3.591 -0.4169  1.3193  0.9097
 7466SOL     OW33856   4.362   1.837   0.302  0.2802  0.0041 -0.1212
 7466SOL    HW133857   4.278   1.883   0.304  0.4999  0.4503 -1.2739
 7466SOL    HW233858   4.411   1.893   0.362 -4.4821 -0.6036  4.4249
 7467SOL     OW33859   3.577   1.045  14.458 -0.0790  0.4663 -0.0238
 7467SOL    HW133860   3.515   0.988  14.413  0.1257  1.1279 -1.1280
 7467SOL    HW233861   3.592   0.992  14.537 -1.6410 -0.9107 -0.6634
 7468SOL     OW33862   4.559   4.462  14.959  0.1543 -0.2047  0.2756
 7468SOL    HW133863   4.611   4.442  14.882  1.9620 -2.1393  1.9810
 7468SOL    HW233864   4.604   4.413  15.029  0.6240 -1.1360 -0.6824
 7469SOL     OW33865   0.318   1.043  11.472 -0.5620  0.8776 -0.4662
 7469SOL    HW133866   0.299   1.136  11.459 -0.3615  1.1170  0.9656
 7469SOL    HW233867   0.344   1.019  11.383 -1.0654 -0.7861 -0.1514
 7470SOL     OW33868   0.104   4.279  11.592  0.2713  0.3877 -0.4891
 7470SOL    HW133869   0.053   4.198  11.587  2.2658 -0.7699 -1.9854
 7470SOL    HW233870   0.067   4.316  11.672  2.3351  0.8341  0.2457
 7471SOL     OW33871   0.850   1.330   5.955  0.1645 -0.2985 -0.3800
 7471SOL    HW133872   0.918   1.263   5.948 -0.0951 -0.3791 -2.1953
 7471SOL    HW233873   0.776   1.283   5.917 -0.1472 -0.1991  0.1053
 7472SOL     OW33874   2.368   3.450   9.090 -0.3073  0.4799  0.0952
 7472SOL    HW133875   2.389   3.366   9.047  0.4618  0.4592  0.5200
 7472SOL    HW233876   2.273   3.443   9.094 -0.0470 -1.4425  3.1905
 7473SOL     OW33877   0.560   3.992  16.831  0.3467  0.1054  0.0730
 7473SOL    HW133878   0.493   4.054  16.803 -2.4989 -3.4900 -1.0964
 7473SOL    HW233879   0.599   4.041  16.904 -0.0042  1.1656 -0.4509
 7474SOL     OW33880   4.302   1.700   4.898 -0.5804 -0.0224  0.2698
 7474SOL    HW133881   4.330   1.789   4.880  0.9070 -1.1277 -2.9440
 7474SOL    HW233882   4.237   1.688   4.828 -1.2548  2.7161  0.4370
 7475SOL     OW33883   1.424   1.954   7.092 -0.0244 -0.3539  0.2133
 7475SOL    HW133884   1.511   1.988   7.072 -0.6267  1.2975  0.4005
 7475SOL    HW233885   1.436   1.873   7.044  2.5845 -0.6149  1.2546
 7476SOL     OW33886   0.007   0.451   3.660  0.1596  0.1905 -0.8423
 7476SOL    HW133887   4.654   0.462   3.602 -1.7974 -0.3900  1.6273
 7476SOL    HW233888   0.029   0.362   3.632 -1.0102 -0.8968  1.7130
 7477SOL     OW33889   4.302   0.145  15.947  0.2920  0.1101 -0.2459
 7477SOL    HW133890   4.295   0.053  15.971 -1.7142  0.1480 -0.6657
 7477SOL    HW233891   4.262   0.143  15.860 -2.2994  0.5653  0.9411
 7478SOL     OW33892   4.268   4.320   9.870 -0.4104  0.2746 -0.2346
 7478SOL    HW133893   4.290   4.227   9.874 -0.0611  0.4109  1.3149
 7478SOL    HW233894   4.351   4.349   9.832 -0.2391 -2.2403 -1.7501
 7479SOL     OW33895   3.847   1.018   6.458  0.1823 -0.1750 -0.3325
 7479SOL    HW133896   3.798   0.953   6.508  1.1639  0.3000  1.2180
 7479SOL    HW233897   3.852   1.086   6.525  0.1817 -1.6584  1.1785
 7480SOL     OW33898   2.018   0.825   4.270 -0.1607 -0.2228 -0.8013
 7480SOL    HW133899   2.008   0.876   4.189  0.7115  1.8376  0.3691
 7480SOL    HW233900   1.927   0.828   4.300 -0.1998 -3.7503 -0.6501
 7481SOL     OW33901   3.837   2.191   5.223  0.1668 -0.3542  0.3242
 7481SOL    HW133902   3.839   2.255   5.294 -0.0563  1.6223 -1.4770
 7481SOL    HW233903   3.915   2.222   5.177 -1.3294  2.1788 -0.4557
 7482SOL     OW33904   2.946   1.922   8.455  0.1268  0.5928  0.2945
 7482SOL    HW133905   2.917   2.011   8.439 -0.0258  0.2685 -1.1928
 7482SOL    HW233906   2.955   1.924   8.550  0.0068  2.7829  0.2557
 7483SOL     OW33907   3.545   3.784   5.045 -0.0319  0.4812  0.7582
 7483SOL    HW133908   3.502   3.719   5.100  0.1957  0.1989  0.5991
 7483SOL    HW233909   3.470   3.804   4.988  0.8473  0.0353 -0.5675
 7484SOL     OW33910   0.449   3.114   9.832  0.4965  0.0238  0.0030
 7484SOL    HW133911   0.537   3.123   9.797  0.1636 -0.1381 -0.8698
 7484SOL    HW233912   0.468   3.107   9.926  0.9202  1.7553  0.0452
 7485SOL     OW33913   1.408   0.358   8.993 -0.2810 -0.0655 -0.4842
 7485SOL    HW133914   1.405   0.272   8.951  0.1752  0.8524 -2.4358
 7485SOL    HW233915   1.343   0.404   8.939  1.9519  0.9775 -2.3026
 7486SOL     OW33916   1.718   3.503  11.254  0.3320 -0.0995 -0.7365
 7486SOL    HW133917   1.689   3.594  11.260  2.1367  0.4626 -0.5170
 7486SOL    HW233918   1.635   3.461  11.277  2.0777 -2.6840  0.8481
 7487SOL     OW33919   3.284   4.134   7.889 -0.1119 -0.0358  0.5317
 7487SOL    HW133920   3.354   4.083   7.847  0.0969  0.7559 -0.0783
 7487SOL    HW233921   3.338   4.183   7.951  0.5931 -1.2584  0.9034
 7488SOL     OW33922   1.315   0.344  14.094 -0.5152 -0.2420  0.2463
 7488SOL    HW133923   1.311   0.323  14.188  0.0849  0.2686  0.3914
 7488SOL    HW233924   1.350   0.263  14.057 -0.3339  0.5228 -1.2243
 7489SOL     OW33925   3.717   3.807   3.451 -0.2180 -0.6219  0.0453
 7489SOL    HW133926   3.683   3.881   3.500  0.2394  0.5330 -1.3895
 7489SOL    HW233927   3.641   3.749   3.448 -0.0066 -0.9406  1.0693
 7490SOL     OW33928   2.261   3.899   3.354  0.3736 -0.1956  0.1387
 7490SOL    HW133929   2.189   3.935   3.406  1.1283  2.0202 -0.3896
 7490SOL    HW233930   2.242   3.935   3.268  0.9874  0.9477  0.4910
 7491SOL     OW33931   2.837   2.379   6.025 -0.5132 -0.2374  0.3766
 7491SOL    HW133932   2.872   2.344   5.943 -0.2399  1.9173 -0.4233
 7491SOL    HW233933   2.849   2.470   6.001 -1.4784 -0.5576 -1.3502
 7492SOL     OW33934   3.401   4.037   8.116 -0.5819  0.3373  0.5808
 7492SOL    HW133935   3.356   4.044   8.200 -0.5407  0.6364  0.5796
 7492SOL    HW233936   3.340   3.978   8.072 -0.5665 -0.9924  2.3438
 7493SOL     OW33937   1.879   3.023   8.517 -0.5072 -0.2252  0.2591
 7493SOL    HW133938   1.816   3.037   8.447 -0.0451  0.1336 -0.0882
 7493SOL    HW233939   1.815   3.016   8.588 -2.4004 -2.2887 -1.6574
 7494SOL     OW33940   0.070   0.602   3.115  0.2824 -0.0420 -0.5750
 7494SOL    HW133941   0.050   0.636   3.028 -0.8382  0.8827  0.0476
 7494SOL    HW233942   0.157   0.641   3.122 -0.0759  0.5137  0.6805
 7495SOL     OW33943   4.116   2.208  12.911 -0.4941  0.2084 -0.1023
 7495SOL    HW133944   4.031   2.175  12.939 -0.0935 -0.1810  0.6577
 7495SOL    HW233945   4.177   2.150  12.956  1.1006  1.9535  0.0202
 7496SOL     OW33946   4.122   1.342  13.988 -0.1776  0.3903  0.1291
 7496SOL    HW133947   4.115   1.293  13.906 -0.4676  1.1569 -0.3118
 7496SOL    HW233948   4.041   1.314  14.029 -0.0955  1.9234  1.3310
 7497SOL     OW33949   1.495   4.669  12.376  1.0522  0.3538 -0.1523
 7497SOL    HW133950   1.558   0.018  12.390 -0.3626  1.3218  1.2692
 7497SOL    HW233951   1.538   4.637  12.297  0.1580  0.0446 -0.5190
 7498SOL     OW33952   0.748   0.799   5.993 -0.3248  0.3802  0.7107
 7498SOL    HW133953   0.716   0.819   6.081 -0.1355 -1.1394  1.1328
 7498SOL    HW233954   0.826   0.753   6.023  0.3242  0.8919 -0.2015
 7499SOL     OW33955   2.752   2.346  16.020 -0.1517 -0.4521  0.4631
 7499SOL    HW133956   2.724   2.427  16.063 -1.1403 -0.2764 -0.5213
 7499SOL    HW233957   2.805   2.387  15.951 -2.8599  2.9581  0.4343
 7500SOL     OW33958   2.107   4.444   3.065 -0.4252  0.7099  0.0245
 7500SOL    HW133959   2.177   4.397   3.110  0.9414  0.7878 -2.0217
 7500SOL    HW233960   2.105   4.534   3.099  4.9517 -0.6266  3.8502
 7501SOL     OW33961   2.346   0.567  14.301  0.1047 -0.0318 -0.0673
 7501SOL    HW133962   2.272   0.520  14.264 -0.6389  0.0372  1.3256
 7501SOL    HW233963   2.317   0.658  14.305  2.2131  0.7842 -3.1964
 7502SOL     OW33964   3.327   1.188   2.563  0.1664 -0.2915  0.3936
 7502SOL    HW133965   3.372   1.107   2.542 -2.2917 -1.1913 -1.3842
 7502SOL    HW233966   3.370   1.205   2.647 -2.2546 -0.2747  1.6187
 7503SOL     OW33967   2.256   3.364   1.831 -0.5049 -0.7378 -0.2649
 7503SOL    HW133968   2.269   3.455   1.858  0.9557 -1.2576  0.7983
 7503SOL    HW233969   2.345   3.330   1.842 -0.0282  0.3072 -0.8204
 7504SOL     OW33970   4.557   4.383  11.169  0.1503 -0.3188  0.0094
 7504SOL    HW133971   4.635   4.393  11.223  0.1429 -0.8801  0.1284
 7504SOL    HW233972   4.500   4.442  11.217  0.5157  1.4320 -1.7165
 7505SOL     OW33973   0.236   3.718   4.907 -0.0669  0.2004  0.4167
 7505SOL    HW133974   0.175   3.779   4.866  0.4899 -0.1292 -0.9122
 7505SOL    HW233975   0.239   3.751   4.997  1.7950  0.6116  0.1998
 7506SOL     OW33976   2.618   2.021   6.049 -0.3278 -0.2165  0.0630
 7506SOL    HW133977   2.713   2.029   6.049 -0.2551 -1.0815 -1.5758
 7506SOL    HW233978   2.583   2.096   6.000  0.5908  1.4388  1.9172
 7507SOL     OW33979   3.338   3.796   4.860  0.5205  0.6843  0.1219
 7507SOL    HW133980   3.312   3.883   4.830  0.5348  0.4969 -0.4396
 7507SOL    HW233981   3.396   3.772   4.788 -2.1613  0.2609 -1.8826
 7508SOL     OW33982   2.955   1.110  16.352  0.6749 -0.2798  0.8194
 7508SOL    HW133983   2.866   1.103  16.386  0.3450 -0.1240 -0.0226
 7508SOL    HW233984   2.971   1.019  16.327  0.1226  0.4917 -2.2640
 7509SOL     OW33985   3.781   4.502   5.407 -0.2408 -0.1303 -0.8387
 7509SOL    HW133986   3.735   4.419   5.416 -1.8131  0.7168 -1.0018
 7509SOL    HW233987   3.815   4.491   5.318  1.2574  0.0633 -0.2964
 7510SOL     OW33988   0.436   4.282   7.144 -0.2965  0.3998  0.7084
 7510SOL    HW133989   0.353   4.298   7.190  0.1830 -0.2683  1.7933
 7510SOL    HW233990   0.498   4.268   7.215  0.6668  1.2226  0.0293
 7511SOL     OW33991   2.229   4.663   8.639 -0.0823 -0.1028 -0.7331
 7511SOL    HW133992   2.238   4.637   8.731 -0.1015  0.9204 -0.4411
 7511SOL    HW233993   2.137   4.641   8.628  0.1193 -0.3047 -2.0548
 7512SOL     OW33994   0.935   1.458  12.042  0.0163 -0.5343  0.0629
 7512SOL    HW133995   0.844   1.475  12.066  0.2292 -2.2327  2.0541
 7512SOL    HW233996   0.951   1.369  12.074  0.3805 -0.2408  0.6974
 7513SOL     OW33997   0.965   4.083   5.458  0.0061  0.0376  0.2491
 7513SOL    HW133998   0.903   4.140   5.503 -1.0144 -0.4812 -0.4923
 7513SOL    HW233999   0.919   4.058   5.378  1.3358 -0.4100 -0.3780
 7514SOL     OW34000   2.183   2.216   3.123 -0.6213  0.5746 -0.1940
 7514SOL    HW134001   2.146   2.301   3.147 -3.2662  0.1456 -2.7794
 7514SOL    HW234002   2.104   2.162   3.124  0.2610 -0.7393 -0.4540
 7515SOL     OW34003   2.637   0.916   0.798 -0.4571  0.3557  0.1522
 7515SOL    HW134004   2.586   0.982   0.846 -0.8332  1.0609 -1.2102
 7515SOL    HW234005   2.669   0.963   0.721  0.0308 -1.8300 -0.9713
 7516SOL     OW34006   3.691   1.109  14.955 -0.4976  0.1415  0.2809
 7516SOL    HW134007   3.771   1.154  14.984  0.6581  0.0112 -2.6873
 7516SOL    HW234008   3.717   1.026  14.995  1.3098  0.3944 -0.3647
 7517SOL     OW34009   4.109   4.519   4.912 -0.1616 -0.0290  0.2722
 7517SOL    HW134010   4.179   4.456   4.892  0.7530  1.3319 -0.8164
 7517SOL    HW234011   4.156   4.573   4.975  0.2751  0.5650 -0.5704
 7518SOL     OW34012   3.024   4.084   9.280  0.5095 -0.6253  0.5067
 7518SOL    HW134013   3.101   4.131   9.312 -2.2136  3.6149  0.7893
 7518SOL    HW234014   2.954   4.135   9.321  1.8324  1.7666 -0.2176
 7519SOL     OW34015   2.106   0.885   6.309 -0.2903 -0.2449  0.4818
 7519SOL    HW134016   2.145   0.968   6.336  0.3932 -0.1636 -0.7859
 7519SOL    HW234017   2.019   0.910   6.279  0.3133 -0.2516 -1.2882
 7520SOL     OW34018   4.502   1.354   0.269  0.0845  0.0400  0.1366
 7520SOL    HW134019   4.562   1.391   0.333 -2.3163  0.9489  1.8432
 7520SOL    HW234020   4.562   1.358   0.195  1.3476  0.5554  1.1826
 7521SOL     OW34021   1.719   0.324   4.352  0.4399  0.2013  0.4516
 7521SOL    HW134022   1.675   0.274   4.420 -1.7369  3.7038  1.5951
 7521SOL    HW234023   1.652   0.384   4.320  2.3314  1.7441 -0.6143
 7522SOL     OW34024   0.196   2.688  16.199 -0.1572  0.2457 -0.2989
 7522SOL    HW134025   0.158   2.606  16.231  1.4159 -0.4747 -0.3216
 7522SOL    HW234026   0.220   2.657  16.112  3.3397 -0.9794  1.1135
 7523SOL     OW34027   3.147   2.252   2.135  0.8882  0.0644  0.8736
 7523SOL    HW134028   3.094   2.180   2.168 -1.0096  0.3908 -1.4445
 7523SOL    HW234029   3.094   2.323   2.171  0.8158  1.1839 -1.4419
 7524SOL     OW34030   0.195   2.806  15.854  0.3982 -0.5067  0.0820
 7524SOL    HW134031   0.261   2.852  15.905 -1.9516  2.7914  0.1501
 7524SOL    HW234032   0.242   2.728  15.823 -1.6128 -1.9530  0.6704
 7525SOL     OW34033   3.013   4.461   7.511  0.2491  0.2258 -0.1133
 7525SOL    HW134034   2.920   4.441   7.520  0.4305 -0.8332 -0.6056
 7525SOL    HW234035   3.030   4.508   7.429  1.1023 -0.8108 -0.5391
 7526SOL     OW34036   1.967   1.781   6.522  0.4720 -0.4610  0.2695
 7526SOL    HW134037   1.915   1.718   6.472 -0.9339  0.9123  0.0096
 7526SOL    HW234038   1.918   1.862   6.507  2.3189  0.3950 -1.1780
 7527SOL     OW34039   3.741   0.396   7.741  0.2721 -0.3896 -0.5418
 7527SOL    HW134040   3.712   0.385   7.650  0.5835  0.8293 -0.7800
 7527SOL    HW234041   3.673   0.459   7.766  0.1048 -1.5350  1.9308
 7528SOL     OW34042   2.754   2.987   2.340  0.1226  0.3092  0.0244
 7528SOL    HW134043   2.662   3.006   2.326 -0.1900 -1.1447  0.2212
 7528SOL    HW234044   2.776   2.978   2.248  0.9061  0.8890  0.1490
 7529SOL     OW34045   2.793   0.288   7.582 -0.4677 -0.4999  0.2012
 7529SOL    HW134046   2.857   0.335   7.528 -2.3317 -0.2233 -1.7600
 7529SOL    HW234047   2.711   0.335   7.565  0.2180  1.3470  1.9387
 7530SOL     OW34048   1.709   3.024   9.300 -0.2611 -0.4520  0.0771
 7530SOL    HW134049   1.722   2.954   9.365 -2.2601  0.7303  1.7341
 7530SOL    HW234050   1.615   3.033   9.309 -0.0661  0.2454  1.5350
 7531SOL     OW34051   3.240   1.583   3.844  0.0853 -0.0609  0.3384
 7531SOL    HW134052   3.334   1.600   3.854  0.3763 -1.8147  0.5305
 7531SOL    HW234053   3.241   1.512   3.780  0.9507  0.3809 -0.1333
 7532SOL     OW34054   1.778   2.004  11.979 -0.1623  0.1782  0.0151
 7532SOL    HW134055   1.793   1.916  12.015  0.2999  0.1735 -0.1819
 7532SOL    HW234056   1.700   1.983  11.928  1.0083 -0.0967 -1.6996
 7533SOL     OW34057   0.278   2.100  11.846  0.1753  0.2296  0.3372
 7533SOL    HW134058   0.220   2.075  11.774  0.9275  2.0953 -0.8970
 7533SOL    HW234059   0.304   2.013  11.877  2.0032 -0.1571 -2.2786
 7534SOL     OW34060   2.537   1.025   7.985 -0.4316 -0.0296  0.0333
 7534SOL    HW134061   2.531   0.929   7.990 -0.9446  0.0205  0.3618
 7534SOL    HW234062   2.462   1.050   8.038  1.4572  2.1118  1.7044
 7535SOL     OW34063   4.307   1.339   9.707 -0.0105 -0.0366 -0.0993
 7535SOL    HW134064   4.353   1.423   9.695 -0.0130  0.0793  0.7472
 7535SOL    HW234065   4.260   1.342   9.623  0.6098  0.6391 -0.4268
 7536SOL     OW34066   4.629   4.520   2.328  0.2085 -0.5017  0.0947
 7536SOL    HW134067   4.660   4.513   2.238 -1.7624 -2.9776 -0.3948
 7536SOL    HW234068   4.536   4.533   2.306  0.2895 -0.6729 -0.3439
 7537SOL     OW34069   2.272   0.916   5.749  0.2706 -0.4963 -0.0858
 7537SOL    HW134070   2.227   1.001   5.747 -0.6763 -0.9443  2.3123
 7537SOL    HW234071   2.207   0.846   5.744 -1.2181  0.6072  3.4396
 7538SOL     OW34072   2.686   2.602   8.794 -0.6459 -0.4623  0.8933
 7538SOL    HW134073   2.777   2.611   8.824  0.0586 -0.8847 -1.0934
 7538SOL    HW234074   2.690   2.640   8.706 -0.4667 -2.1187  0.1800
 7539SOL     OW34075   2.028   1.087   5.682 -0.2466  0.2417  0.0144
 7539SOL    HW134076   1.992   1.071   5.769 -1.3097  1.8920 -0.1295
 7539SOL    HW234077   1.997   1.007   5.639  0.3122 -0.8896  1.7301
 7540SOL     OW34078   2.453   1.603   1.390 -1.0916 -0.0176  0.0785
 7540SOL    HW134079   2.484   1.603   1.481 -1.4871 -1.1805  0.2160
 7540SOL    HW234080   2.457   1.511   1.364  0.7711 -0.1727  0.8589
 7541SOL     OW34081   0.896   2.427  13.734 -0.0316 -0.1630  0.2925
 7541SOL    HW134082   0.954   2.351  13.731 -0.8547 -0.7434 -1.4325
 7541SOL    HW234083   0.884   2.434  13.828 -3.0028 -0.6469 -0.0413
 7542SOL     OW34084   1.715   2.423   2.454  0.0702  0.1373  0.5683
 7542SOL    HW134085   1.720   2.359   2.383  3.1360  2.0612 -0.9881
 7542SOL    HW234086   1.804   2.458   2.448 -0.1551  0.7098  0.4779
 7543SOL     OW34087   0.654   0.448   6.345 -0.1732  0.2641 -0.6659
 7543SOL    HW134088   0.594   0.375   6.354  1.2215 -0.6717  1.0560
 7543SOL    HW234089   0.594   0.520   6.365 -0.7288 -0.4736  0.2977
 7544SOL     OW34090   2.451   2.874   5.312 -0.0717  0.2398  0.5448
 7544SOL    HW134091   2.390   2.826   5.368 -0.8561 -0.9205 -1.2887
 7544SOL    HW234092   2.394   2.951   5.313  0.1954  0.4719 -1.6298
 7545SOL     OW34093   1.259   4.491  14.932  0.2709 -0.7573 -0.5508
 7545SOL    HW134094   1.175   4.489  14.886 -0.6550 -0.6236  1.1310
 7545SOL    HW234095   1.292   4.575  14.901 -0.0822 -0.6209 -0.5512
 7546SOL     OW34096   4.396   0.123   6.441  0.2373  0.0371  0.5773
 7546SOL    HW134097   4.388   0.044   6.494  0.5593 -1.0859 -1.0177
 7546SOL    HW234098   4.343   0.180   6.497 -0.0069  0.6254 -0.2523
 7547SOL     OW34099   1.649   0.958  11.425  0.2640 -0.4412  0.0110
 7547SOL    HW134100   1.585   0.971  11.495 -0.1301  0.0807 -0.4430
 7547SOL    HW234101   1.594   0.960  11.346 -0.1599  1.3459  0.3731
 7548SOL     OW34102   1.431   1.500  12.118  0.3070  0.0148  0.1960
 7548SOL    HW134103   1.355   1.542  12.160 -0.2197 -0.4116 -0.3376
 7548SOL    HW234104   1.497   1.524  12.184  1.7092 -0.5383 -1.0137
 7549SOL     OW34105   1.735   1.837   5.280  0.6696 -0.6109 -0.1556
 7549SOL    HW134106   1.710   1.852   5.371  0.2723 -0.1271 -0.3439
 7549SOL    HW234107   1.652   1.814   5.239  1.2152 -0.6660 -1.2501
 7550SOL     OW34108   0.117   4.704   6.394 -0.1483  0.0537 -0.1503
 7550SOL    HW134109   0.201   4.679   6.356 -1.1150 -0.2673 -2.0628
 7550SOL    HW234110   0.145   0.062   6.440  0.4232  1.1245 -2.3649
 7551SOL     OW34111   1.890   1.447  10.742 -0.1759 -0.8191  0.2713
 7551SOL    HW134112   1.903   1.360  10.779  2.4847 -0.3314  0.4219
 7551SOL    HW234113   1.797   1.453  10.766 -0.2000 -1.7104  0.4141
 7552SOL     OW34114   3.540   1.353   6.378 -0.6217 -0.8616  0.1438
 7552SOL    HW134115   3.565   1.293   6.449 -2.8099 -1.9770 -0.0407
 7552SOL    HW234116   3.524   1.436   6.422  0.5888 -1.3523  1.5297
 7553SOL     OW34117   3.658   4.452   6.603 -0.2241 -0.0652  0.2495
 7553SOL    HW134118   3.649   4.537   6.558  1.8403 -0.2490 -0.5258
 7553SOL    HW234119   3.659   4.484   6.693  1.8834  3.4612 -0.9927
 7554SOL     OW34120   2.221   2.025   3.392 -0.7795  0.4120 -0.6077
 7554SOL    HW134121   2.175   1.951   3.432  0.0859  1.5205  2.3807
 7554SOL    HW234122   2.249   1.974   3.316  0.7739 -1.8914  1.5407
 7555SOL     OW34123   0.696   4.329   2.004  0.5828 -0.4530 -0.2404
 7555SOL    HW134124   0.730   4.341   2.092 -3.3941 -0.5568  1.3285
 7555SOL    HW234125   0.645   4.248   2.011  3.0079 -1.7518  2.3585
 7556SOL     OW34126   3.002   0.013   8.036 -0.5654  0.1666 -0.2759
 7556SOL    HW134127   2.911   0.011   8.007 -1.3122  1.0652  2.0370
 7556SOL    HW234128   2.996   4.700   8.125 -0.3679  0.6956 -0.0506
 7557SOL     OW34129   2.500   2.750   1.352  0.1770  0.2544  0.2512
 7557SOL    HW134130   2.411   2.739   1.320 -0.1426 -1.2413  1.6185
 7557SOL    HW234131   2.556   2.681   1.317  0.6048 -0.5369  2.4500
 7558SOL     OW34132   4.479   1.573   6.973  0.5183 -0.1429 -0.2622
 7558SOL    HW134133   4.395   1.608   7.003  0.2863 -2.4073  1.7292
 7558SOL    HW234134   4.476   1.586   6.878  1.6377  0.8314 -0.1578
 7559SOL     OW34135   0.207   1.352   8.131  0.4386  0.0230  0.2167
 7559SOL    HW134136   0.194   1.258   8.144 -0.5654  0.2332  0.7442
 7559SOL    HW234137   0.276   1.352   8.066 -1.3304  2.4308 -1.6486
 7560SOL     OW34138   1.715   4.559   3.466 -0.9640  0.5799  0.9943
 7560SOL    HW134139   1.738   4.616   3.392  0.4926 -2.0827 -0.5931
 7560SOL    HW234140   1.633   4.597   3.497 -0.9980  0.0778  1.4969
 7561SOL     OW34141   1.490   2.151   5.500  0.1698 -0.2786 -0.0848
 7561SOL    HW134142   1.496   2.081   5.565 -2.0226  1.0607  1.5620
 7561SOL    HW234143   1.490   2.224   5.561 -2.6003  0.1647 -0.6267
 7562SOL     OW34144   3.136   1.956   6.248  0.3548  0.7346  0.6248
 7562SOL    HW134145   3.156   1.865   6.269  0.9448  0.4464 -1.1667
 7562SOL    HW234146   3.196   1.975   6.175 -0.5185  1.2571  0.0430
 7563SOL     OW34147   1.923   3.979   7.842 -0.2979  0.7380 -0.3535
 7563SOL    HW134148   1.861   4.038   7.798  0.6692  1.2575 -1.0110
 7563SOL    HW234149   1.999   4.000   7.789 -0.8916 -0.4417 -1.6688
 7564SOL     OW34150   1.681   0.861   7.789  0.1711  0.1688 -0.5379
 7564SOL    HW134151   1.717   0.930   7.844  0.0881 -0.5399  0.4193
 7564SOL    HW234152   1.600   0.849   7.839 -0.5195  3.0330 -1.0076
 7565SOL     OW34153   3.837   0.145   9.199  0.2933  0.1728 -0.6640
 7565SOL    HW134154   3.816   0.054   9.220  1.2381 -0.2772 -1.6690
 7565SOL    HW234155   3.801   0.155   9.111  1.7661 -1.0140 -1.3954
 7566SOL     OW34156   2.514   2.449   3.305  0.7321  0.1942 -0.3244
 7566SOL    HW134157   2.467   2.476   3.384 -0.7705 -1.7580 -0.5649
 7566SOL    HW234158   2.575   2.522   3.295 -0.5127  0.7677 -3.6135
 7567SOL     OW34159   1.747   0.569   3.960  0.0680 -0.3914  0.3383
 7567SOL    HW134160   1.713   0.596   4.046 -1.6892 -0.9533 -0.1867
 7567SOL    HW234161   1.838   0.599   3.967  0.1711 -0.6660  0.1894
 7568SOL     OW34162   3.583   2.597  12.840 -0.3335  0.5266 -0.0732
 7568SOL    HW134163   3.659   2.558  12.882  0.3058 -0.1696 -1.8777
 7568SOL    HW234164   3.563   2.677  12.888  1.3038  0.0918  1.3091
 7569SOL     OW34165   2.058   4.598   6.072 -0.0837 -0.0833  0.7804
 7569SOL    HW134166   2.056   4.502   6.071  1.8205 -0.1260  0.9401
 7569SOL    HW234167   2.139   4.619   6.119  0.2609  1.2931 -0.4034
 7570SOL     OW34168   2.617   0.143   0.465 -0.2482 -0.1187  0.1041
 7570SOL    HW134169   2.620   0.212   0.531  0.1710 -0.3882  0.3765
 7570SOL    HW234170   2.690   0.172   0.410  0.1334  0.2684  0.8178
 7571SOL     OW34171   0.529   1.630   8.891  0.2107  0.2339 -0.1821
 7571SOL    HW134172   0.575   1.549   8.868  0.5810  0.4129 -0.0853
 7571SOL    HW234173   0.587   1.675   8.953  0.2692  1.0241 -0.8145
 7572SOL     OW34174   2.429   2.205  13.002  0.0718 -0.2085 -0.3116
 7572SOL    HW134175   2.499   2.202  12.936  0.2435 -0.5587 -0.1103
 7572SOL    HW234176   2.359   2.160  12.955 -0.1477 -1.5131  1.2849
 7573SOL     OW34177   0.978   3.215   6.139 -0.4477 -0.3035 -0.3610
 7573SOL    HW134178   0.931   3.140   6.176  1.5452 -1.0539  0.6375
 7573SOL    HW234179   0.929   3.289   6.175 -0.0708 -0.5385  0.6361
 7574SOL     OW34180   0.964   4.306  17.313  0.0906  0.1860  0.1229
 7574SOL    HW134181   1.025   4.334  17.381  1.7249 -2.6574 -0.1599
 7574SOL    HW234182   1.014   4.307  17.231  2.4757 -1.1383  1.5719
 7575SOL     OW34183   1.497   4.076  14.655  0.2494 -1.1118 -0.4627
 7575SOL    HW134184   1.455   4.156  14.688  1.5161 -0.0704 -1.3735
 7575SOL    HW234185   1.453   4.069  14.570 -0.7265  0.6361 -0.1133
 7576SOL     OW34186   0.636   2.928  10.708 -0.3361  0.2490  0.0212
 7576SOL    HW134187   0.575   2.854  10.717 -1.1560  0.6752 -1.9609
 7576SOL    HW234188   0.714   2.873  10.697 -1.0601 -0.2995 -2.3710
 7577SOL     OW34189   1.579   4.452   8.121 -0.1850 -0.5916 -0.1245
 7577SOL    HW134190   1.505   4.430   8.178 -1.7794  2.4047 -1.0357
 7577SOL    HW234191   1.622   4.526   8.164 -0.0924 -0.4018 -0.5371
 7578SOL     OW34192   3.903   0.648   7.558 -0.0330  0.3315 -0.0936
 7578SOL    HW134193   3.910   0.599   7.640 -1.1481 -3.1488 -2.0801
 7578SOL    HW234194   3.826   0.611   7.516 -0.5379 -0.2886  1.3702
 7579SOL     OW34195   4.372   3.083  16.618  0.2661 -0.6852 -0.6248
 7579SOL    HW134196   4.360   3.173  16.589 -2.7855 -0.6669  0.7724
 7579SOL    HW234197   4.420   3.106  16.698 -0.9045  0.9224 -0.3964
 7580SOL     OW34198   3.140   0.973   1.086  0.2065  0.7011 -0.2652
 7580SOL    HW134199   3.049   0.968   1.059 -0.0357 -0.1366  0.7033
 7580SOL    HW234200   3.131   0.919   1.165 -0.3282 -1.3803 -1.7302
 7581SOL     OW34201   1.302   4.311   7.121  0.1490 -0.0843  0.0973
 7581SOL    HW134202   1.271   4.221   7.108  0.3342  0.0367 -1.2044
 7581SOL    HW234203   1.283   4.333   7.212 -0.3880 -0.3743  0.0525
 7582SOL     OW34204   4.467   1.835  11.827  0.7336  0.0446  0.5427
 7582SOL    HW134205   4.529   1.903  11.852  0.7412  0.0686  0.4595
 7582SOL    HW234206   4.419   1.814  11.907 -2.8595  4.0855 -0.5333
 7583SOL     OW34207   2.736   1.354  16.391 -0.0486 -0.2409  0.2756
 7583SOL    HW134208   2.711   1.267  16.360 -1.2571 -0.5784  2.2505
 7583SOL    HW234209   2.670   1.368  16.458 -0.8313 -0.8262 -0.3662
 7584SOL     OW34210   1.781   4.039   4.468  0.3219 -0.3232 -0.0308
 7584SOL    HW134211   1.872   4.069   4.463  0.4078 -0.6236 -0.2809
 7584SOL    HW234212   1.738   4.124   4.458  2.1563  0.7666  1.3527
 7585SOL     OW34213   3.585   4.153  15.694 -0.1332 -0.0305  0.0454
 7585SOL    HW134214   3.594   4.216  15.622  2.0843 -0.5553 -0.1161
 7585SOL    HW234215   3.567   4.067  15.657  0.2951 -1.1433  2.3913
 7586SOL     OW34216   3.500   1.504  12.487  0.4249 -0.0217  0.1573
 7586SOL    HW134217   3.569   1.570  12.483  0.5066 -0.0890  0.4400
 7586SOL    HW234218   3.508   1.480  12.395 -0.8323 -2.3319  0.6527
 7587SOL     OW34219   0.398   4.280   2.231 -0.0153  0.0148  0.3942
 7587SOL    HW134220   0.362   4.366   2.209 -0.3645  0.2597  1.9039
 7587SOL    HW234221   0.409   4.246   2.142  0.2855 -0.7574  0.7331
 7588SOL     OW34222   2.366   1.953  15.808 -0.2490  0.0904  0.1808
 7588SOL    HW134223   2.340   2.041  15.833  2.5964  0.4338  1.8725
 7588SOL    HW234224   2.292   1.905  15.846  0.7216 -1.0288  0.6421
 7589SOL     OW34225   1.169   0.497   7.948 -0.4751  0.1118  0.5108
 7589SOL    HW134226   1.074   0.507   7.952 -0.6158 -1.3546  0.8199
 7589SOL    HW234227   1.177   0.430   7.881 -2.4772  0.1917  0.1951
 7590SOL     OW34228   1.758   4.242  14.001  0.4259  0.0889  0.1829
 7590SOL    HW134229   1.776   4.187  13.925  2.8803  1.0319  0.0849
 7590SOL    HW234230   1.720   4.320  13.959  0.0066 -0.1291  0.1540
 7591SOL     OW34231   4.454   1.296   8.028 -0.5372 -0.1010  0.1101
 7591SOL    HW134232   4.433   1.363   8.092  3.5290  0.0401  1.3248
 7591SOL    HW234233   4.460   1.218   8.083 -1.9179 -1.1215 -1.1646
 7592SOL     OW34234   3.073   0.604   6.377 -0.4077 -0.4789 -0.4040
 7592SOL    HW134235   3.005   0.562   6.324  0.2976  0.8131 -2.3277
 7592SOL    HW234236   3.072   0.690   6.334  2.0946 -0.4875 -0.4990
 7593SOL     OW34237   3.096   0.213   1.727 -0.2727 -0.0507  0.2556
 7593SOL    HW134238   3.140   0.233   1.809 -1.1080  0.0798  0.6776
 7593SOL    HW234239   3.173   0.223   1.671 -0.4367 -0.3859 -0.0282
 7594SOL     OW34240   0.670   4.662   6.261  0.1327 -0.2616 -0.2145
 7594SOL    HW134241   0.704   4.669   6.350  0.6914 -0.3619 -0.4136
 7594SOL    HW234242   0.746   4.700   6.215  0.1700  1.1549  1.0144
 7595SOL     OW34243   4.094   1.765   2.706 -0.2684  0.3513 -0.1153
 7595SOL    HW134244   4.167   1.809   2.751 -0.1804 -1.5977  1.6220
 7595SOL    HW234245   4.032   1.835   2.686 -2.7237 -0.9917  2.6744
 7596SOL     OW34246   3.504   3.632   2.760 -0.0252  0.0863 -0.0349
 7596SOL    HW134247   3.459   3.690   2.699  0.3388  0.8789  0.4514
 7596SOL    HW234248   3.470   3.642   2.848 -0.7019  1.4049 -0.4544
 7597SOL     OW34249   4.057   2.994   4.749 -0.5058 -0.9513 -0.0354
 7597SOL    HW134250   4.016   2.909   4.769 -1.1578 -1.1777 -2.3573
 7597SOL    HW234251   4.093   2.970   4.664  1.1632 -0.5890  0.5713
 7598SOL     OW34252   0.372   3.446   8.189  0.0144  0.3998  0.1250
 7598SOL    HW134253   0.379   3.354   8.163 -0.1412  0.9797 -1.9693
 7598SOL    HW234254   0.444   3.484   8.138 -1.9772  0.5685 -2.5476
 7599SOL     OW34255   2.819   2.092  12.864 -0.2310  0.1759  0.1299
 7599SOL    HW134256   2.899   2.041  12.875  1.0174  2.0393 -0.1675
 7599SOL    HW234257   2.846   2.182  12.883 -1.4918  0.5407  0.1646
 7600SOL     OW34258   3.883   4.452   2.789 -0.2266  0.5283 -0.3895
 7600SOL    HW134259   3.923   4.365   2.800 -0.3185  0.3922 -1.1305
 7600SOL    HW234260   3.862   4.479   2.879 -1.1653 -1.5044 -0.0036
 7601SOL     OW34261   2.359   1.218  10.607  0.5342 -0.3214 -0.0204
 7601SOL    HW134262   2.349   1.208  10.702  0.2218 -0.0318 -0.0244
 7601SOL    HW234263   2.345   1.312  10.597  0.2734 -0.1450  1.8865
 7602SOL     OW34264   2.207   3.774   2.697  0.1879  0.1880 -0.0504
 7602SOL    HW134265   2.211   3.860   2.740 -1.2478  0.6717 -0.8667
 7602SOL    HW234266   2.237   3.710   2.762 -1.4601 -2.7910 -2.2255
 7603SOL     OW34267   1.100   2.157  12.416  0.1105  0.3179 -0.4483
 7603SOL    HW134268   1.084   2.203  12.498 -1.6174 -1.8678  0.4489
 7603SOL    HW234269   1.195   2.153  12.410  0.0394 -1.8887 -0.2632
 7604SOL     OW34270   2.601   0.892   3.493  0.3900 -0.5437  0.1922
 7604SOL    HW134271   2.672   0.951   3.518  1.9349 -2.0031 -0.7416
 7604SOL    HW234272   2.563   0.934   3.415  1.6925 -1.4338 -0.9195
 7605SOL     OW34273   0.651   2.812   6.618 -0.1116  0.2803 -0.0202
 7605SOL    HW134274   0.600   2.810   6.699 -0.3659  1.0457 -0.1612
 7605SOL    HW234275   0.663   2.718   6.603  1.8983  0.1910  2.1962
 7606SOL     OW34276   3.226   4.251   3.335 -0.3355 -0.4431  0.2176
 7606SOL    HW134277   3.231   4.214   3.423  1.4555  1.7261  1.0551
 7606SOL    HW234278   3.231   4.176   3.277 -1.5718 -0.6487  0.3799
 7607SOL     OW34279   4.346   3.668   6.227  0.5755  0.1210 -0.1088
 7607SOL    HW134280   4.342   3.577   6.259  1.1047  0.1276 -0.0189
 7607SOL    HW234281   4.380   3.719   6.300  2.0570 -1.1559  0.0947
 7608SOL     OW34282   4.224   4.463  16.001  0.5539  0.7962  0.1350
 7608SOL    HW134283   4.299   4.410  15.974 -0.1411  0.6306 -1.4283
 7608SOL    HW234284   4.188   4.493  15.918  0.9924 -2.2967 -1.1565
 7609SOL     OW34285   3.658   1.865   5.018 -0.2841 -0.3809  0.2545
 7609SOL    HW134286   3.666   1.779   5.060 -0.2331 -0.8990 -0.8248
 7609SOL    HW234287   3.736   1.878   4.963  0.8450 -1.8408  1.4917
 7610SOL     OW34288   3.878   2.979  16.283 -0.1612  0.9532 -0.1359
 7610SOL    HW134289   3.873   3.045  16.214  0.2367  1.7769  0.6276
 7610SOL    HW234290   3.973   2.979  16.296 -0.0142  2.0315 -1.1797
 7611SOL     OW34291   0.893   4.222   3.503 -0.0142 -0.1045  0.1776
 7611SOL    HW134292   0.882   4.281   3.428  0.7200  0.1944  0.3046
 7611SOL    HW234293   0.814   4.237   3.556  0.7570 -0.4123  1.4074
 7612SOL     OW34294   2.280   0.395   4.476  0.3947 -0.5114 -0.0394
 7612SOL    HW134295   2.262   0.313   4.430  0.0320  0.0534 -0.8938
 7612SOL    HW234296   2.296   0.455   4.403  0.3154  0.0564  0.4138
 7613SOL     OW34297   3.051   2.873  13.852 -0.3469  0.1858  0.1188
 7613SOL    HW134298   3.018   2.841  13.768  1.5804 -1.6846  0.0885
 7613SOL    HW234299   3.128   2.819  13.868 -1.3528 -1.8387 -1.8206
 7614SOL     OW34300   3.418   2.160  15.469  0.4093  0.4012  0.0713
 7614SOL    HW134301   3.389   2.218  15.398 -2.0844  0.7616  1.3670
 7614SOL    HW234302   3.357   2.167  15.542 -0.5956 -1.9768 -0.5394
 7615SOL     OW34303   0.903   0.119   4.377 -0.0867  0.2654  0.1582
 7615SOL    HW134304   0.833   0.172   4.414  0.1784 -1.0550  2.5259
 7615SOL    HW234305   0.909   0.149   4.286  0.8995 -1.0867 -0.2272
 7616SOL     OW34306   0.779   4.321   9.011 -0.1965  0.5737 -0.4401
 7616SOL    HW134307   0.707   4.281   9.061  1.1583 -1.3841 -0.0501
 7616SOL    HW234308   0.856   4.279   9.050 -1.2265 -0.3506  0.6212
 7617SOL     OW34309   3.376   2.232  11.675  0.0146 -0.5504  0.3500
 7617SOL    HW134310   3.418   2.252  11.758  1.4449  0.9925 -0.7550
 7617SOL    HW234311   3.411   2.148  11.646  0.0178 -0.8140  1.1178
 7618SOL     OW34312   2.967   2.402  11.280 -0.0599  0.0858 -0.4861
 7618SOL    HW134313   2.960   2.307  11.269  0.2783  0.0162 -0.1293
 7618SOL    HW234314   3.054   2.414  11.240  1.2494 -1.9231  1.7229
 7619SOL     OW34315   2.555   3.335   8.194 -0.4900  0.0277 -0.0948
 7619SOL    HW134316   2.602   3.415   8.169 -0.2149 -0.1269 -0.0785
 7619SOL    HW234317   2.604   3.308   8.272 -0.1550  0.4815 -0.1470
 7620SOL     OW34318   3.834   1.574  12.520 -0.4756 -0.6768 -0.5023
 7620SOL    HW134319   3.877   1.514  12.581 -2.8727 -1.2518  0.6260
 7620SOL    HW234320   3.861   1.539  12.436  0.3698  0.8923 -0.8831
 7621SOL     OW34321   4.345   1.153  12.483 -0.2812 -0.3967  0.6155
 7621SOL    HW134322   4.368   1.105  12.562  2.4678 -0.2538 -0.0989
 7621SOL    HW234323   4.404   1.228  12.491 -0.8109  0.2160 -1.3735
 7622SOL     OW34324   2.128   2.248   9.437 -0.4470  0.1095 -0.0205
 7622SOL    HW134325   2.118   2.188   9.511  1.6965  0.3460  0.4529
 7622SOL    HW234326   2.046   2.297   9.444 -0.2529  0.8372 -2.7220
 7623SOL     OW34327   1.606   0.079   6.538 -0.4983 -0.3859 -0.1222
 7623SOL    HW134328   1.670   0.123   6.481 -0.4479  1.0322  1.0273
 7623SOL    HW234329   1.647   0.102   6.621  0.4926  0.7296 -0.9067
 7624SOL     OW34330   3.459   3.729   3.185  0.2461  0.1769  0.1003
 7624SOL    HW134331   3.420   3.786   3.251 -0.9023  1.6641 -1.8572
 7624SOL    HW234332   3.409   3.762   3.110 -0.7722 -0.0027  0.6922
 7625SOL     OW34333   1.822   2.312  14.783  0.1344 -0.7622  0.0830
 7625SOL    HW134334   1.785   2.325  14.870  0.0540 -0.6420  0.0299
 7625SOL    HW234335   1.784   2.225  14.768 -2.1941  0.3387 -0.2508
 7626SOL     OW34336   0.335   3.902   0.099 -0.2725 -0.4604  0.2883
 7626SOL    HW134337   0.283   3.921   0.021 -1.5410  0.1055  1.2752
 7626SOL    HW234338   0.412   3.951   0.070 -1.0139 -0.5448 -1.8121
 7627SOL     OW34339   3.905   4.717   2.227  0.2589 -0.3593 -0.0333
 7627SOL    HW134340   3.837   0.041   2.178  0.7878 -1.0654 -1.4235
 7627SOL    HW234341   3.862   4.714   2.313 -0.5079  0.8561 -0.3666
 7628SOL     OW34342   3.277   0.798   3.346  0.1294  0.1025 -0.1411
 7628SOL    HW134343   3.279   0.784   3.252 -1.0248  0.8542 -0.2723
 7628SOL    HW234344   3.354   0.853   3.363  0.0104  0.3807 -0.5258
 7629SOL     OW34345   3.195   0.982   5.573 -0.1966  0.1874 -0.4851
 7629SOL    HW134346   3.184   0.928   5.652  0.5062  1.5434  0.5473
 7629SOL    HW234347   3.111   0.961   5.532 -0.1973 -2.1970  0.6854
 7630SOL     OW34348   1.132   4.098   3.297  0.1789  0.7286 -0.0799
 7630SOL    HW134349   1.039   4.076   3.302  0.2303  1.0766  2.0812
 7630SOL    HW234350   1.169   4.020   3.255  0.4720 -0.4261  2.3051
 7631SOL     OW34351   1.183   3.819   9.375 -0.3112 -0.2161  0.4155
 7631SOL    HW134352   1.249   3.766   9.419 -0.3327  0.2015  0.9501
 7631SOL    HW234353   1.215   3.909   9.387 -0.5865  0.2599 -2.4561
 7632SOL     OW34354   2.095   2.670   9.124  0.0504  0.0823 -0.9213
 7632SOL    HW134355   2.116   2.661   9.217  2.7604 -1.4707 -1.6882
 7632SOL    HW234356   2.172   2.642   9.075  0.8644 -0.3211  0.5821
 7633SOL     OW34357   3.498   4.547   2.170  0.1527 -0.0068  0.0661
 7633SOL    HW134358   3.573   4.608   2.167  2.8931 -3.3847 -0.0598
 7633SOL    HW234359   3.442   4.591   2.106  0.1412 -0.3827 -0.1858
 7634SOL     OW34360   3.324   4.297   0.025  0.1996  0.2456  0.5264
 7634SOL    HW134361   3.287   4.331   0.106 -0.8901  1.5127 -0.4949
 7634SOL    HW234362   3.415   4.323   0.039  0.9137 -2.5018  0.9114
 7635SOL     OW34363   0.557   2.929   2.368 -0.1060 -0.4117 -0.3133
 7635SOL    HW134364   0.535   2.900   2.457  0.5106 -1.2705 -0.4376
 7635SOL    HW234365   0.652   2.920   2.368  0.0293  1.0701  2.4612
 7636SOL     OW34366   4.575   3.626   1.964 -0.6403  0.3361  0.0967
 7636SOL    HW134367   4.549   3.697   1.905 -1.7176  0.2989  0.5370
 7636SOL    HW234368   4.532   3.646   2.047 -2.0147  2.1203 -1.0317
 7637SOL     OW34369   2.059   3.645   6.831 -0.1168  0.7011  0.4091
 7637SOL    HW134370   2.005   3.705   6.780 -1.1750 -0.0079  0.6966
 7637SOL    HW234371   1.992   3.612   6.891  0.5810 -2.8243 -0.7852
 7638SOL     OW34372   2.663   1.954  13.927  0.1143  0.5895  0.1254
 7638SOL    HW134373   2.715   1.974  14.006 -1.0454  3.3027  0.2070
 7638SOL    HW234374   2.697   2.017  13.863  0.2848  1.2173  0.8272
 7639SOL     OW34375   3.565   0.084   5.833  0.1332  0.7727 -0.6015
 7639SOL    HW134376   3.504   0.094   5.760 -2.6280  0.0050  1.5918
 7639SOL    HW234377   3.558   4.713   5.850 -1.4992  0.8607 -0.8141
 7640SOL     OW34378   4.255   2.754   1.873  0.4962  0.2678  0.0332
 7640SOL    HW134379   4.289   2.674   1.913 -0.3907  0.3449  0.9584
 7640SOL    HW234380   4.206   2.728   1.796  1.4129 -0.0643 -0.4367
 7641SOL     OW34381   2.505   3.316  12.996  0.0344 -0.1647  0.7104
 7641SOL    HW134382   2.560   3.299  12.919  1.6727  0.0139  1.8485
 7641SOL    HW234383   2.509   3.233  13.042 -1.1747 -0.4773  0.2579
 7642SOL     OW34384   0.582   0.177  13.269  0.5113 -0.0772 -0.0153
 7642SOL    HW134385   0.661   0.185  13.216  1.0748  1.6156  1.0839
 7642SOL    HW234386   0.504   0.194  13.215  0.7541 -2.5668 -1.1200
 7643SOL     OW34387   4.591   3.838   8.725  0.0662  0.3317  0.2204
 7643SOL    HW134388   4.686   3.850   8.721 -0.1934  2.5302  1.0113
 7643SOL    HW234389   4.596   3.830   8.821 -2.3689  1.0248  0.3842
 7644SOL     OW34390   0.293   0.643  15.800 -0.4253 -0.0840 -0.3107
 7644SOL    HW134391   0.285   0.657  15.706  0.5009  2.0526 -0.0814
 7644SOL    HW234392   0.251   0.558  15.808  0.3698 -0.4499 -0.0613
 7645SOL     OW34393   2.835   3.119   2.910  0.5584 -0.1223  0.3058
 7645SOL    HW134394   2.783   3.089   2.835  1.1461 -2.7577  0.9478
 7645SOL    HW234395   2.880   3.040   2.940 -0.9112 -1.0728  0.0599
 7646SOL     OW34396   1.776   3.608  16.610 -0.6123 -0.1331  0.3921
 7646SOL    HW134397   1.715   3.538  16.590 -0.5325 -0.3207  0.8059
 7646SOL    HW234398   1.707   3.673  16.622  0.1328  0.1010  3.4181
 7647SOL     OW34399   2.811   1.092  14.580  0.3585 -0.2379 -0.0222
 7647SOL    HW134400   2.900   1.127  14.587  1.2908 -2.6457  0.1025
 7647SOL    HW234401   2.832   1.000  14.591 -3.8821 -0.8550  2.9156
 7648SOL     OW34402   4.339   0.146   0.426  0.7497  0.0752  0.3943
 7648SOL    HW134403   4.274   0.093   0.472  1.4933  0.0659  1.4344
 7648SOL    HW234404   4.424   0.120   0.462  0.5791 -0.5855  0.3087
 7649SOL     OW34405   0.238   0.175   6.559 -0.0285 -0.0134  0.0967
 7649SOL    HW134406   0.327   0.165   6.592 -0.7024 -1.9336  1.3400
 7649SOL    HW234407   0.189   0.159   6.640 -0.3026 -2.9713 -0.6395
 7650SOL     OW34408   4.021   1.196  13.367 -0.0709  0.6163 -0.1436
 7650SOL    HW134409   3.949   1.191  13.431  1.2670  0.9937  1.3829
 7650SOL    HW234410   4.095   1.155  13.411  1.2649  0.8560 -2.1469
 7651SOL     OW34411   3.101   3.986   8.713  0.4405  0.4518  0.5617
 7651SOL    HW134412   3.029   4.020   8.766  1.2014  1.2665  1.0582
 7651SOL    HW234413   3.169   4.052   8.712  0.7044  0.1666 -0.3232
 7652SOL     OW34414   1.429   4.342   6.083  0.5398 -0.2622 -0.2239
 7652SOL    HW134415   1.460   4.359   5.995  0.0188  1.5834 -0.0594
 7652SOL    HW234416   1.508   4.379   6.124 -0.9293  0.0815  2.3292
 7653SOL     OW34417   1.360   2.282   4.191  0.6057  0.5355 -0.1004
 7653SOL    HW134418   1.349   2.187   4.200 -0.4658  0.5766 -0.9290
 7653SOL    HW234419   1.270   2.304   4.164  0.1996 -0.0308  0.7780
 7654SOL     OW34420   0.590   1.602   6.992  0.0410  0.1454 -0.8788
 7654SOL    HW134421   0.647   1.670   6.956  0.2592 -1.5976 -3.8680
 7654SOL    HW234422   0.501   1.635   6.982  0.2530  0.4243 -1.9291
 7655SOL     OW34423   3.961   1.670  14.291 -0.1518 -0.1535 -0.0599
 7655SOL    HW134424   4.020   1.632  14.356 -1.5314  0.4509  1.5319
 7655SOL    HW234425   3.916   1.596  14.250 -0.8184  1.4614 -2.2986
 7656SOL     OW34426   2.961   3.049   3.938  0.5085  0.4033 -0.1428
 7656SOL    HW134427   2.919   2.985   3.880 -0.7102  0.7206  0.3897
 7656SOL    HW234428   2.981   2.991   4.012 -0.8500 -2.8283 -2.3008
 7657SOL     OW34429   0.724   0.204   5.959 -0.1423  0.3283  0.0512
 7657SOL    HW134430   0.723   0.290   5.917 -2.3694 -0.1171 -0.8052
 7657SOL    HW234431   0.726   0.221   6.053  0.7553  1.2777 -0.1348
 7658SOL     OW34432   4.226   0.891   6.162  0.0433 -0.9079  0.3501
 7658SOL    HW134433   4.174   0.968   6.186  1.5716 -0.1433  1.1798
 7658SOL    HW234434   4.165   0.821   6.186 -0.0725 -0.5440  1.1031
 7659SOL     OW34435   0.215   0.616   3.874  0.1209 -0.0679  0.0053
 7659SOL    HW134436   0.238   0.573   3.956  2.3480  0.6202 -0.2457
 7659SOL    HW234437   0.264   0.697   3.883  0.6907 -0.5793  1.4397
 7660SOL     OW34438   4.030   2.513  16.445 -0.0133 -0.5096 -0.0118
 7660SOL    HW134439   3.994   2.544  16.527 -0.5207 -2.1721  0.4010
 7660SOL    HW234440   4.108   2.465  16.473  0.3104 -0.5477 -0.9591
 7661SOL     OW34441   0.442   0.608   6.410 -0.3437 -0.3308  0.0834
 7661SOL    HW134442   0.391   0.528   6.419  0.2359 -0.8819 -1.5053
 7661SOL    HW234443   0.374   0.667   6.444 -1.4876 -2.2978  1.1893
 7662SOL     OW34444   2.262   3.904  11.784 -0.5920 -0.2262  0.2208
 7662SOL    HW134445   2.264   3.822  11.735  3.3965  0.5702 -1.0036
 7662SOL    HW234446   2.193   3.956  11.743 -0.3098 -1.0829 -1.3515
 7663SOL     OW34447   1.674   2.867  13.946 -0.2302  0.2009  0.2306
 7663SOL    HW134448   1.601   2.901  13.997  0.2815  1.9272 -0.1770
 7663SOL    HW234449   1.708   2.804  14.009  0.5350  0.3344 -0.0460
 7664SOL     OW34450   0.532   2.274  13.369 -0.2209  0.0445 -0.2816
 7664SOL    HW134451   0.490   2.318  13.296  0.8368  2.0758  0.3436
 7664SOL    HW234452   0.614   2.320  13.386 -0.1441  0.0412 -0.6526
 7665SOL     OW34453   4.207   4.509   8.710 -0.7497 -0.1502 -0.1247
 7665SOL    HW134454   4.115   4.537   8.715 -1.5771 -3.1957  1.8963
 7665SOL    HW234455   4.229   4.547   8.625 -1.0069 -1.3803 -0.7436
 7666SOL     OW34456   3.283   1.895   2.967 -0.3840 -0.4214 -0.4553
 7666SOL    HW134457   3.317   1.923   3.052  3.2880 -2.1399 -1.4053
 7666SOL    HW234458   3.361   1.891   2.912 -0.6913  0.3023 -0.9456
 7667SOL     OW34459   1.768   4.658  12.616  0.5537 -0.4053  0.1295
 7667SOL    HW134460   1.760   0.006  12.552  2.7256 -1.8039 -1.6744
 7667SOL    HW234461   1.831   4.607  12.565  0.1506 -2.0367  1.2813
 7668SOL     OW34462   2.756   0.968   4.250  0.3032  0.3595 -0.0041
 7668SOL    HW134463   2.732   0.950   4.341 -0.6099  0.6963 -0.1802
 7668SOL    HW234464   2.776   0.881   4.216 -1.1972 -0.1571  0.4282
 7669SOL     OW34465   0.388   2.627   2.833  0.0004  0.4824  0.1474
 7669SOL    HW134466   0.453   2.668   2.890 -2.2846  2.5696  1.2520
 7669SOL    HW234467   0.440   2.608   2.756 -0.7306 -1.8346  0.2382
 7670SOL     OW34468   2.816   1.558   0.350 -0.8450 -0.4722 -0.3812
 7670SOL    HW134469   2.841   1.490   0.287  0.8512 -0.4407  0.2420
 7670SOL    HW234470   2.730   1.590   0.322 -0.0623  1.7023 -0.2873
 7671SOL     OW34471   2.359   4.278  10.202 -0.4827 -0.1165  0.2132
 7671SOL    HW134472   2.386   4.220  10.273 -1.7437 -2.8469 -1.4877
 7671SOL    HW234473   2.391   4.235  10.122  0.0473 -1.6766  1.2572
 7672SOL     OW34474   1.522   2.842   5.456  0.0741 -0.0602 -0.1591
 7672SOL    HW134475   1.510   2.871   5.547 -0.8578  0.5706 -0.4851
 7672SOL    HW234476   1.552   2.751   5.466 -3.3395 -1.1763  0.0183
 7673SOL     OW34477   3.940   0.097   1.536 -0.7417 -0.4125  0.2442
 7673SOL    HW134478   3.865   0.103   1.478  0.1045  0.8872 -0.7212
 7673SOL    HW234479   4.006   0.067   1.473 -1.0919  0.2501 -0.4333
 7674SOL     OW34480   1.481   2.032  12.689 -0.0714  0.1049 -0.0960
 7674SOL    HW134481   1.432   2.024  12.772  1.8148  3.5099  1.3106
 7674SOL    HW234482   1.569   2.063  12.708  0.0891 -0.4880  0.1467
 7675SOL     OW34483   2.330   0.753   1.087  0.1215  0.6345 -0.0001
 7675SOL    HW134484   2.424   0.747   1.069 -0.5296 -0.4973 -3.0235
 7675SOL    HW234485   2.298   0.788   1.005 -1.1040  1.2589  0.7493
 7676SOL     OW34486   1.967   2.578   4.772  0.3798  0.5204 -0.1985
 7676SOL    HW134487   1.909   2.509   4.803  0.6298  0.8287  0.9312
 7676SOL    HW234488   1.917   2.656   4.797  1.4052  0.8645  0.7877
 7677SOL     OW34489   1.697   4.405   1.003 -1.1598 -0.1037 -0.6068
 7677SOL    HW134490   1.683   4.499   1.006  1.5286  0.2512  1.4007
 7677SOL    HW234491   1.677   4.386   1.095 -1.8515  1.7359 -0.3752
 7678SOL     OW34492   3.807   0.209   7.938 -0.6055  0.1588  0.2187
 7678SOL    HW134493   3.796   0.275   7.869  0.4404  0.1092  0.0146
 7678SOL    HW234494   3.723   0.164   7.937 -0.2380 -0.4912 -2.6733
 7679SOL     OW34495   2.215   2.392   3.817  0.3828  0.0306  0.1179
 7679SOL    HW134496   2.202   2.467   3.759 -0.3169 -0.9863 -1.0621
 7679SOL    HW234497   2.193   2.442   3.895  0.8996 -1.7457  1.4158
 7680SOL     OW34498   2.782   1.570   7.352  0.2800  0.3011 -0.1966
 7680SOL    HW134499   2.824   1.654   7.336 -0.5248  0.8185  0.4505
 7680SOL    HW234500   2.776   1.545   7.260  0.5959 -2.6175  0.5749
 7681SOL     OW34501   1.802   0.783  16.913  0.2477 -0.3864 -0.0225
 7681SOL    HW134502   1.879   0.831  16.944 -0.3051 -0.0755  0.8790
 7681SOL    HW234503   1.756   0.851  16.864 -2.7964 -2.3676  0.1138
 7682SOL     OW34504   3.524   1.091  15.935 -0.2886 -0.2757 -0.2865
 7682SOL    HW134505   3.443   1.047  15.962 -0.9085  0.7270 -0.5376
 7682SOL    HW234506   3.519   1.164  15.997 -0.8133  1.6378 -2.5936
 7683SOL     OW34507   4.428   4.285  15.942 -0.2639  0.5125  0.3222
 7683SOL    HW134508   4.520   4.263  15.932 -0.1243  1.2211  0.1076
 7683SOL    HW234509   4.407   4.239  16.024  1.4001 -0.4365  0.2273
 7684SOL     OW34510   1.533   0.416   2.552  0.4180  0.9698 -0.2865
 7684SOL    HW134511   1.448   0.381   2.526  0.7101  0.3252 -0.3831
 7684SOL    HW234512   1.521   0.509   2.534  0.1354  1.1573  0.8995
 7685SOL     OW34513   2.564   4.689  12.455  0.3731  0.0843  0.3962
 7685SOL    HW134514   2.643   0.020  12.440  0.4393 -0.1301 -0.0423
 7685SOL    HW234515   2.522   0.023  12.520 -3.9447 -0.9243 -1.5716
 7686SOL     OW34516   4.677   3.656   7.345  0.0315 -0.0331 -0.0703
 7686SOL    HW134517   4.691   3.634   7.437  0.0109  0.5987  0.0850
 7686SOL    HW234518   4.582   3.667   7.342 -0.0854 -1.0309  0.0955
 7687SOL     OW34519   2.420   1.218   8.940 -0.2562 -0.1808  0.3230
 7687SOL    HW134520   2.505   1.263   8.936 -1.5319  2.3001  0.8373
 7687SOL    HW234521   2.387   1.260   8.860  1.0215 -0.0142 -0.1136
 7688SOL     OW34522   0.931   4.028  17.328  0.2708  0.5205  0.0609
 7688SOL    HW134523   0.982   4.103  17.298  0.3865  0.7551  0.8367
 7688SOL    HW234524   0.956   4.026  17.420 -1.4479  2.3746  0.5846
 7689SOL     OW34525   2.864   4.508   2.493  0.2832 -0.0615 -0.3100
 7689SOL    HW134526   2.845   4.585   2.547 -0.5693  0.2880 -1.1131
 7689SOL    HW234527   2.958   4.492   2.498  0.7270  2.8706  0.7439
 7690SOL     OW34528   2.078   2.225   6.801  0.2405 -0.2060 -0.7382
 7690SOL    HW134529   2.090   2.178   6.718  1.8643  0.3220 -0.8189
 7690SOL    HW234530   2.002   2.184   6.841  2.2649 -2.0677  1.2317
 7691SOL     OW34531   2.008   4.422  16.035 -0.6024 -0.7752 -0.5337
 7691SOL    HW134532   2.008   4.334  16.073 -0.1559 -0.0592  1.1141
 7691SOL    HW234533   2.079   4.407  15.973  0.3796 -3.1584  1.1894
 7692SOL     OW34534   3.261   3.715  10.358  0.1195  0.1918 -0.0847
 7692SOL    HW134535   3.352   3.688  10.345  0.1656  0.9776 -1.5179
 7692SOL    HW234536   3.280   3.792  10.411  0.2039  0.0826  0.0425
 7693SOL     OW34537   0.302   2.740   8.759 -0.0244 -0.7499 -0.4527
 7693SOL    HW134538   0.351   2.700   8.687 -1.9780 -1.7835 -1.1985
 7693SOL    HW234539   0.301   2.832   8.733 -1.6542  0.0434  2.4886
 7694SOL     OW34540   0.924   1.884   8.026 -0.0034  0.6828 -0.5507
 7694SOL    HW134541   0.904   1.792   8.041 -0.5651  1.0373  0.8939
 7694SOL    HW234542   0.847   1.929   8.062 -0.4716  0.5918 -1.4240
 7695SOL     OW34543   3.455   3.151   5.810 -0.1362 -0.2733  0.5699
 7695SOL    HW134544   3.405   3.232   5.823 -0.6502 -0.6740  1.0289
 7695SOL    HW234545   3.529   3.170   5.868 -1.0552  1.4220  1.2074
 7696SOL     OW34546   3.510   1.891  12.447  0.3840  0.4217 -0.2014
 7696SOL    HW134547   3.584   1.952  12.451  2.1518 -1.9235  3.3369
 7696SOL    HW234548   3.539   1.831  12.516  0.6771 -1.2551 -1.7869
 7697SOL     OW34549   2.405   1.833  10.722  0.1602  0.0292 -0.5710
 7697SOL    HW134550   2.422   1.858  10.632  0.7329 -0.9037 -0.7201
 7697SOL    HW234551   2.423   1.739  10.724  0.5093  0.0688 -2.6013
 7698SOL     OW34552   2.233   4.279   0.268 -0.5790 -0.4999  0.1266
 7698SOL    HW134553   2.145   4.309   0.293 -1.0057 -2.3124  0.7629
 7698SOL    HW234554   2.226   4.195   0.312  2.5082 -1.2594 -0.8712
 7699SOL     OW34555   3.492   1.499  15.513  0.3373 -0.0787 -0.8811
 7699SOL    HW134556   3.483   1.537  15.426 -1.4030 -1.2598 -1.2057
 7699SOL    HW234557   3.454   1.567  15.568  1.9305  1.5352 -1.7944
 7700SOL     OW34558   3.665   4.685  14.157  0.0374  0.6319  0.4652
 7700SOL    HW134559   3.645   0.024  14.228 -1.2105  0.2853  0.4173
 7700SOL    HW234560   3.742   4.646  14.197  0.4424  0.4672 -0.4648
 7701SOL     OW34561   0.788   3.485   7.265  0.2786 -0.8082  0.3703
 7701SOL    HW134562   0.697   3.471   7.290 -0.0922  1.6802  0.3875
 7701SOL    HW234563   0.839   3.463   7.344  0.8656  1.4684  0.6291
 7702SOL     OW34564   3.191   4.281   6.042 -0.4235 -0.5590  0.0740
 7702SOL    HW134565   3.166   4.287   6.134 -0.7469  0.6852 -0.0936
 7702SOL    HW234566   3.168   4.189   6.026 -0.1848 -1.0513  2.4860
 7703SOL     OW34567   2.962   1.567   0.567  0.4421 -0.0142  0.4413
 7703SOL    HW134568   3.048   1.581   0.528 -0.1084  1.8491 -0.0642
 7703SOL    HW234569   2.908   1.549   0.490 -0.4346  1.8531  0.6136
 7704SOL     OW34570   2.515   0.912  11.319  0.2041 -0.5486  0.6876
 7704SOL    HW134571   2.448   0.979  11.310  0.2560 -0.1821  3.0147
 7704SOL    HW234572   2.534   0.904  11.413  1.0503 -0.6949  0.5067
 7705SOL     OW34573   0.669   4.656  16.664 -0.5713  0.1933  0.5308
 7705SOL    HW134574   0.740   4.715  16.639  0.1682 -0.4724  1.0636
 7705SOL    HW234575   0.705   4.570  16.641  4.3713  2.3123  0.4220
 7706SOL     OW34576   3.086   3.130   5.711 -0.7647  0.1465  0.2468
 7706SOL    HW134577   3.037   3.079   5.775  0.6508 -0.5555  0.7723
 7706SOL    HW234578   3.126   3.061   5.658 -0.6268  0.0505  0.4786
 7707SOL     OW34579   4.479   0.262   1.640  0.1764  0.0247  0.0068
 7707SOL    HW134580   4.406   0.319   1.667  2.1534  2.6492 -0.1429
 7707SOL    HW234581   4.522   0.317   1.574  1.3886  1.7435  2.2149
 7708SOL     OW34582   2.524   2.119   3.780  0.1548  0.3941  0.3158
 7708SOL    HW134583   2.470   2.083   3.710  1.0534  0.7139 -0.5409
 7708SOL    HW234584   2.461   2.149   3.845  0.3854  2.1253 -0.2574
 7709SOL     OW34585   1.194   0.791   3.217 -0.3408  0.5273  0.5487
 7709SOL    HW134586   1.116   0.842   3.238  0.2296  0.1602  3.6236
 7709SOL    HW234587   1.189   0.725   3.287 -1.2961 -2.7843 -2.6363
 7710SOL     OW34588   0.793   0.004   3.385 -0.0823 -0.0425 -0.4261
 7710SOL    HW134589   0.881   0.019   3.350  0.4483 -1.2488  0.3657
 7710SOL    HW234590   0.728   0.037   3.324  2.0143  1.2387 -1.9725
 7711SOL     OW34591   3.339   1.550   1.624  0.6513 -0.3032 -0.5442
 7711SOL    HW134592   3.346   1.569   1.530 -0.5354  0.0367 -0.5555
 7711SOL    HW234593   3.246   1.529   1.617  0.0730  2.1384  0.1381
 7712SOL     OW34594   0.556   3.336  12.039 -0.6875 -0.0104 -0.2854
 7712SOL    HW134595   0.523   3.336  11.949 -0.9240  1.0949 -0.1941
 7712SOL    HW234596   0.477   3.302  12.083 -0.2617 -2.6255 -1.5286
 7713SOL     OW34597   1.430   0.708   4.524  0.3441 -0.1070  0.1005
 7713SOL    HW134598   1.350   0.666   4.494  1.4991 -2.1191 -0.1833
 7713SOL    HW234599   1.446   0.645   4.594  0.0563  0.3092  0.5451
 7714SOL     OW34600   3.212   2.618   0.634 -0.2872 -0.6363  0.2349
 7714SOL    HW134601   3.247   2.706   0.645  1.4706 -1.4210  0.9627
 7714SOL    HW234602   3.120   2.643   0.629 -0.2536 -1.1026 -2.7854
 7715SOL     OW34603   1.927   2.020   0.953 -0.1228  0.4304 -0.1286
 7715SOL    HW134604   1.923   1.946   1.013  0.4176 -0.9441 -1.7905
 7715SOL    HW234605   2.010   1.996   0.912  1.3171  1.7161  1.9711
 7716SOL     OW34606   3.793   1.387  10.007 -0.2569  0.0259 -0.2292
 7716SOL    HW134607   3.759   1.418  10.091  0.1956 -0.6726  0.2058
 7716SOL    HW234608   3.882   1.421  10.012 -0.4721  0.9128 -2.1598
 7717SOL     OW34609   2.987   1.367   4.559 -0.1924 -0.0407  0.0295
 7717SOL    HW134610   2.987   1.462   4.573 -0.0201 -0.0325 -0.0282
 7717SOL    HW234611   3.003   1.365   4.465 -0.7101  0.9098 -0.0879
 7718SOL     OW34612   1.978   0.916   5.325 -0.3048 -0.2008  0.0371
 7718SOL    HW134613   1.938   0.881   5.405  2.2090 -1.5344  0.7216
 7718SOL    HW234614   2.008   0.841   5.273  0.0397 -1.2386  1.7362
 7719SOL     OW34615   3.087   2.339  16.171  0.4470  0.9328 -0.1309
 7719SOL    HW134616   3.046   2.424  16.187  1.9667  1.7476 -0.6327
 7719SOL    HW234617   3.016   2.281  16.141  0.3237 -0.0289  1.9563
 7720SOL     OW34618   0.071   3.081   3.365 -0.5639  0.1864  0.2577
 7720SOL    HW134619   0.065   2.997   3.319 -0.6210 -0.1382  0.8627
 7720SOL    HW234620   0.137   3.065   3.432 -0.0613 -1.5007 -0.6289
 7721SOL     OW34621   4.713   4.271   3.531 -0.5524  0.3810 -0.3799
 7721SOL    HW134622   4.677   4.321   3.458  0.3061  0.9131 -0.4484
 7721SOL    HW234623   4.645   4.292   3.595  0.2788 -0.8476  0.9193
 7722SOL     OW34624   4.405   0.402  12.762 -0.0882 -0.2175 -0.1731
 7722SOL    HW134625   4.325   0.446  12.735 -1.2816 -1.8527  0.7065
 7722SOL    HW234626   4.409   0.425  12.855 -1.0151  0.6143 -0.3478
 7723SOL     OW34627   1.356   0.219   5.192  0.6826  0.5100  0.1672
 7723SOL    HW134628   1.386   0.289   5.133  0.6575 -0.8039 -1.4034
 7723SOL    HW234629   1.439   0.197   5.232 -0.5738 -0.7946  2.0463
 7724SOL     OW34630   2.958   1.105   5.121 -0.2098 -0.3194 -0.1024
 7724SOL    HW134631   2.919   1.132   5.204 -3.2741 -1.0779 -1.3031
 7724SOL    HW234632   2.884   1.109   5.060 -1.3228  2.5755  1.4730
 7725SOL     OW34633   2.590   2.453   9.368  0.0473 -0.4473 -0.5865
 7725SOL    HW134634   2.515   2.446   9.427 -1.8465 -0.7807 -3.0237
 7725SOL    HW234635   2.602   2.360   9.349 -0.5754 -0.7086  0.3149
 7726SOL     OW34636   3.440   4.631   3.149  1.1806 -0.3255  0.0205
 7726SOL    HW134637   3.503   4.670   3.087 -0.0123 -0.0466 -1.0108
 7726SOL    HW234638   3.395   4.713   3.171 -0.5956 -0.7768 -2.0092
 7727SOL     OW34639   3.132   0.784   6.650  0.8015  0.5899  0.2193
 7727SOL    HW134640   3.191   0.803   6.576 -0.2406  0.4242 -0.6531
 7727SOL    HW234641   3.200   0.749   6.708  0.8465 -0.5048 -0.4834
 7728SOL     OW34642   4.067   1.582   8.729 -0.3054  0.6041 -0.3079
 7728SOL    HW134643   4.057   1.600   8.635 -0.3838  0.6931 -0.2823
 7728SOL    HW234644   4.156   1.547   8.724 -0.5339 -0.2408  1.7656
 7729SOL     OW34645   0.212   4.399   5.019  0.0714  0.0191  0.3093
 7729SOL    HW134646   0.176   4.362   5.100 -0.2345  1.2410  0.7280
 7729SOL    HW234647   0.264   4.322   4.994  0.9413 -0.1430  2.5783
 7730SOL     OW34648   0.940   0.525   1.896  0.2734 -0.3130 -0.2097
 7730SOL    HW134649   0.861   0.508   1.846 -0.4804  0.0384  0.8526
 7730SOL    HW234650   1.011   0.535   1.833  0.4307 -2.8049 -0.4318
 7731SOL     OW34651   2.407   3.399   6.346  0.4384  0.2241 -0.3815
 7731SOL    HW134652   2.359   3.324   6.380 -0.4954  0.7491 -0.5584
 7731SOL    HW234653   2.489   3.378   6.390  0.1034 -1.0680 -0.3977
 7732SOL     OW34654   4.245   4.152   8.711 -0.2387  0.4039 -0.4971
 7732SOL    HW134655   4.248   4.224   8.647 -0.9181  2.6391  1.9874
 7732SOL    HW234656   4.151   4.155   8.728  0.0402 -1.6282  1.3336
 7733SOL     OW34657   2.405   1.596   9.183 -0.1335 -0.1304 -0.1203
 7733SOL    HW134658   2.432   1.640   9.102 -0.2411 -0.1343 -0.1576
 7733SOL    HW234659   2.316   1.563   9.171 -0.1329 -0.8525  1.8214
 7734SOL     OW34660   2.682   4.630  16.566  0.3201  0.6288 -0.2825
 7734SOL    HW134661   2.676   4.545  16.524  0.7659  0.1271  0.6701
 7734SOL    HW234662   2.687   4.685  16.488  0.4165  0.8783 -0.1017
 7735SOL     OW34663   2.721   3.713   0.653 -0.0349 -0.2125 -0.0707
 7735SOL    HW134664   2.628   3.729   0.668  0.0134 -0.1772  0.1777
 7735SOL    HW234665   2.758   3.773   0.717 -0.3673  0.4622 -0.5130
 7736SOL     OW34666   2.134   0.317   9.317 -0.3549 -0.7859  0.2405
 7736SOL    HW134667   2.193   0.316   9.391  0.6733  2.6647 -0.5356
 7736SOL    HW234668   2.081   0.239   9.333  2.0322 -2.4773 -0.2064
 7737SOL     OW34669   4.650   2.436  13.518  0.1797 -0.2132  0.3483
 7737SOL    HW134670   4.713   2.392  13.461  0.7429  0.6132  0.3309
 7737SOL    HW234671   4.577   2.374  13.521  1.1825 -1.4097  0.0067
 7738SOL     OW34672   2.845   2.264   7.608 -0.2486 -0.0771 -0.2590
 7738SOL    HW134673   2.753   2.239   7.613 -0.2177 -0.2065 -0.3481
 7738SOL    HW234674   2.883   2.223   7.531  0.4801 -1.7211  0.9906
 7739SOL     OW34675   1.753   1.502  17.238 -0.7526 -0.0615  0.4773
 7739SOL    HW134676   1.667   1.514  17.198 -1.6147  1.0756  2.6056
 7739SOL    HW234677   1.807   1.541  17.169 -0.2827 -0.7759  0.4426
 7740SOL     OW34678   0.797   0.829   1.230 -0.0716 -0.1407  0.3481
 7740SOL    HW134679   0.770   0.779   1.307 -1.7904  1.6408  0.8881
 7740SOL    HW234680   0.890   0.805   1.231 -0.3392 -1.0989  1.8958
 7741SOL     OW34681   3.743   4.201   4.817 -0.3816 -0.2897  0.1881
 7741SOL    HW134682   3.721   4.115   4.851  1.4364 -1.0382 -0.5474
 7741SOL    HW234683   3.838   4.190   4.819 -0.4078 -0.4965  0.2476
 7742SOL     OW34684   3.611   3.346   5.017  0.2718  0.0326 -0.0275
 7742SOL    HW134685   3.534   3.341   4.961  0.0500  1.1064  0.2042
 7742SOL    HW234686   3.661   3.265   5.004  1.2749  0.6681 -0.1361
 7743SOL     OW34687   1.027   3.093   5.338 -0.3819 -0.2646  0.5989
 7743SOL    HW134688   0.980   3.011   5.352 -0.7046  0.3092  2.8340
 7743SOL    HW234689   1.077   3.095   5.420 -2.6335 -1.5498  1.9908
 7744SOL     OW34690   3.407   1.416   7.910 -0.5422 -0.5366 -0.4744
 7744SOL    HW134691   3.340   1.436   7.975  0.0700 -0.2472  0.0644
 7744SOL    HW234692   3.356   1.370   7.843  0.6958  1.8058 -3.0282
 7745SOL     OW34693   0.891   1.261   3.220  0.1429 -0.2273 -0.2080
 7745SOL    HW134694   0.965   1.206   3.248 -0.6889 -0.7311  0.9701
 7745SOL    HW234695   0.912   1.284   3.129 -1.7930  1.1601 -0.2866
 7746SOL     OW34696   0.772   4.464   5.865 -0.2169  0.2622 -0.0094
 7746SOL    HW134697   0.737   4.428   5.947 -1.4762  1.6410  0.0610
 7746SOL    HW234698   0.718   4.543   5.858 -0.3326  0.2926  1.1243
 7747SOL     OW34699   3.756   0.780   3.876  0.1863 -0.3669  0.1674
 7747SOL    HW134700   3.669   0.741   3.882 -0.5897  1.4631  0.6764
 7747SOL    HW234701   3.775   0.753   3.786  0.1655  0.2490 -0.0196
 7748SOL     OW34702   0.591   4.122   9.088  0.0523  0.3632  0.4970
 7748SOL    HW134703   0.615   4.048   9.033 -1.3263  0.9732 -0.9258
 7748SOL    HW234704   0.601   4.089   9.178  0.0302  1.0848  0.7683
 7749SOL     OW34705   1.656   0.499   8.819 -0.4322  0.0773  0.0440
 7749SOL    HW134706   1.603   0.569   8.782 -0.3813  1.0349  1.7742
 7749SOL    HW234707   1.628   0.474   8.907 -0.4518  1.8491  0.5317
 7750SOL     OW34708   0.940   0.476   4.294  0.0083  0.1539  0.2053
 7750SOL    HW134709   0.930   0.566   4.261  0.6356  0.8175  1.8302
 7750SOL    HW234710   0.903   0.490   4.381 -0.2226  0.1900  0.1017
 7751SOL     OW34711   4.564   3.344   6.059 -0.6052  0.6967  0.3118
 7751SOL    HW134712   4.660   3.340   6.062 -0.5286  1.9489 -0.5141
 7751SOL    HW234713   4.540   3.252   6.069 -4.2141  2.0407  3.9653
 7752SOL     OW34714   2.898   3.481   3.210 -0.1145 -0.4869 -0.3660
 7752SOL    HW134715   2.896   3.425   3.132  0.2259 -1.0213  0.0152
 7752SOL    HW234716   2.821   3.537   3.203 -0.6113 -1.0004  1.1377
 7753SOL     OW34717   2.931   3.371   5.677 -0.0564  0.3145  0.0793
 7753SOL    HW134718   2.972   3.286   5.657  1.1844  1.1677 -0.9707
 7753SOL    HW234719   2.857   3.341   5.731 -0.8847  3.3358  0.5920
 7754SOL     OW34720   3.286   1.074   4.307 -0.0298 -0.3706 -0.1338
 7754SOL    HW134721   3.373   1.042   4.332 -0.5503 -1.4086  0.3773
 7754SOL    HW234722   3.249   1.094   4.393 -2.8094 -0.0886 -1.3781
 7755SOL     OW34723   0.467   4.507   4.784  0.2266 -0.6357 -0.1230
 7755SOL    HW134724   0.554   4.544   4.774  1.2175 -2.4536  1.7160
 7755SOL    HW234725   0.496   4.416   4.779  0.6191 -0.6040  1.6416
 7756SOL     OW34726   4.228   0.298   2.985  0.0435  0.2589  0.0709
 7756SOL    HW134727   4.245   0.221   3.038 -0.8884  0.0400  0.0516
 7756SOL    HW234728   4.262   0.367   3.041 -0.5425  1.5585 -1.1764
 7757SOL     OW34729   4.708   0.552  15.710  0.2867  0.0356 -0.0375
 7757SOL    HW134730   4.711   0.467  15.667 -0.1827 -0.9604  1.9196
 7757SOL    HW234731   4.617   0.583  15.708 -0.0302 -0.9761 -1.0659
 7758SOL     OW34732   2.667   1.808   8.080  0.4128  0.1937  0.5945
 7758SOL    HW134733   2.723   1.805   8.158 -0.8377  2.7745  1.5783
 7758SOL    HW234734   2.601   1.740   8.088  1.0142 -0.4179  0.4040
 7759SOL     OW34735   3.131   0.382   0.901 -0.0268 -0.4893  0.6087
 7759SOL    HW134736   3.041   0.398   0.873 -0.3151 -3.0977  0.0011
 7759SOL    HW234737   3.161   0.472   0.891 -0.4278 -0.3203  0.9757
 7760SOL     OW34738   2.293   1.077   7.497  0.2063  0.4458 -0.5189
 7760SOL    HW134739   2.233   1.005   7.518 -0.3193  0.4387 -2.0515
 7760SOL    HW234740   2.336   1.097   7.580 -0.4683  1.6388 -0.4540
 7761SOL     OW34741   3.920   0.121  17.078 -0.0825  0.3531 -0.1602
 7761SOL    HW134742   3.912   0.072  17.160 -1.4017 -0.6394 -0.8897
 7761SOL    HW234743   3.983   0.189  17.104 -0.7972  0.7621  0.4900
 7762SOL     OW34744   3.004   2.187   3.973 -0.5607  0.2367  0.4564
 7762SOL    HW134745   3.052   2.107   3.951 -1.9027 -0.2630 -0.6028
 7762SOL    HW234746   2.919   2.152   3.948 -0.7900  0.4196  0.9709
 7763SOL     OW34747   1.043   2.200  12.091  0.1130 -0.4409  0.3195
 7763SOL    HW134748   0.993   2.281  12.101 -2.5538 -2.0461  0.0685
 7763SOL    HW234749   0.975   2.133  12.099 -1.5555  1.3470  1.2107
 7764SOL     OW34750   0.679   3.885  11.508 -0.2005 -0.8316  0.4714
 7764SOL    HW134751   0.696   3.918  11.419 -1.4274 -2.4109 -0.3353
 7764SOL    HW234752   0.646   3.798  11.486  0.5621 -0.7235 -1.1177
 7765SOL     OW34753   4.156   4.632  15.029 -0.7090  0.6481 -0.7544
 7765SOL    HW134754   4.210   4.553  15.034  0.4281  1.3695 -1.4525
 7765SOL    HW234755   4.097   4.622  14.955 -0.5517  0.7150 -0.8905
 7766SOL     OW34756   4.404   4.603   9.167 -0.3531 -0.2031 -0.3763
 7766SOL    HW134757   4.353   4.633   9.092 -0.4983 -2.2761 -1.0911
 7766SOL    HW234758   4.391   4.508   9.167  0.2919 -0.2915  0.0043
 7767SOL     OW34759   3.191   0.225   4.551  0.3783  0.4207  0.3050
 7767SOL    HW134760   3.177   0.188   4.464  2.4759 -0.1725  0.2175
 7767SOL    HW234761   3.215   0.150   4.605 -0.5910 -0.5872 -0.6605
 7768SOL     OW34762   3.309   0.020  11.759  0.0496 -0.3819  0.2986
 7768SOL    HW134763   3.339   0.101  11.718 -2.3629 -0.2118 -1.0924
 7768SOL    HW234764   3.226   0.046  11.801  0.3124  0.8856  0.0373
 7769SOL     OW34765   3.481   3.893  11.466  0.2159  0.1619 -0.1080
 7769SOL    HW134766   3.404   3.859  11.512 -1.0133  0.4405 -1.9343
 7769SOL    HW234767   3.540   3.824  11.497 -1.9809 -1.8561 -0.3307
 7770SOL     OW34768   2.501   3.456  12.504  0.0405 -0.2771 -0.2187
 7770SOL    HW134769   2.594   3.476  12.518  0.0625 -0.2568 -0.3917
 7770SOL    HW234770   2.481   3.407  12.584  1.2874 -0.0061  0.2607
 7771SOL     OW34771   4.234   1.617   5.419  0.5803 -0.4738  0.0506
 7771SOL    HW134772   4.264   1.615   5.328 -0.1909  3.1439 -0.2772
 7771SOL    HW234773   4.143   1.588   5.413  0.0234  0.9657  1.3887
 7772SOL     OW34774   3.698   3.898   4.851  0.4695 -0.3713 -0.0195
 7772SOL    HW134775   3.671   3.864   4.936 -0.7225  1.7703  0.4506
 7772SOL    HW234776   3.632   3.867   4.788 -0.6182  2.7036 -0.3793
 7773SOL     OW34777   1.223   4.473   6.220 -0.3351 -0.5051 -0.3465
 7773SOL    HW134778   1.277   4.419   6.162  0.8792 -0.6480  0.9006
 7773SOL    HW234779   1.286   4.527   6.269  0.5408 -2.5951  0.8414
 7774SOL     OW34780   4.682   3.199   4.055 -0.3537 -0.1341 -0.5553
 7774SOL    HW134781   4.606   3.229   4.005  0.2159  3.8988  1.0795
 7774SOL    HW234782   4.633   3.150   4.122 -2.3366  1.6780 -0.6949
 7775SOL     OW34783   3.847   3.558   8.811  0.2370  0.3954  0.4327
 7775SOL    HW134784   3.819   3.512   8.890 -0.3331 -1.5807 -0.9472
 7775SOL    HW234785   3.826   3.494   8.744 -1.6767  0.0307  1.3559
 7776SOL     OW34786   0.068   0.984   5.202 -0.0175  0.0273 -0.2834
 7776SOL    HW134787   0.017   0.915   5.244  1.9325  0.1127  2.1961
 7776SOL    HW234788   0.151   0.943   5.179  0.6617  0.6196  1.1186
 7777SOL     OW34789   4.273   3.317  17.102  0.4541 -0.3616 -0.2225
 7777SOL    HW134790   4.182   3.292  17.116 -0.3479  0.6616 -3.7184
 7777SOL    HW234791   4.268   3.363  17.019  1.6674 -1.3708 -0.8599
 7778SOL     OW34792   1.079   2.348   4.106  0.4814 -0.0727 -0.4297
 7778SOL    HW134793   1.058   2.275   4.164  0.6359 -1.3250 -1.9439
 7778SOL    HW234794   1.049   2.430   4.145  1.8211  0.8615 -1.3572
 7779SOL     OW34795   0.703   4.357  17.337  0.5105  0.7181  0.3919
 7779SOL    HW134796   0.684   4.397  17.252 -0.0891  2.9595  1.5882
 7779SOL    HW234797   0.799   4.354  17.338  0.5208  0.5506 -0.8161
 7780SOL     OW34798   3.205   0.442   8.612  0.2939  0.1414  0.0667
 7780SOL    HW134799   3.129   0.402   8.568 -1.0343  1.5829  1.0425
 7780SOL    HW234800   3.187   0.529   8.647 -0.2346 -0.3094  0.9239
 7781SOL     OW34801   2.063   2.711  11.799 -0.4171 -0.4006  0.5096
 7781SOL    HW134802   2.139   2.769  11.800 -0.3323 -0.5024 -0.0479
 7781SOL    HW234803   2.073   2.656  11.877  0.8639 -2.0446 -0.8379
 7782SOL     OW34804   1.559   3.140  17.009  0.6725  0.7024  0.6246
 7782SOL    HW134805   1.577   3.208  17.075 -2.1207  0.1510  1.9699
 7782SOL    HW234806   1.500   3.083  17.058  0.0342  0.9580  0.1519
 7783SOL     OW34807   2.164   4.062  12.264 -0.2435  0.2723 -0.7683
 7783SOL    HW134808   2.255   4.036  12.277 -0.8286 -0.4624  1.9926
 7783SOL    HW234809   2.143   3.991  12.203  0.3626 -0.4864 -0.0908
 7784SOL     OW34810   1.090   1.716   2.674 -0.5198  0.8137 -0.0237
 7784SOL    HW134811   1.015   1.668   2.637 -0.6223  0.8246  0.1741
 7784SOL    HW234812   1.058   1.805   2.659  0.8757  1.3327  0.0687
 7785SOL     OW34813   0.725   0.324  12.377  0.0878  0.0196  0.3852
 7785SOL    HW134814   0.682   0.409  12.382  0.6715  0.1962  2.2635
 7785SOL    HW234815   0.666   0.273  12.433 -0.5926 -1.5001 -1.7197
 7786SOL     OW34816   1.345   1.782  10.978  0.4660 -0.0467 -0.6979
 7786SOL    HW134817   1.295   1.702  10.993  0.9873 -0.0737  0.8507
 7786SOL    HW234818   1.287   1.843  11.022  0.4407  0.4155 -1.3729
 7787SOL     OW34819   0.976   2.194   3.279 -0.0940  0.7552  0.0456
 7787SOL    HW134820   0.892   2.197   3.324 -0.2428  2.8952 -0.3837
 7787SOL    HW234821   0.943   2.187   3.190 -0.1443  1.6000  0.0017
 7788SOL     OW34822   2.014   3.748  12.285  0.4556  0.3253  0.5455
 7788SOL    HW134823   2.093   3.763  12.337  0.3113  0.2740  0.7775
 7788SOL    HW234824   2.039   3.784  12.200  0.4496  1.0466  0.8544
 7789SOL     OW34825   1.957   3.602   1.987 -0.5249  0.0350 -0.2432
 7789SOL    HW134826   2.051   3.599   2.005 -0.3113 -0.4913 -1.4385
 7789SOL    HW234827   1.956   3.690   1.950 -0.4905 -0.7925 -2.2501
 7790SOL     OW34828   4.380   2.802   8.963 -0.1125  0.0657 -0.0352
 7790SOL    HW134829   4.415   2.797   8.874 -3.1063  1.0730 -1.2593
 7790SOL    HW234830   4.459   2.806   9.016  1.0735 -1.6108 -1.6652
 7791SOL     OW34831   2.247   4.266   6.604 -0.7442  0.4200 -0.0222
 7791SOL    HW134832   2.212   4.329   6.542 -0.4676 -0.0931 -0.7007
 7791SOL    HW234833   2.313   4.324   6.641 -1.6801  0.5470  1.4505
 7792SOL     OW34834   4.153   0.061   1.719 -0.3019 -0.5550 -0.9307
 7792SOL    HW134835   4.154   4.698   1.762  1.3433 -0.8705 -1.6143
 7792SOL    HW234836   4.082   0.059   1.655  0.2686 -0.5506 -1.5653
 7793SOL     OW34837   2.249   1.072  17.101  0.7385  0.3721  0.6270
 7793SOL    HW134838   2.284   1.010  17.166 -2.2696 -2.5848 -0.5386
 7793SOL    HW234839   2.330   1.096  17.056 -0.3513 -0.0333 -1.5583
 7794SOL     OW34840   0.187   0.491   6.459 -0.3488  0.7258  0.1678
 7794SOL    HW134841   0.131   0.488   6.537 -1.4913  0.6014 -0.6568
 7794SOL    HW234842   0.186   0.403   6.421  1.1484  0.8874 -0.2734
 7795SOL     OW34843   2.156   3.339   3.268 -1.4856  0.1870  0.1684
 7795SOL    HW134844   2.079   3.304   3.313 -0.4557  0.4398  2.1356
 7795SOL    HW234845   2.228   3.306   3.322  0.9787  2.8470 -1.5080
 7796SOL     OW34846   1.753   0.273   6.985  0.6684  0.1599 -0.4410
 7796SOL    HW134847   1.767   0.368   6.987  1.0727  0.1026 -0.7156
 7796SOL    HW234848   1.712   0.265   7.072  1.3579 -0.1139 -0.1455
 7797SOL     OW34849   2.065   2.416   3.264 -0.2024 -0.1887 -0.4987
 7797SOL    HW134850   2.083   2.347   3.328 -2.1312  1.2622  1.6129
 7797SOL    HW234851   1.972   2.397   3.248 -0.3733 -0.2850  0.6041
 7798SOL     OW34852   2.978   0.527   2.796  0.7335 -0.0010 -0.3404
 7798SOL    HW134853   2.907   0.591   2.808 -0.8929 -1.5962 -1.4250
 7798SOL    HW234854   2.960   0.459   2.860  0.3312  0.5075  0.0867
 7799SOL     OW34855   2.295   0.205  11.429  0.0480  1.0818  0.0192
 7799SOL    HW134856   2.246   0.260  11.490 -0.0554 -0.3159  1.2163
 7799SOL    HW234857   2.382   0.214  11.467  1.0216  0.9508 -2.2022
 7800SOL     OW34858   2.728   2.335   3.569  0.3202 -0.2966 -0.0832
 7800SOL    HW134859   2.636   2.355   3.552  0.2365 -1.4102 -0.9923
 7800SOL    HW234860   2.747   2.274   3.497  1.5068 -0.3264  0.2470
 7801SOL     OW34861   2.055   2.188   8.012 -0.1178  0.3930  0.1124
 7801SOL    HW134862   2.099   2.250   7.954  0.2041 -1.3130 -1.4782
 7801SOL    HW234863   2.129   2.131   8.035 -1.5281 -1.2302  0.6597
 7802SOL     OW34864   2.603   3.817   6.133  0.1029  0.7858  0.3762
 7802SOL    HW134865   2.660   3.740   6.129 -2.0372 -0.7702 -0.0276
 7802SOL    HW234866   2.664   3.885   6.162  0.4201  0.3577  0.7165
 7803SOL     OW34867   3.435   4.447   6.009 -0.0565  0.5104  0.8271
 7803SOL    HW134868   3.359   4.393   6.027  0.2324 -0.4260 -0.8278
 7803SOL    HW234869   3.411   4.483   5.923  0.6214 -1.5811 -0.2313
 7804SOL     OW34870   3.510   4.363   4.910 -0.6922  0.1177  0.2265
 7804SOL    HW134871   3.572   4.301   4.872  0.4891  1.0687  0.6125
 7804SOL    HW234872   3.438   4.307   4.940  1.4205 -1.9930  1.3390
 7805SOL     OW34873   3.115   4.116   2.873  0.2957  0.0622 -0.2528
 7805SOL    HW134874   3.069   4.161   2.802 -0.2606  0.8744  0.6269
 7805SOL    HW234875   3.051   4.109   2.944  0.6572 -2.2310 -0.1303
 7806SOL     OW34876   2.106   1.322  14.894  0.7082 -0.3805 -0.2872
 7806SOL    HW134877   2.083   1.407  14.856 -0.3992  0.0960  1.4547
 7806SOL    HW234878   2.194   1.351  14.920  0.4608 -0.8492  1.0695
 7807SOL     OW34879   1.802   2.883   9.533 -0.0441 -0.6480  0.1046
 7807SOL    HW134880   1.876   2.943   9.534  1.4177 -2.3431 -3.7577
 7807SOL    HW234881   1.795   2.854   9.624 -3.6713 -0.8758 -0.2379
 7808SOL     OW34882   1.093   1.873   8.682 -1.1822  0.3023  0.2444
 7808SOL    HW134883   1.038   1.809   8.636  0.2426 -1.0227  0.3730
 7808SOL    HW234884   1.182   1.837   8.682 -0.4725  2.0678  1.7318
 7809SOL     OW34885   4.088   4.475   1.813 -0.3665 -0.0592  0.3384
 7809SOL    HW134886   4.109   4.382   1.827  1.3692  0.5180  1.6577
 7809SOL    HW234887   4.021   4.467   1.746 -0.1829 -1.1336  0.2811
 7810SOL     OW34888   2.158   3.696   2.314  0.4582 -0.3939  0.4240
 7810SOL    HW134889   2.092   3.732   2.255  0.4243 -0.8663  0.1725
 7810SOL    HW234890   2.235   3.714   2.260 -1.0635  2.4038 -0.8192
 7811SOL     OW34891   0.777   1.287   0.214 -0.6911 -0.5060 -0.3318
 7811SOL    HW134892   0.855   1.233   0.204 -0.0337  0.3203  0.3772
 7811SOL    HW234893   0.806   1.375   0.192 -2.3083 -0.3701 -1.9556
 7812SOL     OW34894   2.921   3.751   7.756 -0.0031 -0.0182 -0.2394
 7812SOL    HW134895   2.956   3.688   7.693 -1.8675  0.1231 -1.4140
 7812SOL    HW234896   2.831   3.753   7.723 -0.1553  0.4294  0.2005
 7813SOL     OW34897   2.551   0.918   3.091  0.0506 -0.0955 -0.0595
 7813SOL    HW134898   2.488   0.990   3.084 -0.8447 -0.7992  0.7945
 7813SOL    HW234899   2.529   0.863   3.166  1.3991  1.2849  1.3511
 7814SOL     OW34900   3.741   1.442   4.048 -0.0697  0.3368 -0.8635
 7814SOL    HW134901   3.677   1.396   4.101  0.8182 -0.9222 -0.8691
 7814SOL    HW234902   3.766   1.372   3.987  3.5277 -0.2763  1.2932
 7815SOL     OW34903   2.118   0.888   0.900  0.2027  0.3431 -0.2705
 7815SOL    HW134904   2.058   0.911   0.971 -1.2209 -1.5128 -0.8717
 7815SOL    HW234905   2.075   0.931   0.827  0.8136  0.8515 -0.3290
 7816SOL     OW34906   2.310   2.860   5.965 -0.0602  0.2191  0.4630
 7816SOL    HW134907   2.340   2.795   5.901  1.1212  0.2848  0.9512
 7816SOL    HW234908   2.388   2.875   6.018 -0.8636  0.2517  1.6441
 7817SOL     OW34909   0.692   1.062   0.359 -0.3752  0.4554  0.3358
 7817SOL    HW134910   0.676   1.085   0.451  1.1104 -0.8501  0.9201
 7817SOL    HW234911   0.706   1.149   0.322  1.1409 -0.0723 -0.3540
 7818SOL     OW34912   0.676   2.443  11.847  0.2712 -0.8263 -0.0835
 7818SOL    HW134913   0.590   2.406  11.869 -0.2839  0.8093  0.4666
 7818SOL    HW234914   0.723   2.433  11.929  1.8357 -1.7005 -1.0677
 7819SOL     OW34915   2.774   3.120  10.606 -0.0740  0.6266 -0.3617
 7819SOL    HW134916   2.688   3.161  10.608  0.2958  1.3698  0.0712
 7819SOL    HW234917   2.828   3.198  10.595  1.1512 -0.4751 -2.0723
 7820SOL     OW34918   2.680   1.556   3.742  0.4123 -0.4665  0.6592
 7820SOL    HW134919   2.588   1.547   3.714  0.2271 -3.0594  2.1774
 7820SOL    HW234920   2.671   1.614   3.818 -1.7801 -0.3413  0.3057
 7821SOL     OW34921   3.559   1.454   3.714  0.5506  0.0693  0.1090
 7821SOL    HW134922   3.645   1.424   3.688  0.4538  0.9667 -1.2538
 7821SOL    HW234923   3.582   1.518   3.781 -1.8734 -1.1841  2.1393
 7822SOL     OW34924   2.965   3.351   3.696  0.0597  0.3883  0.1808
 7822SOL    HW134925   2.938   3.340   3.787 -1.8990  0.1632 -0.4364
 7822SOL    HW234926   2.947   3.444   3.685 -1.2261  0.1195 -0.0046
 7823SOL     OW34927   3.527   4.399  17.482  0.1119  0.3789  0.2137
 7823SOL    HW134928   3.507   4.309  17.454 -1.5727  0.7348  0.2620
 7823SOL    HW234929   3.551   4.381  17.573 -0.1325 -0.5424  0.0993
 7824SOL     OW34930   0.703   1.146  14.886  0.0772 -0.1881  0.2569
 7824SOL    HW134931   0.642   1.077  14.862 -0.7831  1.0309 -1.0658
 7824SOL    HW234932   0.733   1.125  14.974  1.8471 -3.2057 -1.0764
 7825SOL     OW34933   0.501   3.410   8.857  0.5721 -0.6548 -0.2514
 7825SOL    HW134934   0.406   3.401   8.866  0.6120 -1.0665 -0.2618
 7825SOL    HW234935   0.536   3.322   8.841  0.0176 -1.0615  0.7374
 7826SOL     OW34936   2.247   0.360  14.127  0.0620 -0.2456  0.5402
 7826SOL    HW134937   2.245   0.265  14.140 -1.1207 -0.4004 -0.8153
 7826SOL    HW234938   2.290   0.373  14.043  1.2936  0.6700  1.3045
 7827SOL     OW34939   1.320   1.939   0.043  0.4679  0.5147 -0.6208
 7827SOL    HW134940   1.325   2.008   0.108 -1.8503 -1.8022  2.0508
 7827SOL    HW234941   1.278   1.992  17.667 -1.0265 -0.5486 -0.5378
 7828SOL     OW34942   3.618   4.103  13.633  0.2334 -0.2531 -0.2667
 7828SOL    HW134943   3.606   4.091  13.539 -0.6195  1.8499 -0.4261
 7828SOL    HW234944   3.711   4.126  13.631  0.6765 -1.9940  0.3786
 7829SOL     OW34945   3.689   2.565   4.064 -0.3675  0.3251 -0.1622
 7829SOL    HW134946   3.644   2.631   4.117 -1.6343  0.0927 -0.9667
 7829SOL    HW234947   3.647   2.488   4.103 -1.1297  0.3126 -0.9981
 7830SOL     OW34948   1.384   1.905  15.706  0.2068 -0.1058  0.6755
 7830SOL    HW134949   1.310   1.911  15.646 -0.0762 -1.0504  0.9279
 7830SOL    HW234950   1.460   1.896  15.648 -0.5059 -0.7628 -0.1570
 7831SOL     OW34951   3.315   4.614   8.197 -0.8336  0.3140 -0.3060
 7831SOL    HW134952   3.329   4.655   8.283  0.9582 -1.0815  0.0852
 7831SOL    HW234953   3.393   4.648   8.152 -0.9957 -0.2114 -0.9776
 7832SOL     OW34954   2.330   3.633   5.772 -0.0423  0.0202  0.4257
 7832SOL    HW134955   2.419   3.637   5.806  0.2273  2.2119 -0.5273
 7832SOL    HW234956   2.316   3.543   5.742 -2.1356  0.0586  1.2769
 7833SOL     OW34957   3.166   1.886  15.588  0.3137 -0.2668 -0.4743
 7833SOL    HW134958   3.157   1.887  15.683  0.5229  0.8974 -0.4673
 7833SOL    HW234959   3.095   1.944  15.560 -0.6380 -1.0868  0.2419
 7834SOL     OW34960   1.440   2.282   5.077  0.0866 -0.4920 -0.3023
 7834SOL    HW134961   1.514   2.280   5.017 -0.0595 -0.4524 -0.4828
 7834SOL    HW234962   1.369   2.286   5.013 -0.7422  1.3862  0.7626
 7835SOL     OW34963   3.558   2.163   9.301  0.7495  0.2356  0.2758
 7835SOL    HW134964   3.540   2.187   9.392  0.7705  1.9197 -0.1646
 7835SOL    HW234965   3.533   2.071   9.292  0.8551  0.1226  1.1237
 7836SOL     OW34966   2.544   2.852   8.872 -0.3342  0.9903 -0.2745
 7836SOL    HW134967   2.484   2.785   8.839 -1.0533  1.4877  0.0229
 7836SOL    HW234968   2.608   2.862   8.802  0.7157 -1.1927  0.3679
 7837SOL     OW34969   3.572   2.217   4.338 -0.2960  0.0123  0.0970
 7837SOL    HW134970   3.579   2.133   4.383 -1.4820  1.6017  3.2398
 7837SOL    HW234971   3.479   2.235   4.343 -0.5149 -0.9296 -0.6373
 7838SOL     OW34972   2.020   2.839   8.165 -0.6875 -0.6423  0.1465
 7838SOL    HW134973   2.015   2.808   8.255  0.6525 -1.1674  0.0396
 7838SOL    HW234974   2.108   2.877   8.161 -0.1733 -1.9071 -0.6822
 7839SOL     OW34975   1.900   3.042   3.101  0.6341  0.4794  0.7646
 7839SOL    HW134976   1.825   3.095   3.073  1.3244  1.4354  0.6985
 7839SOL    HW234977   1.868   3.019   3.188 -0.5744 -2.0656 -0.3608
 7840SOL     OW34978   2.129   2.927  16.342 -0.3772  0.0891  0.1422
 7840SOL    HW134979   2.163   2.910  16.430  3.2062 -0.5389 -1.3403
 7840SOL    HW234980   2.205   2.962  16.296  0.9541  0.6098  2.7439
 7841SOL     OW34981   3.219   3.519  15.544 -0.6193  0.0253 -1.0433
 7841SOL    HW134982   3.261   3.449  15.593 -2.1309  0.3402  0.6996
 7841SOL    HW234983   3.132   3.509  15.584 -0.7153 -1.4396 -1.6249
 7842SOL     OW34984   0.524   4.585   5.743 -0.5543 -0.2448  0.2591
 7842SOL    HW134985   0.598   4.601   5.686 -2.2410  1.0701 -1.5467
 7842SOL    HW234986   0.503   4.673   5.773 -0.4455 -0.2699  0.4078
 7843SOL     OW34987   1.163   4.654   7.480  0.4761  0.1213  0.7641
 7843SOL    HW134988   1.241   4.705   7.459  0.2385  0.5755  0.9956
 7843SOL    HW234989   1.198   4.606   7.554 -1.4336 -1.4414  0.6667
 7844SOL     OW34990   0.991   3.482   8.153  0.3627 -0.3051 -0.8025
 7844SOL    HW134991   0.980   3.577   8.162 -0.2479 -0.3633 -0.9222
 7844SOL    HW234992   1.015   3.492   8.061 -1.2758  3.0701 -0.8713
 7845SOL     OW34993   1.358   3.594   4.730  0.2829  0.3408 -0.2237
 7845SOL    HW134994   1.357   3.499   4.715 -3.0552  0.1358  1.4406
 7845SOL    HW234995   1.449   3.619   4.749  0.4319  0.6172 -1.2586
 7846SOL     OW34996   3.716   1.261   6.138  0.0921 -0.0612  0.1649
 7846SOL    HW134997   3.650   1.298   6.196  0.0772 -2.4591  1.7129
 7846SOL    HW234998   3.703   1.167   6.156  0.8235 -0.4262 -1.2521
 7847SOL     OW34999   0.361   4.710   2.274  0.3530 -0.4208  0.2348
 7847SOL    HW135000   0.297   4.643   2.250 -1.3563  1.4366 -0.4274
 7847SOL    HW235001   0.312   0.063   2.242  0.7393 -0.9766 -1.6754
 7848SOL     OW35002   2.778   4.044   1.923 -1.0613  0.1169  1.0796
 7848SOL    HW135003   2.795   3.950   1.919 -1.9180  0.1189 -2.0861
 7848SOL    HW235004   2.782   4.057   2.018  0.1120 -2.3627  1.3818
 7849SOL     OW35005   0.612   1.335   6.814 -0.3005 -0.5181 -0.0103
 7849SOL    HW135006   0.688   1.277   6.819  0.2841  0.1841 -0.7459
 7849SOL    HW235007   0.642   1.405   6.873 -0.6962 -0.0111 -0.4074
 7850SOL     OW35008   3.644   4.257   5.482  0.4463 -0.0957  0.0809
 7850SOL    HW135009   3.561   4.306   5.486  1.2254  1.2084  0.2895
 7850SOL    HW235010   3.610   4.170   5.461  1.8975 -0.9169  1.2206
 7851SOL     OW35011   2.185   1.295  12.598  0.5654 -0.1900 -0.5286
 7851SOL    HW135012   2.190   1.200  12.606  0.0893 -0.1508  0.2271
 7851SOL    HW235013   2.091   1.305  12.588  0.3923 -0.8363  0.4663
 7852SOL     OW35014   1.211   4.097   8.213 -0.0513 -0.2814 -0.1207
 7852SOL    HW135015   1.304   4.100   8.238 -0.1541  2.3556 -0.0387
 7852SOL    HW235016   1.178   4.030   8.273 -0.9107  0.3474  0.0965
 7853SOL     OW35017   1.888   0.308  15.131 -0.0269 -0.0711  0.3394
 7853SOL    HW135018   1.948   0.237  15.152 -0.6260 -0.5278  0.5217
 7853SOL    HW235019   1.890   0.317  15.035 -2.5550 -0.2573  0.2614
 7854SOL     OW35020   0.600   1.316   5.018 -0.2999 -0.1102 -0.3963
 7854SOL    HW135021   0.521   1.288   5.065 -0.9837 -0.8933 -2.0135
 7854SOL    HW235022   0.665   1.308   5.088 -3.3124 -0.0714  2.4140
 7855SOL     OW35023   3.281   4.626   1.629 -0.3545  0.7633  0.2166
 7855SOL    HW135024   3.226   4.562   1.675  0.2888  0.2744  0.3059
 7855SOL    HW235025   3.361   4.639   1.679  1.6868  0.0138 -2.8643
 7856SOL     OW35026   0.889   0.276   8.477 -0.1316 -0.3846 -0.5818
 7856SOL    HW135027   0.932   0.230   8.405 -1.0661 -1.6475 -0.3476
 7856SOL    HW235028   0.836   0.207   8.518 -0.9275  0.1958 -0.6339
 7857SOL     OW35029   0.128   0.691   6.291  0.3865 -0.4228 -0.0163
 7857SOL    HW135030   0.035   0.671   6.301 -0.1844  1.5757 -1.3677
 7857SOL    HW235031   0.161   0.627   6.354 -1.0023 -0.2108  0.9271
 7858SOL     OW35032   2.888   3.602   3.644 -0.4690 -0.6029  0.1089
 7858SOL    HW135033   2.824   3.570   3.579  0.8909 -2.3113 -0.3887
 7858SOL    HW235034   2.824   3.656   3.690 -0.2597  0.2409 -0.5991
 7859SOL     OW35035   3.359   3.988   2.737  0.0606 -0.2089 -0.1558
 7859SOL    HW135036   3.266   4.011   2.741  0.3097  0.5126  1.5829
 7859SOL    HW235037   3.397   4.065   2.695  0.2410  0.1463  0.6596
 7860SOL     OW35038   4.359   0.595   3.872 -0.7663 -0.3629  0.7048
 7860SOL    HW135039   4.345   0.593   3.778 -1.2852  0.6492  0.7615
 7860SOL    HW235040   4.454   0.581   3.867 -0.6878  0.1560  0.7371
 7861SOL     OW35041   1.805   3.615   8.841 -0.2936  0.0440  0.3033
 7861SOL    HW135042   1.779   3.701   8.872 -0.8347 -0.5189  1.4078
 7861SOL    HW235043   1.736   3.564   8.883 -0.4042  0.2674  0.3909
 7862SOL     OW35044   2.038   2.517   4.527 -0.3802 -0.1989 -0.7103
 7862SOL    HW135045   2.003   2.537   4.614  3.1802 -0.8929  0.8567
 7862SOL    HW235046   1.953   2.491   4.492 -0.3567 -1.0608 -0.1025
 7863SOL     OW35047   1.205   3.190   4.408 -0.5524  0.3223 -0.3029
 7863SOL    HW135048   1.228   3.122   4.345  1.4525 -0.2414  1.0453
 7863SOL    HW235049   1.118   3.160   4.432 -1.2601  1.5088 -1.3829
 7864SOL     OW35050   1.745   0.636   6.198  0.2693 -0.5621 -0.5152
 7864SOL    HW135051   1.751   0.570   6.267  0.2206  0.2100  0.2244
 7864SOL    HW235052   1.665   0.683   6.221 -0.9671 -1.4661 -2.9206
 7865SOL     OW35053   0.201   3.826   8.833  0.4264 -0.4624  0.0368
 7865SOL    HW135054   0.195   3.872   8.917 -3.1327 -1.3816  0.2977
 7865SOL    HW235055   0.290   3.841   8.802  1.0659 -2.2571  0.9558
 7866SOL     OW35056   3.602   3.005   4.735  0.3222  0.0730  0.1051
 7866SOL    HW135057   3.532   3.023   4.798 -1.3948 -0.6031 -1.6139
 7866SOL    HW235058   3.671   3.015   4.801 -0.8588  0.5470  1.2615
 7867SOL     OW35059   1.333   3.267   3.374  0.0043 -0.2121 -0.4267
 7867SOL    HW135060   1.383   3.191   3.403 -0.5264 -1.0515 -1.7250
 7867SOL    HW235061   1.301   3.319   3.448 -0.2640  0.5899 -1.0978
 7868SOL     OW35062   1.165   2.138   9.288  0.0945 -0.3081 -0.3604
 7868SOL    HW135063   1.236   2.193   9.255 -1.7474  1.7731 -0.8691
 7868SOL    HW235064   1.161   2.076   9.215 -2.7100 -0.3245 -0.1832
 7869SOL     OW35065   1.351   3.501   3.585 -0.2414 -0.0355  0.5093
 7869SOL    HW135066   1.350   3.594   3.562  1.6106 -0.0597  0.3461
 7869SOL    HW235067   1.442   3.473   3.583 -0.0148  0.8245 -0.9312
 7870SOL     OW35068   2.195   1.815   9.108 -0.0732  0.3692  0.0820
 7870SOL    HW135069   2.163   1.809   9.018 -1.0876 -0.5148  0.4963
 7870SOL    HW235070   2.124   1.855   9.158  0.4775  2.0030 -0.4484
 7871SOL     OW35071   0.623   3.942   3.666 -0.4692 -0.3489  0.4126
 7871SOL    HW135072   0.637   3.851   3.692 -0.4597 -0.7982 -1.1661
 7871SOL    HW235073   0.702   3.983   3.701 -1.4719  0.2403  1.9676
 7872SOL     OW35074   2.860   1.350   1.993 -0.0643 -0.0161 -0.3245
 7872SOL    HW135075   2.765   1.351   2.005 -0.0085 -1.7067  0.2662
 7872SOL    HW235076   2.890   1.398   2.070 -0.2100 -1.8771  0.8765
 7873SOL     OW35077   1.666   2.309   2.198 -0.2648 -0.0902  0.0347
 7873SOL    HW135078   1.612   2.264   2.263  0.0582  1.9337  1.6936
 7873SOL    HW235079   1.597   2.357   2.152 -2.5375 -1.8324  1.5819
 7874SOL     OW35080   2.730   2.749   6.763 -0.0940  0.2586 -0.2668
 7874SOL    HW135081   2.715   2.706   6.678 -0.9653 -0.9574  0.5086
 7874SOL    HW235082   2.641   2.772   6.787  0.1269  0.2085  0.5753
 7875SOL     OW35083   2.558   3.993  10.165  0.7009 -0.0925  0.1144
 7875SOL    HW135084   2.596   3.916  10.208  0.1506  0.2353  1.1961
 7875SOL    HW235085   2.535   4.040  10.245  0.8895  0.0510  0.0839
 7876SOL     OW35086   2.248   2.670   4.717  0.4450 -0.1836 -0.1028
 7876SOL    HW135087   2.165   2.645   4.677 -0.3921  0.9415  0.9150
 7876SOL    HW235088   2.216   2.752   4.755 -1.3559 -0.6079 -0.6921
 7877SOL     OW35089   3.638   1.325   3.302 -0.1887 -0.4373 -0.1862
 7877SOL    HW135090   3.545   1.303   3.311  0.3377 -1.4514  2.8508
 7877SOL    HW235091   3.683   1.250   3.340 -0.1224 -0.2112  0.1838
 7878SOL     OW35092   1.839   3.999   5.213  0.4049  0.0075  0.0902
 7878SOL    HW135093   1.926   4.037   5.206 -0.2119  1.3538 -0.2566
 7878SOL    HW235094   1.822   4.016   5.305 -1.8538  1.2012 -0.5463
 7879SOL     OW35095   3.506   3.334   2.674 -0.2129  0.4534  0.5809
 7879SOL    HW135096   3.412   3.344   2.687 -0.3060  1.1031 -0.6559
 7879SOL    HW235097   3.530   3.426   2.664 -0.0301  0.4734  1.1837
 7880SOL     OW35098   4.374   2.713   8.193  0.2053  0.0146 -0.2885
 7880SOL    HW135099   4.312   2.642   8.176 -0.9985  0.8132  0.8043
 7880SOL    HW235100   4.421   2.729   8.111 -1.2865  1.2853 -0.8875
 7881SOL     OW35101   0.987   0.305  12.401 -0.0150  0.1662  0.2329
 7881SOL    HW135102   0.894   0.319  12.384  0.7464  1.2670 -3.0134
 7881SOL    HW235103   1.001   0.380  12.459  0.4528  0.6420 -0.4887
 7882SOL     OW35104   1.697   3.583   7.860 -0.1489 -0.0268  0.4479
 7882SOL    HW135105   1.659   3.556   7.944  2.1188  1.7920  2.0528
 7882SOL    HW235106   1.699   3.503   7.808  0.8536 -0.6570  1.4445
 7883SOL     OW35107   0.242   3.759   2.691 -0.6654 -0.5492 -0.0761
 7883SOL    HW135108   0.169   3.752   2.630  1.2735 -1.5583 -2.2641
 7883SOL    HW235109   0.293   3.682   2.668  0.5733  0.1291  0.3539
 7884SOL     OW35110   1.642   2.162   4.216  0.3019 -0.5054  0.5015
 7884SOL    HW135111   1.611   2.086   4.169  0.0948  0.2145 -0.5222
 7884SOL    HW235112   1.562   2.214   4.222  0.4428 -0.2434  0.1542
 7885SOL     OW35113   1.691   1.181   1.706 -0.0344  0.2115  0.3296
 7885SOL    HW135114   1.659   1.091   1.692 -0.9441  0.6113 -0.1438
 7885SOL    HW235115   1.738   1.162   1.787  1.4082  1.5943 -0.1868
 7886SOL     OW35116   3.436   2.891  12.190 -0.4299 -0.2134  0.2482
 7886SOL    HW135117   3.421   2.983  12.171 -1.5428 -0.7486 -1.4695
 7886SOL    HW235118   3.347   2.861  12.209 -0.3076  0.7734  2.3601
 7887SOL     OW35119   2.204   3.244  12.503  0.2595 -0.0104  0.1726
 7887SOL    HW135120   2.249   3.214  12.424 -2.1919 -1.2395 -0.7547
 7887SOL    HW235121   2.270   3.249  12.571  1.2270  1.0367 -0.8364
 7888SOL     OW35122   1.052   1.647   4.402 -0.5459 -0.6546  0.3183
 7888SOL    HW135123   0.999   1.575   4.369 -1.7544  1.1342 -1.6798
 7888SOL    HW235124   1.080   1.620   4.489  1.3416  1.7008  0.4460
 7889SOL     OW35125   0.703   2.647   5.852 -0.1739  0.4938  0.1510
 7889SOL    HW135126   0.756   2.572   5.878 -0.5970 -0.4590 -1.7360
 7889SOL    HW235127   0.614   2.612   5.847  0.7333 -2.2093  3.3344
 7890SOL     OW35128   4.345   2.018   2.995 -0.6752  0.3104  0.0922
 7890SOL    HW135129   4.326   2.111   2.979 -2.6297 -0.1293 -0.1434
 7890SOL    HW235130   4.364   2.031   3.088 -0.0658 -0.0157  0.0069
 7891SOL     OW35131   2.172   0.124  15.180  0.3024  0.0015 -0.8438
 7891SOL    HW135132   2.146   0.080  15.262  1.5527 -1.0578 -1.0118
 7891SOL    HW235133   2.186   0.046  15.126  3.1931 -0.2358  0.2670
 7892SOL     OW35134   0.416   2.009   1.844 -0.0760 -0.1987  0.2247
 7892SOL    HW135135   0.422   1.995   1.939 -0.2328  1.7498  0.5160
 7892SOL    HW235136   0.452   1.928   1.809 -2.5166 -0.3335 -2.0058
 7893SOL     OW35137   1.894   3.491   3.665  0.3298 -0.0208 -0.4876
 7893SOL    HW135138   1.955   3.552   3.623 -0.3969  0.0739 -1.4240
 7893SOL    HW235139   1.959   3.450   3.721 -1.2128 -0.9442  0.6269
 7894SOL     OW35140   3.643   2.457   6.695 -0.2782  0.2002  0.0753
 7894SOL    HW135141   3.736   2.459   6.718 -0.2765  0.7626  0.0080
 7894SOL    HW235142   3.605   2.494   6.775  0.8251 -0.6290  0.9883
 7895SOL     OW35143   2.564   2.427   5.009  0.4294 -0.1159  0.6785
 7895SOL    HW135144   2.517   2.360   5.059  0.2250  0.9666  1.9599
 7895SOL    HW235145   2.595   2.482   5.081 -2.3249  0.0754  1.7265
 7896SOL     OW35146   4.345   0.218  15.157 -0.5006  0.8465  0.6690
 7896SOL    HW135147   4.253   0.219  15.183 -0.9853  0.3716 -1.0664
 7896SOL    HW235148   4.388   0.144  15.200  1.6124  2.3352  1.1499
 7897SOL     OW35149   1.649   4.648  13.054 -0.2049 -0.2488 -0.1168
 7897SOL    HW135150   1.704   4.598  13.115  0.6121 -0.0382 -0.6830
 7897SOL    HW235151   1.650   4.594  12.975 -1.3144  1.7163 -1.4732
 7898SOL     OW35152   4.358   3.633   2.700  0.2260  0.3516  0.1159
 7898SOL    HW135153   4.368   3.663   2.609 -2.8180 -0.1220 -0.3495
 7898SOL    HW235154   4.415   3.691   2.751 -3.2364  1.1492  3.0352
 7899SOL     OW35155   3.797   4.160   7.887 -0.1681  0.5609 -0.0370
 7899SOL    HW135156   3.865   4.096   7.908 -0.1078  1.0874  1.3961
 7899SOL    HW235157   3.847   4.234   7.851  1.3977 -0.8975 -0.8606
 7900SOL     OW35158   1.347   1.409   9.259 -0.1655  0.5726 -0.6200
 7900SOL    HW135159   1.301   1.326   9.249 -1.0851  0.9820  0.1797
 7900SOL    HW235160   1.420   1.394   9.198 -0.9373 -2.8598 -0.6998
 7901SOL     OW35161   1.653   1.755   2.398 -0.1703 -0.2493  0.2788
 7901SOL    HW135162   1.583   1.794   2.345  0.6848  0.0682 -0.6008
 7901SOL    HW235163   1.607   1.672   2.414 -1.1817 -0.1619 -2.0709
 7902SOL     OW35164   1.766   3.919   7.563 -0.1953  0.3541 -0.2680
 7902SOL    HW135165   1.858   3.890   7.556  0.1617  1.1592  1.1153
 7902SOL    HW235166   1.706   3.845   7.572 -0.1457  0.6395  2.3253
 7903SOL     OW35167   2.724   2.460   5.588 -0.0028 -0.0992 -0.1370
 7903SOL    HW135168   2.725   2.544   5.540 -1.0603 -1.4984 -2.6371
 7903SOL    HW235169   2.732   2.488   5.679  1.3852 -0.8680 -0.0321
 7904SOL     OW35170   2.503   2.508   3.011  0.1489 -0.4448  0.0209
 7904SOL    HW135171   2.417   2.529   2.974  0.4567  0.0808 -0.3854
 7904SOL    HW235172   2.495   2.506   3.107 -2.2119 -1.1074 -0.1770
 7905SOL     OW35173   4.355   1.446  13.889  0.3828 -0.4100 -0.6101
 7905SOL    HW135174   4.268   1.408  13.901  0.2796 -0.1284 -0.4740
 7905SOL    HW235175   4.328   1.521  13.837  1.6467  0.0233 -0.6588
 7906SOL     OW35176   2.997   3.742   0.926 -0.2254 -0.2549 -0.1530
 7906SOL    HW135177   3.090   3.761   0.931 -0.1877  0.0806 -2.0271
 7906SOL    HW235178   3.002   3.720   0.833 -1.6620 -2.1572  0.2123
 7907SOL     OW35179   0.335   1.792  12.986  0.3103  0.1524 -0.2896
 7907SOL    HW135180   0.244   1.802  12.958  0.2388 -0.9023 -0.4415
 7907SOL    HW235181   0.325   1.791  13.081  0.3400  3.1482 -0.2712
 7908SOL     OW35182   2.523   0.050  14.604 -0.8674 -0.4854 -0.1497
 7908SOL    HW135183   2.480   0.130  14.635  0.7494  1.4535 -2.9165
 7908SOL    HW235184   2.546   0.081  14.516 -2.2158  1.0641  0.0302
 7909SOL     OW35185   4.047   0.701  12.927  0.2146  0.5346 -0.1940
 7909SOL    HW135186   4.112   0.771  12.934 -0.9576  1.6576 -0.5797
 7909SOL    HW235187   4.052   0.693  12.832 -1.5488 -0.3478 -0.2061
 7910SOL     OW35188   2.140   0.362  13.635  0.7031 -0.3168 -0.1468
 7910SOL    HW135189   2.198   0.438  13.640  2.1092 -1.5297  1.6500
 7910SOL    HW235190   2.207   0.294  13.639  1.3125  0.1996 -1.5196
 7911SOL     OW35191   1.604   2.373   2.718  0.1480  0.6878  0.1287
 7911SOL    HW135192   1.663   2.404   2.650  0.0618 -3.7371 -1.9990
 7911SOL    HW235193   1.558   2.453   2.743 -1.4123 -0.2499  0.2333
 7912SOL     OW35194   4.248   0.276  14.445  0.1124  0.6147  0.0113
 7912SOL    HW135195   4.181   0.215  14.476  0.7155  0.2519  0.6056
 7912SOL    HW235196   4.304   0.285  14.522 -0.0599 -3.2004  0.6146
 7913SOL     OW35197   0.712   0.111  11.907 -0.0844 -0.4428 -0.3040
 7913SOL    HW135198   0.725   0.182  11.970 -1.3140  0.3717 -0.9790
 7913SOL    HW235199   0.654   0.144  11.839  1.5544  0.9387 -1.0214
 7914SOL     OW35200   3.418   1.738  15.636 -0.8042  0.9579 -0.4091
 7914SOL    HW135201   3.376   1.809  15.588 -1.1651  3.0144  2.9939
 7914SOL    HW235202   3.470   1.788  15.700 -3.2125  0.1867  2.1542
 7915SOL     OW35203   1.227   2.920   3.619 -0.4502 -0.6383  0.0850
 7915SOL    HW135204   1.167   2.944   3.548 -1.2086 -1.2795  0.5221
 7915SOL    HW235205   1.252   2.831   3.595  1.5463 -0.3000  0.9012
 7916SOL     OW35206   2.069   4.604   9.515  0.3307 -0.3271  0.5125
 7916SOL    HW135207   2.077   4.533   9.579  1.3356 -1.7397 -1.1734
 7916SOL    HW235208   2.013   4.667   9.561  0.1616  0.1576 -0.3626
 7917SOL     OW35209   1.590   4.472   9.456  0.3417 -0.3681 -0.1638
 7917SOL    HW135210   1.675   4.454   9.416  0.9651  0.7043  0.6827
 7917SOL    HW235211   1.585   4.567   9.468 -2.0130 -0.4180 -0.6103
 7918SOL     OW35212   2.599   0.732   1.786  0.0661 -0.1771 -0.1679
 7918SOL    HW135213   2.691   0.757   1.801 -0.2540 -1.2839  3.6670
 7918SOL    HW235214   2.600   0.643   1.823  1.1006  0.3016  0.9549
 7919SOL     OW35215   0.686   3.779   3.296  0.5679  0.4392 -0.1003
 7919SOL    HW135216   0.654   3.869   3.307  0.7247 -0.1668  5.0363
 7919SOL    HW235217   0.625   3.735   3.237  2.3012 -0.4570 -1.2374
 7920SOL     OW35218   3.482   3.832  15.193 -0.0350  0.0857  0.0942
 7920SOL    HW135219   3.414   3.790  15.245 -1.0537 -1.5205 -2.4980
 7920SOL    HW235220   3.543   3.855  15.263  1.1947 -3.2591  0.1381
 7921SOL     OW35221   4.305   2.215  13.266 -0.0590  0.3123  0.0716
 7921SOL    HW135222   4.333   2.298  13.227  1.9120  0.2635  1.3502
 7921SOL    HW235223   4.220   2.241  13.300  0.6162  1.3630  0.9613
 7922SOL     OW35224   1.325   4.445   5.739 -0.4219 -0.0385  0.5025
 7922SOL    HW135225   1.419   4.452   5.722 -0.5941 -2.0551 -1.3542
 7922SOL    HW235226   1.318   4.500   5.816 -1.3502 -0.8059  0.9749
 7923SOL     OW35227   4.504   0.381   8.042  0.2443  0.6038  0.7654
 7923SOL    HW135228   4.427   0.437   8.034  0.4644  1.1150  2.2982
 7923SOL    HW235229   4.463   0.294   8.045  0.1711  0.5485 -1.8234
 7924SOL     OW35230   0.639   2.419   4.753 -0.3764 -0.4656 -0.2266
 7924SOL    HW135231   0.702   2.372   4.807 -0.9315 -2.1023 -1.0102
 7924SOL    HW235232   0.679   2.505   4.764 -1.3643 -0.0345 -0.0210
 7925SOL     OW35233   2.255   0.762  15.045 -0.3422  0.5099  0.4598
 7925SOL    HW135234   2.342   0.722  15.051  0.5699  2.1657 -2.0765
 7925SOL    HW235235   2.219   0.737  15.131  0.4585 -2.2468  0.0016
 7926SOL     OW35236   4.608   3.837   7.936 -0.1716 -0.4304  0.7732
 7926SOL    HW135237   4.629   3.744   7.923 -3.3874 -1.3997  2.4858
 7926SOL    HW235238   4.660   3.848   8.016  1.3115  1.2428 -0.4117
 7927SOL     OW35239   1.786   4.162   2.062  0.3390  0.2901  0.2270
 7927SOL    HW135240   1.879   4.178   2.046  0.5678  0.6705  1.9926
 7927SOL    HW235241   1.757   4.118   1.982  1.8767  0.9807 -0.7210
 7928SOL     OW35242   0.115   3.458   4.086  0.0481 -0.7272 -0.0545
 7928SOL    HW135243   0.063   3.491   4.012 -1.2115  0.9616  1.5840
 7928SOL    HW235244   0.062   3.383   4.112 -1.3784  0.2710 -0.0340
 7929SOL     OW35245   0.564   4.002  14.987 -0.1261  0.2574  0.1976
 7929SOL    HW135246   0.580   4.086  15.030  0.3242  1.6327 -2.7230
 7929SOL    HW235247   0.509   4.034  14.915 -1.9445  0.6329  1.7378
 7930SOL     OW35248   0.354   3.353   4.320  0.1046  0.5428 -0.5564
 7930SOL    HW135249   0.404   3.329   4.242  3.9610 -0.0571  2.1015
 7930SOL    HW235250   0.357   3.449   4.315 -0.8318  0.5901 -0.1994
 7931SOL     OW35251   1.036   2.169   7.368  0.9220  0.3837 -0.6902
 7931SOL    HW135252   0.995   2.128   7.444  0.4203  2.6329  0.2380
 7931SOL    HW235253   1.090   2.236   7.409 -2.5843  2.1433  1.0098
 7932SOL     OW35254   1.449   0.731   3.884 -0.0326 -0.2494  0.3628
 7932SOL    HW135255   1.530   0.760   3.927  0.7913 -0.1327 -1.2694
 7932SOL    HW235256   1.432   0.651   3.935 -0.8438 -0.6573 -0.5700
 7933SOL     OW35257   0.571   3.209   4.836  0.4235 -0.3639 -0.3098
 7933SOL    HW135258   0.519   3.267   4.892  0.3062 -1.0023  0.2373
 7933SOL    HW235259   0.532   3.225   4.750  1.3316  0.1628 -0.6294
 7934SOL     OW35260   3.481   3.070   3.977  0.0766  0.7055 -0.0056
 7934SOL    HW135261   3.557   3.075   4.035  1.0723 -0.7887 -1.1873
 7934SOL    HW235262   3.519   3.099   3.894 -0.5103  3.3032  0.6220
 7935SOL     OW35263   2.548   3.244   4.051  0.4455 -0.3265  0.0017
 7935SOL    HW135264   2.583   3.229   4.139 -1.1639  0.0670  0.7003
 7935SOL    HW235265   2.553   3.160   4.005 -2.2195 -1.3579  1.6234
 7936SOL     OW35266   4.589   1.674   0.156 -0.0878 -0.0593 -0.2946
 7936SOL    HW135267   4.663   1.678   0.216 -0.5717 -0.5157  0.3341
 7936SOL    HW235268   4.512   1.716   0.195  1.0693  0.3968  1.5096
 7937SOL     OW35269   2.574   3.110  12.621  0.6339 -0.0175  0.2661
 7937SOL    HW135270   2.577   3.188  12.676  0.8637  1.9790 -2.5830
 7937SOL    HW235271   2.491   3.066  12.638  0.2286  0.9171  0.7273
 7938SOL     OW35272   0.464   1.002  13.078  0.7220 -0.3907 -0.1366
 7938SOL    HW135273   0.385   0.973  13.123  0.5448  2.1626  1.2061
 7938SOL    HW235274   0.504   0.919  13.052  2.4421 -0.0129  1.3145
 7939SOL     OW35275   3.809   4.387  14.993  0.3796  0.1561  0.1905
 7939SOL    HW135276   3.777   4.474  14.968 -0.8144  0.2863  2.2002
 7939SOL    HW235277   3.818   4.338  14.911  0.6408 -0.3306  0.5139
 7940SOL     OW35278   1.218   1.071   8.665  0.3329 -0.2338  0.4076
 7940SOL    HW135279   1.281   1.095   8.596  1.9948 -0.7769  1.7421
 7940SOL    HW235280   1.177   0.998   8.619  0.3588 -0.9575  1.5348
 7941SOL     OW35281   4.034   3.679   6.311  0.0789 -0.6978  0.0829
 7941SOL    HW135282   4.069   3.705   6.395 -2.1430  4.4759 -0.6159
 7941SOL    HW235283   4.109   3.638   6.266 -0.2311  0.0382 -1.1074
 7942SOL     OW35284   4.252   2.378   8.697 -1.0736  0.0321  0.6093
 7942SOL    HW135285   4.253   2.429   8.616  0.1975  3.1036  2.5770
 7942SOL    HW235286   4.285   2.439   8.763  1.1729 -0.5598  0.0193
 7943SOL     OW35287   3.332   3.784   7.857  0.1560  0.1951 -0.5077
 7943SOL    HW135288   3.350   3.813   7.947  1.3315  2.6187 -1.5271
 7943SOL    HW235289   3.374   3.860   7.819  1.8248  0.0893  1.1154
 7944SOL     OW35290   0.158   4.374  14.465 -0.6154  0.1864  0.5503
 7944SOL    HW135291   0.251   4.356  14.477 -1.5670 -2.6092  3.5815
 7944SOL    HW235292   0.160   4.464  14.433  2.7366 -0.1488 -0.2148
 7945SOL     OW35293   4.574   1.929   6.834 -0.3683 -0.0527 -0.8873
 7945SOL    HW135294   4.636   1.966   6.771 -0.8658  3.1988  0.5122
 7945SOL    HW235295   4.515   1.886   6.773 -1.8832 -0.8609  1.1442
 7946SOL     OW35296   3.015   0.159   5.943 -0.5843 -0.1185 -0.6266
 7946SOL    HW135297   2.934   0.145   5.993  0.0614  2.4890  1.1481
 7946SOL    HW235298   3.013   0.254   5.954  2.6675 -0.2360  0.8658
 7947SOL     OW35299   2.124   0.823  17.641  0.2289  0.3087 -0.1472
 7947SOL    HW135300   2.121   0.791   0.039  1.3969  3.9561  1.2171
 7947SOL    HW235301   2.205   0.791  17.601 -0.5002  0.9017 -2.1374
 7948SOL     OW35302   0.058   2.927   6.641  0.2258  0.0841  0.0744
 7948SOL    HW135303   0.074   2.875   6.561  0.3415  1.5143 -0.8232
 7948SOL    HW235304   0.112   2.880   6.705 -2.0540  1.4505  2.9694
 7949SOL     OW35305   2.803   1.621   3.477  0.3849 -0.0228 -0.2947
 7949SOL    HW135306   2.719   1.665   3.464  0.3765 -0.4590 -1.7617
 7949SOL    HW235307   2.817   1.634   3.571  0.8475 -0.2092 -0.3376
 7950SOL     OW35308   4.540   0.785   4.044  0.0002 -0.7425 -0.4093
 7950SOL    HW135309   4.567   0.709   3.992 -1.5301 -1.0969 -0.6680
 7950SOL    HW235310   4.579   0.854   3.990  0.2628 -1.0029 -0.5583
 7951SOL     OW35311   1.734   1.463   1.954  0.6796  0.1993  0.0143
 7951SOL    HW135312   1.747   1.523   2.028  0.1584  1.8302 -1.1958
 7951SOL    HW235313   1.815   1.414   1.955  1.0038  0.7079 -1.2488
 7952SOL     OW35314   3.397   1.883   4.909 -0.2371 -0.5808 -0.7340
 7952SOL    HW135315   3.492   1.888   4.916 -0.1269  1.0915 -3.5113
 7952SOL    HW235316   3.376   1.960   4.856  0.0372 -0.1797 -0.2547
 7953SOL     OW35317   2.387   1.928   7.232 -0.0361 -0.6567 -0.0801
 7953SOL    HW135318   2.406   1.931   7.138 -2.5332 -1.2042 -0.5938
 7953SOL    HW235319   2.410   1.838   7.252 -1.1845 -0.7591  0.8029
 7954SOL     OW35320   2.977   3.792  13.355  0.1613 -0.1710 -0.3662
 7954SOL    HW135321   2.926   3.858  13.402  0.4053  0.7462 -1.3937
 7954SOL    HW235322   2.902   3.734  13.342  2.2656 -2.8006 -0.6763
 7955SOL     OW35323   0.176   1.084   2.376  0.4072  0.2743 -0.0486
 7955SOL    HW135324   0.206   1.072   2.466 -0.5348 -0.3812  0.1910
 7955SOL    HW235325   0.131   1.169   2.378 -0.8042 -0.3046 -2.1715
 7956SOL     OW35326   1.590   4.165   6.799  0.0220  0.1979 -0.4591
 7956SOL    HW135327   1.571   4.259   6.808  1.1948  0.3845  0.1015
 7956SOL    HW235328   1.498   4.138   6.809 -0.0801  0.4414 -0.7479
 7957SOL     OW35329   2.903   3.843   9.378 -0.5422 -0.3106 -0.0784
 7957SOL    HW135330   2.957   3.770   9.347  0.5576  0.4626  0.0206
 7957SOL    HW235331   2.951   3.921   9.348 -1.3056 -0.3137 -1.3296
 7958SOL     OW35332   1.253   1.401   7.865 -0.1929 -0.3531 -0.4514
 7958SOL    HW135333   1.174   1.437   7.904  1.2792  0.8162  1.4593
 7958SOL    HW235334   1.272   1.472   7.804  0.1995  1.5271  1.8697
 7959SOL     OW35335   3.392   3.311   0.993  0.2902 -0.7556  0.1787
 7959SOL    HW135336   3.431   3.223   0.988  0.0831 -0.6882 -2.8397
 7959SOL    HW235337   3.303   3.279   1.006 -0.0004  1.0508  2.4650
 7960SOL     OW35338   1.500   2.170   9.049 -0.2050  0.1719  0.3466
 7960SOL    HW135339   1.538   2.243   9.098 -1.8801  2.0015 -1.0979
 7960SOL    HW235340   1.479   2.114   9.124 -2.2917  1.5999  0.8239
 7961SOL     OW35341   4.584   2.787   6.133  0.2034 -0.7686 -0.3443
 7961SOL    HW135342   4.605   2.728   6.061 -0.3452  1.0438 -1.9824
 7961SOL    HW235343   4.501   2.746   6.159 -0.8307 -0.1638 -2.6983
 7962SOL     OW35344   4.297   3.447   5.556  0.2015  0.0829 -0.1307
 7962SOL    HW135345   4.275   3.533   5.520 -0.1547  0.2580  0.5020
 7962SOL    HW235346   4.242   3.442   5.634  2.2519  0.4891  1.3451
 7963SOL     OW35347   0.601   2.845   3.183 -0.3628 -0.0642 -0.0481
 7963SOL    HW135348   0.682   2.862   3.135 -0.1531 -1.4118 -0.1640
 7963SOL    HW235349   0.578   2.755   3.160  1.1016 -0.7453  1.1881
 7964SOL     OW35350   3.298   4.088   4.764 -0.3823 -0.2905 -0.0820
 7964SOL    HW135351   3.254   4.171   4.749  1.3577  0.6602 -0.0043
 7964SOL    HW235352   3.293   4.055   4.674  0.2973 -1.2946  0.2449
 7965SOL     OW35353   2.883   0.180   1.563 -0.0394  0.9673  0.0798
 7965SOL    HW135354   2.842   0.264   1.546 -0.1264  0.7654 -0.7239
 7965SOL    HW235355   2.963   0.210   1.608 -0.9966 -0.2662  2.6216
 7966SOL     OW35356   2.455   2.649   1.850  0.2974  0.0619  0.1650
 7966SOL    HW135357   2.413   2.712   1.791 -0.7041 -0.2984  0.4975
 7966SOL    HW235358   2.548   2.669   1.844  0.2802  0.4734  1.3242
 7967SOL     OW35359   2.116   0.348   0.319  0.4247 -0.4247 -0.2743
 7967SOL    HW135360   2.088   0.258   0.305  0.1067 -0.8899  3.3841
 7967SOL    HW235361   2.208   0.345   0.293  0.0770  1.4997 -1.7184
 7968SOL     OW35362   0.536   1.767   7.638 -0.1099 -0.2328  0.1665
 7968SOL    HW135363   0.514   1.850   7.680  0.5911  0.7014 -1.3371
 7968SOL    HW235364   0.578   1.720   7.710 -0.4313  2.2425  1.9819
 7969SOL     OW35365   0.184   3.016   9.230 -0.2000 -0.2341  0.5596
 7969SOL    HW135366   0.211   3.068   9.306 -0.6682  0.7556  0.0494
 7969SOL    HW235367   0.218   2.931   9.258 -2.0445 -0.9919  0.4910
 7970SOL     OW35368   2.254   0.026   2.467  0.0837 -0.8470  0.4367
 7970SOL    HW135369   2.180   0.036   2.408  0.5718  0.7134  0.1055
 7970SOL    HW235370   2.306   4.686   2.417  0.7869  1.3617 -1.5557
 7971SOL     OW35371   1.155   3.104  11.876 -0.5700  0.1077 -0.3592
 7971SOL    HW135372   1.197   3.151  11.948 -0.8567  1.2470 -0.9433
 7971SOL    HW235373   1.173   3.017  11.913 -2.7072 -1.1935 -2.4292
 7972SOL     OW35374   2.693   0.745   6.280  0.2273  0.2093  0.3502
 7972SOL    HW135375   2.652   0.704   6.204 -4.0033  1.0211  2.1998
 7972SOL    HW235376   2.736   0.821   6.240 -0.5534  0.1995 -0.4989
 7973SOL     OW35377   2.316   2.998   6.889 -0.3377 -0.0904 -0.2262
 7973SOL    HW135378   2.249   2.939   6.923 -0.1971  0.7102  1.4539
 7973SOL    HW235379   2.266   3.079   6.883 -1.1519 -0.5268  0.6662
 7974SOL     OW35380   3.582   2.423   3.826 -0.4205 -0.7265  0.0277
 7974SOL    HW135381   3.661   2.469   3.854 -1.3554 -0.8661  2.9739
 7974SOL    HW235382   3.616   2.347   3.781 -0.8086 -0.6560 -0.3814
 7975SOL     OW35383   0.375   3.078   6.748 -0.2767  0.4596 -0.2877
 7975SOL    HW135384   0.420   3.136   6.810 -0.9058  0.8728 -0.2233
 7975SOL    HW235385   0.341   3.145   6.689  0.9966 -1.1734 -2.8829
 7976SOL     OW35386   3.290   0.865  13.069  0.4536 -0.5113  0.1844
 7976SOL    HW135387   3.264   0.956  13.078  2.4659 -0.2511  3.5593
 7976SOL    HW235388   3.364   0.859  13.129  2.1722 -0.5911 -1.9439
 7977SOL     OW35389   3.188   1.623   2.540 -0.0241  0.4077 -0.2399
 7977SOL    HW135390   3.262   1.570   2.511 -0.0443  0.0654  0.3173
 7977SOL    HW235391   3.166   1.565   2.614 -1.8613 -0.6019 -1.5875
 7978SOL     OW35392   0.426   3.447   3.682  0.0869 -0.9971  0.3240
 7978SOL    HW135393   0.353   3.404   3.638  0.2469 -0.6351 -0.2891
 7978SOL    HW235394   0.389   3.460   3.770 -0.2250  0.7171 -0.0539
 7979SOL     OW35395   1.515   1.178  11.117 -0.2106 -0.4395 -0.9090
 7979SOL    HW135396   1.491   1.121  11.044  0.1248  0.6239 -1.8509
 7979SOL    HW235397   1.454   1.140  11.181  0.5309  0.4590  0.3352
 7980SOL     OW35398   4.505   2.404  11.078  0.5946  0.3899  0.2159
 7980SOL    HW135399   4.550   2.489  11.072  2.2236 -0.4162  0.8638
 7980SOL    HW235400   4.448   2.413  11.002 -0.3714 -0.1334  0.8868
 7981SOL     OW35401   4.427   0.356   9.330  0.6113 -0.0493 -0.0104
 7981SOL    HW135402   4.363   0.354   9.402 -1.4395  0.6429 -1.8057
 7981SOL    HW235403   4.462   0.268   9.343 -1.5764 -0.5934  2.4651
 7982SOL     OW35404   2.319   3.267   8.350 -0.1160 -0.0643 -0.2719
 7982SOL    HW135405   2.368   3.292   8.272 -0.1465 -1.7506 -0.8121
 7982SOL    HW235406   2.248   3.329   8.333  0.3787  0.0499 -1.8828
 7983SOL     OW35407   1.916   3.887   3.679  0.0668 -0.3281 -0.3032
 7983SOL    HW135408   1.862   3.819   3.639  1.2117 -2.0291  1.0183
 7983SOL    HW235409   1.851   3.939   3.727 -0.1227 -0.8506  0.0193
 7984SOL     OW35410   0.501   0.379   8.830  0.0150 -0.3724  0.0780
 7984SOL    HW135411   0.587   0.392   8.792 -0.4410  0.5303 -0.6314
 7984SOL    HW235412   0.508   0.284   8.836  1.7607 -0.1666  1.3339
 7985SOL     OW35413   1.658   3.034   4.466 -0.0892 -0.0209  0.8074
 7985SOL    HW135414   1.591   2.967   4.457  0.1009 -0.0460 -0.3858
 7985SOL    HW235415   1.599   3.107   4.447  1.6050  1.2292  0.3314
 7986SOL     OW35416   4.412   1.870   7.564 -0.1720  0.4010  0.2718
 7986SOL    HW135417   4.377   1.864   7.653  2.7672  0.4738  1.4384
 7986SOL    HW235418   4.342   1.913   7.514 -0.9751 -1.7854 -0.5015
 7987SOL     OW35419   2.108   1.111  15.531  0.0067  0.0520  0.0462
 7987SOL    HW135420   2.143   1.069  15.452 -1.9560  0.2045 -0.9231
 7987SOL    HW235421   2.054   1.042  15.569 -1.5729 -0.1813 -2.5722
 7988SOL     OW35422   3.777   3.049   4.936  0.0631  0.4223 -0.0314
 7988SOL    HW135423   3.833   3.005   5.000  1.9370  0.6667 -1.4885
 7988SOL    HW235424   3.798   3.141   4.954 -0.0004  0.5763 -0.7649
 7989SOL     OW35425   0.830   0.329   9.160  0.0778 -0.2433  0.1922
 7989SOL    HW135426   0.772   0.405   9.154  0.4134  0.0323  0.5269
 7989SOL    HW235427   0.801   0.302   9.247 -0.8894 -1.2597 -0.4340
 7990SOL     OW35428   3.098   3.183   6.604  0.0302  0.4153 -0.0041
 7990SOL    HW135429   3.009   3.193   6.637  0.7255 -0.6746  2.1650
 7990SOL    HW235430   3.110   3.252   6.538  2.0345  0.5764  0.5360
 7991SOL     OW35431   4.592   3.268  12.667  0.5055  0.6234 -0.1205
 7991SOL    HW135432   4.596   3.361  12.643  1.7671  0.6804  0.3135
 7991SOL    HW235433   4.608   3.238  12.578  1.7045  1.4654 -0.1990
 7992SOL     OW35434   1.674   3.072  14.942 -0.2691 -0.4468 -0.2839
 7992SOL    HW135435   1.692   3.164  14.957 -0.7738 -0.1655 -1.3641
 7992SOL    HW235436   1.579   3.074  14.934 -0.2589 -0.0453 -0.2786
 7993SOL     OW35437   1.944   3.030   3.920 -0.3171 -0.5783 -0.2072
 7993SOL    HW135438   1.995   3.052   3.998  0.7587  0.3803 -1.1704
 7993SOL    HW235439   1.895   2.951   3.940  2.6731 -1.9370  1.8873
 7994SOL     OW35440   2.787   2.160   9.029  0.2948 -0.7561 -0.1126
 7994SOL    HW135441   2.731   2.238   9.023  1.8160  0.3452  0.0712
 7994SOL    HW235442   2.831   2.164   9.114 -0.9302  0.8769  0.4346
 7995SOL     OW35443   2.925   4.442  14.072  0.5099  0.1648 -0.5097
 7995SOL    HW135444   2.983   4.370  14.097  1.5077  1.7589  1.8249
 7995SOL    HW235445   2.840   4.410  14.104  0.9957 -0.1014  0.4994
 7996SOL     OW35446   1.704   0.579   7.777 -0.4080 -0.5794  0.0359
 7996SOL    HW135447   1.611   0.577   7.753 -0.3646 -1.1991 -0.0731
 7996SOL    HW235448   1.710   0.673   7.795  0.8920 -0.6773  0.1261
 7997SOL     OW35449   1.924   0.067   9.167 -0.0077 -0.3381  0.3544
 7997SOL    HW135450   1.996   0.034   9.221  2.7034  1.5828 -2.0831
 7997SOL    HW235451   1.981   0.119   9.110 -1.4675  0.9437  0.0548
 7998SOL     OW35452   4.254   4.291   4.471 -0.3285  0.6626 -0.3620
 7998SOL    HW135453   4.294   4.271   4.387  1.6231  2.0823  0.2313
 7998SOL    HW235454   4.241   4.386   4.474 -1.3787  0.5257 -0.4555
 7999SOL     OW35455   4.655   0.989   2.649  0.0795 -0.1691 -0.0945
 7999SOL    HW135456   4.607   1.024   2.574  0.5883  1.9564  0.5715
 7999SOL    HW235457   4.612   0.904   2.656 -0.7103  0.0706 -2.2411
 8000SOL     OW35458   1.441   2.340   7.554 -0.1936  0.0186  0.3543
 8000SOL    HW135459   1.383   2.297   7.491  2.8334  1.7840 -3.6381
 8000SOL    HW235460   1.467   2.423   7.514 -0.1868 -0.8230 -1.3913
 8001SOL     OW35461   1.492   1.418   3.134  0.2937  0.7844 -0.0356
 8001SOL    HW135462   1.497   1.408   3.229  3.0488  0.7319 -0.1736
 8001SOL    HW235463   1.453   1.506   3.135  0.1708  0.7326 -1.3375
 8002SOL     OW35464   0.139   3.127  10.489 -0.5055  0.6443 -0.2996
 8002SOL    HW135465   0.114   3.207  10.444  2.8934  1.6997 -0.3077
 8002SOL    HW235466   0.177   3.161  10.570  0.1404  1.1237 -0.8052
 8003SOL     OW35467   2.017   1.152  10.091 -0.4178 -0.1495 -0.0593
 8003SOL    HW135468   2.102   1.108  10.096 -0.3013  0.0909  0.1154
 8003SOL    HW235469   1.962   1.096  10.037 -0.7923 -1.6474  1.9051
 8004SOL     OW35470   1.088   2.736   8.043 -0.2262 -0.0105  0.5632
 8004SOL    HW135471   1.182   2.752   8.046  0.0413 -1.6300  1.0095
 8004SOL    HW235472   1.067   2.700   8.129 -2.0710 -2.2567 -0.8085
 8005SOL     OW35473   1.193   3.397   6.673 -0.1199  0.0901  0.0397
 8005SOL    HW135474   1.203   3.490   6.694 -1.5396  0.3208 -0.3293
 8005SOL    HW235475   1.171   3.404   6.580  0.2122 -4.7123 -0.3958
 8006SOL     OW35476   1.332   3.226   2.468  0.0832 -0.1611 -0.3241
 8006SOL    HW135477   1.341   3.321   2.477 -1.5883  0.0045 -0.3481
 8006SOL    HW235478   1.380   3.191   2.543 -3.5979 -1.3508  1.4482
 8007SOL     OW35479   3.140   2.804   5.290  0.0668  0.1831  0.1071
 8007SOL    HW135480   3.081   2.754   5.235 -2.2729  1.0297  1.8353
 8007SOL    HW235481   3.168   2.872   5.229  0.0748  2.1819  2.3254
 8008SOL     OW35482   2.794   4.464   1.120 -0.0548 -0.2218 -0.0118
 8008SOL    HW135483   2.794   4.377   1.081  1.5883 -0.8568  1.4015
 8008SOL    HW235484   2.739   4.512   1.058 -1.9918 -0.4021  1.5708
 8009SOL     OW35485   2.244   1.243   5.557  0.3112  0.1809 -0.1807
 8009SOL    HW135486   2.308   1.241   5.629 -0.1970  0.2746  0.2713
 8009SOL    HW235487   2.165   1.226   5.607  1.7271 -0.0269  2.0098
 8010SOL     OW35488   3.242   1.418   4.198 -0.0009  0.0230  0.5710
 8010SOL    HW135489   3.241   1.507   4.164  0.7256  0.4425  1.6566
 8010SOL    HW235490   3.333   1.388   4.200  0.2824  0.5047 -4.7479
 8011SOL     OW35491   3.621   4.055   2.365  0.1003  0.0768  0.1109
 8011SOL    HW135492   3.553   4.097   2.417 -1.7029 -0.5063 -1.7801
 8011SOL    HW235493   3.688   4.039   2.431 -0.1330 -4.5199 -0.7387
 8012SOL     OW35494   1.383   3.845   7.566  0.6842 -0.1609  0.3093
 8012SOL    HW135495   1.436   3.924   7.583  0.8201 -0.1057 -0.3650
 8012SOL    HW235496   1.455   3.784   7.581  2.7316  2.1890  0.1414
 8013SOL     OW35497   1.312   1.331   5.241  0.2940 -0.6194  0.5427
 8013SOL    HW135498   1.374   1.275   5.289 -0.8614 -1.4507  1.0808
 8013SOL    HW235499   1.369   1.401   5.210  1.5276 -1.2966  1.2849
 8014SOL     OW35500   0.153   2.758   3.517  0.1845 -0.8223  0.7633
 8014SOL    HW135501   0.246   2.746   3.500 -0.0110  1.3965 -1.8607
 8014SOL    HW235502   0.161   2.747   3.611  1.5078  0.1622  0.7626
 8015SOL     OW35503   1.111   2.978  14.546 -0.1807  0.3475  0.7819
 8015SOL    HW135504   1.174   3.046  14.570  1.0518 -0.3113 -0.5746
 8015SOL    HW235505   1.046   3.044  14.519  1.2739  1.2863 -0.4370
 8016SOL     OW35506   3.209   4.327   7.642  0.1323 -0.1132 -0.0670
 8016SOL    HW135507   3.157   4.246   7.640  0.9456 -0.6436  0.3020
 8016SOL    HW235508   3.147   4.381   7.594  0.7250  0.8225  0.2169
 8017SOL     OW35509   1.708   2.642   0.282  0.3506  0.0283  0.2172
 8017SOL    HW135510   1.778   2.616   0.341  1.8238  2.2153 -0.5510
 8017SOL    HW235511   1.644   2.676   0.345  0.2192 -0.2510  0.2337
 8018SOL     OW35512   3.565   0.076   7.093 -0.4621  0.1425  0.7963
 8018SOL    HW135513   3.552   0.169   7.115 -2.0999  0.0509  0.1984
 8018SOL    HW235514   3.488   0.045   7.046  0.9099 -2.4192  0.2442
 8019SOL     OW35515   0.819   1.319   5.196 -0.3675  0.2020  0.0903
 8019SOL    HW135516   0.909   1.318   5.162 -0.6910  1.8386 -0.7902
 8019SOL    HW235517   0.816   1.246   5.259 -2.1314  0.1117 -0.1116
 8020SOL     OW35518   2.275   2.482   4.937  0.1388  0.3884  0.6877
 8020SOL    HW135519   2.250   2.522   4.854  1.0004  0.4648  0.4670
 8020SOL    HW235520   2.317   2.552   4.989  2.6417  0.0471 -0.8972
 8021SOL     OW35521   2.070   3.281  15.217  0.1390 -0.5602  0.4407
 8021SOL    HW135522   2.089   3.224  15.143 -1.7895  0.0741 -0.5216
 8021SOL    HW235523   2.155   3.312  15.249 -0.2914  1.3668 -0.2683
 8022SOL     OW35524   2.451   4.550  11.260  0.2743 -0.1534  0.3669
 8022SOL    HW135525   2.366   4.587  11.283 -0.3749 -1.7780  0.6032
 8022SOL    HW235526   2.433   4.526  11.169  0.1815  1.2029  0.0379
 8023SOL     OW35527   0.943   4.069   4.167 -0.7170  0.2221 -0.5955
 8023SOL    HW135528   0.956   4.153   4.210 -0.7273 -0.5050  0.8319
 8023SOL    HW235529   1.028   4.055   4.125 -0.4832  1.0729 -0.4123
 8024SOL     OW35530   1.085   1.665   4.825 -0.5252  0.3514 -0.0178
 8024SOL    HW135531   1.106   1.666   4.731  1.3980 -1.6524  0.3836
 8024SOL    HW235532   1.016   1.599   4.816 -0.9020  1.1700 -3.3405
 8025SOL     OW35533   3.662   3.160   8.810 -0.3176 -0.2707 -0.4908
 8025SOL    HW135534   3.630   3.075   8.780 -2.1168  1.0091 -2.2407
 8025SOL    HW235535   3.707   3.130   8.889  4.5856  0.7115 -2.8934
 8026SOL     OW35536   2.046   1.646   1.507  0.2853 -0.2960 -0.2906
 8026SOL    HW135537   1.957   1.657   1.472  0.6489  2.0356 -0.4845
 8026SOL    HW235538   2.026   1.580   1.573  0.4201 -0.7191 -0.6698
 8027SOL     OW35539   4.014   1.822   3.407 -0.8015 -0.6818  0.8307
 8027SOL    HW135540   4.096   1.780   3.379  0.0482  1.3174  0.3137
 8027SOL    HW235541   4.055   1.896   3.452  1.1211  0.3050 -2.4962
 8028SOL     OW35542   2.997   4.387   5.738 -0.3380 -0.0149  0.9804
 8028SOL    HW135543   2.919   4.441   5.751  0.2432  1.5048 -1.8581
 8028SOL    HW235544   3.066   4.422   5.794  0.1621  1.0798 -0.3167
 8029SOL     OW35545   2.504   4.060  12.209  0.2365 -0.1798 -0.0300
 8029SOL    HW135546   2.519   4.005  12.286 -1.3485 -1.2412 -0.4710
 8029SOL    HW235547   2.451   4.001  12.155 -1.9429 -0.6926  2.6311
 8030SOL     OW35548   2.106   1.801   8.847 -0.0211  0.4957 -0.1176
 8030SOL    HW135549   2.097   1.741   8.773  2.5497 -0.3045  0.2375
 8030SOL    HW235550   2.024   1.793   8.896  0.0577 -2.8857 -0.5542
 8031SOL     OW35551   4.341   1.027   7.132 -1.0462  0.3944  0.1715
 8031SOL    HW135552   4.341   1.073   7.216 -1.1541  2.2731 -0.8607
 8031SOL    HW235553   4.303   0.946   7.164 -0.3275 -0.9257 -2.3458
 8032SOL     OW35554   2.591   0.730  13.116 -0.1181 -0.5043  0.1291
 8032SOL    HW135555   2.678   0.722  13.078 -0.1470  0.4022 -0.1376
 8032SOL    HW235556   2.622   0.745  13.205 -1.6045  2.2235  0.1875
 8033SOL     OW35557   1.428   2.038   7.909  0.1574 -0.0022  0.6224
 8033SOL    HW135558   1.469   2.097   7.973  2.5681 -2.0982  1.0058
 8033SOL    HW235559   1.416   2.107   7.843  2.2157  0.1808  0.4378
 8034SOL     OW35560   2.837   0.148   1.234 -0.5059 -1.0568  0.0565
 8034SOL    HW135561   2.745   0.122   1.226 -1.4541  2.0800  0.7506
 8034SOL    HW235562   2.850   0.125   1.325  0.5911  0.0488  0.1691
 8035SOL     OW35563   3.660   0.450   8.775  0.3215 -0.2763 -0.2557
 8035SOL    HW135564   3.619   0.420   8.856  1.9677  0.1242  0.7343
 8035SOL    HW235565   3.639   0.544   8.781 -3.4035 -1.2284  1.7729
 8036SOL     OW35566   3.892   3.054   7.871 -0.4331 -0.1230 -0.2901
 8036SOL    HW135567   3.876   3.148   7.865 -0.6464 -0.2253 -1.3350
 8036SOL    HW235568   3.928   3.031   7.957 -0.2200 -0.8623 -0.5698
 8037SOL     OW35569   2.275   0.745   1.564  0.3003 -0.1599  0.8022
 8037SOL    HW135570   2.244   0.759   1.474 -0.3904 -1.7108  0.8042
 8037SOL    HW235571   2.317   0.830   1.578  2.6099 -0.8084 -2.2131
 8038SOL     OW35572   2.457   1.826   4.468  0.5201 -0.0558  0.5969
 8038SOL    HW135573   2.537   1.785   4.503  1.1466  2.1975  1.8274
 8038SOL    HW235574   2.496   1.876   4.396 -1.5572 -1.3340 -1.4104
 8039SOL     OW35575   2.517   1.043  14.263 -0.1362 -0.8140  0.0814
 8039SOL    HW135576   2.437   1.034  14.315 -1.5357  2.2848 -1.5313
 8039SOL    HW235577   2.563   1.122  14.293  0.5695 -0.7645 -1.1250
 8040SOL     OW35578   0.084   3.464   3.363 -0.0002  0.1763  0.3170
 8040SOL    HW135579   0.088   3.413   3.283  0.2244 -0.7761  0.9369
 8040SOL    HW235580   0.145   3.417   3.420 -1.8203 -0.7961  1.4560
 8041SOL     OW35581   4.583   1.488   5.166  0.2155 -0.2981 -0.1499
 8041SOL    HW135582   4.636   1.567   5.166  1.1520 -0.9346 -1.6829
 8041SOL    HW235583   4.532   1.494   5.086  1.4485 -0.7226 -0.9650
 8042SOL     OW35584   1.322   2.078   0.852  0.0189  0.1470 -0.1988
 8042SOL    HW135585   1.268   2.005   0.884  0.5435  0.4249  1.3489
 8042SOL    HW235586   1.396   2.033   0.811  0.2623  0.9303 -0.6120
 8043SOL     OW35587   3.164   1.267   2.904 -0.0894  0.0126 -0.0597
 8043SOL    HW135588   3.226   1.271   2.976 -1.1524  0.7609  0.8158
 8043SOL    HW235589   3.153   1.361   2.891 -0.6296  0.0558  0.7367
 8044SOL     OW35590   2.117   4.423  12.745  0.1365  0.0518  0.4793
 8044SOL    HW135591   2.039   4.455  12.789 -0.6551  1.8834 -2.2399
 8044SOL    HW235592   2.172   4.412  12.822  1.1671  1.9188  0.0178
 8045SOL     OW35593   3.192   3.242   1.902 -0.3620  0.4273 -0.0163
 8045SOL    HW135594   3.117   3.213   1.954 -0.9892 -2.0017 -2.2669
 8045SOL    HW235595   3.210   3.168   1.844  2.6017  1.9402 -1.0486
 8046SOL     OW35596   2.300   1.362   6.620 -0.1304  0.5779  0.1098
 8046SOL    HW135597   2.294   1.420   6.695  0.9534 -0.1362  0.7524
 8046SOL    HW235598   2.349   1.289   6.659  0.0400 -0.1818 -1.5205
 8047SOL     OW35599   1.446   1.454   9.506  0.4893 -0.4203  0.2932
 8047SOL    HW135600   1.396   1.434   9.427 -0.0290 -0.4578  0.6312
 8047SOL    HW235601   1.530   1.470   9.463  1.8306 -1.6695  2.4495
 8048SOL     OW35602   3.406   0.282   8.571 -0.2736 -0.0631 -0.3103
 8048SOL    HW135603   3.337   0.339   8.603 -1.5616 -0.0512 -3.1450
 8048SOL    HW235604   3.460   0.257   8.646  1.9857 -0.3546 -2.0065
 8049SOL     OW35605   2.091   1.149   3.373  0.2800  0.4996  0.2668
 8049SOL    HW135606   2.009   1.188   3.344  1.1060  0.9691 -1.4174
 8049SOL    HW235607   2.152   1.176   3.304  0.6148  0.0197  0.3737
 8050SOL     OW35608   2.227   3.642   1.930  0.4632 -0.9064 -0.6372
 8050SOL    HW135609   2.259   3.700   1.860  1.1492  0.3734  0.7259
 8050SOL    HW235610   2.298   3.651   1.994 -0.7020  0.7875  0.4299
 8051SOL     OW35611   3.230   4.131   3.566 -0.1607  0.3297  0.3302
 8051SOL    HW135612   3.245   4.145   3.659 -1.4357 -0.9084  0.7314
 8051SOL    HW235613   3.229   4.035   3.570 -0.4057  0.3281  0.2146
 8052SOL     OW35614   4.322   4.326   0.590  0.4934  0.0078 -0.1725
 8052SOL    HW135615   4.308   4.402   0.534  0.3206  0.1673  0.0880
 8052SOL    HW235616   4.418   4.324   0.583  0.7331  3.7818  2.2267
 8053SOL     OW35617   3.626   4.140   0.949 -0.2711 -0.1699  0.1061
 8053SOL    HW135618   3.646   4.226   0.913 -1.2091 -0.1387 -0.3330
 8053SOL    HW235619   3.618   4.160   1.043  2.7721  1.4514  0.0289
 8054SOL     OW35620   0.948   2.732   8.548  0.9257 -0.2679  0.0692
 8054SOL    HW135621   0.898   2.660   8.585 -0.1210 -0.0254 -0.8837
 8054SOL    HW235622   0.889   2.781   8.491 -1.7859 -2.0467  1.3775
 8055SOL     OW35623   0.413   1.907   2.122  0.0070 -0.0118 -0.1159
 8055SOL    HW135624   0.410   1.814   2.142  0.3952  0.4554  2.1325
 8055SOL    HW235625   0.321   1.935   2.128  0.1972  1.0168 -1.9783
 8056SOL     OW35626   1.750   0.309   5.225 -0.1639 -0.0180  0.2980
 8056SOL    HW135627   1.730   0.265   5.142  1.6189 -0.7024  0.2432
 8056SOL    HW235628   1.729   0.240   5.288  1.0581  1.1237  1.9654
 8057SOL     OW35629   3.947   2.978   8.545  0.2866 -0.1582 -0.4287
 8057SOL    HW135630   3.930   3.059   8.497 -0.7282  1.5269  2.8049
 8057SOL    HW235631   3.862   2.933   8.545 -0.9488  2.1558  0.3924
 8058SOL     OW35632   3.749   3.682   6.728 -0.2541 -0.0806 -0.2516
 8058SOL    HW135633   3.655   3.680   6.712 -0.4879 -2.7551  1.4013
 8058SOL    HW235634   3.755   3.682   6.823 -0.9727  1.6097 -0.2179
 8059SOL     OW35635   0.541   0.659   4.976 -0.3261 -0.5437 -0.1339
 8059SOL    HW135636   0.588   0.576   4.985 -0.2710 -0.4691  0.2457
 8059SOL    HW235637   0.579   0.712   5.046 -0.9063 -1.4206  0.8429
 8060SOL     OW35638   3.121   2.291   6.742  0.0693 -0.5834 -0.6738
 8060SOL    HW135639   3.126   2.219   6.680 -1.2101 -0.2932 -1.1308
 8060SOL    HW235640   3.030   2.296   6.771  0.4656  2.7107  0.0252
 8061SOL     OW35641   2.187   2.176   4.173  0.3369  0.2129  0.2229
 8061SOL    HW135642   2.096   2.148   4.179  0.5645 -0.5437  0.2515
 8061SOL    HW235643   2.173   2.267   4.199 -2.9010 -0.0377 -0.6903
 8062SOL     OW35644   3.490   1.201  16.719 -0.4495  0.2599  0.1954
 8062SOL    HW135645   3.474   1.122  16.667 -0.3168 -0.3491  1.0754
 8062SOL    HW235646   3.490   1.160  16.805  1.8453 -1.6411 -0.6823
 8063SOL     OW35647   2.025   1.042  11.595  0.6139 -0.6024 -0.0420
 8063SOL    HW135648   2.095   1.003  11.543  0.4893  0.7378 -1.2120
 8063SOL    HW235649   1.960   0.974  11.615 -0.4802  0.1286 -1.1000
 8064SOL     OW35650   2.704   3.403   1.259 -0.0708  0.1448  0.2699
 8064SOL    HW135651   2.742   3.487   1.286 -1.3016  0.8662 -0.2673
 8064SOL    HW235652   2.729   3.409   1.167  1.9668 -2.5098  0.6438
 8065SOL     OW35653   2.483   3.521   9.378  0.0288  0.4440 -0.4537
 8065SOL    HW135654   2.532   3.440   9.393  0.2413  0.3378 -1.7083
 8065SOL    HW235655   2.393   3.490   9.391 -0.7162  2.3187 -1.1078
 8066SOL     OW35656   1.122   2.302   5.096 -0.2313 -0.1870  0.2987
 8066SOL    HW135657   1.132   2.398   5.092  0.7106 -0.2052  2.2336
 8066SOL    HW235658   1.178   2.283   5.171  0.6477 -0.1245 -0.3509
 8067SOL     OW35659   3.768   2.711   4.988  0.4082  0.1363 -0.4793
 8067SOL    HW135660   3.690   2.751   5.027 -0.2922  0.5158 -2.2720
 8067SOL    HW235661   3.831   2.751   5.047 -0.8562  0.2889  0.7703
 8068SOL     OW35662   3.983   0.586   7.825 -0.7492 -0.4711  0.3747
 8068SOL    HW135663   4.041   0.652   7.787  0.4585 -2.1092 -0.5932
 8068SOL    HW235664   4.007   0.508   7.775  2.0341 -0.4638  1.7170
 8069SOL     OW35665   1.635   0.173   4.562 -0.2615  0.0307  0.3112
 8069SOL    HW135666   1.663   0.088   4.530 -0.6684 -0.0968  0.2930
 8069SOL    HW235667   1.577   0.152   4.635  1.3546  1.0165  1.8855
 8070SOL     OW35668   0.889   0.989   7.045 -0.4242  0.0030 -0.2348
 8070SOL    HW135669   0.811   0.997   7.100 -0.8366 -0.8600 -0.7053
 8070SOL    HW235670   0.952   0.999   7.117  0.9490  0.5659 -1.5163
 8071SOL     OW35671   0.687   2.684   4.151  0.0809 -0.3620 -1.0124
 8071SOL    HW135672   0.607   2.638   4.123 -0.5617  0.6865 -0.8900
 8071SOL    HW235673   0.684   2.657   4.243 -2.1874  2.2017 -0.3347
 8072SOL     OW35674   3.180   1.908   3.843 -0.2915 -0.1839 -0.7073
 8072SOL    HW135675   3.138   1.839   3.791  1.3528 -2.9479  1.5954
 8072SOL    HW235676   3.257   1.857   3.869 -0.7502 -0.7382 -0.4210
 8073SOL     OW35677   3.286   0.804  16.939 -0.2233 -0.3711 -0.2687
 8073SOL    HW135678   3.196   0.783  16.913 -0.4009  0.8465 -0.6281
 8073SOL    HW235679   3.286   0.766  17.027  3.5639  0.0515 -0.0667
 8074SOL     OW35680   0.980   2.110   6.369 -0.2175  0.1554 -0.3486
 8074SOL    HW135681   0.985   2.037   6.431  1.1843 -0.7179 -1.5000
 8074SOL    HW235682   1.018   2.076   6.289 -1.1752  1.3590 -1.3153
 8075SOL     OW35683   1.709   4.014   3.808 -0.6350 -0.2835  0.4428
 8075SOL    HW135684   1.666   4.097   3.785 -0.8739 -0.0767  1.5966
 8075SOL    HW235685   1.635   3.954   3.803 -1.4979  0.9420 -1.2864
 8076SOL     OW35686   3.060   1.588   1.552  0.0274  0.2477 -0.1838
 8076SOL    HW135687   3.085   1.539   1.473 -0.8170  0.5647 -0.6475
 8076SOL    HW235688   2.976   1.543   1.553 -0.0478  0.3935  0.0453
 8077SOL     OW35689   0.572   4.294   1.603  0.3910 -0.1709  0.2337
 8077SOL    HW135690   0.581   4.207   1.643 -3.0091 -1.4819 -1.7799
 8077SOL    HW235691   0.642   4.288   1.539  1.5227 -2.3881  1.6827
 8078SOL     OW35692   2.424   4.008   7.761 -0.0179 -0.4929  0.1252
 8078SOL    HW135693   2.493   3.977   7.820  0.5422  0.8213  0.1416
 8078SOL    HW235694   2.349   3.962   7.800 -1.0273  0.5025 -0.6416
 8079SOL     OW35695   2.529   1.821   8.792  0.1006 -0.6007  0.1917
 8079SOL    HW135696   2.619   1.851   8.795  0.0272 -0.3233 -0.5656
 8079SOL    HW235697   2.497   1.844   8.880  1.0575 -1.7643  0.8359
 8080SOL     OW35698   0.090   1.427   6.454  0.3285 -0.4217  0.7743
 8080SOL    HW135699   0.179   1.411   6.421 -1.1409 -2.3945 -2.1926
 8080SOL    HW235700   0.026   1.404   6.387  0.4180 -3.6749  1.7823
 8081SOL     OW35701   0.781   2.444   6.024  0.4378 -0.0199  0.6066
 8081SOL    HW135702   0.747   2.514   6.080  1.1044  1.1414 -0.4495
 8081SOL    HW235703   0.814   2.390   6.097  1.7102  2.6952  2.0598
 8082SOL     OW35704   4.275   2.173  11.558 -0.0350  0.1282  0.3221
 8082SOL    HW135705   4.321   2.089  11.566 -1.2661 -0.6607 -0.9835
 8082SOL    HW235706   4.313   2.209  11.478 -1.9868  0.7778 -0.2945
 8083SOL     OW35707   1.148   3.686  11.255 -0.2972  0.3140 -0.1932
 8083SOL    HW135708   1.155   3.614  11.192  2.0042 -1.8421  2.5698
 8083SOL    HW235709   1.202   3.748  11.206  0.7674 -1.0155 -0.7038
 8084SOL     OW35710   0.653   0.739   7.284  0.3226  0.1419  0.0691
 8084SOL    HW135711   0.558   0.739   7.273  0.3720  0.9623 -0.4286
 8084SOL    HW235712   0.683   0.825   7.254  1.1061 -1.2207 -3.1059
 8085SOL     OW35713   1.715   2.680   4.404  0.2245  0.1138  0.0534
 8085SOL    HW135714   1.696   2.723   4.487 -0.7727 -0.2748  0.0351
 8085SOL    HW235715   1.713   2.589   4.435 -0.8999 -1.1803 -3.8162
 8086SOL     OW35716   4.542   0.636   8.583  0.8708 -0.0378 -0.5016
 8086SOL    HW135717   4.460   0.651   8.630  0.7807  0.7176 -0.8998
 8086SOL    HW235718   4.503   0.576   8.519 -1.4963 -0.4027  1.2654
 8087SOL     OW35719   0.381   4.531  10.178 -0.7764  0.2537  0.3730
 8087SOL    HW135720   0.467   4.524  10.137 -0.1178  3.7707  1.1642
 8087SOL    HW235721   0.402   4.615  10.218  0.2705 -0.6454  1.7118
 8088SOL     OW35722   0.047   3.297   7.814  0.5165 -0.1939  0.2324
 8088SOL    HW135723   0.132   3.305   7.856  0.3823 -0.0062  0.4701
 8088SOL    HW235724   0.059   3.273   7.722 -0.3877 -0.1382  0.0984
 8089SOL     OW35725   1.405   4.380   2.261 -0.0739  0.4837 -0.2841
 8089SOL    HW135726   1.452   4.440   2.319  0.1326  0.3262 -0.2885
 8089SOL    HW235727   1.312   4.400   2.275  0.1341  1.1291  0.1923
 8090SOL     OW35728   4.654   0.017   8.529  0.2369 -0.4438 -0.1191
 8090SOL    HW135729   0.027   0.008   8.524  0.3819  2.1997 -1.9770
 8090SOL    HW235730   4.624   4.654   8.562  0.6885 -0.6976 -0.3653
 8091SOL     OW35731   3.232   0.427   4.974 -0.0337  0.0159 -0.1008
 8091SOL    HW135732   3.283   0.438   5.055  0.4958  0.0471 -0.4414
 8091SOL    HW235733   3.301   0.430   4.909 -0.0471  1.1179 -0.0662
 8092SOL     OW35734   1.147   0.782  12.112 -0.2326 -0.3546  0.2073
 8092SOL    HW135735   1.233   0.740  12.109  0.4440  1.0598  0.0565
 8092SOL    HW235736   1.113   0.729  12.185 -2.0065 -0.8796 -0.9913
 8093SOL     OW35737   3.262   1.249   1.404 -0.5337 -0.4637  0.2557
 8093SOL    HW135738   3.289   1.174   1.457 -0.4372 -0.0669  0.7651
 8093SOL    HW235739   3.345   1.293   1.384 -0.0806 -0.6610  1.7009
 8094SOL     OW35740   2.243   4.253   5.864 -0.3701 -0.0653 -1.4201
 8094SOL    HW135741   2.305   4.325   5.866 -0.7873  0.1460  2.6380
 8094SOL    HW235742   2.299   4.187   5.904 -0.3801  0.5746 -0.3861
 8095SOL     OW35743   2.135   0.844   7.638 -0.6843  0.4084  0.0668
 8095SOL    HW135744   2.088   0.915   7.682 -1.5570  0.1611 -0.4787
 8095SOL    HW235745   2.072   0.774   7.652  1.0132 -1.0472  0.4649
 8096SOL     OW35746   3.851   3.229   6.113 -0.6196 -0.0845  0.1021
 8096SOL    HW135747   3.863   3.226   6.208  0.4628  2.6794  0.0559
 8096SOL    HW235748   3.946   3.234   6.098 -0.7661  0.3794 -0.6225
 8097SOL     OW35749   1.042   2.278   2.441 -0.1537  0.2874 -0.1105
 8097SOL    HW135750   1.026   2.356   2.494 -1.5266 -1.0078  1.3750
 8097SOL    HW235751   0.952   2.244   2.438  0.0839 -0.2256 -1.5204
 8098SOL     OW35752   0.110   0.656   2.596  0.2258  0.7587 -0.5905
 8098SOL    HW135753   0.201   0.677   2.575  1.2500 -1.5214  1.5617
 8098SOL    HW235754   0.075   0.632   2.509  1.0267  1.3918 -1.0848
 8099SOL     OW35755   4.583   4.001   0.298  0.3310 -0.1635  0.0901
 8099SOL    HW135756   4.549   3.916   0.327  0.6594 -0.3981 -0.2273
 8099SOL    HW235757   4.678   3.991   0.301  0.4059  0.3148 -0.9802
 8100SOL     OW35758   1.314   2.670   3.482 -0.4139  0.4426 -0.1619
 8100SOL    HW135759   1.364   2.689   3.402 -1.3213 -0.9288 -1.0618
 8100SOL    HW235760   1.327   2.575   3.484 -3.1125  0.0997  1.0724
 8101SOL     OW35761   2.297   0.255   3.968 -0.3606  0.0155  0.4617
 8101SOL    HW135762   2.319   0.211   3.886 -2.3006 -2.0255  1.0145
 8101SOL    HW235763   2.204   0.241   3.986  0.1486 -1.0854  2.3262
 8102SOL     OW35764   2.688   4.175   4.581 -0.3603 -0.3835 -0.3552
 8102SOL    HW135765   2.596   4.148   4.583  0.0774 -1.9107 -1.0255
 8102SOL    HW235766   2.706   4.159   4.674 -0.0138 -1.8667 -0.6815
 8103SOL     OW35767   1.198   2.807   2.814 -0.2303  0.0794 -0.1997
 8103SOL    HW135768   1.206   2.903   2.808 -2.7877  0.3527  0.7835
 8103SOL    HW235769   1.182   2.773   2.726 -0.5898  0.4792 -0.2934
 8104SOL     OW35770   2.768   3.754   2.392  0.3399  1.1803  0.0808
 8104SOL    HW135771   2.789   3.662   2.409  0.2559  0.7184 -2.2417
 8104SOL    HW235772   2.779   3.785   2.482  3.2696 -1.0069  0.4835
 8105SOL     OW35773   0.735   2.676   4.748  0.6579  0.1999  0.1932
 8105SOL    HW135774   0.796   2.688   4.821  0.0756  1.2880  0.5032
 8105SOL    HW235775   0.703   2.766   4.736  0.0423  0.0200  0.4913
 8106SOL     OW35776   0.297   3.031   4.886  0.1994  0.1297 -0.4930
 8106SOL    HW135777   0.215   2.988   4.908  0.0762  0.6542  0.0429
 8106SOL    HW235778   0.278   3.121   4.911 -1.2471 -1.0327  2.5948
 8107SOL     OW35779   2.703   3.467   3.925 -0.2302  0.0504  0.0888
 8107SOL    HW135780   2.779   3.411   3.945 -0.9962 -1.3543 -0.8769
 8107SOL    HW235781   2.635   3.399   3.925 -0.3783  0.1755 -2.1882
 8108SOL     OW35782   1.997   0.649  13.086 -0.0748 -0.3534  0.4316
 8108SOL    HW135783   2.023   0.723  13.032  3.0219 -0.4882  1.7247
 8108SOL    HW235784   1.950   0.694  13.156 -2.3270  1.4151 -2.2164
 8109SOL     OW35785   0.646   0.472   5.867  0.2320 -0.5035  0.5661
 8109SOL    HW135786   0.583   0.540   5.891  1.8436  0.7946  1.0839
 8109SOL    HW235787   0.582   0.428   5.812  1.7972  0.5742 -2.1225
 8110SOL     OW35788   3.101   3.689   3.796  0.1693 -0.2577 -0.1532
 8110SOL    HW135789   3.044   3.643   3.734  0.5436 -1.3214  0.3055
 8110SOL    HW235790   3.045   3.760   3.828  1.1767  0.9521 -1.0737
 8111SOL     OW35791   0.376   0.808  12.352 -0.5530 -0.0355 -0.0196
 8111SOL    HW135792   0.399   0.878  12.291  0.4770 -1.2331 -1.0035
 8111SOL    HW235793   0.337   0.750  12.286 -0.4324  0.8029 -0.8237
 8112SOL     OW35794   1.457   4.472   4.642  0.1554  0.2035 -0.4437
 8112SOL    HW135795   1.433   4.384   4.613  0.5587 -0.6756  1.9538
 8112SOL    HW235796   1.552   4.471   4.647  0.1952  2.0507 -0.4957
 8113SOL     OW35797   2.149   4.435   2.609  0.7036  0.2144  0.2420
 8113SOL    HW135798   2.157   4.384   2.689 -1.7224 -0.2058  0.2240
 8113SOL    HW235799   2.105   4.516   2.634 -0.9511 -0.3527 -0.7864
 8114SOL     OW35800   3.962   2.728  14.646 -0.4639  0.2151  0.3108
 8114SOL    HW135801   4.009   2.648  14.621 -0.3315  0.9117 -1.6266
 8114SOL    HW235802   3.885   2.672  14.655 -0.1446 -0.3936 -0.7160
 8115SOL     OW35803   1.329   0.369  16.461 -0.1658  0.2875  0.5226
 8115SOL    HW135804   1.276   0.300  16.500  1.5910  0.1255  2.6425
 8115SOL    HW235805   1.271   0.410  16.397 -0.3943 -0.0435  0.5208
 8116SOL     OW35806   0.612   2.124   0.172 -0.1796 -0.0596 -0.0755
 8116SOL    HW135807   0.679   2.163   0.227  0.2655 -1.5823  0.4625
 8116SOL    HW235808   0.675   2.108   0.102  0.8694 -1.2395  1.1302
 8117SOL     OW35809   2.831   0.173  15.469  0.2331  0.0631  0.5323
 8117SOL    HW135810   2.830   0.082  15.499 -2.8393 -0.0062  0.2491
 8117SOL    HW235811   2.765   0.204  15.532 -0.1294 -1.0387  0.6918
 8118SOL     OW35812   3.613   0.467  14.629 -0.5537 -0.5102 -0.2774
 8118SOL    HW135813   3.527   0.425  14.629  0.3123 -2.2049 -3.4352
 8118SOL    HW235814   3.619   0.513  14.713 -0.5068  0.1283 -0.6314
 8119SOL     OW35815   2.574   0.745   9.065  0.1216 -0.7205  0.8709
 8119SOL    HW135816   2.513   0.817   9.082  1.8947  1.0085 -0.0971
 8119SOL    HW235817   2.515   0.672   9.045  0.9547 -0.4235 -2.5772
 8120SOL     OW35818   4.207   2.442   6.167 -0.1428  0.4394  0.1264
 8120SOL    HW135819   4.194   2.360   6.120 -0.3259  0.3831  0.2780
 8120SOL    HW235820   4.121   2.481   6.151 -0.3324 -0.2376 -0.5497
 8121SOL     OW35821   2.573   2.317   6.103 -0.2094 -0.1617 -0.5658
 8121SOL    HW135822   2.552   2.286   6.015 -1.6898  0.5142 -0.4556
 8121SOL    HW235823   2.663   2.347   6.105 -0.1476 -0.4002  0.5880
 8122SOL     OW35824   3.913   0.292   2.083  0.2857  0.4034 -0.5494
 8122SOL    HW135825   3.819   0.313   2.083  0.2395  0.1477  2.2532
 8122SOL    HW235826   3.929   0.290   2.177 -0.6058 -1.5932 -0.4220
 8123SOL     OW35827   4.451   1.402  12.031  0.1155  0.2787 -0.7516
 8123SOL    HW135828   4.362   1.390  12.066  0.9830  2.7992  2.3060
 8123SOL    HW235829   4.494   1.430  12.112 -1.2854  1.0215 -0.2673
 8124SOL     OW35830   2.384   3.925   5.767  0.1440 -0.0220  0.3321
 8124SOL    HW135831   2.365   3.832   5.777 -0.4145  0.2469  1.7981
 8124SOL    HW235832   2.296   3.957   5.749  0.0236 -0.3420  0.3563
 8125SOL     OW35833   1.491   2.352  17.510 -0.0423  0.0420 -0.4610
 8125SOL    HW135834   1.583   2.349  17.483 -0.3790 -2.3725 -1.3546
 8125SOL    HW235835   1.483   2.424  17.572 -1.6146  1.0534 -1.8249
 8126SOL     OW35836   4.363   3.670   2.387  0.3053  0.0076 -0.4178
 8126SOL    HW135837   4.391   3.693   2.298  0.3670 -1.4288 -0.7682
 8126SOL    HW235838   4.374   3.757   2.427  0.1963  0.2439 -0.8985
 8127SOL     OW35839   4.330   0.674   2.448 -0.1379 -0.0267 -0.6124
 8127SOL    HW135840   4.252   0.690   2.395 -1.2936 -2.4944  0.3589
 8127SOL    HW235841   4.382   0.629   2.381  0.7971 -1.7013  1.2673
 8128SOL     OW35842   0.374   4.471  12.551  0.3148 -0.3083 -0.0883
 8128SOL    HW135843   0.306   4.441  12.492 -0.0991  2.7452 -1.1206
 8128SOL    HW235844   0.321   4.520  12.614  0.4193  0.7761 -0.8445
 8129SOL     OW35845   1.638   3.439   5.543 -0.2892  0.0299 -0.3207
 8129SOL    HW135846   1.597   3.508   5.595  1.1375  1.6354 -1.3165
 8129SOL    HW235847   1.729   3.449   5.571 -0.0998 -0.0747 -0.8955
 8130SOL     OW35848   2.091   3.348   6.602  0.1246  0.0796  0.3682
 8130SOL    HW135849   2.103   3.396   6.520 -1.4281 -0.4149 -0.1455
 8130SOL    HW235850   2.010   3.305   6.576  0.4815 -1.2033  1.3910
 8131SOL     OW35851   1.395   2.931   7.757 -0.0056  0.4119  0.1837
 8131SOL    HW135852   1.480   2.906   7.793  0.1846  3.9355  2.1248
 8131SOL    HW235853   1.350   2.847   7.766  2.4670 -0.8088  0.9815
 8132SOL     OW35854   4.146   1.333   4.161  0.0338 -0.3638 -0.0145
 8132SOL    HW135855   4.064   1.355   4.205  0.0484 -0.9085  0.2780
 8132SOL    HW235856   4.135   1.388   4.083 -1.0583  0.3365  0.6340
 8133SOL     OW35857   2.344   3.118  11.078 -0.4629  0.8486 -0.1584
 8133SOL    HW135858   2.402   3.092  11.149  0.1736 -0.5693 -1.1905
 8133SOL    HW235859   2.399   3.097  11.002 -0.9211 -0.5072 -0.1136
 8134SOL     OW35860   2.772   4.165  14.400 -0.0744 -0.4657 -0.0901
 8134SOL    HW135861   2.807   4.078  14.421 -0.3895 -0.9288 -1.4531
 8134SOL    HW235862   2.760   4.203  14.487  0.4203  2.3237 -1.2252
 8135SOL     OW35863   2.313   4.468   3.724  0.5093 -0.9669 -0.1686
 8135SOL    HW135864   2.253   4.527   3.770 -0.9338 -3.3362  0.9616
 8135SOL    HW235865   2.389   4.489   3.778 -1.2748  0.6956  1.7191
 8136SOL     OW35866   3.694   4.048   3.615  0.0518  0.4467  0.1479
 8136SOL    HW135867   3.628   4.093   3.561  1.2797  0.4077 -1.3704
 8136SOL    HW235868   3.656   4.025   3.700 -0.1752 -0.8304 -0.3041
 8137SOL     OW35869   2.694   4.462   2.292  0.2390 -0.0959  0.3698
 8137SOL    HW135870   2.708   4.446   2.385 -1.4664  2.0115  0.9906
 8137SOL    HW235871   2.778   4.504   2.276  0.7744 -1.4892 -0.5106
 8138SOL     OW35872   3.137   1.837   3.315 -0.0260  0.2529  0.3490
 8138SOL    HW135873   3.067   1.865   3.374 -0.6138 -1.5577  0.4770
 8138SOL    HW235874   3.213   1.847   3.374 -0.0324  1.7851  0.1140
 8139SOL     OW35875   3.917   0.574   9.799 -0.1056 -0.5281 -0.4728
 8139SOL    HW135876   3.833   0.530   9.784  0.7186 -2.2930  0.0211
 8139SOL    HW235877   3.981   0.504   9.816  0.0745 -0.1080  0.5469
 8140SOL     OW35878   3.101   0.726   4.923 -0.0355  0.4514  0.2305
 8140SOL    HW135879   3.111   0.766   5.009 -1.6500 -1.1662  1.1677
 8140SOL    HW235880   3.192   0.699   4.912 -0.5332 -0.7994 -0.9129
 8141SOL     OW35881   0.278   1.879   7.963 -0.1567 -0.1334  0.3353
 8141SOL    HW135882   0.204   1.893   7.903  1.3375 -0.5567 -1.5991
 8141SOL    HW235883   0.252   1.927   8.041  1.5505  0.1368  0.7436
 8142SOL     OW35884   1.593   2.812   1.004 -0.4047  0.4661 -0.0998
 8142SOL    HW135885   1.525   2.830   1.068  0.2130  1.4310  0.2861
 8142SOL    HW235886   1.553   2.813   0.917 -0.0559  0.9658 -0.2569
 8143SOL     OW35887   1.954   1.624   5.809  0.5048 -0.1699  0.1610
 8143SOL    HW135888   2.021   1.604   5.744  1.3230 -0.2997  1.0450
 8143SOL    HW235889   1.986   1.585   5.890  1.7025  2.2465  0.8483
 8144SOL     OW35890   4.019   4.435   8.246 -0.7537  0.1707 -0.3808
 8144SOL    HW135891   3.998   4.526   8.270  0.8082  0.6731 -0.8874
 8144SOL    HW235892   3.968   4.393   8.315  0.9483 -1.0705  0.1273
 8145SOL     OW35893   4.321   0.967  15.226  0.1712 -0.5031  0.5799
 8145SOL    HW135894   4.356   1.056  15.220  2.5987 -1.4488  0.7501
 8145SOL    HW235895   4.283   0.977  15.138  2.0367  1.2773 -0.0415
 8146SOL     OW35896   3.385   0.642   5.556  0.6087  0.1155  0.1901
 8146SOL    HW135897   3.462   0.605   5.513 -0.2726 -0.2183 -1.0835
 8146SOL    HW235898   3.373   0.715   5.496  0.1435  0.2927  0.4988
 8147SOL     OW35899   2.609   2.344   8.948 -0.1741 -0.4338  0.5647
 8147SOL    HW135900   2.614   2.301   8.864  1.3968 -0.5219  0.7076
 8147SOL    HW235901   2.637   2.432   8.923  2.5409 -1.4212  0.1586
 8148SOL     OW35902   1.833   2.835   0.871 -0.4495 -0.0028 -0.4088
 8148SOL    HW135903   1.843   2.900   0.801  0.6123  1.2915  0.9413
 8148SOL    HW235904   1.739   2.824   0.882 -0.6632  1.6025 -0.6860
 8149SOL     OW35905   3.494   2.644   2.173 -0.4128 -0.0071  0.2205
 8149SOL    HW135906   3.571   2.686   2.211 -0.2643 -0.8169  0.7967
 8149SOL    HW235907   3.477   2.555   2.203  1.0591 -0.1125  0.7206
 8150SOL     OW35908   3.894   1.340   5.262  0.2437  0.0539  0.4620
 8150SOL    HW135909   3.866   1.252   5.237 -1.4883  1.0312 -1.1043
 8150SOL    HW235910   3.954   1.354   5.188  0.3021 -3.0377 -0.0875
 8151SOL     OW35911   0.582   4.566   0.533  0.0378 -0.5717 -0.1135
 8151SOL    HW135912   0.627   4.497   0.583 -1.4786 -2.0473 -0.7821
 8151SOL    HW235913   0.518   4.509   0.490 -0.4238  0.6361 -1.0204
 8152SOL     OW35914   1.152   3.614   7.394 -0.2446  0.2032  0.3259
 8152SOL    HW135915   1.141   3.556   7.319  0.4533 -0.3838  0.6684
 8152SOL    HW235916   1.103   3.691   7.367 -1.5820 -1.4403 -1.9339
 8153SOL     OW35917   4.709   4.102   1.267  0.2698 -0.0461 -0.3545
 8153SOL    HW135918   4.633   4.083   1.323 -0.0477  0.5622 -0.5747
 8153SOL    HW235919   0.008   4.195   1.280  0.6464  0.1754 -2.4510
 8154SOL     OW35920   4.449   2.140   4.979  0.0855 -0.0559  0.1901
 8154SOL    HW135921   4.408   2.196   4.913  0.8968  1.3836  0.9027
 8154SOL    HW235922   4.419   2.056   4.943 -1.9822  1.5061 -1.7748
 8155SOL     OW35923   2.383   4.112   3.096 -0.0134  0.4457 -0.0484
 8155SOL    HW135924   2.343   4.188   3.140  0.7128  1.3742 -0.9808
 8155SOL    HW235925   2.309   4.051   3.097  0.4962 -0.1646 -0.0557
 8156SOL     OW35926   3.992   3.197  12.190  0.5606  0.2622  0.0831
 8156SOL    HW135927   3.922   3.136  12.166  0.6854 -1.1194  3.2039
 8156SOL    HW235928   3.933   3.263  12.229 -0.1084  1.5326 -3.1099
 8157SOL     OW35929   2.014   1.585   5.255  0.1918 -0.5370  0.2959
 8157SOL    HW135930   2.094   1.552   5.296  0.4851 -0.1763  0.0101
 8157SOL    HW235931   1.997   1.515   5.193  0.4947 -0.3792  0.0365
 8158SOL     OW35932   2.470   1.260   4.413 -0.8293  0.2560 -0.1913
 8158SOL    HW135933   2.459   1.230   4.323  1.3724  2.5574 -1.2294
 8158SOL    HW235934   2.558   1.297   4.422 -0.7634 -0.2755  1.4240
 8159SOL     OW35935   3.775   1.548   7.682  0.1415  0.1789  0.0277
 8159SOL    HW135936   3.740   1.546   7.771 -1.3756 -0.9733 -0.5783
 8159SOL    HW235937   3.862   1.584   7.696 -0.4158  0.2473  3.2039
 8160SOL     OW35938   0.680   2.310   6.527 -0.3814  0.5780  0.6187
 8160SOL    HW135939   0.768   2.316   6.563  0.1640  1.1722 -0.8264
 8160SOL    HW235940   0.669   2.403   6.505  2.3246  0.6147 -0.6025
 8161SOL     OW35941   0.414   2.893   3.942  0.2268 -0.4621  0.0741
 8161SOL    HW135942   0.474   2.967   3.929  0.7756 -1.0174 -0.5669
 8161SOL    HW235943   0.419   2.872   4.035  1.2340  1.1121  0.3825
 8162SOL     OW35944   0.467   3.736  13.897 -0.6455 -0.3119  0.0459
 8162SOL    HW135945   0.525   3.672  13.857 -0.8238  1.7341 -3.4822
 8162SOL    HW235946   0.416   3.682  13.958 -2.0173  1.6914  0.6631
 8163SOL     OW35947   3.393   3.969   4.237 -0.4665 -0.6376 -0.4669
 8163SOL    HW135948   3.441   3.991   4.157  1.5027  2.8320  1.6858
 8163SOL    HW235949   3.319   4.029   4.238 -0.4471 -0.6275  0.0567
 8164SOL     OW35950   4.152   0.647  15.803  0.9612 -0.2401  0.4334
 8164SOL    HW135951   4.062   0.660  15.835  0.6960  0.2307 -0.4852
 8164SOL    HW235952   4.196   0.616  15.881  2.4545 -0.0666 -0.3430
 8165SOL     OW35953   2.337   4.372  13.336 -0.0654  0.4706 -0.0259
 8165SOL    HW135954   2.378   4.317  13.403  1.6399  1.3809 -0.3189
 8165SOL    HW235955   2.404   4.403  13.275 -0.5144 -0.6516 -1.0755
 8166SOL     OW35956   4.017   2.909   3.808  0.2231 -0.1170 -0.0672
 8166SOL    HW135957   4.051   2.972   3.872 -0.7518 -0.4290  0.7725
 8166SOL    HW235958   4.097   2.878   3.767 -0.2983 -0.3867 -0.8765
 8167SOL     OW35959   3.660   2.956   7.141  0.1832  0.3755 -0.2122
 8167SOL    HW135960   3.652   3.024   7.209 -0.3405  0.6970 -0.5976
 8167SOL    HW235961   3.574   2.914   7.147  0.1572  0.7682  2.4774
 8168SOL     OW35962   0.325   4.085   8.441  0.1740 -0.2945 -0.7163
 8168SOL    HW135963   0.323   4.063   8.348  0.2491  0.2002 -0.8348
 8168SOL    HW235964   0.407   4.037   8.453  0.7047  0.6480 -0.6628
 8169SOL     OW35965   4.676   4.307  15.513 -0.3613  0.1278  0.0028
 8169SOL    HW135966   4.648   4.397  15.526  1.9082  0.5721  1.7539
 8169SOL    HW235967   4.621   4.259  15.575  0.5521 -0.8594  0.0592
 8170SOL     OW35968   1.125   3.737   4.186 -0.5456  0.1435  0.1454
 8170SOL    HW135969   1.169   3.702   4.108 -0.5893 -0.2674  0.3009
 8170SOL    HW235970   1.096   3.820   4.148 -0.6171  0.3135  0.5788
 8171SOL     OW35971   3.267   3.076   4.144 -0.3411  0.1133  0.0625
 8171SOL    HW135972   3.314   3.082   4.061  1.2736  0.3887  0.9874
 8171SOL    HW235973   3.310   3.151   4.184 -1.7725  0.8552  0.1941
 8172SOL     OW35974   1.869   3.751   7.988  0.6391  0.1635  0.2534
 8172SOL    HW135975   1.883   3.823   7.927  1.5690 -0.8180 -0.6946
 8172SOL    HW235976   1.819   3.689   7.935  0.9033  1.7130 -1.8294
 8173SOL     OW35977   2.323   0.864  13.149  0.3273  0.3854 -0.4327
 8173SOL    HW135978   2.303   0.786  13.201 -1.2395  1.0316 -0.0600
 8173SOL    HW235979   2.408   0.858  13.106 -0.1409  2.0333 -1.6012
 8174SOL     OW35980   4.002   2.521   3.744  0.2835 -0.1946  0.4595
 8174SOL    HW135981   4.075   2.461   3.755 -0.4756 -0.8546  1.8234
 8174SOL    HW235982   4.049   2.589   3.791  0.0009 -0.0025  0.4659
 8175SOL     OW35983   1.520   3.275   6.521 -0.0031 -0.2035 -0.7762
 8175SOL    HW135984   1.596   3.334   6.516 -1.1713  1.4123  0.5272
 8175SOL    HW235985   1.455   3.345   6.513  0.7866  0.8179  1.8527
 8176SOL     OW35986   4.048   3.687   6.937 -0.3728  0.2110 -0.3594
 8176SOL    HW135987   3.967   3.654   6.900  0.4530 -0.5813 -1.4635
 8176SOL    HW235988   4.068   3.625   7.007  0.6721 -0.6826 -1.4503
 8177SOL     OW35989   1.638   0.556   5.142  0.0801  0.5910 -0.1268
 8177SOL    HW135990   1.591   0.616   5.201  0.9252  1.2436 -0.1043
 8177SOL    HW235991   1.692   0.498   5.195 -1.3593 -1.7802 -1.2963
 8178SOL     OW35992   4.230   2.684   2.632 -0.2246  0.9141  0.5904
 8178SOL    HW135993   4.241   2.640   2.548  1.7259  1.9096  0.3338
 8178SOL    HW235994   4.137   2.663   2.644 -0.1224 -1.1589 -2.2765
 8179SOL     OW35995   1.250   3.847   8.632  0.4060 -0.2252 -0.3653
 8179SOL    HW135996   1.302   3.816   8.706  0.2351 -2.6005 -1.2472
 8179SOL    HW235997   1.301   3.927   8.617  0.8614 -0.7472 -1.5590
 8180SOL     OW35998   4.653   2.981   2.645  0.2426 -0.2205 -0.8246
 8180SOL    HW135999   4.581   3.014   2.699  1.3363  0.6693  0.0832
 8180SOL    HW236000   4.613   2.901   2.610 -0.5269  0.2476 -1.0096
 8181SOL     OW36001   2.928   2.999   5.869 -0.8330 -0.3433 -0.7108
 8181SOL    HW136002   2.837   2.969   5.875 -0.7972 -0.2839  0.1848
 8181SOL    HW236003   2.976   2.945   5.931 -1.7417  0.2172  0.4704
 8182SOL     OW36004   0.171   2.123   7.375 -0.0180  0.6276 -0.1433
 8182SOL    HW136005   0.136   2.201   7.418  1.3484  2.0122 -1.5828
 8182SOL    HW236006   0.093   2.067   7.374 -0.3311  1.0731 -0.5254
 8183SOL     OW36007   0.500   3.019   1.265 -0.1780  0.9002 -0.7344
 8183SOL    HW136008   0.438   2.951   1.292  2.7561 -0.3854  2.7048
 8183SOL    HW236009   0.468   3.051   1.180 -1.3998 -1.0645 -1.0287
 8184SOL     OW36010   3.932   1.244   4.780 -0.0142 -0.7790  0.5555
 8184SOL    HW136011   4.022   1.247   4.814  0.2240 -0.6384 -0.0985
 8184SOL    HW236012   3.915   1.152   4.800  0.0593 -0.6405  1.2696
 8185SOL     OW36013   4.066   0.070   5.154 -0.2272  0.2087  0.3078
 8185SOL    HW136014   4.132   0.002   5.140 -0.8818 -0.3303 -0.1422
 8185SOL    HW236015   4.058   0.051   5.248 -0.8250  1.1154  0.4321
 8186SOL     OW36016   4.160   1.682   7.239  0.0872 -0.2112  0.3799
 8186SOL    HW136017   4.233   1.667   7.299  1.4202  1.8466 -0.7103
 8186SOL    HW236018   4.085   1.698   7.296  1.6980 -0.1645  2.4529
 8187SOL     OW36019   2.638   0.732   0.452  0.4872  0.1392 -0.4387
 8187SOL    HW136020   2.625   0.637   0.455 -0.9067  0.4153  3.1641
 8187SOL    HW236021   2.555   0.771   0.479  1.1115  0.9947  0.2401
 8188SOL     OW36022   2.324   3.958   9.554 -0.6085  0.8667 -0.3483
 8188SOL    HW136023   2.396   3.971   9.615 -0.4730  0.0403 -0.3333
 8188SOL    HW236024   2.252   3.957   9.618 -0.3019 -3.8594 -0.0855
 8189SOL     OW36025   1.003   3.751   8.093 -0.4393 -0.2477  0.4868
 8189SOL    HW136026   1.029   3.843   8.101 -0.2764 -0.3080  0.6621
 8189SOL    HW236027   0.992   3.743   7.999 -1.0398 -1.5119  0.6706
 8190SOL     OW36028   2.681   4.672   3.481 -0.7911  0.1298 -0.3858
 8190SOL    HW136029   2.588   4.675   3.502 -0.3389  2.3788  1.2240
 8190SOL    HW236030   2.714   0.005   3.552 -0.3387 -0.3900 -0.1878
 8191SOL     OW36031   3.229   2.590   4.148  0.0102  0.5266 -0.5047
 8191SOL    HW136032   3.210   2.548   4.065 -1.2532  1.5519 -0.7272
 8191SOL    HW236033   3.181   2.672   4.138 -0.5952  0.0661 -1.3759
 8192SOL     OW36034   0.728   1.783   6.183 -0.0452 -0.0297  0.1302
 8192SOL    HW136035   0.786   1.715   6.148  1.1773  0.8215  0.4996
 8192SOL    HW236036   0.746   1.855   6.122  0.1276 -1.7064 -1.8387
 8193SOL     OW36037   0.161   3.901   0.299  0.0250  0.0786  0.1717
 8193SOL    HW136038   0.159   3.807   0.317 -2.2533 -0.0658 -0.8826
 8193SOL    HW236039   0.219   3.892   0.223  1.3881  1.1324  1.0905
 8194SOL     OW36040   1.827   4.151   0.973  0.2266  0.2864  0.7246
 8194SOL    HW136041   1.773   4.229   0.988 -0.1635 -0.0302  0.9787
 8194SOL    HW236042   1.897   4.170   1.035  0.6060  1.1507  0.0250
 8195SOL     OW36043   1.568   1.540  13.130 -0.5201 -0.0016  0.2313
 8195SOL    HW136044   1.574   1.620  13.078 -0.9233 -0.6080 -0.7339
 8195SOL    HW236045   1.475   1.516  13.129 -0.7335  0.9510 -2.0927
 8196SOL     OW36046   4.115   2.154   3.164 -0.4797 -0.1446 -0.5125
 8196SOL    HW136047   4.110   2.077   3.106  0.3143  0.3926 -1.2951
 8196SOL    HW236048   4.158   2.214   3.103  0.9254 -1.2550 -0.6022
 8197SOL     OW36049   2.451   2.836   2.593 -0.2659 -0.1264 -0.1822
 8197SOL    HW136050   2.414   2.748   2.601 -1.8485  0.6380  0.8558
 8197SOL    HW236051   2.446   2.864   2.685 -1.6225  2.0472 -0.9382
 8198SOL     OW36052   1.328   2.136   0.230  0.2858  0.1847  0.5787
 8198SOL    HW136053   1.415   2.161   0.200 -0.1510  1.5283  0.4246
 8198SOL    HW236054   1.346   2.137   0.324  0.5179 -1.3080  0.5477
 8199SOL     OW36055   1.887   0.777   4.545  0.5678 -0.5140  0.2144
 8199SOL    HW136056   1.976   0.811   4.536  0.1323  0.4282 -0.4717
 8199SOL    HW236057   1.891   0.700   4.487  0.2017 -0.4295  0.0820
 8200SOL     OW36058   2.821   3.030   2.040 -0.5490 -0.3920  0.1077
 8200SOL    HW136059   2.867   3.111   2.058  0.5117 -0.2888 -3.1245
 8200SOL    HW236060   2.865   3.005   1.958 -1.0739  0.0550 -0.3096
 8201SOL     OW36061   1.091   4.379   4.595  0.1217  0.3574 -0.4246
 8201SOL    HW136062   1.072   4.458   4.545  1.1779 -0.5568 -2.2468
 8201SOL    HW236063   1.129   4.402   4.680 -2.0794 -1.4062  1.0318
 8202SOL     OW36064   3.207   3.535   4.816 -0.0357 -0.1595  0.7149
 8202SOL    HW136065   3.183   3.566   4.729 -0.0675  1.3270  1.2535
 8202SOL    HW236066   3.201   3.618   4.863 -0.1579  0.2505 -0.0231
 8203SOL     OW36067   0.604   0.294   5.613 -0.1780  0.6375 -0.0183
 8203SOL    HW136068   0.580   0.231   5.681  1.1346 -1.3093 -1.3844
 8203SOL    HW236069   0.571   0.254   5.533  0.6033  1.9779 -1.0162
 8204SOL     OW36070   4.534   1.318   3.340  0.0634 -0.2662  0.0348
 8204SOL    HW136071   4.537   1.227   3.370  0.0851  0.6541  2.7952
 8204SOL    HW236072   4.560   1.307   3.248  0.8699  3.2522 -0.1555
 8205SOL     OW36073   1.834   1.397   3.784  0.4963 -0.6012  0.2482
 8205SOL    HW136074   1.853   1.316   3.736  1.7893 -0.3083  0.2492
 8205SOL    HW236075   1.820   1.462   3.715  0.3625 -2.4453 -1.4665
 8206SOL     OW36076   3.164   2.202  15.633  0.4611 -0.5640 -0.2810
 8206SOL    HW136077   3.211   2.284  15.619 -0.5500  0.5340  2.6831
 8206SOL    HW236078   3.107   2.190  15.557  1.4109  0.0829 -1.0901
 8207SOL     OW36079   0.841   2.357   6.799 -0.4594 -0.0343 -0.1258
 8207SOL    HW136080   0.810   2.447   6.787 -0.9306 -0.0352  1.1647
 8207SOL    HW236081   0.907   2.361   6.868 -1.2545  0.3217  0.6149
 8208SOL     OW36082   2.577   2.309   5.402  0.1362 -0.0258 -0.7871
 8208SOL    HW136083   2.646   2.338   5.343  0.0916  1.7332  0.0442
 8208SOL    HW236084   2.625   2.327   5.482 -0.3094  0.4145 -0.6178
 8209SOL     OW36085   3.515   4.496  10.044  0.6361 -0.1502 -0.2177
 8209SOL    HW136086   3.425   4.496  10.012  1.1832 -2.0897 -1.7449
 8209SOL    HW236087   3.526   4.401  10.039 -0.1089 -0.2819  0.5058
 8210SOL     OW36088   3.462   1.037   6.617  0.6455  0.1966  0.4161
 8210SOL    HW136089   3.414   0.982   6.556  0.2567  0.2357  0.6865
 8210SOL    HW236090   3.551   1.002   6.617  0.3608 -0.5444  3.3697
 8211SOL     OW36091   3.239   1.443   3.259  0.4707 -0.0137  0.6323
 8211SOL    HW136092   3.209   1.505   3.193  0.9283  0.7204  1.1236
 8211SOL    HW236093   3.163   1.430   3.316 -1.1520  1.4075 -1.2101
 8212SOL     OW36094   2.104   3.450   9.799 -0.1088  0.0729  0.5254
 8212SOL    HW136095   2.057   3.436   9.881 -0.7612  0.8940  0.2927
 8212SOL    HW236096   2.131   3.358   9.798 -1.4261 -0.3127  0.7971
 8213SOL     OW36097   3.461   2.055   6.235 -0.7272 -0.2463  0.2479
 8213SOL    HW136098   3.545   2.023   6.267 -0.9774 -2.3042 -1.1847
 8213SOL    HW236099   3.483   2.129   6.178  2.7039 -0.5021  1.2793
 8214SOL     OW36100   1.745   1.999   4.537 -0.2890  0.7376  0.3514
 8214SOL    HW136101   1.667   2.047   4.509  0.9021  2.1253 -0.5577
 8214SOL    HW236102   1.745   1.928   4.472  1.2021  2.1726 -1.1955
 8215SOL     OW36103   2.732   4.384   4.917  0.1623  0.2885 -0.0189
 8215SOL    HW136104   2.689   4.439   4.851 -1.2972 -1.4736 -0.5190
 8215SOL    HW236105   2.663   4.409   4.978 -0.5190  0.3594 -0.8081
 8216SOL     OW36106   3.754   0.599   5.995  0.4998 -0.4150  0.7437
 8216SOL    HW136107   3.831   0.545   5.979  0.2156 -1.3108  2.4712
 8216SOL    HW236108   3.786   0.666   6.056 -0.3850  0.9657 -0.3052
 8217SOL     OW36109   2.104   0.392   6.096 -0.3454 -0.0445  0.8214
 8217SOL    HW136110   2.075   0.345   6.174  0.1421  0.8609  1.5401
 8217SOL    HW236111   2.164   0.329   6.054  0.3481  0.4161  1.1221
 8218SOL     OW36112   0.229   1.976   4.196  0.0998 -0.1789  0.1150
 8218SOL    HW136113   0.306   2.033   4.197 -0.1811  0.1945  0.2243
 8218SOL    HW236114   0.195   2.010   4.113 -0.2797  0.1707  0.4139
 8219SOL     OW36115   1.912   1.573   6.336  0.6903  0.1398  0.0927
 8219SOL    HW136116   1.964   1.497   6.361 -0.6909  0.0351  2.5918
 8219SOL    HW236117   1.965   1.592   6.258  0.5179 -0.3443 -0.1455
 8220SOL     OW36118   0.651   3.340  16.124  0.6140 -0.8709  0.6800
 8220SOL    HW136119   0.702   3.312  16.048  0.0041  1.3966 -0.5572
 8220SOL    HW236120   0.705   3.397  16.180  0.8355 -0.7531  0.3440
 8221SOL     OW36121   1.683   3.123   8.368  0.5256  0.7503  0.1456
 8221SOL    HW136122   1.645   3.209   8.381  1.7752  1.4272 -0.6800
 8221SOL    HW236123   1.707   3.141   8.277  1.1541  0.1178  0.1842
 8222SOL     OW36124   0.151   0.521   6.060  0.2103 -0.4003  0.1412
 8222SOL    HW136125   0.157   0.589   6.127 -3.3606 -0.1968  0.2549
 8222SOL    HW236126   0.066   0.487   6.086 -1.9168  4.2331 -0.8279
 8223SOL     OW36127   1.763   2.566   1.615  0.0434  0.0488  0.3915
 8223SOL    HW136128   1.837   2.508   1.627 -0.2285 -0.5524 -0.7816
 8223SOL    HW236129   1.783   2.623   1.540  3.2818 -1.5746  0.0406
 8224SOL     OW36130   1.654   2.695  13.488 -0.0981 -0.3014 -0.3420
 8224SOL    HW136131   1.743   2.722  13.467 -0.9029  2.6818  0.0710
 8224SOL    HW236132   1.655   2.653  13.574  0.4964  0.2638 -0.0704
 8225SOL     OW36133   3.573   3.201   7.248 -0.1228  0.0589  0.3336
 8225SOL    HW136134   3.484   3.218   7.218 -0.4913  1.1204  2.0508
 8225SOL    HW236135   3.598   3.290   7.272 -1.9448  0.5513  0.3480
 8226SOL     OW36136   2.834   1.749   5.636  0.1425 -0.0004 -0.1532
 8226SOL    HW136137   2.893   1.724   5.565 -2.3774  0.3606 -2.3741
 8226SOL    HW236138   2.854   1.843   5.634  1.9776 -0.3792  0.3729
 8227SOL     OW36139   2.402   2.656  10.016 -0.3781  0.5657  0.1168
 8227SOL    HW136140   2.388   2.565  10.042  0.9835  0.0596 -0.9240
 8227SOL    HW236141   2.313   2.690  10.021 -1.1337 -1.2013 -1.2443
 8228SOL     OW36142   4.338   2.009   5.269 -0.4837  0.2083  0.6741
 8228SOL    HW136143   4.404   1.945   5.299 -1.0818  0.3318  2.2509
 8228SOL    HW236144   4.390   2.089   5.281  0.1720 -0.2395  0.8505
 8229SOL     OW36145   0.616   2.957   6.386 -0.2791 -0.3137 -0.2050
 8229SOL    HW136146   0.528   2.974   6.419 -1.0052  2.0169 -3.3003
 8229SOL    HW236147   0.640   2.897   6.456  0.0756 -0.1813 -0.2141
 8230SOL     OW36148   0.103   4.250   5.214  0.0904  0.0920  0.0662
 8230SOL    HW136149   0.078   4.164   5.178 -0.0849  0.9921 -1.9430
 8230SOL    HW236150   0.051   4.250   5.294  0.1382 -0.8549  0.1037
 8231SOL     OW36151   2.540   1.546  15.573 -0.0949  0.1123  0.2695
 8231SOL    HW136152   2.623   1.549  15.620  0.6361  0.1698 -1.0022
 8231SOL    HW236153   2.490   1.500  15.640 -1.3060 -2.0829 -2.0913
 8232SOL     OW36154   3.748   1.259   2.101 -0.0901 -0.3210 -0.0661
 8232SOL    HW136155   3.745   1.287   2.009  0.8438 -0.8387 -0.2612
 8232SOL    HW236156   3.842   1.249   2.116 -0.1916 -1.9483 -0.4588
 8233SOL     OW36157   0.583   1.034   3.987  0.1247  0.1666 -0.9762
 8233SOL    HW136158   0.542   1.073   3.910  0.2552 -0.6631 -1.4659
 8233SOL    HW236159   0.654   1.096   4.006  0.5434 -1.1217  1.7222
 8234SOL     OW36160   3.296   1.502   8.898 -0.0614 -0.1583  0.2152
 8234SOL    HW136161   3.225   1.503   8.962  1.3798  0.0046  1.8064
 8234SOL    HW236162   3.282   1.592   8.869  0.9185 -0.0940 -0.0736
 8235SOL     OW36163   4.117   2.207   6.014  0.1606  0.2028  0.5337
 8235SOL    HW136164   4.148   2.118   6.029  0.1981  0.2800  0.9148
 8235SOL    HW236165   4.171   2.223   5.936 -1.3008 -0.4045 -0.6009
 8236SOL     OW36166   3.864   4.233  13.525  0.1522 -0.4186 -0.1293
 8236SOL    HW136167   3.870   4.270  13.437 -0.3475 -1.4010 -0.5859
 8236SOL    HW236168   3.853   4.312  13.577  0.1165 -0.7557  0.3695
 8237SOL     OW36169   3.554   0.114   8.765  0.0978 -0.0054  0.3223
 8237SOL    HW136170   3.611   0.091   8.838  1.7943  3.0448 -0.0547
 8237SOL    HW236171   3.465   0.105   8.799 -0.4571  1.5074 -0.7328
 8238SOL     OW36172   2.545   4.334   2.105  0.4596  0.0536  0.0893
 8238SOL    HW136173   2.595   4.380   2.172  0.9405 -0.6323  0.1964
 8238SOL    HW236174   2.514   4.255   2.148 -1.1119  0.7516  0.2089
 8239SOL     OW36175   2.065   0.052   5.860  0.3622  0.0463  0.0016
 8239SOL    HW136176   2.038   4.700   5.913  1.9781 -0.8821 -0.4603
 8239SOL    HW236177   2.033   0.021   5.775  1.4927  2.3173 -1.2462
 8240SOL     OW36178   4.504   4.023  13.229 -0.0083  0.0622 -0.5628
 8240SOL    HW136179   4.548   3.959  13.285  0.0196  0.9843  0.4746
 8240SOL    HW236180   4.547   4.108  13.233  2.8907 -1.3298 -2.7505
 8241SOL     OW36181   1.555   2.624  13.252 -0.2609  0.0268  0.3535
 8241SOL    HW136182   1.571   2.666  13.336  0.4880  0.8848 -0.2210
 8241SOL    HW236183   1.627   2.561  13.251 -0.8844 -0.6612 -2.3254
 8242SOL     OW36184   2.435   3.688   3.271 -0.1088  0.3109 -0.3822
 8242SOL    HW136185   2.372   3.757   3.289 -1.1854 -0.5463 -0.8424
 8242SOL    HW236186   2.388   3.637   3.205 -2.2117  0.8605  0.6888
 8243SOL     OW36187   4.282   3.550  12.923  0.4886 -0.5667 -0.2660
 8243SOL    HW136188   4.351   3.492  12.956  0.2396 -1.4193 -1.2642
 8243SOL    HW236189   4.331   3.631  12.940  0.6530 -0.3744 -1.7028
 8244SOL     OW36190   0.250   3.790   5.188 -0.5931 -0.0863  0.4099
 8244SOL    HW136191   0.278   3.765   5.276  3.2807 -0.7151 -1.0008
 8244SOL    HW236192   0.166   3.823   5.220 -1.6829 -1.1312 -1.3713
 8245SOL     OW36193   1.378   2.356   3.829  0.0822  0.2494  0.1317
 8245SOL    HW136194   1.320   2.431   3.844  0.3438  0.6352 -0.7866
 8245SOL    HW236195   1.322   2.312   3.766 -1.8226 -0.4030  2.2772
 8246SOL     OW36196   2.097   1.709   8.465 -0.0705  0.5915  0.6949
 8246SOL    HW136197   2.172   1.743   8.513 -0.5068 -0.1551  1.8978
 8246SOL    HW236198   2.060   1.787   8.423  1.3797  0.8598 -0.0913
 8247SOL     OW36199   4.335   0.072   4.842  0.3053 -0.4315 -0.2490
 8247SOL    HW136200   4.287   4.712   4.844  1.1211 -0.9966 -3.2736
 8247SOL    HW236201   4.421   0.043   4.811  2.4579  3.6567  1.8226
 8248SOL     OW36202   2.234   1.318   1.844  0.0889  0.1693  0.1538
 8248SOL    HW136203   2.247   1.333   1.938 -0.8572  1.7505  0.0302
 8248SOL    HW236204   2.323   1.335   1.814  0.0726 -0.5688 -0.3031
 8249SOL     OW36205   1.728   2.909   6.936  0.2790  0.4731 -0.8388
 8249SOL    HW136206   1.641   2.950   6.940  0.2763  0.3764  0.1069
 8249SOL    HW236207   1.738   2.886   6.844  0.1020 -1.0126 -0.4785
 8250SOL     OW36208   4.414   3.909  16.768 -0.0955  0.4351 -0.2112
 8250SOL    HW136209   4.395   3.956  16.850  2.7442 -1.2480  1.3705
 8250SOL    HW236210   4.477   3.967  16.726  2.0925 -1.2591  0.7767
 8251SOL     OW36211   0.980   2.191   0.705 -0.3444 -0.2048  0.4842
 8251SOL    HW136212   1.040   2.185   0.779  0.4810 -0.4436 -0.2142
 8251SOL    HW236213   0.907   2.138   0.737 -0.8189  0.8422  1.1674
 8252SOL     OW36214   2.239   0.154   2.717 -0.2310 -0.8510 -0.4984
 8252SOL    HW136215   2.232   0.118   2.629  3.0995  0.2041 -1.2154
 8252SOL    HW236216   2.186   0.232   2.696 -0.6564 -0.5663  1.6596
 8253SOL     OW36217   4.422   3.909   2.521  0.1367 -0.0920  0.3478
 8253SOL    HW136218   4.382   3.989   2.488  2.1984  0.8397  0.1281
 8253SOL    HW236219   4.506   3.948   2.544  1.6738 -2.8935 -0.5581
 8254SOL     OW36220   2.255   1.899   4.218 -0.4144  0.7473  0.3092
 8254SOL    HW136221   2.189   1.932   4.280  0.8151  1.1803  1.4029
 8254SOL    HW236222   2.274   1.978   4.167  4.5362 -0.3841  0.4095
 8255SOL     OW36223   0.036   4.566  10.066  0.0768 -0.3319 -0.4828
 8255SOL    HW136224   0.025   4.641  10.007 -0.0148 -0.8889 -1.1845
 8255SOL    HW236225   4.689   4.570  10.131 -1.9560 -0.2764 -2.6390
 8256SOL     OW36226   3.504   4.422   8.850  0.0288 -0.4209 -0.1629
 8256SOL    HW136227   3.462   4.445   8.767 -1.7442 -1.4650  0.4345
 8256SOL    HW236228   3.582   4.475   8.836  0.1007 -0.4516  0.1072
 8257SOL     OW36229   1.583   4.623  12.069 -0.1087  0.0990  0.2517
 8257SOL    HW136230   1.645   4.634  11.997  0.3570 -2.2821  0.2987
 8257SOL    HW236231   1.534   4.545  12.040 -0.0805 -0.6969  2.3974
 8258SOL     OW36232   2.155   4.053   2.476  0.0387 -0.4619 -0.1306
 8258SOL    HW136233   2.211   3.979   2.500  0.3141  0.1384  1.0862
 8258SOL    HW236234   2.136   4.032   2.385  0.1553  2.2186 -0.7739
 8259SOL     OW36235   3.837   1.205   1.085 -0.0198 -0.2858 -0.3478
 8259SOL    HW136236   3.777   1.131   1.086 -1.0247  0.5287  0.3587
 8259SOL    HW236237   3.780   1.275   1.052  0.6445  1.7283  2.7839
 8260SOL     OW36238   2.894   0.557  12.743  0.2737  0.0929  0.3257
 8260SOL    HW136239   2.921   0.477  12.788  2.2873 -0.2017 -1.3930
 8260SOL    HW236240   2.853   0.609  12.812  2.5707 -0.8490  2.4004
 8261SOL     OW36241   2.247   1.623   4.511  0.3516 -0.3545 -0.9439
 8261SOL    HW136242   2.261   1.574   4.592  2.5622  1.5281 -0.1637
 8261SOL    HW236243   2.310   1.693   4.529 -0.8339  1.2465 -3.0342
 8262SOL     OW36244   2.414   0.919   1.870 -0.5682 -0.5368  0.3944
 8262SOL    HW136245   2.484   0.869   1.828  0.5862  1.4565 -0.0499
 8262SOL    HW236246   2.347   0.913   1.802 -2.0551 -0.2479  1.8509
 8263SOL     OW36247   4.537   4.287   5.708  0.0724 -0.1231  0.2520
 8263SOL    HW136248   4.474   4.333   5.764 -1.2077 -0.7363 -0.7090
 8263SOL    HW236249   4.596   4.264   5.780 -0.1291 -0.8620  0.1758
 8264SOL     OW36250   4.695   2.488   3.971  0.3346  0.0383  0.9732
 8264SOL    HW136251   0.011   2.459   4.054  2.0881 -0.5398 -0.0358
 8264SOL    HW236252   0.043   2.545   3.940 -0.7145 -0.2475 -1.9049
 8265SOL     OW36253   3.459   1.468  11.334  0.0462 -0.2749  0.2311
 8265SOL    HW136254   3.533   1.515  11.371 -0.0400  0.5458 -0.6410
 8265SOL    HW236255   3.381   1.508  11.373  0.4613  1.2424 -0.5389
 8266SOL     OW36256   0.814   4.036   2.413 -0.0703 -0.1963 -0.2678
 8266SOL    HW136257   0.864   3.975   2.359 -2.1605 -0.3762 -2.0534
 8266SOL    HW236258   0.731   4.042   2.365 -0.3896 -3.1120 -0.0865
 8267SOL     OW36259   0.122   0.592  10.934  0.3245  0.5843  0.2740
 8267SOL    HW136260   0.039   0.615  10.891  0.4162  1.0489  0.3398
 8267SOL    HW236261   0.090   0.521  10.990 -0.6197  1.2378  0.5782
 8268SOL     OW36262   3.004   3.038   1.216  0.3674 -0.4252  0.4985
 8268SOL    HW136263   3.044   2.982   1.282  1.0459 -1.9864 -1.2416
 8268SOL    HW236264   2.909   3.027   1.227  0.1095 -0.7940 -1.9401
 8269SOL     OW36265   3.139   2.385   7.222  0.1293 -0.2085  0.3361
 8269SOL    HW136266   3.171   2.438   7.295  0.9366  0.6074 -0.6028
 8269SOL    HW236267   3.071   2.332   7.264  0.4403 -1.7753 -1.1319
 8270SOL     OW36268   3.084   3.474   5.449  0.3047  0.5280  0.2443
 8270SOL    HW136269   3.158   3.441   5.500  0.2974 -0.7430 -0.5753
 8270SOL    HW236270   3.016   3.461   5.515 -1.7997  0.3555 -1.9293
 8271SOL     OW36271   0.383   3.205  11.007  0.0793 -0.7112 -0.3502
 8271SOL    HW136272   0.437   3.249  10.941  1.0718  1.4312  1.9282
 8271SOL    HW236273   0.326   3.278  11.030  1.2969  0.4376 -1.0025
 8272SOL     OW36274   0.924   2.105   9.445 -0.1502 -0.8301 -0.2403
 8272SOL    HW136275   0.994   2.120   9.382 -0.3389 -1.1222 -0.5204
 8272SOL    HW236276   0.974   2.103   9.526  2.1876 -0.3541 -1.6806
 8273SOL     OW36277   2.959   0.493   4.898 -0.4074  0.7372 -0.1283
 8273SOL    HW136278   3.048   0.468   4.922 -1.2882 -0.8221  1.5476
 8273SOL    HW236279   2.964   0.587   4.878  2.2195  0.4607 -0.6914
 8274SOL     OW36280   3.006   1.248   2.661 -0.3135 -0.1554 -0.2490
 8274SOL    HW136281   3.043   1.322   2.709 -3.2772 -0.0608  1.9300
 8274SOL    HW236282   3.076   1.185   2.649  1.1614  1.4396 -0.0445
 8275SOL     OW36283   4.528   3.163   4.333  0.6258 -0.2382 -0.1577
 8275SOL    HW136284   4.461   3.211   4.382 -0.4043 -1.1592 -0.6595
 8275SOL    HW236285   4.608   3.213   4.349 -1.1559  2.2538  1.0029
 8276SOL     OW36286   3.063   3.185   6.248 -0.1041 -0.5018 -0.2251
 8276SOL    HW136287   3.144   3.146   6.213  1.4960  0.5038  2.3554
 8276SOL    HW236288   3.097   3.263   6.291 -0.7510 -1.9030  2.7978
 8277SOL     OW36289   2.515   0.014   5.575  0.2692 -0.4220  0.3200
 8277SOL    HW136290   2.582   0.029   5.642 -1.0073 -1.2929  1.7872
 8277SOL    HW236291   2.447   0.069   5.613 -0.6789 -1.5749  0.2779
 8278SOL     OW36292   4.082   0.632   2.308 -0.2767  0.7918  0.4101
 8278SOL    HW136293   4.030   0.552   2.303 -0.4062  0.8724  0.4558
 8278SOL    HW236294   4.110   0.622   2.217 -0.5200 -0.4945  0.4725
 8279SOL     OW36295   0.810   1.006   9.181 -0.5459 -0.0056 -0.6421
 8279SOL    HW136296   0.717   1.007   9.159 -0.7921  0.3569  0.4265
 8279SOL    HW236297   0.810   0.910   9.184  0.1942  0.0060 -0.2159
 8280SOL     OW36298   2.879   0.519   3.955 -0.2334 -0.4333  0.4871
 8280SOL    HW136299   2.908   0.491   3.868 -0.5849  1.8413 -0.3719
 8280SOL    HW236300   2.955   0.483   4.001  0.0589  2.0967  2.0075
 8281SOL     OW36301   1.345   3.905  16.475  0.4778  0.1334  0.1405
 8281SOL    HW136302   1.270   3.903  16.535  1.6537  1.7543  1.6907
 8281SOL    HW236303   1.370   3.813  16.476 -1.1543 -0.3300 -4.0873
 8282SOL     OW36304   1.770   1.154   2.124 -0.5590  0.2116  0.1024
 8282SOL    HW136305   1.776   1.242   2.160 -0.3814 -0.2920  1.3013
 8282SOL    HW236306   1.685   1.136   2.163 -0.3301 -0.2269  0.4070
 8283SOL     OW36307   2.771   3.505  12.522 -1.3314  0.1236 -0.4065
 8283SOL    HW136308   2.820   3.467  12.595 -1.1954  2.0459  0.5226
 8283SOL    HW236309   2.834   3.500  12.451 -0.4885  1.3785  0.2480
 8284SOL     OW36310   3.940   3.360   8.026  0.5005  0.0761  0.2379
 8284SOL    HW136311   3.960   3.301   8.098  1.1942  0.9644  0.7731
 8284SOL    HW236312   4.028   3.381   7.993  0.7951  1.2372  1.7648
 8285SOL     OW36313   1.723   2.829   6.678 -0.0214 -0.5087  0.4498
 8285SOL    HW136314   1.658   2.850   6.611 -0.5045 -0.2730  0.9977
 8285SOL    HW236315   1.685   2.751   6.718  2.8087 -0.8411  2.4923
 8286SOL     OW36316   3.955   3.937   2.933 -0.3347 -0.5956 -0.2623
 8286SOL    HW136317   3.946   3.890   2.850  0.5531 -3.1098  1.0728
 8286SOL    HW236318   3.973   3.871   3.000  2.4178  0.7597  0.3543
 8287SOL     OW36319   2.849   0.768   3.721  0.5149 -0.2775 -0.1510
 8287SOL    HW136320   2.828   0.855   3.687 -0.2512 -0.3684  0.0747
 8287SOL    HW236321   2.831   0.785   3.813 -2.5764 -1.9633 -0.4416
 8288SOL     OW36322   3.948   1.922   2.457  0.3787 -0.3362  0.2293
 8288SOL    HW136323   3.914   1.840   2.423  2.7116 -1.1404 -0.1851
 8288SOL    HW236324   3.886   1.990   2.432 -0.6947 -1.0669  0.9257
 8289SOL     OW36325   1.645   0.480  16.247 -0.6455  0.1396 -0.0422
 8289SOL    HW136326   1.642   0.565  16.202  1.1568  0.3055  0.1521
 8289SOL    HW236327   1.619   0.419  16.178 -0.0193  1.7821 -1.7432
 8290SOL     OW36328   3.824   2.714  16.243 -0.1990  0.4459  0.5491
 8290SOL    HW136329   3.856   2.799  16.274 -0.5401  0.5234  0.6885
 8290SOL    HW236330   3.739   2.732  16.204  0.7577 -0.7275 -2.0941
 8291SOL     OW36331   3.398   1.136  17.400 -0.0941 -0.7819 -0.0730
 8291SOL    HW136332   3.326   1.158  17.341 -0.4311  1.1081  1.0381
 8291SOL    HW236333   3.442   1.220  17.408 -0.4928 -0.6098  0.3231
 8292SOL     OW36334   1.918   0.953   1.094 -0.6637  0.0279  0.0493
 8292SOL    HW136335   1.867   0.928   1.171 -1.7127 -0.2143 -0.7286
 8292SOL    HW236336   1.985   1.003   1.141  1.7104 -0.4778 -2.7708
 8293SOL     OW36337   0.155   3.956  10.346 -0.2877  0.0166  0.2303
 8293SOL    HW136338   0.233   3.953  10.400  1.0433 -0.7370 -1.7427
 8293SOL    HW236339   0.139   3.862  10.341 -0.6659  0.0545  0.7060
 8294SOL     OW36340   1.824   4.391  14.218 -0.1076  0.7502  0.1924
 8294SOL    HW136341   1.816   4.318  14.156  2.4169 -0.5268  1.3834
 8294SOL    HW236342   1.737   4.432  14.220  0.7126  2.5123 -0.2871
 8295SOL     OW36343   1.544   4.407  14.523  0.0178 -0.4325  0.0087
 8295SOL    HW136344   1.541   4.432  14.431  0.3737 -0.0871  0.0907
 8295SOL    HW236345   1.499   4.323  14.517 -0.2473 -0.3295  0.5703
 8296SOL     OW36346   0.737   0.094  16.366 -0.6713 -0.1691  0.1378
 8296SOL    HW136347   0.795   0.017  16.366 -1.4901 -0.7828  0.9123
 8296SOL    HW236348   0.765   0.131  16.282  1.6891  1.0003  1.4372
 8297SOL     OW36349   3.517   3.943  13.423  0.1775 -0.0066 -0.4794
 8297SOL    HW136350   3.548   3.887  13.494 -0.4912  0.6689  0.3377
 8297SOL    HW236351   3.459   3.880  13.381  1.5864  0.4293 -3.0976
 8298SOL     OW36352   4.201   3.353   3.643  0.2731  0.8283  0.1612
 8298SOL    HW136353   4.259   3.427   3.624  1.2893  0.3287  1.3485
 8298SOL    HW236354   4.165   3.377   3.728 -2.0315 -1.2459 -0.2066
 8299SOL     OW36355   0.365   2.383   8.172  0.3214 -0.5877 -0.1832
 8299SOL    HW136356   0.281   2.338   8.161 -0.9133  1.5752  0.4473
 8299SOL    HW236357   0.383   2.374   8.266  1.1357  0.8514 -0.1993
 8300SOL     OW36358   2.383   4.556   6.071  0.0894 -0.2315  0.0504
 8300SOL    HW136359   2.374   4.511   5.987 -0.8181 -0.0682  0.0608
 8300SOL    HW236360   2.456   4.512   6.114  1.0465 -0.4451 -1.7878
 8301SOL     OW36361   2.156   3.074   1.763 -0.1741 -0.3047  0.2719
 8301SOL    HW136362   2.092   3.060   1.693  0.2695  3.5438 -0.9096
 8301SOL    HW236363   2.174   3.168   1.758  2.0275 -0.8043 -1.5781
 8302SOL     OW36364   2.871   2.322   5.328 -0.2076 -0.0485  0.4618
 8302SOL    HW136365   2.883   2.313   5.233 -2.8490  0.8041  0.0538
 8302SOL    HW236366   2.953   2.368   5.347 -1.5429  2.3952  0.3087
 8303SOL     OW36367   0.112   3.472  12.544  0.3013 -0.4412 -0.0548
 8303SOL    HW136368   0.202   3.504  12.545  0.0956  0.0284  2.5447
 8303SOL    HW236369   0.069   3.556  12.529  3.1747  0.4500 -3.4087
 8304SOL     OW36370   4.042   1.922  12.778 -0.1890  0.4788  0.4662
 8304SOL    HW136371   4.070   2.006  12.739 -1.6674  0.8974  0.3045
 8304SOL    HW236372   3.992   1.902  12.698  0.8041 -2.7288  0.6556
 8305SOL     OW36373   0.388   1.403   2.308  0.0644  0.2225 -0.2747
 8305SOL    HW136374   0.462   1.372   2.255 -0.0649  2.2826 -1.6649
 8305SOL    HW236375   0.408   1.347   2.383 -2.3456 -1.5584 -0.9689
 8306SOL     OW36376   1.150   3.786  12.086  1.0302  0.0368  0.2745
 8306SOL    HW136377   1.104   3.863  12.120  2.5549  2.6494 -3.6995
 8306SOL    HW236378   1.189   3.825  12.009  0.7182 -0.6981 -0.2538
 8307SOL     OW36379   0.429   1.374   8.550 -0.3932  0.0679 -0.4446
 8307SOL    HW136380   0.450   1.455   8.503 -0.1612  0.2125 -0.0884
 8307SOL    HW236381   0.511   1.353   8.593 -2.4887 -1.2236  2.8867
 8308SOL     OW36382   2.760   2.983   3.350 -0.2350  0.0686 -0.5504
 8308SOL    HW136383   2.779   2.966   3.257  0.3196 -0.1314 -0.3986
 8308SOL    HW236384   2.780   3.075   3.365 -0.5309 -0.0558  0.6013
 8309SOL     OW36385   1.358   1.375   2.153 -0.0604 -0.2139  0.2840
 8309SOL    HW136386   1.363   1.280   2.167  1.8991  0.0217  1.0679
 8309SOL    HW236387   1.292   1.378   2.083  0.0572 -2.4736  0.0639
 8310SOL     OW36388   4.029   3.010   8.078  0.1306 -0.1969  0.5889
 8310SOL    HW136389   4.104   3.040   8.027  1.2561 -1.8849  1.2686
 8310SOL    HW236390   4.033   3.057   8.161  1.5200  0.3574  0.1995
 8311SOL     OW36391   0.198   4.253   7.309  0.2822 -0.2675  0.3185
 8311SOL    HW136392   0.128   4.310   7.341  0.1990 -0.2448  0.0962
 8311SOL    HW236393   0.156   4.209   7.235  0.4757 -1.1993  0.7599
 8312SOL     OW36394   0.820   0.639   6.944 -0.0660  0.3540  0.5450
 8312SOL    HW136395   0.809   0.589   7.025  0.8745  1.1783  1.1905
 8312SOL    HW236396   0.730   0.673   6.939 -0.8242 -1.2074  3.6191
 8313SOL     OW36397   1.979   1.365   6.683  0.4976  0.4887 -0.2202
 8313SOL    HW136398   1.983   1.459   6.665  1.1105  0.5983  0.4935
 8313SOL    HW236399   2.042   1.354   6.754  0.2245  1.2181  0.1259
 8314SOL     OW36400   0.446   2.832   6.800 -0.2578 -0.2116  0.1569
 8314SOL    HW136401   0.365   2.782   6.790  1.0150 -2.4614  1.1315
 8314SOL    HW236402   0.424   2.922   6.774 -0.6367 -0.6362 -1.0079
 8315SOL     OW36403   3.655   0.677   3.651 -0.1534 -0.3756 -0.1505
 8315SOL    HW136404   3.639   0.719   3.566  1.0083  0.1489 -0.1052
 8315SOL    HW236405   3.716   0.611   3.619  1.1593  1.0062 -0.5226
 8316SOL     OW36406   0.199   0.682   7.895 -0.3210 -0.0838 -0.4875
 8316SOL    HW136407   0.221   0.740   7.968  1.0761 -1.7343  0.4017
 8316SOL    HW236408   0.129   0.637   7.941 -0.9864  0.4134 -1.0262
 8317SOL     OW36409   0.209   3.470  10.835 -0.3965 -0.1277  0.0175
 8317SOL    HW136410   0.229   3.523  10.911  0.2816 -0.9233  0.4015
 8317SOL    HW236411   0.177   3.542  10.781 -1.3209 -1.9427 -1.8794
 8318SOL     OW36412   0.183   3.860  15.612 -0.1798 -0.1598 -0.2828
 8318SOL    HW136413   0.173   3.771  15.646  1.0226 -0.2079 -0.0318
 8318SOL    HW236414   0.249   3.844  15.544 -0.6365 -1.5438 -0.3891
 8319SOL     OW36415   1.282   2.083   4.885  0.1501  0.2010  0.4092
 8319SOL    HW136416   1.375   2.060   4.881  0.0185 -0.8648  3.7858
 8319SOL    HW236417   1.259   2.125   4.802  1.6365  1.1493  0.4679
 8320SOL     OW36418   2.262   1.999   4.848  0.3706  0.0290  0.1118
 8320SOL    HW136419   2.283   2.087   4.817  1.3163  0.3068  1.5131
 8320SOL    HW236420   2.215   2.021   4.928  1.3685  0.7769  0.4939
 8321SOL     OW36421   4.139   0.486   5.506  0.0848  0.0825  0.2113
 8321SOL    HW136422   4.217   0.536   5.530  0.0384  0.7224 -0.9801
 8321SOL    HW236423   4.141   0.409   5.562 -0.4912 -0.6179 -0.7359
 8322SOL     OW36424   3.169   2.919   1.024  0.4836  0.1267 -0.3637
 8322SOL    HW136425   3.135   2.839   0.984 -1.5368  0.5416  0.5294
 8322SOL    HW236426   3.101   2.953   1.083  0.5745  0.0139 -0.1921
 8323SOL     OW36427   3.282   0.504   4.062  0.2881 -0.7981  0.3590
 8323SOL    HW136428   3.333   0.517   4.142 -1.3811  1.6707  1.0183
 8323SOL    HW236429   3.256   0.593   4.042 -1.0551 -1.1483  0.5656
 8324SOL     OW36430   3.011   2.360   4.281 -0.0006  0.3557  0.6642
 8324SOL    HW136431   3.098   2.386   4.253  0.0560 -0.7604 -0.2186
 8324SOL    HW236432   2.966   2.373   4.198  0.0420 -0.6447  0.4792
 8325SOL     OW36433   2.544   0.611   3.346  0.3023 -0.1502 -0.1910
 8325SOL    HW136434   2.632   0.624   3.309  0.3909  0.2506  0.1606
 8325SOL    HW236435   2.530   0.523   3.312  0.0154 -0.4417  0.6858
 8326SOL     OW36436   1.410   3.576  12.276  0.3124  0.1164  0.7949
 8326SOL    HW136437   1.411   3.624  12.193 -0.9440 -1.0464  0.1112
 8326SOL    HW236438   1.391   3.485  12.253 -2.7854  1.2933 -1.2583
 8327SOL     OW36439   4.239   1.623  17.677  0.3381 -0.5082  0.5373
 8327SOL    HW136440   4.256   1.559   0.054  0.8148 -0.3259  0.5869
 8327SOL    HW236441   4.188   1.576  17.612  1.2383 -1.1332  0.2879
 8328SOL     OW36442   4.675   2.116  10.855  0.0027 -0.1078 -0.2275
 8328SOL    HW136443   4.592   2.102  10.901  0.9954 -0.1670  1.5155
 8328SOL    HW236444   0.005   2.043  10.889 -0.5870 -0.1398  0.6101
 8329SOL     OW36445   0.539   1.024   9.111 -0.2720 -0.1109 -0.2909
 8329SOL    HW136446   0.466   0.971   9.078 -0.4874  0.7809 -1.2437
 8329SOL    HW236447   0.491   1.080   9.172  1.4369 -0.1134  1.0823
 8330SOL     OW36448   4.090   0.992   7.707 -0.3174  0.1916  0.4646
 8330SOL    HW136449   4.156   1.011   7.774 -1.3571  0.4076  1.4264
 8330SOL    HW236450   4.104   1.071   7.655 -2.3462  0.4828  0.3528
 8331SOL     OW36451   3.560   0.646   4.085  0.2298 -0.1196  0.0011
 8331SOL    HW136452   3.572   0.688   4.170  3.4245  1.6757 -1.3034
 8331SOL    HW236453   3.513   0.711   4.034 -1.1811  0.5751  2.2098
 8332SOL     OW36454   4.388   1.989  12.398  0.4547 -0.1356  0.1741
 8332SOL    HW136455   4.293   1.979  12.390  0.7086 -1.2665 -1.3194
 8332SOL    HW236456   4.388   2.063  12.338 -1.4921 -0.0541  0.2693
 8333SOL     OW36457   1.538   1.046   7.354  0.4538 -0.2913 -0.2067
 8333SOL    HW136458   1.498   1.092   7.428 -1.6040 -0.9362 -0.9142
 8333SOL    HW236459   1.620   1.012   7.388 -0.0247 -1.9197 -0.6766
 8334SOL     OW36460   0.731   2.044   6.014  0.3782  0.6433 -0.1303
 8334SOL    HW136461   0.728   2.110   6.084  2.1057  1.9776 -1.3260
 8334SOL    HW236462   0.648   2.051   5.966  0.5584 -2.2651 -0.8953
 8335SOL     OW36463   4.274   4.455   6.908 -0.6860 -0.4542  0.3967
 8335SOL    HW136464   4.188   4.440   6.947 -0.0602 -1.9528  1.2104
 8335SOL    HW236465   4.253   4.442   6.815 -0.6954  0.2610  0.2958
 8336SOL     OW36466   1.735   0.491   3.530  0.0650  0.5979  0.2558
 8336SOL    HW136467   1.655   0.534   3.561 -0.2014 -0.4971  1.0856
 8336SOL    HW236468   1.714   0.425   3.465  3.0299  2.0575 -2.1655
 8337SOL     OW36469   1.850   0.302   4.702 -0.1284  0.1202 -0.0143
 8337SOL    HW136470   1.794   0.377   4.684  0.8872  1.6482  3.2663
 8337SOL    HW236471   1.793   0.225   4.692  0.3970 -0.5363  2.1368
 8338SOL     OW36472   3.411   0.182  11.974 -0.4328  0.4682 -0.2607
 8338SOL    HW136473   3.366   0.139  12.046  0.8231  0.9080  0.8062
 8338SOL    HW236474   3.480   0.225  12.026  0.2345  0.1092 -0.8527
 8339SOL     OW36475   2.922   4.144   1.399  0.2152 -0.2192  0.3931
 8339SOL    HW136476   2.919   4.222   1.454  3.1731 -0.4341  0.9010
 8339SOL    HW236477   3.016   4.128   1.388  0.2081  1.6171 -2.3940
 8340SOL     OW36478   0.257   2.772   9.313 -0.0267 -0.0443  0.1568
 8340SOL    HW136479   0.225   2.781   9.403  1.8092  2.1267  0.5919
 8340SOL    HW236480   0.190   2.721   9.267  3.1880 -0.0519 -4.5356
 8341SOL     OW36481   1.972   1.028   7.753  0.3387 -0.0687 -0.0755
 8341SOL    HW136482   1.929   1.040   7.838  0.8258 -1.7780  0.4074
 8341SOL    HW236483   1.940   1.102   7.701  1.2943 -0.9331 -1.9138
 8342SOL     OW36484   2.369   2.221   4.757  0.1185  0.2813  0.7718
 8342SOL    HW136485   2.321   2.300   4.781  0.8358  1.1851 -0.7407
 8342SOL    HW236486   2.369   2.232   4.662  0.1354  4.1464  1.2337
 8343SOL     OW36487   1.350   4.149  15.499  0.2058 -0.9593 -0.2279
 8343SOL    HW136488   1.412   4.181  15.434 -0.2341  1.3094  0.4713
 8343SOL    HW236489   1.405   4.097  15.557  0.5505  1.7359  1.8381
 8344SOL     OW36490   3.563   4.172   6.093  0.1404 -0.0723  0.1720
 8344SOL    HW136491   3.564   4.263   6.125 -1.1912 -0.6876  1.9308
 8344SOL    HW236492   3.651   4.139   6.111  0.4119  0.4744 -0.1388
 8345SOL     OW36493   4.000   3.965   5.961  0.1564  0.1086 -0.3510
 8345SOL    HW136494   3.956   3.897   5.909 -2.2752  2.2895 -1.1055
 8345SOL    HW236495   3.994   3.921   6.046 -1.9885 -0.0088 -0.5527
 8346SOL     OW36496   1.676   4.087   8.558  0.7240 -0.5356  0.0856
 8346SOL    HW136497   1.715   4.141   8.490  2.4106 -2.0251 -0.1223
 8346SOL    HW236498   1.712   4.125   8.638 -1.4192 -0.8157  1.1824
 8347SOL     OW36499   3.084   4.094   7.635  0.4544  0.2790 -0.4465
 8347SOL    HW136500   3.015   4.040   7.596  0.9908  0.2053 -1.2914
 8347SOL    HW236501   3.066   4.088   7.729  1.7594 -0.6937 -0.2662
 8348SOL     OW36502   3.757   0.644  17.444  0.3450  0.1082 -0.5963
 8348SOL    HW136503   3.689   0.662  17.509  0.2899 -1.6196 -0.1793
 8348SOL    HW236504   3.735   0.704  17.373 -0.3078 -0.2136 -0.6628
 8349SOL     OW36505   3.028   0.681   3.183 -0.2366 -0.0940 -0.1291
 8349SOL    HW136506   2.983   0.675   3.267  0.2597  0.3502  0.1667
 8349SOL    HW236507   3.069   0.595   3.172  1.6737  0.6523  1.1805
 8350SOL     OW36508   3.051   1.623   8.692 -0.2759  0.0137  0.6216
 8350SOL    HW136509   3.027   1.550   8.749 -1.4735  0.1757  0.3323
 8350SOL    HW236510   3.053   1.694   8.757  0.3265  1.4272 -0.9490
 8351SOL     OW36511   0.261   1.274   6.136 -0.0051 -0.1665 -0.0141
 8351SOL    HW136512   0.355   1.273   6.153  0.0005 -1.8965 -0.1590
 8351SOL    HW236513   0.226   1.188   6.158 -1.0761  0.8924  2.5210
 8352SOL     OW36514   1.533   0.732   5.346 -0.2290  0.0905 -0.0605
 8352SOL    HW136515   1.503   0.794   5.280  1.8665 -1.5439 -2.5559
 8352SOL    HW236516   1.463   0.738   5.411 -2.6451  0.0523 -2.6636
 8353SOL     OW36517   0.533   2.317   3.832 -0.7700  0.2463 -0.1337
 8353SOL    HW136518   0.602   2.370   3.872 -0.4491  0.2810 -0.7293
 8353SOL    HW236519   0.570   2.233   3.861 -0.7473  0.9712  1.9224
 8354SOL     OW36520   3.312   2.312   9.466  0.2484  0.6667 -0.2134
 8354SOL    HW136521   3.389   2.275   9.509 -0.6748  1.3974  2.0800
 8354SOL    HW236522   3.245   2.283   9.528  0.1625  0.8215 -0.2353
 8355SOL     OW36523   3.558   0.210   3.369  0.6385  0.0075 -0.1172
 8355SOL    HW136524   3.589   0.251   3.288 -2.3070 -1.3744 -1.9713
 8355SOL    HW236525   3.469   0.245   3.369  0.6441  0.0255 -1.0110
 8356SOL     OW36526   4.035   1.734   0.196  0.2714  0.3702 -0.0788
 8356SOL    HW136527   4.122   1.714   0.162 -0.0451  0.6345 -1.0427
 8356SOL    HW236528   3.984   1.678   0.138 -0.1796 -0.6501  1.2950
 8357SOL     OW36529   2.256   0.507   9.996  0.0920  0.1706 -0.1405
 8357SOL    HW136530   2.296   0.436   9.945  0.2980  0.7372 -0.7699
 8357SOL    HW236531   2.220   0.457  10.070  1.6401 -1.3070 -0.3833
 8358SOL     OW36532   4.533   3.688   5.703 -0.0169  0.2556 -0.8074
 8358SOL    HW136533   4.471   3.690   5.776  1.6930  1.2897  0.6060
 8358SOL    HW236534   4.538   3.593   5.687  2.9753  0.5693 -1.7719
 8359SOL     OW36535   3.913   3.821  12.322 -0.2009 -0.7566  0.3813
 8359SOL    HW136536   3.858   3.786  12.253  0.1407  0.2166 -0.3932
 8359SOL    HW236537   3.969   3.877  12.268  0.2315 -0.2342  1.3590
 8360SOL     OW36538   0.582   2.824   2.616  0.1253 -0.5866  0.1048
 8360SOL    HW136539   0.564   2.729   2.616 -0.2654 -0.5139  0.4682
 8360SOL    HW236540   0.540   2.859   2.694  1.5722  3.8735 -1.1658
 8361SOL     OW36541   0.717   0.386  16.193 -0.3176 -0.3125  0.4871
 8361SOL    HW136542   0.685   0.403  16.104 -1.4741  2.0524  1.3655
 8361SOL    HW236543   0.782   0.317  16.179 -0.2947  0.4332 -3.0805
 8362SOL     OW36544   1.609   0.278   7.631  0.2916  0.6327 -0.7101
 8362SOL    HW136545   1.582   0.193   7.596  1.4093  0.1992 -0.5054
 8362SOL    HW236546   1.626   0.333   7.554 -0.2931 -0.0608 -1.3383
 8363SOL     OW36547   2.356   1.370   3.320  0.0532 -0.1020  0.0279
 8363SOL    HW136548   2.385   1.455   3.285 -2.0845 -0.4979 -2.6348
 8363SOL    HW236549   2.279   1.354   3.266  1.2131 -1.0807 -1.3316
 8364SOL     OW36550   0.640   2.231  10.475 -0.1372 -0.3459  0.3558
 8364SOL    HW136551   0.597   2.316  10.483  0.3859 -0.0976  0.5392
 8364SOL    HW236552   0.629   2.189  10.560  0.4210  1.2638  1.2256
 8365SOL     OW36553   4.410   1.501   8.195  0.1069 -0.1215 -0.3203
 8365SOL    HW136554   4.484   1.488   8.254 -0.7907 -0.3727  0.7626
 8365SOL    HW236555   4.347   1.532   8.261  0.1206  2.9450 -1.7552
 8366SOL     OW36556   3.608   1.713   4.096 -0.0680 -0.3959 -0.0068
 8366SOL    HW136557   3.594   1.750   4.184 -0.3860 -1.6210  0.4599
 8366SOL    HW236558   3.660   1.633   4.107 -0.8443 -0.8188  0.6115
 8367SOL     OW36559   0.430   2.511  12.312 -0.6427 -0.7068  0.3126
 8367SOL    HW136560   0.359   2.478  12.256 -1.5258  1.4582  0.1397
 8367SOL    HW236561   0.513   2.482  12.274 -1.4070  0.0787 -1.9331
 8368SOL     OW36562   3.090   1.515  15.915 -0.3755  0.0217 -0.3209
 8368SOL    HW136563   3.058   1.428  15.890  0.1452 -0.1395 -0.4090
 8368SOL    HW236564   3.163   1.480  15.966  1.4053  1.0770 -2.1741
 8369SOL     OW36565   2.947   2.923   6.268  0.2143 -0.0584 -0.3516
 8369SOL    HW136566   2.962   3.002   6.217 -0.7887  0.1219 -0.3602
 8369SOL    HW236567   3.017   2.930   6.333  0.0950 -1.7805 -0.0471
 8370SOL     OW36568   2.490   1.666   3.409 -0.1178 -0.0993 -0.0359
 8370SOL    HW136569   2.537   1.739   3.368  0.5097 -0.2088  0.4873
 8370SOL    HW236570   2.406   1.692   3.373  0.1950  2.0958  0.7993
 8371SOL     OW36571   3.881   1.060  16.641 -0.1728 -0.1516  0.0155
 8371SOL    HW136572   3.876   1.147  16.602 -0.2143 -0.8806 -1.6054
 8371SOL    HW236573   3.889   1.089  16.732 -0.1536 -0.1359  0.0086
 8372SOL     OW36574   2.661   3.800   7.683 -0.4690 -0.3337  0.9100
 8372SOL    HW136575   2.659   3.820   7.777  2.3325 -0.0116  0.8760
 8372SOL    HW236576   2.583   3.743   7.678 -0.3153 -0.7264  3.0732
 8373SOL     OW36577   4.121   1.435   6.017 -0.2705 -0.0055  0.1011
 8373SOL    HW136578   4.070   1.411   6.094 -0.2986 -1.2589 -0.2986
 8373SOL    HW236579   4.153   1.519   6.047  0.6484 -1.2238  2.5012
 8374SOL     OW36580   3.110   2.744   2.007 -0.6153 -0.7016 -0.1136
 8374SOL    HW136581   3.072   2.674   2.060  0.5639 -0.8977  0.4698
 8374SOL    HW236582   3.193   2.712   1.972  0.2263  3.1656 -1.6385
 8375SOL     OW36583   2.127   3.293  13.185 -0.6463  0.8341 -0.3531
 8375SOL    HW136584   2.111   3.346  13.263 -0.5826  2.7478 -1.6235
 8375SOL    HW236585   2.215   3.262  13.204 -0.4085  1.2288 -0.8226
 8376SOL     OW36586   0.221   0.096   0.003 -0.3507 -0.0229 -0.3353
 8376SOL    HW136587   0.313   0.100   0.029  0.0022  2.7095 -2.0249
 8376SOL    HW236588   0.219   0.163  17.627  0.0992  1.7626  1.4234
 8377SOL     OW36589   2.116   4.483   1.039  0.3570 -0.3908 -0.4459
 8377SOL    HW136590   2.038   4.429   1.025 -0.4024  0.4474  0.5333
 8377SOL    HW236591   2.151   4.468   0.952  3.5089 -1.1138  0.9299
 8378SOL     OW36592   0.991   3.916  15.329 -0.0758  0.2984  0.3393
 8378SOL    HW136593   1.084   3.900  15.315 -0.1069  0.5465 -0.1664
 8378SOL    HW236594   0.989   3.998  15.379  0.3035 -0.4772  1.6153
 8379SOL     OW36595   1.797   3.758   2.429  0.4085 -0.3849 -0.2863
 8379SOL    HW136596   1.764   3.832   2.481  1.2100  0.6772 -1.2861
 8379SOL    HW236597   1.883   3.739   2.464  0.9155  1.7006 -0.3925
 8380SOL     OW36598   3.681   0.500   2.821 -0.1696 -0.0834 -0.0765
 8380SOL    HW136599   3.714   0.536   2.903  0.9650 -2.7541  0.6322
 8380SOL    HW236600   3.723   0.414   2.824  3.6746  1.7838 -0.3674
 8381SOL     OW36601   4.181   4.210  13.823 -0.1329 -0.0814  0.5154
 8381SOL    HW136602   4.094   4.194  13.859 -0.0416  1.7101  1.5589
 8381SOL    HW236603   4.205   4.302  13.837  2.5121 -1.0345  2.3740
 8382SOL     OW36604   0.457   2.060  11.190 -0.0588 -0.3241  0.1644
 8382SOL    HW136605   0.447   2.010  11.109  0.6807 -0.8209  0.3860
 8382SOL    HW236606   0.454   1.982  11.245 -2.6915  0.2632  0.8899
 8383SOL     OW36607   2.944   0.679  16.494  0.9439  0.0946 -0.0396
 8383SOL    HW136608   2.952   0.726  16.577  3.3803  1.1008 -0.8353
 8383SOL    HW236609   2.903   0.744  16.436  0.5125 -0.7008 -0.6242
 8384SOL     OW36610   4.674   0.587  13.768 -0.3151 -0.0545  0.3658
 8384SOL    HW136611   4.703   0.595  13.859 -0.1204  1.2160  0.1951
 8384SOL    HW236612   0.035   0.582  13.721  0.4138  0.7873  1.5825
 8385SOL     OW36613   3.011   2.424   5.801  0.3328 -0.1873 -0.2258
 8385SOL    HW136614   3.049   2.341   5.772  1.8016  0.4728 -0.1807
 8385SOL    HW236615   3.077   2.457   5.863  1.0913 -1.0730 -0.5451
 8386SOL     OW36616   3.994   0.449   8.057  0.3949 -0.0982  0.3639
 8386SOL    HW136617   3.974   0.481   7.969 -1.1910  0.8968  1.0901
 8386SOL    HW236618   3.901   0.447   8.080  1.2424 -0.0324  3.8601
 8387SOL     OW36619   2.797   4.234   2.860  0.2657 -0.7953 -0.2020
 8387SOL    HW136620   2.869   4.223   2.797 -0.2118  0.1056 -0.9081
 8387SOL    HW236621   2.778   4.141   2.869  1.6772 -0.8651  1.9890
 8388SOL     OW36622   3.702   0.469  16.805  0.4494  0.1264 -0.4574
 8388SOL    HW136623   3.640   0.457  16.734 -1.2401  0.7476  0.9246
 8388SOL    HW236624   3.711   0.377  16.831 -1.9094  0.0133 -0.0379
 8389SOL     OW36625   4.667   3.580   7.893 -0.2334  0.4391  0.2902
 8389SOL    HW136626   4.721   3.533   7.956 -0.1395  1.8928  1.2914
 8389SOL    HW236627   4.668   3.514   7.824 -1.1785 -1.7501  2.3845
 8390SOL     OW36628   1.489   4.136   3.110 -0.1910  0.0176  0.7843
 8390SOL    HW136629   1.557   4.177   3.057  0.8950 -0.6729  1.6274
 8390SOL    HW236630   1.413   4.175   3.067  0.9455 -1.0101 -2.1166
 8391SOL     OW36631   2.450   0.246  14.833 -0.2369  0.7411  0.7802
 8391SOL    HW136632   2.470   0.338  14.817  1.3073 -0.2049 -2.9884
 8391SOL    HW236633   2.454   0.239  14.928 -1.7766 -0.8674  0.7318
 8392SOL     OW36634   0.724   3.103   9.797  0.3658 -0.0007 -0.3045
 8392SOL    HW136635   0.805   3.101   9.847  0.1309  0.7750  0.0990
 8392SOL    HW236636   0.764   3.060   9.721  0.3185  0.5941 -0.6626
 8393SOL     OW36637   3.200   0.768  13.756  0.0468 -0.9185 -0.4617
 8393SOL    HW136638   3.255   0.780  13.833  0.0736 -2.6097 -0.2144
 8393SOL    HW236639   3.123   0.719  13.782 -0.3543 -1.6556 -2.9957
 8394SOL     OW36640   3.140   1.453   2.114  0.1967  0.1921  0.6997
 8394SOL    HW136641   3.121   1.506   2.036  2.1184 -0.1482 -0.0003
 8394SOL    HW236642   3.235   1.447   2.117  0.3200  2.7548  2.3298
 8395SOL     OW36643   3.765   0.655  14.520  0.0944  0.2811 -0.0440
 8395SOL    HW136644   3.743   0.647  14.427  0.6725  1.7316 -0.3019
 8395SOL    HW236645   3.704   0.592  14.558 -0.7511  0.6167 -0.8681
 8396SOL     OW36646   3.819   4.107   3.324 -0.1482 -0.6290  0.0229
 8396SOL    HW136647   3.827   4.075   3.414 -1.7053  0.7823  0.6584
 8396SOL    HW236648   3.730   4.092   3.294 -1.0079 -0.7138  2.6219
 8397SOL     OW36649   0.341   1.898   5.357 -0.0089  0.3378 -0.1586
 8397SOL    HW136650   0.361   1.805   5.344 -1.6090 -0.1920  1.1588
 8397SOL    HW236651   0.403   1.951   5.307  0.8636  1.0160  1.6080
 8398SOL     OW36652   3.042   1.895   5.205 -0.5017  0.2724 -0.5472
 8398SOL    HW136653   2.957   1.923   5.172  0.2259  1.8619 -1.0462
 8398SOL    HW236654   3.071   1.842   5.130 -0.3636  0.9484 -0.9663
 8399SOL     OW36655   3.503   2.035   3.661  0.3382  0.3812 -0.0808
 8399SOL    HW136656   3.553   1.987   3.595 -1.2425 -0.5428 -0.5921
 8399SOL    HW236657   3.564   2.107   3.678  0.8017  0.2013 -0.9612
 8400SOL     OW36658   4.180   4.166  13.214 -0.7974 -0.1037 -0.8296
 8400SOL    HW136659   4.097   4.133  13.179 -1.1296 -0.2020  0.0337
 8400SOL    HW236660   4.237   4.139  13.142 -1.3449 -0.5933 -1.0757
 8401SOL     OW36661   4.488   2.940  15.517  0.4285 -0.1381 -0.3197
 8401SOL    HW136662   4.529   2.877  15.458  0.9265 -3.0362  3.1212
 8401SOL    HW236663   4.501   2.911  15.607 -1.5837 -0.8816 -0.2690
 8402SOL     OW36664   1.889   2.831   4.893  0.0845  0.5531  0.3149
 8402SOL    HW136665   1.825   2.768   4.926 -0.5283  0.6518 -0.6834
 8402SOL    HW236666   1.962   2.808   4.951 -0.0378 -2.2672 -0.6754
 8403SOL     OW36667   0.059   1.488  12.587 -0.0224  0.3072  0.0862
 8403SOL    HW136668   4.707   1.446  12.543  0.4583 -1.3881  0.8964
 8403SOL    HW236669   0.124   1.436  12.540  0.5478  0.8962  0.2250
 8404SOL     OW36670   1.036   2.987   7.966  0.0974 -0.3894 -0.4249
 8404SOL    HW136671   0.959   2.985   8.022 -0.0990  4.5671 -0.5038
 8404SOL    HW236672   1.079   2.903   7.982 -0.2818 -0.4923  0.0309
 8405SOL     OW36673   2.668   1.814  14.817  0.5217  0.7168  0.2939
 8405SOL    HW136674   2.718   1.736  14.841 -0.5429  0.3144  1.1650
 8405SOL    HW236675   2.576   1.793  14.832  1.2988 -2.6225  0.4325
 8406SOL     OW36676   4.256   0.154   2.393  0.1421  0.3354  0.6811
 8406SOL    HW136677   4.312   0.204   2.452 -1.9507  1.6870  1.5160
 8406SOL    HW236678   4.294   0.145   2.305 -0.3646  3.6965  0.1386
 8407SOL     OW36679   2.500   3.871   3.960 -0.3258 -0.1574  0.2690
 8407SOL    HW136680   2.496   3.931   3.886  0.8017 -0.0882  0.2600
 8407SOL    HW236681   2.503   3.781   3.927 -4.0778 -0.9751  2.1729
 8408SOL     OW36682   3.517   4.143   3.406 -0.5741  0.1601  0.1515
 8408SOL    HW136683   3.536   4.185   3.322 -3.0855  1.5514  0.3072
 8408SOL    HW236684   3.424   4.123   3.404  0.4197 -4.5480 -0.6458
 8409SOL     OW36685   0.195   0.775   8.891 -0.1966  0.4878  0.1356
 8409SOL    HW136686   0.137   0.791   8.965  1.0170 -0.6145  1.3101
 8409SOL    HW236687   0.281   0.802   8.922 -0.1353  0.3356  0.0946
 8410SOL     OW36688   1.202   3.902   5.899  0.1517 -0.2383  0.4686
 8410SOL    HW136689   1.113   3.887   5.866 -0.5736  2.2086  1.3157
 8410SOL    HW236690   1.243   3.908   5.813  0.0349 -2.0113  0.2949
 8411SOL     OW36691   4.411   3.103  17.007 -0.5726  0.4111  0.1499
 8411SOL    HW136692   4.431   3.052  17.086 -1.3641 -2.3041 -1.4084
 8411SOL    HW236693   4.357   3.171  17.046  0.6419  0.7424  1.2575
 8412SOL     OW36694   1.472   3.702  12.980  0.6377  0.0696  0.4278
 8412SOL    HW136695   1.435   3.790  12.971  1.3768  0.0722 -2.5694
 8412SOL    HW236696   1.492   3.704  13.074 -1.2996 -0.6490  0.8557
 8413SOL     OW36697   3.610   0.145  11.053  0.2146  0.3776 -0.1798
 8413SOL    HW136698   3.567   0.156  11.138 -0.1163 -3.2419  0.1091
 8413SOL    HW236699   3.647   0.056  11.057 -0.1698  0.2046 -0.5224
 8414SOL     OW36700   3.500   3.593   3.987  0.7603 -0.4644 -0.6164
 8414SOL    HW136701   3.554   3.649   3.931  2.0969 -0.3205  0.7956
 8414SOL    HW236702   3.423   3.648   3.998  0.6036 -0.2826 -2.4976
 8415SOL     OW36703   0.401   2.894   4.539  0.2906 -0.7719 -0.0591
 8415SOL    HW136704   0.387   2.972   4.485 -0.1617 -1.1579 -0.5023
 8415SOL    HW236705   0.327   2.908   4.596  1.7697  1.2172  1.3595
 8416SOL     OW36706   4.516   4.282  14.386 -0.1973 -0.0214 -0.9198
 8416SOL    HW136707   4.552   4.197  14.409 -1.1583 -0.0277  0.5834
 8416SOL    HW236708   4.563   4.355  14.427  0.3421 -2.1672  2.2979
 8417SOL     OW36709   1.770   2.854   8.018 -0.2612  0.1379 -0.5128
 8417SOL    HW136710   1.857   2.864   8.057 -1.4769  0.6824  2.0580
 8417SOL    HW236711   1.787   2.828   7.927 -0.0279 -1.4840 -0.0041
 8418SOL     OW36712   0.425   0.893   4.641  0.0124 -0.0260  0.3947
 8418SOL    HW136713   0.346   0.922   4.594 -1.9855 -2.7328  2.0990
 8418SOL    HW236714   0.460   0.973   4.679 -0.0910  1.7735 -3.2572
 8419SOL     OW36715   4.366   1.679   8.393  0.4104  0.3368  0.0707
 8419SOL    HW136716   4.278   1.702   8.423 -0.1218 -2.4921  0.7274
 8419SOL    HW236717   4.381   1.740   8.321  0.3782  1.2902  0.8772
 8420SOL     OW36718   0.003   4.647   6.127  0.1817 -0.2404 -0.5597
 8420SOL    HW136719   0.017   4.659   6.221  1.3524 -1.2811 -0.6002
 8420SOL    HW236720   0.022   0.012   6.094  1.4267 -0.0715  0.5644
 8421SOL     OW36721   2.451   0.361  16.074 -0.0818 -0.1459 -0.3960
 8421SOL    HW136722   2.503   0.441  16.082  1.9905 -1.4990 -0.1224
 8421SOL    HW236723   2.443   0.335  16.166 -0.5845  1.8863  0.1263
 8422SOL     OW36724   4.250   0.285   6.593 -0.5508 -0.0553 -0.0282
 8422SOL    HW136725   4.207   0.213   6.639  0.8181 -0.2863  0.9062
 8422SOL    HW236726   4.183   0.326   6.539  1.6295  3.4365 -0.0825
 8423SOL     OW36727   3.895   0.964  11.109  0.3204 -0.4069 -0.3797
 8423SOL    HW136728   3.886   1.005  11.023 -0.7144  0.3006  0.0641
 8423SOL    HW236729   3.894   1.046  11.157 -0.2687  0.0525 -1.1647
 8424SOL     OW36730   3.470   2.961  10.315  0.1345  0.6956 -0.0514
 8424SOL    HW136731   3.498   3.051  10.332 -0.2086  0.7531  0.1970
 8424SOL    HW236732   3.554   2.929  10.281  0.8801  0.1713  2.2993
 8425SOL     OW36733   3.567   2.670  12.108 -0.1088  0.2188 -0.4410
 8425SOL    HW136734   3.520   2.616  12.172  1.9198 -0.4328  0.5197
 8425SOL    HW236735   3.521   2.752  12.125 -0.1619  0.2323 -0.6634
 8426SOL     OW36736   4.188   2.253   6.491  0.4936 -0.0399  0.6473
 8426SOL    HW136737   4.271   2.212   6.514  0.5067  0.2463  1.1029
 8426SOL    HW236738   4.169   2.220   6.403  2.1176 -0.0379  0.3036
 8427SOL     OW36739   1.055   1.390   2.343  0.2522  0.4966 -0.1461
 8427SOL    HW136740   0.960   1.393   2.356  0.1122  2.4817 -1.6019
 8427SOL    HW236741   1.054   1.392   2.248 -0.0742 -1.1944 -0.1661
 8428SOL     OW36742   4.359   3.312   9.858  0.4763 -0.1520  0.0747
 8428SOL    HW136743   4.303   3.340   9.930  1.6266 -0.5245  1.1113
 8428SOL    HW236744   4.299   3.268   9.798  0.0868 -1.1291  1.1998
 8429SOL     OW36745   0.695   1.096   5.577 -0.3484 -0.0773  0.5158
 8429SOL    HW136746   0.671   1.146   5.655 -0.0256  1.9874 -0.7206
 8429SOL    HW236747   0.687   1.003   5.602 -2.3763  0.6058  2.3999
 8430SOL     OW36748   2.110   3.089   6.239 -0.3718  0.3993 -0.2483
 8430SOL    HW136749   2.052   3.155   6.277 -3.5075 -1.8269 -1.2004
 8430SOL    HW236750   2.115   3.125   6.151  2.1378  2.9624  0.9421
 8431SOL     OW36751   2.853   1.451  15.190 -0.0497  0.6217 -0.0914
 8431SOL    HW136752   2.777   1.485  15.238 -1.0234 -0.6073 -0.7656
 8431SOL    HW236753   2.840   1.356  15.184 -0.7441  0.6673  0.7073
 8432SOL     OW36754   0.348   3.483   3.947 -0.2996 -0.3981 -0.6090
 8432SOL    HW136755   0.360   3.572   3.978  0.4656 -0.1609 -1.5747
 8432SOL    HW236756   0.267   3.467   3.996  1.0025 -1.5448  1.1728
 8433SOL     OW36757   3.987   1.554   1.600  0.1779 -0.5524 -0.4090
 8433SOL    HW136758   4.051   1.609   1.555  0.3467  0.6109  1.2238
 8433SOL    HW236759   4.020   1.466   1.581 -0.4382 -0.5829 -1.3180
 8434SOL     OW36760   1.359   3.791  14.517  0.6203  0.4635  0.0428
 8434SOL    HW136761   1.409   3.864  14.482  1.5547 -0.2108 -0.0297
 8434SOL    HW236762   1.268   3.797  14.488  0.3251 -3.0234  0.2238
 8435SOL     OW36763   4.157   1.711  14.016 -0.2069 -0.0852 -0.0499
 8435SOL    HW136764   4.108   1.634  14.045  0.9802  0.0573  2.3319
 8435SOL    HW236765   4.172   1.758  14.097 -1.8889  0.0036  0.2127
 8436SOL     OW36766   4.043   0.734   6.371 -0.1619  0.6671 -0.4624
 8436SOL    HW136767   3.967   0.749   6.315  0.1521  2.3460 -0.4116
 8436SOL    HW236768   4.007   0.694   6.451 -0.8375 -0.0580 -1.1269
 8437SOL     OW36769   0.147   3.253   3.838  0.5443 -0.0618 -0.0579
 8437SOL    HW136770   0.120   3.298   3.918 -1.5251  0.9586 -1.3643
 8437SOL    HW236771   0.072   3.202   3.810  0.0340  0.0753  1.0470
 8438SOL     OW36772   1.021   2.465   3.185  0.3833  0.6007  0.0594
 8438SOL    HW136773   1.077   2.448   3.110  0.9826 -0.9333  0.8594
 8438SOL    HW236774   1.023   2.376   3.221 -0.5965  0.4068 -0.3589
 8439SOL     OW36775   0.937   3.999   4.484  0.2974  0.3950 -0.0467
 8439SOL    HW136776   0.937   4.026   4.392  0.1012 -2.2981 -0.8661
 8439SOL    HW236777   0.899   3.911   4.474 -1.2638  0.9956  0.5438
 8440SOL     OW36778   2.232   3.213   1.297  0.3359 -0.0466  0.0380
 8440SOL    HW136779   2.293   3.286   1.286  0.8816 -0.6070 -0.6309
 8440SOL    HW236780   2.238   3.190   1.205  1.5271  0.7004 -0.0639
 8441SOL     OW36781   3.365   4.538   1.029 -0.1310  0.2229 -0.7126
 8441SOL    HW136782   3.279   4.577   1.015 -0.8217 -0.9563  0.2123
 8441SOL    HW236783   3.376   4.481   0.952  0.4573 -0.0104 -0.4553
 8442SOL     OW36784   2.535   0.775   3.947 -0.1150  0.0067 -0.1850
 8442SOL    HW136785   2.527   0.825   3.866  0.8628  0.5907  0.0721
 8442SOL    HW236786   2.485   0.819   4.016 -3.6055 -1.2000 -1.9999
 8443SOL     OW36787   3.774   3.596   5.084  0.2427 -0.0806 -0.4179
 8443SOL    HW136788   3.707   3.648   5.040 -1.7420  1.3325  4.2617
 8443SOL    HW236789   3.733   3.510   5.082  0.8636 -0.4055  0.8683
 8444SOL     OW36790   0.139   0.836   6.963  0.8098  0.9711 -0.0492
 8444SOL    HW136791   0.088   0.894   6.907 -1.9154 -2.2371 -0.9165
 8444SOL    HW236792   0.199   0.904   6.992 -0.4516  0.2240  4.4642
 8445SOL     OW36793   3.107   3.692   0.681  0.1684  0.1014  0.1503
 8445SOL    HW136794   3.170   3.643   0.735  1.0330  1.1634  0.1032
 8445SOL    HW236795   3.167   3.744   0.627  0.9174 -0.8312  0.0626
 8446SOL     OW36796   3.495   4.017   7.745  0.1821 -0.1193 -0.4134
 8446SOL    HW136797   3.590   4.004   7.746  0.2588  0.2930 -1.7490
 8446SOL    HW236798   3.495   4.034   7.651  0.3566 -1.9084 -0.7426
 8447SOL     OW36799   2.516   0.271   0.997 -0.6887 -0.0991 -1.1456
 8447SOL    HW136800   2.498   0.185   1.036  1.9894 -1.2372 -2.3895
 8447SOL    HW236801   2.566   0.315   1.065 -2.0567  1.1657 -0.9567
 8448SOL     OW36802   1.710   2.723   8.277 -0.1251 -0.1010  0.6131
 8448SOL    HW136803   1.741   2.781   8.207 -0.0457 -0.2925  0.4922
 8448SOL    HW236804   1.657   2.787   8.325 -1.6412 -0.9857  0.0970
 8449SOL     OW36805   3.708   1.905   1.907  0.6656  0.3303 -0.2721
 8449SOL    HW136806   3.678   1.826   1.863  1.4834  0.3494 -0.8551
 8449SOL    HW236807   3.787   1.875   1.952  0.1653  0.7870  0.9193
 8450SOL     OW36808   4.494   2.285   8.339 -0.5381  0.2530 -0.5806
 8450SOL    HW136809   4.490   2.380   8.342  1.6197  0.2957  1.2939
 8450SOL    HW236810   4.584   2.273   8.370 -0.1407 -0.5491 -2.0530
 8451SOL     OW36811   2.556   0.649   6.062 -0.1795 -0.2456 -0.1445
 8451SOL    HW136812   2.572   0.621   5.972 -2.3763  2.5121 -1.3748
 8451SOL    HW236813   2.460   0.650   6.068 -0.2530  0.6609 -1.7366
 8452SOL     OW36814   0.384   4.537   1.216  0.6599 -0.1156 -0.0207
 8452SOL    HW136815   0.389   4.487   1.297  1.2576  0.3850  0.2547
 8452SOL    HW236816   0.477   4.538   1.195  0.8609 -1.2481  0.8625
 8453SOL     OW36817   4.394   4.580   9.625 -0.4993 -0.0344 -0.2131
 8453SOL    HW136818   4.316   4.527   9.605 -0.2377 -0.5775  0.1930
 8453SOL    HW236819   4.353   4.659   9.661  0.3848  0.0618  0.5799
 8454SOL     OW36820   0.747   4.586  13.121  0.1618 -0.0103  0.5752
 8454SOL    HW136821   0.831   4.576  13.075 -1.4512 -1.4468 -2.1088
 8454SOL    HW236822   0.682   4.548  13.062  0.8516  2.5012 -1.8283
 8455SOL     OW36823   2.102   0.517   4.979 -0.1104  0.0906 -0.6665
 8455SOL    HW136824   2.057   0.535   4.896 -1.6837 -0.4647  0.0672
 8455SOL    HW236825   2.171   0.456   4.952 -0.2237  0.0983 -0.9767
 8456SOL     OW36826   1.451   3.303   0.080 -0.0563  0.1915  0.4562
 8456SOL    HW136827   1.441   3.219   0.124 -0.8655 -0.3673 -0.8102
 8456SOL    HW236828   1.383   3.355   0.124 -0.7637 -0.1743 -0.2150
 8457SOL     OW36829   1.788   3.169  15.185  0.3486  0.0755  0.6958
 8457SOL    HW136830   1.777   3.110  15.110  0.9988  0.5626  0.2121
 8457SOL    HW236831   1.790   3.100  15.252  0.4989 -0.6039 -0.0056
 8458SOL     OW36832   3.487   3.442   1.541  0.0430 -0.4465  0.1902
 8458SOL    HW136833   3.476   3.392   1.460 -2.7808  0.1800  0.1855
 8458SOL    HW236834   3.401   3.485   1.546 -0.2469 -0.9624 -0.2860
 8459SOL     OW36835   1.465   4.046   2.277  0.2961 -0.0765 -0.3296
 8459SOL    HW136836   1.486   3.987   2.205  0.3699 -1.1115  0.5455
 8459SOL    HW236837   1.403   4.111   2.243  1.4239  0.7948 -0.7316
 8460SOL     OW36838   0.884   3.705   4.922  0.5101  0.0164  0.0151
 8460SOL    HW136839   0.891   3.681   4.830 -0.4212 -2.7341  0.6777
 8460SOL    HW236840   0.973   3.682   4.951  0.2976  0.0040  0.6600
 8461SOL     OW36841   4.462   4.215   5.453  0.0519 -0.0264 -0.4008
 8461SOL    HW136842   4.481   4.270   5.376  0.3494 -0.8014 -0.8825
 8461SOL    HW236843   4.505   4.267   5.521 -1.3339  0.7418 -0.1178
 8462SOL     OW36844   2.166   2.089   2.356 -0.5330 -0.5023  0.4930
 8462SOL    HW136845   2.111   2.088   2.277 -0.7016 -1.5584  0.6297
 8462SOL    HW236846   2.191   2.181   2.363 -0.1834 -0.5388 -0.2403
 8463SOL     OW36847   1.910   1.022  14.297  0.2847  0.4418 -0.1549
 8463SOL    HW136848   1.883   0.999  14.208 -0.7756  1.0266  0.0155
 8463SOL    HW236849   1.988   0.968  14.311  0.6724  1.2250  0.6305
 8464SOL     OW36850   0.763   1.373   7.895  0.2975 -0.3310  0.1281
 8464SOL    HW136851   0.811   1.338   7.970  0.9273 -0.0483 -0.1479
 8464SOL    HW236852   0.689   1.311   7.892  1.3574 -1.6698  1.3406
 8465SOL     OW36853   3.017   1.720  16.078  0.1978 -0.0262 -0.1190
 8465SOL    HW136854   3.021   1.653  16.009  0.3258 -0.1764  0.0345
 8465SOL    HW236855   2.981   1.664  16.147  0.9188 -1.9783 -1.3231
 8466SOL     OW36856   0.259   2.289   7.086  0.5899  0.0675 -0.2009
 8466SOL    HW136857   0.242   2.277   7.179  2.0663  1.0437  0.1919
 8466SOL    HW236858   0.235   2.199   7.061 -0.4628  0.2870  0.0116
 8467SOL     OW36859   3.509   0.505   5.903  0.2142 -0.1638  0.4585
 8467SOL    HW136860   3.596   0.541   5.921  0.0283  0.2127  0.6135
 8467SOL    HW236861   3.543   0.462   5.825  0.9598  1.5263 -0.1638
 8468SOL     OW36862   3.455   1.101   6.257  0.3094 -0.2504  0.2462
 8468SOL    HW136863   3.502   1.135   6.333 -0.5649  1.9126 -0.1789
 8468SOL    HW236864   3.381   1.160   6.243 -0.6297 -1.0794  1.7594
 8469SOL     OW36865   3.245   0.435   1.501  0.0414  0.6508  0.0535
 8469SOL    HW136866   3.288   0.369   1.556 -2.0183  0.1589  1.0752
 8469SOL    HW236867   3.229   0.392   1.417 -0.0675  0.9038 -0.0538
 8470SOL     OW36868   4.636   4.074  11.615  0.8025 -0.1687 -0.3915
 8470SOL    HW136869   4.649   3.979  11.611 -0.9497 -0.5751  3.4789
 8470SOL    HW236870   4.551   4.086  11.657  0.4782  0.5417 -1.2520
 8471SOL     OW36871   0.406   4.189   0.189 -0.6674 -0.4988 -0.3790
 8471SOL    HW136872   0.311   4.174   0.194 -0.9000  0.7691 -1.1876
 8471SOL    HW236873   0.422   4.161   0.099 -1.9982 -0.8535 -0.5107
 8472SOL     OW36874   1.627   0.254   7.264 -0.4817  0.1568  0.0370
 8472SOL    HW136875   1.681   0.267   7.342 -1.5663 -0.8469  0.9406
 8472SOL    HW236876   1.609   0.344   7.237 -0.0450  0.0334 -0.6891
 8473SOL     OW36877   1.496   2.549  12.862  0.4377 -1.3304 -0.2803
 8473SOL    HW136878   1.568   2.517  12.808 -0.0626  0.6826 -2.1334
 8473SOL    HW236879   1.550   2.618  12.900 -1.3197 -1.3945  2.3019
 8474SOL     OW36880   0.509   3.831   6.727  0.4877  0.1550 -0.1514
 8474SOL    HW136881   0.470   3.766   6.786  0.2912 -0.2804 -0.7640
 8474SOL    HW236882   0.440   3.853   6.665 -1.8872 -0.8486  2.1162
 8475SOL     OW36883   2.710   3.036   6.733  0.2890 -0.3611 -0.7006
 8475SOL    HW136884   2.753   2.972   6.790 -0.0506  0.0905  0.0611
 8475SOL    HW236885   2.686   2.975   6.664 -0.8575  1.1022 -1.5730
 8476SOL     OW36886   0.771   2.178   4.560  0.8566  0.0868  0.3592
 8476SOL    HW136887   0.802   2.257   4.604 -0.0912  0.5217  0.2405
 8476SOL    HW236888   0.727   2.205   4.479 -0.3694 -0.3846  0.8787
 8477SOL     OW36889   2.309   2.225   7.640 -0.4217 -0.0904 -0.0149
 8477SOL    HW136890   2.346   2.298   7.590  1.9507 -1.4950 -0.3171
 8477SOL    HW236891   2.246   2.277   7.690  0.5510  2.5768 -1.5201
 8478SOL     OW36892   4.281   2.843  16.371  0.0661  0.0096 -0.3992
 8478SOL    HW136893   4.365   2.823  16.329 -1.5722  3.3098 -5.1720
 8478SOL    HW236894   4.232   2.772  16.330 -0.1865  0.0351 -0.1447
 8479SOL     OW36895   2.428   1.167   6.820 -0.3592 -0.1076 -0.0485
 8479SOL    HW136896   2.442   1.076   6.795 -1.5274  0.3441 -2.3043
 8479SOL    HW236897   2.520   1.194   6.819 -0.8448  1.5432  0.3827
 8480SOL     OW36898   4.234   2.313  11.059  0.4134  0.0396  0.0097
 8480SOL    HW136899   4.245   2.355  10.974  1.0810  1.5054  0.8312
 8480SOL    HW236900   4.161   2.363  11.096  1.3299  1.1735  0.2574
 8481SOL     OW36901   0.136   1.500   1.213 -0.3887  0.5900 -0.2605
 8481SOL    HW136902   0.107   1.571   1.156 -2.9196  0.2041  0.5716
 8481SOL    HW236903   0.124   1.421   1.161 -1.0291  0.5262 -0.0175
 8482SOL     OW36904   2.014   3.650   2.557  0.5518  0.1157 -0.1555
 8482SOL    HW136905   2.071   3.629   2.483  1.6199 -2.4952  1.4087
 8482SOL    HW236906   2.074   3.694   2.617 -2.1403  2.0332  1.1857
 8483SOL     OW36907   3.734   3.293   4.040 -0.3959 -0.7731  0.1031
 8483SOL    HW136908   3.712   3.268   3.951  1.3318 -2.2033  0.0675
 8483SOL    HW236909   3.740   3.204   4.076  0.8071 -1.0358 -0.7375
 8484SOL     OW36910   4.196   3.229   7.924 -0.2492 -0.6964  0.3695
 8484SOL    HW136911   4.195   3.212   7.830 -0.6941 -0.3144  0.3006
 8484SOL    HW236912   4.239   3.314   7.934  1.8897 -1.6918 -0.2692
 8485SOL     OW36913   2.712   1.017   5.652  0.5221 -0.3631 -0.6299
 8485SOL    HW136914   2.641   0.994   5.592  0.2929 -0.2212 -0.4196
 8485SOL    HW236915   2.702   0.939   5.706 -0.3537 -1.2247 -2.0215
 8486SOL     OW36916   3.803   2.213   5.957  0.7042 -0.5494  0.1957
 8486SOL    HW136917   3.891   2.235   5.986  0.1901  0.4220  1.0178
 8486SOL    HW236918   3.819   2.157   5.882  0.4761 -1.0840  0.5447
 8487SOL     OW36919   3.206   4.018   3.192  0.3041 -0.5732  0.0071
 8487SOL    HW136920   3.258   3.995   3.114  1.6153  0.9358  0.4160
 8487SOL    HW236921   3.142   3.948   3.199  0.2233 -0.5722 -0.6560
 8488SOL     OW36922   3.474   0.723   2.460 -0.7092  0.7019 -0.3875
 8488SOL    HW136923   3.397   0.682   2.421  0.1477 -0.7469 -0.5351
 8488SOL    HW236924   3.443   0.728   2.551  1.1289  2.4171  0.1525
 8489SOL     OW36925   4.204   0.360   1.286  0.7007  0.2251 -0.4731
 8489SOL    HW136926   4.259   0.290   1.320  1.8387  1.9850  1.3518
 8489SOL    HW236927   4.200   0.341   1.192 -1.4330  1.3659 -0.6248
 8490SOL     OW36928   3.965   0.117   7.679 -0.1919 -0.1881  0.1688
 8490SOL    HW136929   3.875   0.093   7.655  1.0215 -1.0778 -3.4088
 8490SOL    HW236930   3.970   0.085   7.769 -0.6767 -2.5572 -0.6593
 8491SOL     OW36931   3.798   0.522  12.642  0.5477  0.2035 -0.1080
 8491SOL    HW136932   3.764   0.578  12.571  0.5650  2.1445  1.4052
 8491SOL    HW236933   3.792   0.591  12.709 -1.5627  1.0918 -1.1976
 8492SOL     OW36934   1.590   1.963   3.549 -0.2109 -0.5237 -0.2513
 8492SOL    HW136935   1.584   1.929   3.460 -0.8078  1.2724 -0.8880
 8492SOL    HW236936   1.500   1.995   3.558 -0.0706 -0.3860  0.6297
 8493SOL     OW36937   2.819   3.292   6.739 -0.1434  0.1100 -0.0758
 8493SOL    HW136938   2.790   3.300   6.648  0.5416  0.3429 -0.2735
 8493SOL    HW236939   2.765   3.218   6.765  0.4209  0.2642  1.5240
 8494SOL     OW36940   2.417   1.105   7.738  0.3505 -0.6078 -0.0065
 8494SOL    HW136941   2.392   1.028   7.788 -1.7752 -0.2120 -0.4526
 8494SOL    HW236942   2.446   1.158   7.812  0.9048 -1.7693  0.5956
 8495SOL     OW36943   2.801   2.985   5.548 -0.7256  0.1721  0.0453
 8495SOL    HW136944   2.895   2.969   5.540 -1.1570 -0.9213 -2.7890
 8495SOL    HW236945   2.809   3.056   5.611 -0.6380  0.7659 -0.6285
 8496SOL     OW36946   2.364   2.845   9.331  0.1981 -0.5011  0.8086
 8496SOL    HW136947   2.361   2.889   9.246  1.5653  1.6766  1.8712
 8496SOL    HW236948   2.420   2.772   9.302  1.6582 -0.2250  2.8991
 8497SOL     OW36949   4.021   3.317   5.278  0.1170 -0.1947 -0.2559
 8497SOL    HW136950   4.094   3.255   5.275 -0.1356 -0.4146 -1.6024
 8497SOL    HW236951   4.055   3.403   5.252 -0.5534  0.4186  0.8705
 8498SOL     OW36952   2.276   0.604   6.046 -0.4966  0.0528  0.2588
 8498SOL    HW136953   2.210   0.541   6.076  1.8358 -1.4175  2.2757
 8498SOL    HW236954   2.217   0.648   5.985  2.2194  2.8133 -0.3928
 8499SOL     OW36955   4.677   0.230  15.226 -0.2347  0.3215 -0.1252
 8499SOL    HW136956   0.040   0.201  15.257 -0.5663  0.7836  1.2149
 8499SOL    HW236957   4.635   0.149  15.198 -1.4112  0.7588  0.3767
 8500SOL     OW36958   1.335   1.887   6.710 -0.6097 -0.3697  0.4088
 8500SOL    HW136959   1.332   1.801   6.668 -4.3711 -0.1114  0.2201
 8500SOL    HW236960   1.320   1.853   6.799  0.5897  0.2553  0.8549
 8501SOL     OW36961   1.531   1.189  16.561 -0.3818  0.2220 -0.2176
 8501SOL    HW136962   1.547   1.221  16.473  0.1887  2.3530  0.6725
 8501SOL    HW236963   1.620   1.157  16.572 -0.1558  0.8763 -0.1538
 8502SOL     OW36964   3.335   3.887  11.966 -0.1878  0.3347  0.1151
 8502SOL    HW136965   3.362   3.817  11.907 -1.0867  0.5439 -0.5360
 8502SOL    HW236966   3.374   3.846  12.044  0.0327 -0.0376 -0.1921
 8503SOL     OW36967   4.460   0.602   2.893  0.1522  0.1496 -0.0319
 8503SOL    HW136968   4.456   0.508   2.873 -0.3817  0.0830  0.3988
 8503SOL    HW236969   4.372   0.632   2.872  0.3927  1.9856  1.6042
 8504SOL     OW36970   1.228   4.548   4.770  0.3574 -0.4425  0.4082
 8504SOL    HW136971   1.312   4.523   4.732  0.5159  0.2567  0.2921
 8504SOL    HW236972   1.216   4.634   4.730 -1.5388 -0.5337  0.7636
 8505SOL     OW36973   2.474   3.897   4.368 -0.6947  0.1182  0.0858
 8505SOL    HW136974   2.560   3.894   4.327 -1.1226  3.2438 -1.0520
 8505SOL    HW236975   2.437   3.810   4.358 -2.3206  0.6614  1.4201
 8506SOL     OW36976   0.623   1.278   2.960 -0.5899  0.3566  0.2266
 8506SOL    HW136977   0.578   1.205   2.916  0.0674  0.5184 -0.7234
 8506SOL    HW236978   0.711   1.280   2.924 -0.4218 -1.1077  0.5577
 8507SOL     OW36979   2.418   2.073   1.747  0.1106 -0.8887 -0.2785
 8507SOL    HW136980   2.402   1.979   1.756  0.1885 -0.7263  1.4501
 8507SOL    HW236981   2.477   2.086   1.821  0.6362  0.6665 -0.9670
 8508SOL     OW36982   0.248   4.323   4.101 -0.2428 -0.5310 -0.0493
 8508SOL    HW136983   0.340   4.298   4.090 -1.3023 -3.9726 -0.9818
 8508SOL    HW236984   0.227   4.357   4.014  2.8834 -0.0386 -0.6189
 8509SOL     OW36985   0.184   3.334  14.817  0.0905 -0.6008 -0.0655
 8509SOL    HW136986   0.174   3.407  14.756  2.1525 -0.5519 -0.3742
 8509SOL    HW236987   0.184   3.262  14.754 -1.1578 -0.8788  0.2688
 8510SOL     OW36988   4.511   0.294  14.372  0.0598  0.0835  0.0752
 8510SOL    HW136989   4.420   0.281  14.348 -0.3095 -0.3037  1.6527
 8510SOL    HW236990   4.504   0.282  14.467 -0.0754  1.1643  0.1956
 8511SOL     OW36991   1.680   4.614   4.416 -0.1458  0.4639 -0.1693
 8511SOL    HW136992   1.590   4.586   4.395 -0.1270 -0.2295  0.7074
 8511SOL    HW236993   1.702   4.654   4.332 -0.7228  2.0386  0.4300
 8512SOL     OW36994   2.716   3.644   6.734 -0.4637 -0.2955 -0.2546
 8512SOL    HW136995   2.671   3.579   6.788 -0.8745  0.0982 -0.1275
 8512SOL    HW236996   2.641   3.682   6.689 -0.6677 -1.3589 -0.8083
 8513SOL     OW36997   2.254   2.963   8.199 -0.3052  0.6145  0.4152
 8513SOL    HW136998   2.291   2.882   8.164  1.4194  2.4709 -1.9823
 8513SOL    HW236999   2.313   2.987   8.271 -0.7655  1.0344  0.6494
 8514SOL     OW37000   4.021   1.672  13.084 -0.4134  0.5232 -0.2027
 8514SOL    HW137001   4.044   1.756  13.124  0.2557  0.0111  0.5032
 8514SOL    HW237002   4.023   1.622  13.166  1.2479  1.0895  0.1029
 8515SOL     OW37003   2.495   2.088   0.534 -0.0375 -0.2826  0.1902
 8515SOL    HW137004   2.532   2.097   0.622 -0.5615  0.7435  0.3091
 8515SOL    HW237005   2.573   2.087   0.479 -0.2657  1.0698 -0.1611
 8516SOL     OW37006   2.742   4.491   5.794 -0.1522  0.2052  0.0191
 8516SOL    HW137007   2.725   4.581   5.766  0.6978  0.1795 -0.5610
 8516SOL    HW237008   2.680   4.440   5.742  0.6114 -0.9700  0.2567
 8517SOL     OW37009   0.307   1.213   1.307 -0.2346 -0.0598 -0.0116
 8517SOL    HW137010   0.230   1.268   1.294  0.3740  0.6818 -0.4683
 8517SOL    HW237011   0.277   1.135   1.260 -0.2424 -0.4344  0.6081
 8518SOL     OW37012   1.336   0.455   4.006 -0.5101 -0.1784  0.3220
 8518SOL    HW137013   1.307   0.519   4.070  0.4741 -0.6070  1.1821
 8518SOL    HW237014   1.255   0.416   3.974 -0.0719 -0.4383 -0.4838
 8519SOL     OW37015   2.459   2.701  15.248  0.1242 -0.5484  0.2224
 8519SOL    HW137016   2.432   2.789  15.275  0.0347 -0.2660 -0.8091
 8519SOL    HW237017   2.489   2.677  15.336  1.0941 -0.6849 -0.1428
 8520SOL     OW37018   4.450   4.081   8.875 -0.0593 -0.2539 -0.0437
 8520SOL    HW137019   4.366   4.112   8.841  0.9537  1.9804 -0.5228
 8520SOL    HW237020   4.427   3.993   8.905 -0.0425  0.1944  1.2953
 8521SOL     OW37021   1.782   4.405   2.256 -0.0160  0.3732  0.2377
 8521SOL    HW137022   1.854   4.465   2.236  1.8016 -1.9406 -0.1139
 8521SOL    HW237023   1.823   4.337   2.202 -0.1871 -0.3384  1.0061
 8522SOL     OW37024   4.106   3.345   6.056  0.6009 -0.6044 -0.5021
 8522SOL    HW137025   4.160   3.284   6.007  0.6188 -1.3187  0.4005
 8522SOL    HW237026   4.168   3.378   6.121  1.9481 -3.2932 -0.4240
 8523SOL     OW37027   0.909   4.101  14.025  0.0715  0.6246  0.1266
 8523SOL    HW137028   0.822   4.060  14.032  0.5364 -0.2723  0.6236
 8523SOL    HW237029   0.906   4.113  13.931 -0.7149 -0.3661  0.0134
 8524SOL     OW37030   2.963   4.649   1.599 -0.0346 -0.3435  0.3987
 8524SOL    HW137031   3.050   4.672   1.566  0.2527 -1.4082  0.4115
 8524SOL    HW237032   2.910   0.004   1.583 -2.2476 -1.9519 -0.0246
 8525SOL     OW37033   2.994   3.370   2.972 -0.5100 -0.1723  1.0178
 8525SOL    HW137034   3.078   3.334   2.998 -0.3183  1.0690  2.0964
 8525SOL    HW237035   2.954   3.288   2.942 -2.2933  0.3291  1.9767
 8526SOL     OW37036   3.403   0.220  12.338 -0.0811  0.1681  0.1807
 8526SOL    HW137037   3.466   0.149  12.345  1.2045  1.5116  2.3975
 8526SOL    HW237038   3.448   0.277  12.275  2.0718 -0.6663  0.9608
 8527SOL     OW37039   0.420   1.926  16.747 -0.7759 -0.3139 -0.4707
 8527SOL    HW137040   0.498   1.877  16.773 -2.1205 -2.2581 -0.0722
 8527SOL    HW237041   0.417   1.990  16.817  0.5016 -0.2212 -0.5101
 8528SOL     OW37042   1.802   0.314   0.360  0.4206  0.1439 -0.5097
 8528SOL    HW137043   1.739   0.364   0.309  1.1846  0.0318 -1.5677
 8528SOL    HW237044   1.855   0.389   0.387 -0.6526  0.6926  0.0735
 8529SOL     OW37045   2.623   4.063   5.731 -0.0701 -0.1899  0.3145
 8529SOL    HW137046   2.683   3.988   5.728  0.1588  0.0084 -0.0236
 8529SOL    HW237047   2.535   4.025   5.725 -0.5279  1.1664 -1.6625
 8530SOL     OW37048   3.442   0.853  10.888 -0.7644 -0.5062  0.3513
 8530SOL    HW137049   3.408   0.798  10.959  1.5506 -0.5343  1.4408
 8530SOL    HW237050   3.536   0.843  10.901 -0.6340 -2.3359 -2.1952
 8531SOL     OW37051   1.902   3.480   5.625  0.0969  0.0936 -0.5573
 8531SOL    HW137052   1.900   3.490   5.720  1.4948  1.2535 -0.6480
 8531SOL    HW237053   1.960   3.406   5.607 -0.2631 -0.3716  0.1793
 8532SOL     OW37054   4.319   3.413  12.182  0.1839 -0.1382  0.1753
 8532SOL    HW137055   4.250   3.473  12.210 -0.7857 -1.9412  1.6595
 8532SOL    HW237056   4.396   3.455  12.221  0.1521  1.0054 -0.9713
 8533SOL     OW37057   2.741   4.281   7.830 -0.2205  0.4022  0.4162
 8533SOL    HW137058   2.680   4.252   7.898  1.5572  0.0148  1.8509
 8533SOL    HW237059   2.825   4.276   7.875  1.0016  0.5166 -1.8504
 8534SOL     OW37060   1.881   1.372   9.091 -0.1727 -0.4256 -0.0277
 8534SOL    HW137061   1.837   1.343   9.011 -1.0176  1.6637 -0.3123
 8534SOL    HW237062   1.906   1.290   9.135 -0.1780 -2.0223 -3.0303
 8535SOL     OW37063   2.476   2.557   4.640 -0.1254 -0.1794  0.1462
 8535SOL    HW137064   2.428   2.566   4.558 -2.2826  1.3521  1.6050
 8535SOL    HW237065   2.416   2.605   4.697 -0.0744 -0.4301  0.4107
 8536SOL     OW37066   2.621   3.461   3.059  0.1685 -0.0294  0.0948
 8536SOL    HW137067   2.571   3.416   3.128  0.1825 -1.2239 -0.6783
 8536SOL    HW237068   2.596   3.398   2.991  1.8994  0.6344 -1.1474
 8537SOL     OW37069   2.613   3.423   7.882 -0.2153  0.1752  0.1677
 8537SOL    HW137070   2.621   3.448   7.973  2.5419 -0.5360  0.1356
 8537SOL    HW237071   2.563   3.494   7.841 -0.0942  0.0514 -0.1981
 8538SOL     OW37072   1.426   3.658   8.737  0.6552  0.2876 -0.2275
 8538SOL    HW137073   1.430   3.607   8.656 -0.6999 -1.8007  1.0357
 8538SOL    HW237074   1.462   3.586   8.788 -1.5597 -0.3675  0.4117
 8539SOL     OW37075   2.936   4.353   1.564  0.4371 -0.1726  0.4508
 8539SOL    HW137076   2.949   4.289   1.634  0.8772  0.0608  0.5828
 8539SOL    HW237077   2.963   4.436   1.605 -2.1002  0.5482  0.6817
 8540SOL     OW37078   4.459   2.975   3.088  0.5983 -0.3584 -0.2393
 8540SOL    HW137079   4.369   2.945   3.097  0.7714 -0.4953  1.0300
 8540SOL    HW237080   4.457   3.005   2.997 -1.0183  0.2948  0.0209
 8541SOL     OW37081   3.103   3.932   0.402  0.0665 -0.3340  0.2538
 8541SOL    HW137082   3.173   3.918   0.465 -1.9569  1.7751  2.9439
 8541SOL    HW237083   3.044   3.858   0.417  2.3400 -2.4831 -1.4021
 8542SOL     OW37084   0.585   1.934   0.413  0.0185 -0.6242 -0.5037
 8542SOL    HW137085   0.679   1.944   0.423  0.1740 -1.8912 -0.6729
 8542SOL    HW237086   0.559   2.026   0.404  2.0797  0.1355  1.3405
 8543SOL     OW37087   2.943   1.598   5.045  0.5273  0.3092  0.8866
 8543SOL    HW137088   2.935   1.534   4.975  0.9592  1.1200  0.0861
 8543SOL    HW237089   3.005   1.660   5.006  1.5282 -0.5674  1.1010
 8544SOL     OW37090   2.742   0.695   7.958  0.2173  0.2411 -0.6569
 8544SOL    HW137091   2.739   0.600   7.970 -2.9385  0.2889 -0.8225
 8544SOL    HW237092   2.674   0.715   8.022  2.3254  0.4667  1.4909
 8545SOL     OW37093   1.699   3.528   9.402 -0.0107  0.0032 -0.0341
 8545SOL    HW137094   1.691   3.460   9.469  0.6382 -0.5968 -0.5590
 8545SOL    HW237095   1.678   3.605   9.454 -2.5157 -2.1817  2.2270
 8546SOL     OW37096   4.480   2.228   5.243  0.3967 -0.4637  0.0959
 8546SOL    HW137097   4.568   2.195   5.259  0.3302  0.5796  2.6356
 8546SOL    HW237098   4.463   2.200   5.153 -0.1740 -0.3492  0.1634
 8547SOL     OW37099   4.249   4.377  14.131  0.1691 -0.2616 -0.3807
 8547SOL    HW137100   4.331   4.419  14.106 -0.3179  1.3837  0.7620
 8547SOL    HW237101   4.200   4.414  14.058 -1.0661 -2.2142 -0.5463
 8548SOL     OW37102   0.167   0.274   6.260 -0.2938  0.0168 -0.0828
 8548SOL    HW137103   0.157   0.187   6.222  1.4716 -1.0470  1.8444
 8548SOL    HW237104   0.096   0.284   6.322  0.6674  1.5864  0.7682
 8549SOL     OW37105   0.435   4.059   9.588 -0.2083 -0.1128  0.5342
 8549SOL    HW137106   0.368   4.117   9.623  1.2235  1.9274 -0.0951
 8549SOL    HW237107   0.419   4.076   9.495  0.5663  0.1057  0.4374
 8550SOL     OW37108   2.389   1.786   1.743  0.3418 -0.2274  0.0657
 8550SOL    HW137109   2.466   1.732   1.725 -1.6261 -2.0552 -2.8778
 8550SOL    HW237110   2.340   1.732   1.804 -0.1032  0.8007  0.6261
 8551SOL     OW37111   2.451   0.136   7.523  0.0581  0.7454  0.6040
 8551SOL    HW137112   2.366   0.158   7.485 -0.3323 -2.0642 -0.1289
 8551SOL    HW237113   2.490   0.223   7.533  2.1519  0.0004 -1.1193
 8552SOL     OW37114   4.712   4.059   8.202 -0.1877  0.0228 -0.1454
 8552SOL    HW137115   0.079   4.092   8.210  0.1107 -1.0693  0.9014
 8552SOL    HW237116   0.004   3.971   8.167  0.6253  0.4164 -0.8099
 8553SOL     OW37117   1.226   2.417   2.998  0.4191 -0.2162  0.0310
 8553SOL    HW137118   1.213   2.417   2.903  0.6301  2.3492  0.0008
 8553SOL    HW237119   1.279   2.337   2.997  0.0153 -0.5198  3.2075
 8554SOL     OW37120   0.110   4.304   2.670  0.3435  0.1374  0.0258
 8554SOL    HW137121   0.127   4.285   2.577 -0.0100 -0.1794  0.0207
 8554SOL    HW237122   0.172   4.235   2.693  1.5287  1.2140  0.0496
 8555SOL     OW37123   2.286   3.497   5.415  0.0847 -0.6162 -0.2187
 8555SOL    HW137124   2.206   3.497   5.363  1.2031  0.8867 -1.9188
 8555SOL    HW237125   2.260   3.454   5.497  0.7565 -2.6309 -1.0458
 8556SOL     OW37126   2.653   0.364   6.173 -0.3356 -0.3756  0.8830
 8556SOL    HW137127   2.633   0.346   6.081 -1.3550  0.1260  0.9969
 8556SOL    HW237128   2.628   0.456   6.182 -0.9622 -0.5449  0.9345
 8557SOL     OW37129   2.678   1.783   8.400 -0.4117 -0.3621  0.3712
 8557SOL    HW137130   2.759   1.797   8.449  0.5970 -1.4103 -0.9925
 8557SOL    HW237131   2.643   1.699   8.429 -1.9299  0.6226  1.3976
 8558SOL     OW37132   2.144   2.900   7.147  0.1796  0.4414 -0.0330
 8558SOL    HW137133   2.123   2.852   7.067  1.3863  0.9337 -0.6494
 8558SOL    HW237134   2.064   2.932   7.188 -1.3517 -3.3201 -0.0827
 8559SOL     OW37135   0.673   2.940   4.733 -0.5482 -0.0409  1.1209
 8559SOL    HW137136   0.673   3.024   4.687 -0.1556  0.0227  1.2414
 8559SOL    HW237137   0.624   2.959   4.813 -1.2836 -1.8148  1.1047
 8560SOL     OW37138   4.138   0.898   4.437 -0.2776 -0.4277  0.1683
 8560SOL    HW137139   4.225   0.899   4.398 -0.6129  1.6299 -0.5608
 8560SOL    HW237140   4.112   0.806   4.439  0.8410 -0.7100  1.5690
 8561SOL     OW37141   4.122   3.518   6.608  0.0566  0.3152  0.3688
 8561SOL    HW137142   4.119   3.614   6.604  2.8990  0.3744 -0.4873
 8561SOL    HW237143   4.217   3.518   6.613  0.0875 -0.1819 -0.1529
 8562SOL     OW37144   0.338   1.472   7.890 -0.1913  0.0011  0.4461
 8562SOL    HW137145   0.371   1.562   7.900  2.3157 -1.0044  1.2161
 8562SOL    HW237146   0.336   1.450   7.796  0.4760  0.0175  0.4259
 8563SOL     OW37147   1.195   1.885   7.642 -0.1816 -0.5620 -0.0739
 8563SOL    HW137148   1.152   1.919   7.720  2.4009 -0.6985  1.4023
 8563SOL    HW237149   1.268   1.833   7.676 -0.5961 -0.5476  0.8292
 8564SOL     OW37150   2.929   2.349   3.017  0.5977 -0.0221  0.6271
 8564SOL    HW137151   2.922   2.308   2.930  1.7769  0.0880  0.4780
 8564SOL    HW237152   2.995   2.415   2.995  1.5231 -0.7971  1.0827
 8565SOL     OW37153   1.943   0.906   4.864 -0.0394  0.3635  0.5552
 8565SOL    HW137154   1.945   0.886   4.958 -1.2268  0.6993  0.6547
 8565SOL    HW237155   1.887   0.837   4.828  0.3003  1.2736 -1.6798
 8566SOL     OW37156   3.509   1.954   6.732  0.6371 -0.1657 -0.0228
 8566SOL    HW137157   3.541   2.043   6.717 -0.5455  0.2773  0.0457
 8566SOL    HW237158   3.452   1.958   6.655  0.7146 -3.5040 -0.2447
 8567SOL     OW37159   3.611   4.287   5.844  0.1284 -0.2118  0.2733
 8567SOL    HW137160   3.596   4.238   5.925 -1.8141 -2.0380 -1.1663
 8567SOL    HW237161   3.527   4.331   5.828 -0.8966 -2.0919  0.5072
 8568SOL     OW37162   3.234   1.693   0.847 -0.9036 -0.0974 -0.3433
 8568SOL    HW137163   3.152   1.742   0.840  0.0803  1.4462 -1.1714
 8568SOL    HW237164   3.294   1.766   0.863 -0.6657 -0.0787 -1.3112
 8569SOL     OW37165   2.370   1.562   8.356  0.4425 -0.0171  0.2012
 8569SOL    HW137166   2.447   1.556   8.413  0.2093  0.3381  0.5485
 8569SOL    HW237167   2.323   1.479   8.360  0.2567  0.0839  0.0890
 8570SOL     OW37168   1.290   1.622   5.743  0.4875  0.2072 -0.8505
 8570SOL    HW137169   1.369   1.655   5.786  0.1869  0.5698 -0.5811
 8570SOL    HW237170   1.313   1.637   5.651  1.7909 -0.3364 -0.6174
 8571SOL     OW37171   4.318   3.751   0.163  0.1435  0.1568 -0.1501
 8571SOL    HW137172   4.386   3.739   0.097  1.1361  0.1634  0.8735
 8571SOL    HW237173   4.368   3.755   0.245 -1.1166  2.1020  0.5273
 8572SOL     OW37174   3.981   3.152   9.158 -0.6184  0.2175 -0.1396
 8572SOL    HW137175   3.916   3.084   9.140  0.0632 -0.1615 -1.1583
 8572SOL    HW237176   3.946   3.191   9.238 -0.6559 -1.2954  0.5781
 8573SOL     OW37177   0.764   0.858   3.890 -0.1074  0.0364  0.4662
 8573SOL    HW137178   0.722   0.790   3.838 -1.2635  0.5344  0.7485
 8573SOL    HW237179   0.695   0.892   3.947 -0.3977 -1.0472  0.7563
 8574SOL     OW37180   0.446   1.351   3.495  0.8193  0.0563  0.9601
 8574SOL    HW137181   0.533   1.311   3.489  0.8435  0.2169  0.1654
 8574SOL    HW237182   0.453   1.424   3.556 -0.5479  1.1846 -0.2230
 8575SOL     OW37183   2.533   0.416   7.496 -0.7109  0.0828  0.5394
 8575SOL    HW137184   2.568   0.452   7.415 -1.3384 -0.7831 -0.1131
 8575SOL    HW237185   2.511   0.495   7.546  2.3385  1.5224 -0.3932
 8576SOL     OW37186   0.169   0.729   7.636  0.1868 -0.0306  0.2195
 8576SOL    HW137187   0.193   0.712   7.727  0.3362  2.1254  0.5834
 8576SOL    HW237188   0.252   0.754   7.596  0.0164 -0.9501 -0.7203
 8577SOL     OW37189   2.781   0.748   4.058 -0.2595 -0.0283  0.4098
 8577SOL    HW137190   2.827   0.669   4.031  0.8030  0.7861 -0.1712
 8577SOL    HW237191   2.689   0.745   4.033  0.0367 -0.0877 -0.6882
 8578SOL     OW37192   0.184   2.539  13.137  0.2464  0.0849  0.4492
 8578SOL    HW137193   0.271   2.533  13.178  1.9882  0.4486 -3.2086
 8578SOL    HW237194   0.135   2.591  13.201 -2.3488 -0.1756 -1.3545
 8579SOL     OW37195   0.853   3.050   3.527 -0.7633 -0.2919 -0.9252
 8579SOL    HW137196   0.807   3.004   3.457  1.2745  0.1661 -2.5739
 8579SOL    HW237197   0.936   3.065   3.481 -0.1914 -2.7839 -0.6808
 8580SOL     OW37198   0.445   1.501   2.748  0.5511 -0.1986 -0.2286
 8580SOL    HW137199   0.414   1.419   2.710 -1.7775  2.0984 -3.2735
 8580SOL    HW237200   0.400   1.492   2.832  2.2623 -0.9308  0.5936
 8581SOL     OW37201   1.036   3.693   6.364  0.0561 -0.1448  0.1545
 8581SOL    HW137202   1.087   3.716   6.286  0.4076  0.9491  0.7094
 8581SOL    HW237203   1.085   3.618   6.398  1.5079  1.1597  0.9633
 8582SOL     OW37204   3.114   3.937  13.787  0.9106 -0.2953  0.5439
 8582SOL    HW137205   3.071   4.018  13.762 -0.1005  0.2156  3.8853
 8582SOL    HW237206   3.171   3.914  13.714  1.0243  1.4305  0.1012
 8583SOL     OW37207   0.952   2.767   4.483  0.3439  0.4267  0.5835
 8583SOL    HW137208   1.012   2.813   4.542  2.6037 -1.9896  0.1702
 8583SOL    HW237209   0.878   2.737   4.537 -0.3707 -3.3716 -2.5368
 8584SOL     OW37210   3.620   3.472   3.673 -0.2519 -0.2717 -0.0456
 8584SOL    HW137211   3.622   3.428   3.588  0.3027 -1.4340  0.5568
 8584SOL    HW237212   3.560   3.414   3.719  0.1393 -0.1341  0.6440
 8585SOL     OW37213   0.938   1.153  11.747  0.5194  0.8708 -0.7250
 8585SOL    HW137214   0.899   1.141  11.834  2.3002  0.9432  0.0858
 8585SOL    HW237215   0.977   1.240  11.741 -0.8057  1.4199 -1.3979
 8586SOL     OW37216   3.958   1.520   5.461  0.1247  0.2823  0.6059
 8586SOL    HW137217   3.924   1.468   5.387  1.6286 -0.0786  0.1769
 8586SOL    HW237218   3.931   1.469   5.537  3.1080  1.9767  2.7935
 8587SOL     OW37219   3.750   4.652  14.870 -0.2967 -0.0609 -0.1003
 8587SOL    HW137220   3.723   4.672  14.780  0.6995 -1.6346 -0.7469
 8587SOL    HW237221   3.679   4.708  14.903 -1.7564 -1.8351 -0.2442
 8588SOL     OW37222   1.887   0.544   4.365  0.0493 -0.1957 -0.3185
 8588SOL    HW137223   1.837   0.463   4.375  0.2156 -0.4466 -1.4489
 8588SOL    HW237224   1.952   0.506   4.305  0.5516 -1.8994  1.2702
 8589SOL     OW37225   1.475   4.345   6.500  0.0703 -0.4466  0.2447
 8589SOL    HW137226   1.393   4.306   6.532 -1.3567  2.6390  0.3756
 8589SOL    HW237227   1.516   4.389   6.575 -0.8349 -0.5527  0.8123
 8590SOL     OW37228   2.414   3.770  14.078  0.0479  0.0939  0.1631
 8590SOL    HW137229   2.370   3.798  13.997 -0.2823 -1.5110 -0.2243
 8590SOL    HW237230   2.434   3.678  14.060 -0.7952  0.1650 -1.1489
 8591SOL     OW37231   3.204   2.587  17.017 -0.1525 -0.4127  0.4965
 8591SOL    HW137232   3.140   2.518  17.033  0.1138 -0.4693  1.3307
 8591SOL    HW237233   3.168   2.657  17.072 -0.4316 -0.4883  0.4128
 8592SOL     OW37234   3.979   1.709   4.266 -0.3727  0.2936  0.1149
 8592SOL    HW137235   3.958   1.617   4.279  0.1154 -0.2451 -2.8675
 8592SOL    HW237236   4.046   1.709   4.198 -1.1093 -1.2308 -0.6346
 8593SOL     OW37237   1.717   3.190   2.922 -0.4097 -0.5209  0.1199
 8593SOL    HW137238   1.680   3.274   2.950  1.7014  0.5280 -0.1988
 8593SOL    HW237239   1.695   3.193   2.829  1.9661  0.2558 -0.4315
 8594SOL     OW37240   2.574   4.316   5.669  0.0585  0.0492  0.4461
 8594SOL    HW137241   2.583   4.226   5.702 -0.9094  0.7185  2.5222
 8594SOL    HW237242   2.555   4.283   5.581 -0.6044 -0.9185  0.9518
 8595SOL     OW37243   1.819   1.530   1.388 -0.1249 -0.3615 -0.3237
 8595SOL    HW137244   1.740   1.571   1.352 -1.1587 -1.1309  1.0403
 8595SOL    HW237245   1.784   1.452   1.430  1.7989 -0.3747  1.2309
 8596SOL     OW37246   1.300   0.112   0.562  0.4348  0.1541 -0.2540
 8596SOL    HW137247   1.352   0.035   0.583 -1.3574 -0.7872  0.6887
 8596SOL    HW237248   1.350   0.150   0.490  1.5328 -0.9358 -0.0572
 8597SOL     OW37249   3.684   4.124   8.446  0.4010 -0.0067  0.1949
 8597SOL    HW137250   3.702   4.035   8.475 -0.6691 -0.7974 -1.5357
 8597SOL    HW237251   3.675   4.105   8.353 -0.2225 -1.9809  0.6649
 8598SOL     OW37252   3.188   1.634   0.473  0.6134  0.0545 -0.0874
 8598SOL    HW137253   3.214   1.710   0.525 -0.2808  0.7585 -0.6641
 8598SOL    HW237254   3.255   1.640   0.405 -0.4655 -0.5034 -1.2061
 8599SOL     OW37255   2.255   0.690   8.057  0.6842  0.3725  0.3198
 8599SOL    HW137256   2.315   0.740   8.113  1.7510 -1.5017  0.8439
 8599SOL    HW237257   2.178   0.660   8.105  0.3107 -0.8303 -1.0460
 8600SOL     OW37258   1.977   3.839   8.240  0.2458 -0.1780 -0.0708
 8600SOL    HW137259   2.019   3.826   8.155 -2.9803  0.5590 -1.7693
 8600SOL    HW237260   1.967   3.934   8.242  0.3294 -0.1820  0.6241
 8601SOL     OW37261   1.428   3.002   9.357  0.1899  0.3900  0.0845
 8601SOL    HW137262   1.375   3.081   9.362 -0.4927  0.0060 -0.8819
 8601SOL    HW237263   1.368   2.936   9.320  0.0047  0.3116  0.5240
 8602SOL     OW37264   3.238   3.475   2.059  0.7007 -1.1894  0.2423
 8602SOL    HW137265   3.211   3.392   2.019  1.7900 -1.0390 -0.7702
 8602SOL    HW237266   3.290   3.520   1.993  0.4083 -0.9155  0.1974
 8603SOL     OW37267   0.436   3.609   4.391 -0.0509  0.0154 -0.1825
 8603SOL    HW137268   0.420   3.655   4.473  0.7462  2.3160 -1.3259
 8603SOL    HW237269   0.532   3.605   4.387 -0.1354 -1.1713 -1.1170
 8604SOL     OW37270   1.014   4.317   4.299  0.4712 -0.1792 -0.0788
 8604SOL    HW137271   1.051   4.389   4.248  0.2200  0.3312  0.4645
 8604SOL    HW237272   0.951   4.354   4.361 -2.2662 -0.4281 -2.7194
 8605SOL     OW37273   0.003   4.040   3.278 -0.4095 -0.8165 -0.4383
 8605SOL    HW137274   4.634   4.050   3.304 -0.0467 -2.1095  1.3772
 8605SOL    HW237275   0.037   4.119   3.319 -1.4273 -1.3239  1.3974
 8606SOL     OW37276   0.298   3.338   5.566 -0.4063  0.5850  0.1442
 8606SOL    HW137277   0.252   3.412   5.605 -0.6754 -0.0019  0.9352
 8606SOL    HW237278   0.326   3.382   5.485  1.8265 -1.4284 -0.1974
 8607SOL     OW37279   3.090   0.802   1.661  0.1970  0.4450 -0.1623
 8607SOL    HW137280   3.011   0.757   1.631  0.7016 -0.3634 -0.2650
 8607SOL    HW237281   3.122   0.749   1.734 -0.3722  1.3706  0.7598
 8608SOL     OW37282   3.863   4.480   5.121 -0.9628  0.0954  0.3860
 8608SOL    HW137283   3.826   4.392   5.127 -2.7910  0.6506 -3.1995
 8608SOL    HW237284   3.942   4.472   5.067 -0.6304  1.0352  0.7342
 8609SOL     OW37285   1.049   1.272  13.162 -0.2004 -0.0896  0.0889
 8609SOL    HW137286   1.084   1.333  13.227 -3.3636  1.6219  0.2507
 8609SOL    HW237287   1.127   1.259  13.109  0.9626 -1.5219  2.1593
 8610SOL     OW37288   4.268   0.903   5.427 -0.2375 -0.5655 -0.1123
 8610SOL    HW137289   4.254   0.852   5.507 -1.6754  1.7167  1.0905
 8610SOL    HW237290   4.286   0.843   5.355  1.8662 -0.8593  0.6552
 8611SOL     OW37291   3.604   1.324  17.306 -0.4853 -0.8990 -0.6281
 8611SOL    HW137292   3.570   1.411  17.324  0.8074 -0.3885 -0.6672
 8611SOL    HW237293   3.655   1.302  17.384  0.2879 -0.2841 -0.9670
 8612SOL     OW37294   3.940   0.868   2.427 -0.4203 -0.2127 -0.2361
 8612SOL    HW137295   3.937   0.805   2.355 -1.5305 -0.3158 -0.0965
 8612SOL    HW237296   3.892   0.821   2.495 -3.4821  0.8503 -1.6531
 8613SOL     OW37297   4.107   2.020  10.167 -0.1845  0.0704 -0.3445
 8613SOL    HW137298   4.061   2.094  10.126  0.7475  0.9001  0.1156
 8613SOL    HW237299   4.196   2.053  10.178 -0.3944  0.1277  1.2220
 8614SOL     OW37300   0.185   2.210   6.496  0.1104 -0.1382  0.3076
 8614SOL    HW137301   0.137   2.274   6.444 -2.2027  0.3354  3.0696
 8614SOL    HW237302   0.271   2.224   6.455  0.0082  0.4208  0.2765
 8615SOL     OW37303   0.600   4.139   3.886 -0.7679 -0.1037 -0.1953
 8615SOL    HW137304   0.693   4.129   3.868 -0.4450  0.9695  0.9011
 8615SOL    HW237305   0.572   4.161   3.798  1.1276 -0.6696 -0.9284
 8616SOL     OW37306   3.533   0.873   5.846  0.5094  0.3533  0.5424
 8616SOL    HW137307   3.529   0.811   5.918 -2.7278 -0.3810 -0.2388
 8616SOL    HW237308   3.449   0.863   5.801  0.0372 -0.2092  1.5532
 8617SOL     OW37309   2.096   0.080   3.578  0.0460  0.3047  0.3836
 8617SOL    HW137310   2.017   0.124   3.547 -1.4972 -1.4636  1.7730
 8617SOL    HW237311   2.140   0.159   3.609  0.6501  0.9184 -2.0096
 8618SOL     OW37312   1.324   0.710  15.824 -0.2267 -0.7228  0.0183
 8618SOL    HW137313   1.260   0.752  15.766 -0.0581  1.2623  1.2517
 8618SOL    HW237314   1.386   0.677  15.759  0.7221 -0.4733  0.7877
 8619SOL     OW37315   0.928   3.648   6.072  0.4826 -0.2886  0.4555
 8619SOL    HW137316   0.868   3.723   6.078 -0.2301 -0.7384 -1.3622
 8619SOL    HW237317   1.010   3.693   6.095  0.2073  0.5891 -0.2722
 8620SOL     OW37318   2.818   1.975   7.479  0.1591  0.3700 -0.0212
 8620SOL    HW137319   2.851   1.956   7.567  0.0076 -1.5349 -0.3799
 8620SOL    HW237320   2.723   1.964   7.479  0.1834  0.1395  1.2168
 8621SOL     OW37321   3.311   2.575  17.633  0.0476  0.5498 -0.3858
 8621SOL    HW137322   3.319   2.539  17.545 -0.9777 -0.4630 -0.0595
 8621SOL    HW237323   3.267   2.504  17.679  0.5675  1.6695  1.8398
 8622SOL     OW37324   3.850   3.951   1.289  0.0166  0.3035 -0.2173
 8622SOL    HW137325   3.867   3.969   1.196 -1.3746 -0.0972 -0.5488
 8622SOL    HW237326   3.795   3.874   1.280 -0.5006  0.7877 -1.1398
 8623SOL     OW37327   1.869   0.908   2.303  0.3673 -0.2281  0.3017
 8623SOL    HW137328   1.780   0.892   2.335 -0.7576  1.0330 -2.2529
 8623SOL    HW237329   1.849   0.891   2.212 -1.0032  0.4400  0.4877
 8624SOL     OW37330   3.848   3.471  17.358  0.1060 -0.0303  0.3137
 8624SOL    HW137331   3.864   3.454  17.266 -2.0755  0.0165 -0.0689
 8624SOL    HW237332   3.814   3.390  17.397  1.0586 -1.3257 -1.5592
 8625SOL     OW37333   0.183   0.119   4.454 -0.1139  0.1461 -0.2150
 8625SOL    HW137334   0.139   0.185   4.400  0.6512 -0.1818 -1.2370
 8625SOL    HW237335   0.261   0.165   4.485  1.3737 -0.9255 -2.3855
 8626SOL     OW37336   0.423   4.607   5.196 -0.2713  0.0177  0.0269
 8626SOL    HW137337   0.414   4.531   5.138 -2.5453 -1.8381  2.8118
 8626SOL    HW237338   0.340   4.652   5.182 -0.0849  0.3430 -0.0355
 8627SOL     OW37339   1.400   1.183   8.509 -0.0901  0.0853  0.6905
 8627SOL    HW137340   1.457   1.260   8.519 -0.7724  0.3468  2.6081
 8627SOL    HW237341   1.449   1.129   8.447  1.1985  1.8181  0.2154
 8628SOL     OW37342   1.203   0.857   3.809  0.7005 -0.3193  0.5683
 8628SOL    HW137343   1.245   0.926   3.757 -0.5558  1.9090  2.4945
 8628SOL    HW237344   1.278   0.804   3.836  1.3497  0.1691 -0.2691
 8629SOL     OW37345   2.838   1.943   4.936  0.2092 -0.1031  0.2135
 8629SOL    HW137346   2.847   1.850   4.914 -0.9776  0.0622 -0.9753
 8629SOL    HW237347   2.760   1.961   4.885 -0.8867  1.8444  2.5707
 8630SOL     OW37348   4.410   3.609   4.112  0.1536  0.0345  0.5103
 8630SOL    HW137349   4.492   3.644   4.148 -0.9826  1.8777  1.2919
 8630SOL    HW237350   4.347   3.671   4.149 -0.1393  0.3728 -0.5290
 8631SOL     OW37351   2.507   2.155   7.348 -0.2773 -0.7032  0.0635
 8631SOL    HW137352   2.465   2.077   7.311 -4.6282  1.5143  0.2965
 8631SOL    HW237353   2.529   2.133   7.438 -0.7330 -0.4451  0.2368
 8632SOL     OW37354   0.855   0.945  15.386  0.4152  0.0240  0.6716
 8632SOL    HW137355   0.831   1.030  15.422 -2.5220 -0.3221 -0.4149
 8632SOL    HW237356   0.817   0.889  15.454 -3.5770  1.3610 -0.4153
 8633SOL     OW37357   0.512   0.126   5.813 -0.3370 -0.1153 -0.0865
 8633SOL    HW137358   0.452   0.189   5.853 -0.3462 -0.5028  0.5246
 8633SOL    HW237359   0.590   0.122   5.869  1.6901 -0.9977 -3.0090
 8634SOL     OW37360   1.495   0.340  14.572  0.0911  0.0928  0.4284
 8634SOL    HW137361   1.562   0.377  14.630 -0.1052  1.2114 -0.0461
 8634SOL    HW237362   1.493   0.247  14.594 -0.7574 -0.0210 -0.1150
 8635SOL     OW37363   4.058   1.068   3.023 -0.3513  0.2056  0.4198
 8635SOL    HW137364   4.126   1.001   3.032 -3.3699 -2.6204  2.1719
 8635SOL    HW237365   4.087   1.120   2.949 -0.7145 -0.1665  0.0177
 8636SOL     OW37366   0.073   3.184  12.380  0.3284 -0.6878 -0.1272
 8636SOL    HW137367   4.702   3.194  12.360 -0.4809 -2.1278  2.8999
 8636SOL    HW237368   0.105   3.274  12.385 -1.4115 -0.2484  3.2467
 8637SOL     OW37369   0.709   3.480   2.142  0.6183 -0.2795  0.3266
 8637SOL    HW137370   0.749   3.398   2.112  1.9891  1.1775 -1.8046
 8637SOL    HW237371   0.715   3.530   2.061  1.1484 -0.6157  0.1570
 8638SOL     OW37372   2.380   3.292   3.105  0.6756 -0.1478 -0.2756
 8638SOL    HW137373   2.323   3.361   3.138 -0.5768 -2.1811  1.7282
 8638SOL    HW237374   2.330   3.212   3.113  1.8596 -0.5674  2.7292
 8639SOL     OW37375   3.023   3.471  12.407  0.2477 -0.6323  0.3218
 8639SOL    HW137376   3.061   3.448  12.322 -1.1356 -0.4503 -0.3494
 8639SOL    HW237377   3.079   3.542  12.437 -2.0604  1.3297  0.0299
 8640SOL     OW37378   4.046   0.381   7.672  0.7863 -0.1643  0.0070
 8640SOL    HW137379   4.013   0.294   7.696  2.5936 -1.5018 -2.2883
 8640SOL    HW237380   4.073   0.378   7.580 -1.8087 -1.4262 -0.7119
 8641SOL     OW37381   1.908   0.320  13.536  0.0024 -0.3430 -0.0031
 8641SOL    HW137382   1.982   0.343  13.593  0.4443  0.2920 -0.8291
 8641SOL    HW237383   1.941   0.259  13.470 -1.6559  1.3044 -2.3534
 8642SOL     OW37384   3.104   0.862   8.476  0.0389  0.1681  0.0547
 8642SOL    HW137385   3.036   0.845   8.410  1.3282 -0.5791 -1.0630
 8642SOL    HW237386   3.148   0.927   8.421 -0.4424 -0.0823 -0.6394
 8643SOL     OW37387   0.641   3.774   7.600  0.0119  0.1040 -0.3680
 8643SOL    HW137388   0.703   3.701   7.603 -0.6849 -0.4274  1.0796
 8643SOL    HW237389   0.672   3.838   7.665  1.8066 -0.5829 -0.5785
 8644SOL     OW37390   4.183   4.169   7.059 -0.0209 -0.0369  0.2328
 8644SOL    HW137391   4.132   4.095   7.030  0.7464 -1.0214  1.3959
 8644SOL    HW237392   4.140   4.239   7.009 -1.0476 -0.4579  0.5413
 8645SOL     OW37393   0.518   2.811   7.796  0.0487  0.0778  0.3293
 8645SOL    HW137394   0.514   2.818   7.701 -0.6488  0.7420  0.4116
 8645SOL    HW237395   0.474   2.727   7.808 -0.3298  0.0473 -1.3120
 8646SOL     OW37396   3.008   2.900   4.583 -0.6028 -0.0640 -0.5399
 8646SOL    HW137397   3.075   2.891   4.515  1.2335 -0.6548  1.3241
 8646SOL    HW237398   3.008   2.990   4.617 -0.7552 -0.4949  0.6006
 8647SOL     OW37399   1.937   4.390   7.827  0.6444  0.1931 -0.2271
 8647SOL    HW137400   1.911   4.461   7.885  1.1335  1.3125 -1.3595
 8647SOL    HW237401   1.877   4.325   7.862 -0.3306  1.4356  0.3940
 8648SOL     OW37402   4.677   1.438   3.711  0.1862 -0.8840 -0.2148
 8648SOL    HW137403   0.031   1.393   3.675 -0.1663 -2.6858  1.3007
 8648SOL    HW237404   4.670   1.518   3.658 -2.1712 -1.5564 -0.9271
 8649SOL     OW37405   2.277   1.074   6.384 -0.3116  0.3601 -0.4233
 8649SOL    HW137406   2.299   1.154   6.337 -3.1643  1.1854 -0.3922
 8649SOL    HW237407   2.360   1.030   6.369  1.3127  2.8009  1.4594
 8650SOL     OW37408   2.013   2.441   1.598  0.1505  0.5353  0.2341
 8650SOL    HW137409   2.051   2.423   1.684 -0.1258  0.8454  0.4258
 8650SOL    HW237410   2.075   2.501   1.557  0.8630  0.4073  1.1316
 8651SOL     OW37411   0.543   3.026  15.571 -0.5951  0.0585 -0.1137
 8651SOL    HW137412   0.553   3.073  15.488 -1.7594  2.6540  1.2096
 8651SOL    HW237413   0.470   2.967  15.556 -0.3489  0.3404 -2.5300
 8652SOL     OW37414   4.643   0.331  14.112  0.8283  0.6899  0.7332
 8652SOL    HW137415   0.002   0.292  14.144  0.6091 -0.1321  0.2872
 8652SOL    HW237416   4.605   0.347  14.199 -2.3389 -0.8298 -0.3675
 8653SOL     OW37417   3.746   4.336  11.064  0.0373  0.1100 -0.0261
 8653SOL    HW137418   3.790   4.305  11.144  0.8624  0.7252 -0.2374
 8653SOL    HW237419   3.711   4.251  11.040 -1.3649  0.9916 -1.0438
 8654SOL     OW37420   0.711   3.205  10.816 -0.0352  0.2887 -0.0439
 8654SOL    HW137421   0.674   3.124  10.850  0.0626  0.0815 -0.4324
 8654SOL    HW237422   0.790   3.177  10.770  0.6821 -1.0796  2.0758
 8655SOL     OW37423   4.355   1.142   7.630  0.2943  0.3699  0.3171
 8655SOL    HW137424   4.335   1.226   7.672  1.2979 -0.3037  2.1535
 8655SOL    HW237425   4.362   1.092   7.711 -1.5074  1.2228  1.0150
 8656SOL     OW37426   2.750   1.562   1.523  0.0819  0.0070  0.3027
 8656SOL    HW137427   2.750   1.637   1.582  1.1145  0.7132 -0.6036
 8656SOL    HW237428   2.788   1.600   1.444 -0.8164 -2.2782 -1.2311
 8657SOL     OW37429   1.598   0.537  11.159  0.2749 -0.3342 -0.3655
 8657SOL    HW137430   1.529   0.490  11.112 -0.3423  0.4916 -0.2841
 8657SOL    HW237431   1.657   0.463  11.148 -0.2404 -1.0315  1.3791
 8658SOL     OW37432   4.317   0.517   3.154  0.3285  0.0350  0.1523
 8658SOL    HW137433   4.372   0.578   3.204  0.3867  0.3928 -0.3499
 8658SOL    HW237434   4.297   0.570   3.077  1.7937  3.4834  2.1252
 8659SOL     OW37435   1.478   4.482   8.999  1.0002 -0.0394  0.0370
 8659SOL    HW137436   1.513   4.421   8.935 -0.5179 -0.5626 -0.3062
 8659SOL    HW237437   1.553   4.514   9.049 -0.0209 -0.5022  1.8772
 8660SOL     OW37438   3.076   4.630   5.909  0.1895  0.3192  0.1056
 8660SOL    HW137439   3.098   4.606   5.999  3.1206 -1.4092 -1.0709
 8660SOL    HW237440   3.070   0.003   5.915  0.2426  0.2309  1.4304
 8661SOL     OW37441   0.678   1.085  14.300 -0.0693  0.1005  0.3245
 8661SOL    HW137442   0.767   1.118  14.295 -0.1499  0.1958 -0.4848
 8661SOL    HW237443   0.685   1.052  14.389  0.9360 -0.9427 -0.1323
 8662SOL     OW37444   3.936   3.923   6.259  0.2891 -0.0051  0.3691
 8662SOL    HW137445   3.963   3.834   6.279 -0.9604 -0.4168  0.2413
 8662SOL    HW237446   4.005   3.964   6.312 -0.5541  0.7854  0.8574
 8663SOL     OW37447   0.877   2.043   3.654  0.3073  0.6221 -0.4258
 8663SOL    HW137448   0.799   2.031   3.708  0.6727 -0.6369 -0.1746
 8663SOL    HW237449   0.936   2.097   3.706  0.1680  1.2655 -0.9349
 8664SOL     OW37450   0.260   1.324   4.258 -0.1578 -0.1247 -0.1758
 8664SOL    HW137451   0.203   1.250   4.279 -0.7591  0.0354 -1.2106
 8664SOL    HW237452   0.209   1.399   4.288 -0.2731 -0.7105  1.0738
 8665SOL     OW37453   3.194   4.493  11.931  0.0776 -0.2139  0.2739
 8665SOL    HW137454   3.212   4.401  11.951  1.5327 -0.0458 -0.2753
 8665SOL    HW237455   3.107   4.485  11.893 -0.3639 -0.0357  1.2656
 8666SOL     OW37456   1.239   3.455  15.287 -0.5015  0.4540  0.2247
 8666SOL    HW137457   1.222   3.395  15.360  0.3409  1.4830  1.2681
 8666SOL    HW237458   1.150   3.473  15.256 -0.5017  1.6676  0.9410
 8667SOL     OW37459   3.529   0.124   7.919  0.1548  0.6014 -0.0827
 8667SOL    HW137460   3.478   0.065   7.863 -1.0185  1.4771  0.0563
 8667SOL    HW237461   3.526   0.205   7.868  1.5427 -0.0393 -1.1831
 8668SOL     OW37462   0.979   0.819   6.378  0.0157  0.1399  0.5568
 8668SOL    HW137463   1.018   0.733   6.364  2.1485  0.9101  1.6712
 8668SOL    HW237464   0.980   0.828   6.474  2.9744  0.6082  0.4999
 8669SOL     OW37465   3.766   4.493  16.342  0.0119  0.2961  0.0682
 8669SOL    HW137466   3.680   4.471  16.379  0.9518 -0.6385  1.6870
 8669SOL    HW237467   3.824   4.455  16.408 -2.5845  0.5023  2.4646
 8670SOL     OW37468   0.572   4.504   7.561  0.2126  0.6129 -0.7084
 8670SOL    HW137469   0.482   4.486   7.533  0.3356  0.8589 -1.2679
 8670SOL    HW237470   0.579   4.598   7.549 -0.4778  0.9212  1.3060
 8671SOL     OW37471   1.477   2.824  13.091  0.0075  0.2448  0.2036
 8671SOL    HW137472   1.500   2.756  13.154  1.8423 -0.5144 -1.3234
 8671SOL    HW237473   1.550   2.818  13.030 -1.0856 -2.1568 -0.8410
 8672SOL     OW37474   3.675   4.360   4.151 -0.1656 -0.5900 -0.3066
 8672SOL    HW137475   3.635   4.445   4.170  0.7618 -0.0326 -0.8413
 8672SOL    HW237476   3.705   4.342   4.240 -1.0876 -0.2520  0.0717
 8673SOL     OW37477   1.871   1.757   4.637  0.0278  0.3933 -0.4192
 8673SOL    HW137478   1.927   1.761   4.715  0.5916 -0.7963 -0.7640
 8673SOL    HW237479   1.840   1.847   4.629  0.1710  0.4486 -0.3639
 8674SOL     OW37480   3.683   0.862   1.563 -0.3819  0.2060  0.1005
 8674SOL    HW137481   3.664   0.776   1.598 -1.1567  0.3748  0.0927
 8674SOL    HW237482   3.688   0.841   1.470 -1.7661 -0.4484  0.1903
 8675SOL     OW37483   2.102   2.658  17.527  0.0558 -0.2229  0.1705
 8675SOL    HW137484   2.071   2.597  17.593 -1.1609  0.7245  0.4670
 8675SOL    HW237485   2.036   2.639  17.460  0.1251 -3.7193  1.1366
 8676SOL     OW37486   0.162   3.988   5.632 -0.4592 -0.1045 -0.7139
 8676SOL    HW137487   0.151   4.082   5.622  1.0458  0.0588 -0.7497
 8676SOL    HW237488   0.070   3.962   5.620 -1.1137  2.4600 -1.1504
 8677SOL     OW37489   2.008   1.857   3.014  0.0505  0.0799 -0.4415
 8677SOL    HW137490   1.993   1.952   3.010 -1.7038 -0.1777 -0.2150
 8677SOL    HW237491   1.996   1.835   2.922  0.0110  0.4345 -0.5196
 8678SOL     OW37492   4.590   4.685   5.193 -0.0485  0.8022 -0.0255
 8678SOL    HW137493   4.666   4.654   5.143 -0.7714  0.3174 -0.8236
 8678SOL    HW237494   4.551   0.032   5.140 -0.9609  0.5963  0.3771
 8679SOL     OW37495   3.735   3.545   4.795  0.3072 -0.0687 -0.1662
 8679SOL    HW137496   3.641   3.529   4.799  0.5724 -1.2217  1.7067
 8679SOL    HW237497   3.741   3.522   4.702  0.4051  1.2296 -0.4738
 8680SOL     OW37498   2.933   0.345  12.480  0.3946 -0.1633  0.3369
 8680SOL    HW137499   3.024   0.324  12.459  1.1443  1.2697  2.1139
 8680SOL    HW237500   2.930   0.440  12.471  0.7008 -0.2503 -0.6661
 8681SOL     OW37501   4.684   3.016   6.279  0.7331 -0.5601  0.4416
 8681SOL    HW137502   4.597   3.030   6.242 -0.2017  1.2278  3.3445
 8681SOL    HW237503   4.721   2.984   6.197  0.9629 -2.9496  1.4941
 8682SOL     OW37504   2.495   1.996   7.956  0.3009 -0.3269 -0.4306
 8682SOL    HW137505   2.456   1.915   7.922 -1.2576  0.4386 -0.4737
 8682SOL    HW237506   2.564   1.955   8.009 -1.0395 -0.7372  1.0294
 8683SOL     OW37507   0.923   3.388   7.469 -0.0427 -0.5086  0.3252
 8683SOL    HW137508   0.898   3.338   7.546 -0.9587 -0.8709 -0.2100
 8683SOL    HW237509   0.989   3.326   7.436 -1.2164 -1.3065 -0.5017
 8684SOL     OW37510   0.268   0.313   7.665 -0.1212  0.5562 -0.3452
 8684SOL    HW137511   0.249   0.332   7.757  1.2597  0.2276  0.0085
 8684SOL    HW237512   0.256   0.218   7.657  0.0347  0.5390 -0.3795
 8685SOL     OW37513   1.872   2.398   7.448 -0.3060 -0.1694  0.0271
 8685SOL    HW137514   1.940   2.390   7.382  0.5760  1.5063  0.7496
 8685SOL    HW237515   1.804   2.448   7.402 -0.0211  1.6659  1.6082
 8686SOL     OW37516   2.757   1.188   8.134 -0.2928 -0.3557 -0.3814
 8686SOL    HW137517   2.732   1.111   8.084  0.4307  0.9273 -2.7347
 8686SOL    HW237518   2.804   1.141   8.203 -1.1028 -1.4124 -0.5467
 8687SOL     OW37519   1.021   0.688   8.315  0.5669  0.0184  0.1474
 8687SOL    HW137520   1.099   0.636   8.338  0.7164 -1.1322 -2.9482
 8687SOL    HW237521   0.954   0.629   8.348  0.7116  0.0878  0.5551
 8688SOL     OW37522   3.826   0.885  15.052 -0.5019  0.6226  0.3132
 8688SOL    HW137523   3.801   0.793  15.067  0.5000 -0.1389 -2.7882
 8688SOL    HW237524   3.918   0.883  15.023 -0.7791  2.0898 -0.6118
 8689SOL     OW37525   1.580   3.737   4.341 -0.6471 -0.2266  0.3675
 8689SOL    HW137526   1.489   3.756   4.364 -0.5675  1.3379 -0.5971
 8689SOL    HW237527   1.568   3.712   4.250  1.4077  0.4832 -0.1020
 8690SOL     OW37528   1.377   0.816   7.573  0.1902 -0.4582 -0.5591
 8690SOL    HW137529   1.324   0.865   7.636 -0.4971 -1.1247 -0.6143
 8690SOL    HW237530   1.352   0.864   7.495  0.2971  1.4343  0.5638
 8691SOL     OW37531   3.387   1.785   5.256 -0.3708 -0.3880 -0.3162
 8691SOL    HW137532   3.304   1.738   5.261  0.6186 -1.9408  2.0701
 8691SOL    HW237533   3.436   1.732   5.193 -0.8288 -0.5764 -0.5068
 8692SOL     OW37534   1.958   4.561   3.642  0.4677  0.2160  0.2316
 8692SOL    HW137535   1.881   4.569   3.587  0.3943 -1.0141  0.1576
 8692SOL    HW237536   1.994   4.650   3.646  1.0979 -0.0043 -0.5902
 8693SOL     OW37537   4.329   1.941   7.812  0.4235  0.7784 -0.0789
 8693SOL    HW137538   4.377   2.024   7.817  0.2066  0.9011 -0.0650
 8693SOL    HW237539   4.364   1.907   7.894 -0.9237 -1.3753 -0.3801
 8694SOL     OW37540   1.617   3.083   5.005  0.2843  0.5218  0.0006
 8694SOL    HW137541   1.660   3.044   5.081 -4.7484 -0.9617  2.0780
 8694SOL    HW237542   1.621   3.176   5.028 -0.7276  1.3746 -3.2387
 8695SOL     OW37543   2.693   2.065   2.901 -0.3654 -0.0121 -0.5443
 8695SOL    HW137544   2.742   2.117   2.838  2.3345 -0.7434  0.9681
 8695SOL    HW237545   2.763   2.041   2.962 -0.5674  0.2900 -0.1925
 8696SOL     OW37546   2.145   3.050   2.989  0.0745  0.3477  0.1966
 8696SOL    HW137547   2.132   3.043   2.894  1.7038 -1.2997  0.0881
 8696SOL    HW237548   2.057   3.063   3.022  0.2430 -2.0692  1.5896
 8697SOL     OW37549   2.236   4.583  10.538  0.1855  0.5043 -0.1513
 8697SOL    HW137550   2.238   4.655  10.601 -0.0887  0.4944 -0.1324
 8697SOL    HW237551   2.144   4.570  10.515  0.1465 -0.5652  0.5836
 8698SOL     OW37552   1.910   2.774   2.702  0.0961  0.1307 -0.2263
 8698SOL    HW137553   1.906   2.786   2.607  0.0846 -4.5471 -0.8116
 8698SOL    HW237554   1.817   2.761   2.720  0.2176 -0.0020  0.2903
 8699SOL     OW37555   1.484   3.579   0.553 -0.1021  0.0272  0.0434
 8699SOL    HW137556   1.491   3.662   0.506  0.5472  1.0379  1.9234
 8699SOL    HW237557   1.479   3.606   0.644  0.7958  1.1456 -0.2378
 8700SOL     OW37558   4.424   4.172   3.152  0.3112  0.0755 -0.0153
 8700SOL    HW137559   4.345   4.137   3.111 -2.0871  2.4765  2.5817
 8700SOL    HW237560   4.435   4.108   3.222  1.4745  2.1129  1.6662
 8701SOL     OW37561   2.769   4.145   2.522 -0.6093  0.1781  0.4152
 8701SOL    HW137562   2.700   4.181   2.467  1.1719 -1.4638 -2.9137
 8701SOL    HW237563   2.723   4.070   2.559  3.3764 -2.8744 -0.7881
 8702SOL     OW37564   1.603   0.424  16.506  0.1542  0.2204 -0.3088
 8702SOL    HW137565   1.508   0.431  16.491  0.2184 -0.5381 -1.0574
 8702SOL    HW237566   1.636   0.455  16.422 -0.6785 -0.1376 -0.7642
 8703SOL     OW37567   1.969   3.138  15.445  0.3274  0.3681 -0.1529
 8703SOL    HW137568   2.009   3.190  15.376  2.0210  1.4033  1.6144
 8703SOL    HW237569   2.027   3.155  15.519 -0.0148 -0.6633  0.3527
 8704SOL     OW37570   2.291   0.359  15.123 -0.0293  0.4195  0.0477
 8704SOL    HW137571   2.228   0.290  15.146  2.0190 -1.9852 -1.5434
 8704SOL    HW237572   2.375   0.315  15.130  0.4714  1.3657 -0.1137
 8705SOL     OW37573   3.254   4.498  12.301 -0.0385  1.3043 -0.4480
 8705SOL    HW137574   3.179   4.477  12.246  0.0607  0.2820 -0.1934
 8705SOL    HW237575   3.324   4.493  12.235 -0.6180 -0.3539 -0.9385
 8706SOL     OW37576   1.319   1.682   6.565  1.0042  0.1540  0.4080
 8706SOL    HW137577   1.374   1.605   6.582  0.9633 -0.3803 -1.8987
 8706SOL    HW237578   1.238   1.633   6.549  0.6300  1.8938 -2.9384
 8707SOL     OW37579   0.625   1.866   3.752  0.7811 -0.2112  0.0515
 8707SOL    HW137580   0.699   1.829   3.704  0.6919  0.8255 -0.8834
 8707SOL    HW237581   0.634   1.819   3.835  0.3080  1.4172  1.0299
 8708SOL     OW37582   1.013   0.227   6.113  0.0589 -0.9510  0.1853
 8708SOL    HW137583   0.954   0.298   6.086  1.9774  0.4505 -0.2845
 8708SOL    HW237584   1.080   0.224   6.046 -0.0058 -0.2138  0.0849
 8709SOL     OW37585   2.439   0.461   8.243  0.4453  0.4481 -0.0519
 8709SOL    HW137586   2.424   0.479   8.335 -1.2095  3.5863 -0.9377
 8709SOL    HW237587   2.356   0.421   8.219  1.1252 -1.6861  1.1813
 8710SOL     OW37588   4.548   3.484   9.902  0.0539  0.1490 -0.3299
 8710SOL    HW137589   4.483   3.414   9.893 -1.8562  1.9591 -0.6995
 8710SOL    HW237590   4.496   3.550   9.857 -0.8621 -0.7074 -0.5448
 8711SOL     OW37591   0.853   0.568   4.859  0.0190 -0.1627  0.0071
 8711SOL    HW137592   0.855   0.658   4.893  1.7450  0.0344 -0.5879
 8711SOL    HW237593   0.787   0.530   4.916 -0.0476  2.9082  2.0109
 8712SOL     OW37594   3.224   3.562   8.487  0.0988 -0.3943 -0.0186
 8712SOL    HW137595   3.131   3.556   8.465  0.0026  0.4310  0.1509
 8712SOL    HW237596   3.261   3.539   8.402 -0.0145  1.4920 -0.5942
 8713SOL     OW37597   2.860   1.482   2.947 -0.0565 -0.2809  0.2073
 8713SOL    HW137598   2.892   1.394   2.965 -1.2921 -0.4194  1.7537
 8713SOL    HW237599   2.796   1.492   3.017  0.8791 -1.5218  1.2264
 8714SOL     OW37600   2.212   0.562   2.865 -0.1097 -0.0047 -0.1769
 8714SOL    HW137601   2.144   0.507   2.828 -0.2475  0.8221 -1.1585
 8714SOL    HW237602   2.205   0.642   2.812 -1.4083 -1.6040 -2.4111
 8715SOL     OW37603   4.107   3.865   5.644 -0.4775  0.4630 -0.1929
 8715SOL    HW137604   4.129   3.958   5.642  0.0447  0.3427 -0.2103
 8715SOL    HW237605   4.018   3.870   5.679 -0.3378  0.2481  0.1888
 8716SOL     OW37606   0.259   0.529   3.621 -0.0900  0.0148  0.5237
 8716SOL    HW137607   0.263   0.548   3.715  2.0824  0.5426  0.3365
 8716SOL    HW237608   0.165   0.512   3.620 -0.0461  0.0198 -3.6539
 8717SOL     OW37609   1.750   2.601   4.970  0.2301  0.4148 -0.4399
 8717SOL    HW137610   1.782   2.520   5.011  3.6788  1.5471 -0.8961
 8717SOL    HW237611   1.680   2.551   4.929 -0.3166  0.5428  0.3419
 8718SOL     OW37612   3.638   0.253   5.459 -0.3966 -0.0568 -0.3444
 8718SOL    HW137613   3.705   0.253   5.391  0.4113 -2.5110  0.4671
 8718SOL    HW237614   3.604   0.163   5.457 -0.6635  0.0425 -0.3119
 8719SOL     OW37615   4.566   1.751   3.699  0.0820 -0.1165  0.0254
 8719SOL    HW137616   4.554   1.705   3.615 -0.7246  0.0844  0.0227
 8719SOL    HW237617   4.513   1.830   3.692 -1.4720 -1.2013 -0.5616
 8720SOL     OW37618   3.660   1.702   6.493 -0.3450  0.3461  0.2684
 8720SOL    HW137619   3.573   1.664   6.481  1.0776 -1.9431 -2.6407
 8720SOL    HW237620   3.678   1.688   6.586 -1.5932  0.5282  0.5415
 8721SOL     OW37621   1.503   0.581   0.972  0.3109  0.2848  0.1977
 8721SOL    HW137622   1.533   0.503   1.018 -0.8077  0.7263  1.6598
 8721SOL    HW237623   1.413   0.550   0.967  0.1624  0.7199  0.1243
 8722SOL     OW37624   2.446   0.225   1.693 -0.2474 -0.0907  0.0751
 8722SOL    HW137625   2.369   0.267   1.655 -0.3417  1.3372  1.8371
 8722SOL    HW237626   2.401   0.160   1.747 -1.7422 -0.4074 -1.5563
 8723SOL     OW37627   1.319   0.661   9.355 -0.0775 -0.0957 -0.0001
 8723SOL    HW137628   1.376   0.597   9.311 -1.0245 -1.3194  0.5534
 8723SOL    HW237629   1.238   0.611   9.365  0.2537 -0.7779 -0.7397
 8724SOL     OW37630   1.260   0.034   3.733  0.1546 -0.3123 -0.0279
 8724SOL    HW137631   1.299   4.700   3.800 -0.6885 -1.6914 -0.7124
 8724SOL    HW237632   1.171   0.047   3.764 -0.0582  2.9723 -2.0545
 8725SOL     OW37633   1.073   1.068   3.866  0.0635 -0.4688 -0.0316
 8725SOL    HW137634   1.060   1.043   3.958 -0.7881 -2.6654 -0.7493
 8725SOL    HW237635   1.110   0.986   3.834 -0.1278 -1.0619  1.2459
 8726SOL     OW37636   0.390   2.555  11.038  0.9536 -0.3221  0.4886
 8726SOL    HW137637   0.302   2.525  11.016  0.7370 -1.3512  2.7811
 8726SOL    HW237638   0.432   2.478  11.076 -1.2517 -1.9430 -0.3545
 8727SOL     OW37639   3.504   2.263  14.626  0.1125 -0.1169 -0.0528
 8727SOL    HW137640   3.531   2.307  14.545  1.6174  1.2649  1.1696
 8727SOL    HW237641   3.467   2.182  14.593 -0.0904 -0.1114  0.1624
 8728SOL     OW37642   4.721   0.498  15.204  0.2743 -0.1703 -0.6031
 8728SOL    HW137643   4.722   0.404  15.218  1.6558 -0.0828 -0.0696
 8728SOL    HW237644   4.630   0.515  15.180 -0.0921 -2.6612 -0.9426
 8729SOL     OW37645   3.677   1.663  10.472 -0.1566  0.4614 -0.2808
 8729SOL    HW137646   3.649   1.585  10.520 -0.9553  1.1596  0.3718
 8729SOL    HW237647   3.616   1.732  10.498  0.7387  1.4474 -0.8117
 8730SOL     OW37648   1.532   2.437   4.063 -0.2445  0.4361  0.1187
 8730SOL    HW137649   1.482   2.407   3.987 -1.0784  0.9065  0.4768
 8730SOL    HW237650   1.483   2.394   4.133 -0.6224  1.7867  0.6869
 8731SOL     OW37651   1.410   1.823   4.452  0.6090 -0.3342 -0.1830
 8731SOL    HW137652   1.495   1.782   4.467 -0.0480 -1.4385  0.5922
 8731SOL    HW237653   1.379   1.812   4.542  0.9953 -1.6867 -0.2149
 8732SOL     OW37654   3.307   3.977   2.286  0.4217  0.4382 -0.5443
 8732SOL    HW137655   3.323   4.066   2.252  1.0733  0.3747 -0.4064
 8732SOL    HW237656   3.220   3.962   2.251 -0.5732  3.4087  0.6446
 8733SOL     OW37657   3.634   4.660  11.936 -0.2247  0.1532  0.4232
 8733SOL    HW137658   3.660   4.696  11.851 -0.0697  0.2646  0.5181
 8733SOL    HW237659   3.722   4.649  11.971 -0.0990 -0.4738 -0.0946
 8734SOL     OW37660   0.192   1.032   2.653  0.7485  0.2467  0.0663
 8734SOL    HW137661   0.198   1.126   2.669 -1.6918  0.4069  0.0505
 8734SOL    HW237662   0.098   1.016   2.666  1.3714 -0.8416  3.3154
 8735SOL     OW37663   3.256   1.886  15.329 -0.1610  0.1625  0.1597
 8735SOL    HW137664   3.211   1.966  15.304 -0.7088 -0.0283  0.5509
 8735SOL    HW237665   3.202   1.863  15.404  1.8284  1.2414  1.9208
 8736SOL     OW37666   2.695   3.091   1.054 -0.3301 -0.1241 -0.4098
 8736SOL    HW137667   2.725   3.088   1.145  1.0072  0.5598 -0.8302
 8736SOL    HW237668   2.651   3.007   1.041 -0.9536  0.5535 -2.6313
 8737SOL     OW37669   0.087   1.961  11.688  0.5006 -0.1080  0.1762
 8737SOL    HW137670   0.026   1.984  11.758 -0.3558 -0.7568 -0.3532
 8737SOL    HW237671   0.032   1.917  11.623 -1.2584  1.7973  0.3819
 8738SOL     OW37672   0.901   4.569   4.424  0.5266 -0.9157 -0.1261
 8738SOL    HW137673   0.924   4.662   4.413 -0.0420 -0.4324  2.6121
 8738SOL    HW237674   0.807   4.585   4.430  0.7748  0.1440  1.1897
 8739SOL     OW37675   2.909   1.198   4.178 -0.4934  0.0665 -0.2509
 8739SOL    HW137676   2.841   1.147   4.221  0.8693  1.7444  3.8351
 8739SOL    HW237677   2.963   1.130   4.137  1.2541  0.6831  1.0467
 8740SOL     OW37678   3.498   0.039   6.762  0.1806  0.2209  0.8264
 8740SOL    HW137679   3.536   0.113   6.714 -0.7270  2.7900  4.0232
 8740SOL    HW237680   3.413   0.078   6.780  0.6665  1.2596  0.8645
 8741SOL     OW37681   1.561   1.325   2.684  0.6092  0.1497 -0.4241
 8741SOL    HW137682   1.587   1.237   2.658  0.1822 -0.7289  2.0373
 8741SOL    HW237683   1.494   1.339   2.618 -0.6777  0.4361  0.9274
 8742SOL     OW37684   2.460   3.613   9.849 -0.4472  0.6994  0.1589
 8742SOL    HW137685   2.496   3.620   9.937  2.6893 -1.8513 -0.9411
 8742SOL    HW237686   2.523   3.554   9.809 -0.1122  1.1249  0.0623
 8743SOL     OW37687   1.814   0.112   3.698 -0.1979 -0.2530  0.1866
 8743SOL    HW137688   1.719   0.107   3.697 -0.1197 -1.2979 -1.5603
 8743SOL    HW237689   1.825   0.202   3.730  0.0271 -1.0308  2.2915
 8744SOL     OW37690   2.087   2.348  12.885  0.2565  0.0179 -0.0901
 8744SOL    HW137691   2.002   2.357  12.927  1.0247 -0.7194  1.6298
 8744SOL    HW237692   2.100   2.427  12.832 -2.3297  0.6729  0.2738
 8745SOL     OW37693   0.552   3.113  15.304  0.0581 -0.0357 -0.1687
 8745SOL    HW137694   0.488   3.182  15.321  0.2743  0.7116 -2.3740
 8745SOL    HW237695   0.600   3.148  15.229 -0.5866 -0.4912 -0.7925
 8746SOL     OW37696   1.419   0.168  16.296 -0.0106  0.1037  0.3910
 8746SOL    HW137697   1.410   0.244  16.353 -2.2665  0.7928 -0.8927
 8746SOL    HW237698   1.447   0.093  16.349  1.1084  0.2571  0.0151
 8747SOL     OW37699   3.104   3.788   3.019 -0.2099 -0.0317 -0.3403
 8747SOL    HW137700   3.181   3.734   3.002 -1.7895 -2.3800 -0.0977
 8747SOL    HW237701   3.100   3.783   3.114 -0.3935  0.5853 -0.3127
 8748SOL     OW37702   1.861   3.679   4.847  0.3498  0.1842  0.3225
 8748SOL    HW137703   1.952   3.709   4.856  0.1807  0.5074  0.9771
 8748SOL    HW237704   1.805   3.756   4.855 -0.4217 -0.3750  0.2209
 8749SOL     OW37705   0.322   3.444   8.479  0.6341  0.1713 -0.1476
 8749SOL    HW137706   0.372   3.512   8.524 -0.4055 -0.1994  1.5537
 8749SOL    HW237707   0.336   3.478   8.391  1.3002 -0.4018 -0.2671
 8750SOL     OW37708   1.248   0.640   3.443  0.0997  0.0495 -0.2537
 8750SOL    HW137709   1.337   0.667   3.466 -0.7897  3.2247 -0.4275
 8750SOL    HW237710   1.252   0.545   3.433  1.3577 -0.1778  2.5154
 8751SOL     OW37711   2.577   2.920   6.526 -0.2745  0.3906 -0.0478
 8751SOL    HW137712   2.636   2.958   6.461  0.9525  0.7193  1.2681
 8751SOL    HW237713   2.529   2.858   6.470  0.9624 -0.0577 -0.6270
 8752SOL     OW37714   3.982   4.114   4.774 -0.4714  0.0616 -0.3773
 8752SOL    HW137715   3.932   4.094   4.694  1.1981 -1.2550 -1.1003
 8752SOL    HW237716   4.063   4.145   4.732  0.1025 -1.8001 -0.6567
 8753SOL     OW37717   2.158   2.437   5.804  0.2463 -0.6905 -0.8158
 8753SOL    HW137718   2.225   2.484   5.756  1.4401  0.4251  1.9514
 8753SOL    HW237719   2.105   2.427   5.725 -0.4957  2.6153 -0.7121
 8754SOL     OW37720   1.578   3.583  16.238 -0.1466 -0.2110 -0.0116
 8754SOL    HW137721   1.518   3.626  16.299 -0.5381 -2.8146  1.4737
 8754SOL    HW237722   1.653   3.638  16.261  0.6688 -1.8574  1.2866
 8755SOL     OW37723   1.144   3.265   7.755 -0.2731 -0.3759 -0.2719
 8755SOL    HW137724   1.150   3.343   7.810 -0.6887  0.7899 -1.9183
 8755SOL    HW237725   1.233   3.250   7.723  0.3510 -1.3501  1.9129
 8756SOL     OW37726   3.376   3.818   7.102  0.3675  0.2343 -0.0307
 8756SOL    HW137727   3.364   3.867   7.183 -1.4480  0.3584 -0.3725
 8756SOL    HW237728   3.403   3.733   7.136 -1.6432 -0.3455  0.0878
 8757SOL     OW37729   1.789   1.547   3.538 -0.3207  0.8780 -0.4179
 8757SOL    HW137730   1.700   1.540   3.573 -0.0454 -1.0440 -0.0911
 8757SOL    HW237731   1.810   1.636   3.566  2.6713  0.2380 -0.6557
 8758SOL     OW37732   0.267   3.968  13.859  0.4894  0.1386 -0.6923
 8758SOL    HW137733   0.335   3.903  13.839  1.0763  0.3675  0.5740
 8758SOL    HW237734   0.215   3.927  13.928 -0.1769 -0.4412 -1.5326
 8759SOL     OW37735   0.301   1.968   6.051  0.0896  0.4073 -0.4033
 8759SOL    HW137736   0.367   1.901   6.032 -0.5947  0.0138 -1.3996
 8759SOL    HW237737   0.232   1.956   5.986  1.8473 -1.4777 -1.9083
 8760SOL     OW37738   2.223   3.974   1.515 -0.1012 -0.0333 -0.3213
 8760SOL    HW137739   2.203   4.036   1.586 -1.9804 -0.9325 -0.0528
 8760SOL    HW237740   2.237   3.894   1.566 -1.5093 -0.5562 -0.7292
 8761SOL     OW37741   1.896   1.104  12.586 -0.3210  0.0384 -0.1505
 8761SOL    HW137742   1.906   1.198  12.574 -0.1852  0.2067  1.2752
 8761SOL    HW237743   1.975   1.069  12.545  1.0612  3.0667 -0.0137
 8762SOL     OW37744   1.042   0.503  13.856 -0.4914  0.1727  0.3009
 8762SOL    HW137745   1.067   0.494  13.948 -0.8622  0.4181  0.4259
 8762SOL    HW237746   1.127   0.485  13.816 -0.0669  0.4054  1.0896
 8763SOL     OW37747   0.464   4.248  11.143 -0.4054  0.0918 -0.0840
 8763SOL    HW137748   0.528   4.255  11.073 -0.6038  1.4847 -0.1131
 8763SOL    HW237749   0.496   4.300  11.216 -1.4811  0.5113  0.0926
 8764SOL     OW37750   0.612   3.002   3.681  0.2584  0.4464  0.1440
 8764SOL    HW137751   0.682   3.049   3.636  0.7783 -1.0673 -0.6315
 8764SOL    HW237752   0.598   2.925   3.626 -1.4603  2.0975 -1.6886
 8765SOL     OW37753   4.681   0.355   8.226 -0.5149  0.4614 -0.1729
 8765SOL    HW137754   4.660   0.428   8.284 -1.6599  0.1886 -0.2372
 8765SOL    HW237755   4.628   0.373   8.148 -2.0918  1.1735  1.0693
 8766SOL     OW37756   3.951   4.061  15.561 -0.5528  0.3388 -0.0446
 8766SOL    HW137757   3.937   4.154  15.575 -0.0710  0.4594 -0.3589
 8766SOL    HW237758   3.911   4.046  15.475 -2.3049 -1.3500  1.0729
 8767SOL     OW37759   2.864   0.839   0.571 -0.2567 -0.3041 -0.2020
 8767SOL    HW137760   2.796   0.833   0.505 -1.2330  0.2823  0.7477
 8767SOL    HW237761   2.865   0.934   0.583  1.3576 -0.3207 -0.2521
 8768SOL     OW37762   0.394   3.661   9.237  0.1410 -0.0804 -0.1521
 8768SOL    HW137763   0.476   3.711   9.240 -0.0455  0.1611  0.7793
 8768SOL    HW237764   0.434   3.575   9.221 -0.7540 -0.8410  1.7268
 8769SOL     OW37765   3.000   0.430   8.819  0.0027  0.3954 -0.9697
 8769SOL    HW137766   3.000   0.389   8.732 -0.2498  0.5126 -1.0260
 8769SOL    HW237767   2.961   0.516   8.803  0.9808  1.3800  2.0847
 8770SOL     OW37768   3.361   0.496  14.747 -0.2932  0.8918 -0.0649
 8770SOL    HW137769   3.344   0.579  14.702 -0.7955  0.1833 -1.1950
 8770SOL    HW237770   3.285   0.497  14.805  0.9980  1.0512  1.6296
 8771SOL     OW37771   3.217   4.315   1.133  0.2421  0.1064 -0.5743
 8771SOL    HW137772   3.301   4.341   1.171  0.6873 -4.1050  1.2951
 8771SOL    HW237773   3.187   4.400   1.103  0.5776  0.1873 -0.6866
 8772SOL     OW37774   0.740   1.099  14.601  0.6245  0.2449  0.2272
 8772SOL    HW137775   0.721   1.157  14.675  0.4546  0.7584 -0.2249
 8772SOL    HW237776   0.808   1.048  14.645  0.5752  0.1899  0.2396
 8773SOL     OW37777   3.679   0.131   8.268 -0.0368  0.6201 -0.4618
 8773SOL    HW137778   3.645   0.218   8.285 -0.4807  0.1414  1.0840
 8773SOL    HW237779   3.756   0.173   8.228  1.5037 -1.2676  0.5075
 8774SOL     OW37780   0.393   3.506  12.605 -0.3692  0.0182  0.2614
 8774SOL    HW137781   0.424   3.456  12.530  2.0598  0.4212  0.9960
 8774SOL    HW237782   0.443   3.470  12.679 -1.7723  0.4184  1.3952
 8775SOL     OW37783   3.104   0.081   7.155  0.7036 -0.2769  0.0350
 8775SOL    HW137784   3.106   0.166   7.199  1.9911  0.4025 -1.3670
 8775SOL    HW237785   3.057   0.093   7.072 -0.6352  0.4226  0.8837
 8776SOL     OW37786   1.213   2.281   7.075  0.3802  0.5253  0.4906
 8776SOL    HW137787   1.191   2.358   7.024  0.9371 -0.4837 -1.2603
 8776SOL    HW237788   1.176   2.217   7.015 -0.8142  0.0337  1.7541
 8777SOL     OW37789   2.352   0.787   7.318  0.1970  0.0607 -0.3096
 8777SOL    HW137790   2.342   0.739   7.235 -1.8489 -3.0567  1.7711
 8777SOL    HW237791   2.366   0.874   7.281  2.0512  0.5201  1.4484
 8778SOL     OW37792   0.892   0.496   2.997 -0.6149 -0.4966  0.1267
 8778SOL    HW137793   0.952   0.501   2.923 -1.2361  2.2028 -0.1717
 8778SOL    HW237794   0.805   0.496   2.956  0.3869 -0.3993 -2.0031
 8779SOL     OW37795   0.322   3.496   6.772  0.4808 -0.5086  0.3509
 8779SOL    HW137796   0.401   3.526   6.816  0.6317 -0.1297 -0.1814
 8779SOL    HW237797   0.274   3.459   6.847  1.1608  1.6017  1.8563
 8780SOL     OW37798   0.175   4.102   9.693  0.2831 -0.4742 -0.0853
 8780SOL    HW137799   0.096   4.051   9.707 -0.2746  0.8603  1.5339
 8780SOL    HW237800   0.140   4.166   9.631  1.2181  0.2821  0.1729
 8781SOL     OW37801   2.280   4.004   8.568 -0.2694 -0.1264 -0.1575
 8781SOL    HW137802   2.217   3.951   8.519 -2.5246  2.1614  0.2696
 8781SOL    HW237803   2.309   3.941   8.634 -0.5326 -1.0109 -0.8802
 8782SOL     OW37804   2.912   3.490   8.753 -0.1109  0.4505 -0.3509
 8782SOL    HW137805   2.933   3.584   8.748  1.3130  0.0296 -2.1868
 8782SOL    HW237806   2.939   3.462   8.665  1.3467 -0.3401  0.3359
 8783SOL     OW37807   3.468   4.698   2.729 -0.5709  0.0506 -0.5025
 8783SOL    HW137808   3.461   0.016   2.815  1.8887 -0.6625  0.0104
 8783SOL    HW237809   3.390   0.006   2.682 -1.6649 -1.6557  0.2507
 8784SOL     OW37810   1.942   0.496   5.827 -0.0313  0.1580  0.1090
 8784SOL    HW137811   1.857   0.468   5.792  0.2387  0.0400 -0.4554
 8784SOL    HW237812   1.966   0.426   5.887  3.5666  1.8200  0.5853
 8785SOL     OW37813   0.075   3.572  10.055 -0.9354  0.0253  0.7198
 8785SOL    HW137814   4.711   3.542  10.025 -1.3441  1.4215  0.4705
 8785SOL    HW237815   0.136   3.503  10.030 -0.2813  0.3946  1.3029
 8786SOL     OW37816   3.036   0.395   4.153 -0.0747  0.1134 -0.2234
 8786SOL    HW137817   3.036   0.435   4.239 -0.8672  1.5197 -0.8793
 8786SOL    HW237818   3.125   0.405   4.120 -0.2933  0.9731 -0.5560
 8787SOL     OW37819   3.418   1.999   3.186 -0.2953  0.3429 -0.5464
 8787SOL    HW137820   3.376   2.085   3.177 -3.9641 -1.2474  1.3403
 8787SOL    HW237821   3.435   1.987   3.279 -0.3159 -0.7832 -0.6841
 8788SOL     OW37822   0.693   4.274   4.356  0.0852 -0.3312  0.1114
 8788SOL    HW137823   0.655   4.288   4.443 -1.4919 -0.9512 -0.4715
 8788SOL    HW237824   0.672   4.355   4.310  0.2405 -0.8016 -0.7862
 8789SOL     OW37825   1.672   4.640   4.130  0.0404 -0.1628  0.3233
 8789SOL    HW137826   1.736   4.629   4.060  0.4246  1.5121  0.4096
 8789SOL    HW237827   1.630   4.554   4.126 -0.2126 -0.0370  0.2799
 8790SOL     OW37828   1.912   2.223   1.492 -0.1714  0.1486 -0.1394
 8790SOL    HW137829   1.960   2.295   1.533 -1.4523  1.2658 -0.5644
 8790SOL    HW237830   1.977   2.172   1.445  1.4175  1.2036  0.9147
 8791SOL     OW37831   3.879   1.411   2.357  0.2144  0.0771 -0.8250
 8791SOL    HW137832   3.856   1.441   2.445 -0.2686  0.9486 -1.2447
 8791SOL    HW237833   3.909   1.322   2.376  1.4309  0.3747 -1.3132
 8792SOL     OW37834   2.311   2.559   7.665  0.2538 -0.0635  0.2962
 8792SOL    HW137835   2.392   2.514   7.688  1.4169  2.4704  1.2270
 8792SOL    HW237836   2.345   2.637   7.621 -0.8550 -1.2604 -2.6585
 8793SOL     OW37837   1.145   4.701   5.827  0.6149  0.0249 -0.4937
 8793SOL    HW137838   1.097   4.646   5.889 -0.1622  0.2742 -0.8687
 8793SOL    HW237839   1.227   4.697   5.876 -0.2017 -1.8813  0.7003
 8794SOL     OW37840   3.382   2.069   2.681  0.6655 -0.4157  0.0470
 8794SOL    HW137841   3.464   2.110   2.652 -0.6079  0.3955 -2.4285
 8794SOL    HW237842   3.421   2.001   2.737 -1.5822 -3.1457 -1.7055
 8795SOL     OW37843   0.701   4.631   8.300 -0.0758  0.0245  0.0668
 8795SOL    HW137844   0.783   4.585   8.318  0.4101  1.0851  0.5620
 8795SOL    HW237845   0.696   4.644   8.205  2.3497  3.9688  0.4911
 8796SOL     OW37846   3.951   4.699   7.959  0.1804 -0.3716  0.2019
 8796SOL    HW137847   3.986   0.033   8.028 -0.1105 -0.2742  0.2678
 8796SOL    HW237848   3.866   0.021   7.960 -0.4255 -1.5302 -0.6893
 8797SOL     OW37849   0.957   3.759   7.813  0.0924 -0.2951  0.6034
 8797SOL    HW137850   1.045   3.778   7.780 -1.1421  0.2387 -2.3444
 8797SOL    HW237851   0.922   3.714   7.736  0.3614 -0.2307  0.4422
 8798SOL     OW37852   3.673   0.434   0.860  0.3119 -0.1929  0.5290
 8798SOL    HW137853   3.758   0.469   0.885 -0.4788  1.5059  0.8620
 8798SOL    HW237854   3.609   0.503   0.878  0.6036  0.3914 -0.6584
 8799SOL     OW37855   2.540   0.778   8.152  0.3647 -0.2185 -0.1731
 8799SOL    HW137856   2.568   0.704   8.207  2.1067 -0.6371 -1.6138
 8799SOL    HW237857   2.543   0.847   8.219  2.9380  1.0496 -1.6122
 8800SOL     OW37858   0.913   0.475   4.603  0.0834 -0.1542  0.1886
 8800SOL    HW137859   0.876   0.517   4.681  0.8686  0.3083  0.3027
 8800SOL    HW237860   0.994   0.434   4.634 -1.1607 -1.8114  1.2932
 8801SOL     OW37861   0.250   3.223  15.781 -0.6654 -0.8395 -0.5139
 8801SOL    HW137862   0.208   3.187  15.859  0.2363  1.7156  1.1550
 8801SOL    HW237863   0.233   3.150  15.721  0.1559 -2.7818  1.6265
 8802SOL     OW37864   2.427   4.118   4.553 -0.2552 -0.0917  0.7139
 8802SOL    HW137865   2.435   4.074   4.468  0.3008  0.2296  0.5997
 8802SOL    HW237866   2.350   4.079   4.596 -1.2759  0.1080 -0.9397
 8803SOL     OW37867   2.675   2.971   9.754 -0.3550  0.7072 -0.1885
 8803SOL    HW137868   2.606   2.978   9.688 -1.2436 -0.9774  0.5595
 8803SOL    HW237869   2.633   2.915   9.820  2.4135 -1.0462  0.1047
 8804SOL     OW37870   0.713   3.379   3.762  0.0169  0.7536 -0.2191
 8804SOL    HW137871   0.745   3.417   3.681  0.4732 -1.3360 -1.0272
 8804SOL    HW237872   0.621   3.404   3.761 -0.1109  0.2868 -0.3060
 8805SOL     OW37873   2.170   4.686   9.290  0.1189 -0.3211 -0.3618
 8805SOL    HW137874   2.142   4.662   9.379  0.6158  1.0586  0.1738
 8805SOL    HW237875   2.252   4.636   9.286  1.9039  2.6414 -0.7384
 8806SOL     OW37876   2.456   4.614   2.267  0.5402  0.4937  0.1638
 8806SOL    HW137877   2.511   4.670   2.323  3.0496 -0.2412 -1.5610
 8806SOL    HW237878   2.500   4.529   2.269  1.4805  0.8745 -3.4910
 8807SOL     OW37879   3.852   4.546  16.087  0.1730 -0.4510 -0.4988
 8807SOL    HW137880   3.766   4.584  16.072 -0.1575 -0.5080  1.2714
 8807SOL    HW237881   3.842   4.495  16.167  0.6401 -0.8072 -0.6653
 8808SOL     OW37882   1.616   3.625   5.234  0.1162  1.1073 -0.3599
 8808SOL    HW137883   1.551   3.564   5.270  0.7654  2.3739  3.0203
 8808SOL    HW237884   1.640   3.678   5.310  1.4166 -0.7529  0.5345
 8809SOL     OW37885   1.368   3.028   4.992  0.4935  0.2939 -0.0970
 8809SOL    HW137886   1.461   3.051   4.996  0.2097  1.3789  0.1495
 8809SOL    HW237887   1.354   3.000   5.083  1.1205 -1.5650 -0.5689
 8810SOL     OW37888   0.625   4.464   6.112  0.6622 -0.3363  0.1243
 8810SOL    HW137889   0.647   4.395   6.175 -0.1475  1.3480  2.2457
 8810SOL    HW237890   0.656   4.536   6.167 -2.1419  0.5695  0.5374
 8811SOL     OW37891   0.803   4.168   4.639 -0.7483  0.3858  0.6755
 8811SOL    HW137892   0.856   4.248   4.638  0.0766 -0.1915 -1.3174
 8811SOL    HW237893   0.863   4.112   4.590 -1.5309 -1.8825  2.2784
 8812SOL     OW37894   0.383   0.419  16.874  0.1185 -0.0167 -0.0125
 8812SOL    HW137895   0.355   0.507  16.900  0.6712  0.9483 -2.7058
 8812SOL    HW237896   0.478   0.417  16.885  0.1319  2.2276  0.3415
 8813SOL     OW37897   3.297   3.424   8.262  0.1305  0.1160 -0.3110
 8813SOL    HW137898   3.344   3.368   8.200 -1.5113 -1.3468 -0.2557
 8813SOL    HW237899   3.277   3.360   8.331 -0.8336  0.6717 -0.0693
 8814SOL     OW37900   3.394   4.448   3.849 -0.0997 -0.8476 -0.2054
 8814SOL    HW137901   3.352   4.532   3.862 -1.8132 -1.4934 -1.5750
 8814SOL    HW237902   3.324   4.395   3.888 -0.8904  0.0742 -0.3880
 8815SOL     OW37903   3.517   4.233   3.153  0.6437  0.0360  0.1773
 8815SOL    HW137904   3.436   4.250   3.104  1.6989  0.1639 -1.5374
 8815SOL    HW237905   3.566   4.185   3.086 -0.6964  0.8626 -1.4151
 8816SOL     OW37906   2.996   1.439   4.304 -0.1842  0.5076  0.2676
 8816SOL    HW137907   2.960   1.375   4.243 -1.6567  1.8954 -0.3005
 8816SOL    HW237908   3.086   1.429   4.273 -0.4724 -2.4599  0.3414
 8817SOL     OW37909   1.136   0.743   7.135 -0.2612  0.1624 -0.0976
 8817SOL    HW137910   1.091   0.672   7.182 -0.3216  0.1397 -0.1909
 8817SOL    HW237911   1.198   0.776   7.200  0.0699  0.8568 -0.7661
 8818SOL     OW37912   0.123   0.957   7.365  0.1814 -0.0214 -0.4392
 8818SOL    HW137913   0.050   1.012   7.391  0.3438  0.4606 -1.0042
 8818SOL    HW237914   0.195   1.016   7.387  0.6278 -1.0891  0.9851
 8819SOL     OW37915   3.776   0.282  10.201 -0.1014 -0.4256 -0.6654
 8819SOL    HW137916   3.808   0.235  10.124  1.0672 -1.0765  0.1986
 8819SOL    HW237917   3.728   0.345  10.148 -2.4010 -2.4390 -0.9347
 8820SOL     OW37918   1.706   2.123   2.639  0.1489  0.2942 -0.0382
 8820SOL    HW137919   1.673   2.196   2.692 -0.8980 -0.5771  0.5239
 8820SOL    HW237920   1.728   2.064   2.712  0.9807 -0.6667 -1.0809
 8821SOL     OW37921   2.090   2.079  17.064 -0.6204  0.2648 -0.9166
 8821SOL    HW137922   2.007   2.104  17.105  0.5492  1.9358  0.4663
 8821SOL    HW237923   2.085   2.080  16.969  2.9446 -2.0502 -1.1236
 8822SOL     OW37924   2.183   2.768   4.070 -0.2264  0.1628 -0.0365
 8822SOL    HW137925   2.155   2.766   4.162  1.7874 -1.4782  0.5570
 8822SOL    HW237926   2.245   2.840   4.066 -2.7091  2.2205 -1.1309
 8823SOL     OW37927   1.769   0.343   8.174  0.5349  0.4928  0.3070
 8823SOL    HW137928   1.689   0.383   8.209  1.3965  1.2957  1.3571
 8823SOL    HW237929   1.793   0.296   8.255 -0.5766  1.2716  1.0897
 8824SOL     OW37930   0.494   1.556   3.733 -0.5548  0.4393 -0.7121
 8824SOL    HW137931   0.529   1.620   3.671  0.2176  0.2138 -0.5067
 8824SOL    HW237932   0.563   1.492   3.751 -1.1361 -0.3832 -1.3736
 8825SOL     OW37933   4.689   4.326   9.397 -0.5176 -0.3994 -0.2865
 8825SOL    HW137934   0.042   4.290   9.350  0.7552 -0.7459  2.0080
 8825SOL    HW237935   4.639   4.363   9.325 -0.5700 -0.0824 -0.0833
 8826SOL     OW37936   0.867   0.722  10.628  0.4225  0.0389 -0.1295
 8826SOL    HW137937   0.861   0.787  10.557  2.8437 -1.7922 -2.0007
 8826SOL    HW237938   0.810   0.774  10.685 -1.1520 -0.4605 -1.2257
 8827SOL     OW37939   3.355   1.846   2.148 -0.2899  0.2287 -0.4620
 8827SOL    HW137940   3.391   1.758   2.142 -2.9000 -0.9260  0.7813
 8827SOL    HW237941   3.296   1.844   2.224  0.1447 -2.1504 -0.2039
 8828SOL     OW37942   3.197   3.569   1.551  0.1163 -0.5398 -0.1317
 8828SOL    HW137943   3.222   3.586   1.642 -2.0046  2.8774 -0.1739
 8828SOL    HW237944   3.101   3.574   1.550  0.2136  1.9843  2.5888
 8829SOL     OW37945   2.277   3.013   2.486 -0.2141 -0.4288 -0.0390
 8829SOL    HW137946   2.352   2.957   2.500  1.7149  2.2074  0.2170
 8829SOL    HW237947   2.277   3.027   2.391 -1.7931  0.2290  0.0414
 8830SOL     OW37948   0.404   2.363   5.451 -0.4412 -0.1437 -0.2298
 8830SOL    HW137949   0.362   2.280   5.471  0.7314 -0.6838 -0.0188
 8830SOL    HW237950   0.415   2.402   5.538 -2.2611 -1.0726  0.4025
 8831SOL     OW37951   1.466   0.497   4.704  0.3595  0.2793 -0.4135
 8831SOL    HW137952   1.456   0.420   4.760 -0.8400 -0.3587 -1.4833
 8831SOL    HW237953   1.558   0.508   4.679 -0.0892  1.0656 -1.7197
 8832SOL     OW37954   2.511   1.934   3.288 -0.2348  0.0736  0.1301
 8832SOL    HW137955   2.528   2.002   3.353 -0.9786 -0.5604  0.9944
 8832SOL    HW237956   2.451   1.981   3.230  1.9552  0.9429 -1.3823
 8833SOL     OW37957   0.844   3.446   1.144 -0.0627  0.3142 -0.0561
 8833SOL    HW137958   0.798   3.368   1.176  0.4980 -0.7831 -1.8887
 8833SOL    HW237959   0.927   3.429   1.188  1.5333  2.5985 -2.1496
 8834SOL     OW37960   3.361   0.589   8.441 -0.0460  0.5758  0.9152
 8834SOL    HW137961   3.309   0.528   8.492 -1.3235  0.7219 -0.2254
 8834SOL    HW237962   3.305   0.666   8.442  1.3486  1.5762  2.6373
 8835SOL     OW37963   0.197   0.178   9.971 -0.2269  1.0895  0.8849
 8835SOL    HW137964   0.258   0.153   9.901 -1.0940  0.6022  0.3139
 8835SOL    HW237965   0.253   0.208  10.043  1.5478  0.9818 -0.4426
 8836SOL     OW37966   1.149   2.577   8.883 -0.4047  0.1336  0.0354
 8836SOL    HW137967   1.203   2.560   8.806  1.0516 -0.8186  1.2595
 8836SOL    HW237968   1.156   2.494   8.931 -0.7979 -1.2395 -2.3232
 8837SOL     OW37969   4.251   1.073  12.193 -0.0538 -0.6357 -0.3287
 8837SOL    HW137970   4.319   1.027  12.242  0.0826 -1.4617 -1.2861
 8837SOL    HW237971   4.245   1.155  12.241 -1.1580 -0.5106 -0.6667
 8838SOL     OW37972   3.444   1.603   7.637 -0.7180 -0.4498 -0.8361
 8838SOL    HW137973   3.513   1.571   7.695 -1.3210 -3.3833 -1.7612
 8838SOL    HW237974   3.369   1.549   7.661  0.7894 -3.0389 -2.0592
 8839SOL     OW37975   1.906   4.350   2.523  0.1833 -0.7230  0.1805
 8839SOL    HW137976   1.844   4.366   2.451  0.4338 -0.4847  0.0155
 8839SOL    HW237977   1.980   4.406   2.497  0.2433  0.3518  2.7205
 8840SOL     OW37978   3.575   2.894   8.803 -0.2609  0.2801  0.4026
 8840SOL    HW137979   3.666   2.865   8.811  0.1697  1.6840  0.6015
 8840SOL    HW237980   3.549   2.827   8.740  0.0540  1.2509 -0.7774
 8841SOL     OW37981   2.178   0.621   0.566  0.3761 -0.5047 -0.8097
 8841SOL    HW137982   2.255   0.630   0.621  1.4644 -1.8448 -2.1138
 8841SOL    HW237983   2.161   0.712   0.540  3.8477  0.0165 -1.2440
 8842SOL     OW37984   4.657   3.592   6.518  0.0258 -0.0799  0.3530
 8842SOL    HW137985   0.025   3.609   6.544  0.4348  0.1711 -1.2140
 8842SOL    HW237986   4.657   3.583   6.422 -0.6595 -0.9393  0.4270
 8843SOL     OW37987   0.548   1.914   1.544  0.6280 -0.1367 -0.6207
 8843SOL    HW137988   0.457   1.894   1.568  1.4565  0.4688  3.0447
 8843SOL    HW237989   0.551   1.895   1.451  0.9556 -1.8632 -0.2556
 8844SOL     OW37990   3.955   2.648   4.013 -0.6496  0.3789 -0.3559
 8844SOL    HW137991   3.978   2.562   3.980 -0.9991  0.9449 -2.0485
 8844SOL    HW237992   3.872   2.620   4.052  0.5371 -0.5516  1.5019
 8845SOL     OW37993   0.293   0.147  16.718 -0.1499 -0.0165  0.4062
 8845SOL    HW137994   0.335   0.232  16.734  2.3349 -1.0406 -0.7760
 8845SOL    HW237995   0.227   0.138  16.787 -1.0248  0.4196 -0.3784
 8846SOL     OW37996   0.033   3.223   6.458  0.2557 -0.1004 -0.4231
 8846SOL    HW137997   0.003   3.157   6.396  0.4590 -1.6564  1.1051
 8846SOL    HW237998   0.019   3.292   6.394 -4.1385 -0.1993  0.3999
 8847SOL     OW37999   2.358   4.031   9.291  0.2027 -0.1134 -0.0864
 8847SOL    HW138000   2.288   4.086   9.255  1.2586  1.7802  0.7685
 8847SOL    HW238001   2.329   4.000   9.377  1.4541 -0.9812  0.0190
 8848SOL     OW38002   2.485   1.575  10.749  0.1475 -0.3951  0.2227
 8848SOL    HW138003   2.514   1.485  10.765  0.9013 -0.3980 -1.1809
 8848SOL    HW238004   2.571   1.615  10.736  1.0685 -2.7007 -0.7466
 8849SOL     OW38005   3.703   4.565   8.741  0.1744 -0.0048 -0.4612
 8849SOL    HW138006   3.652   4.588   8.664  0.5309 -0.9544 -0.9897
 8849SOL    HW238007   3.789   4.576   8.701  0.0392 -0.1001 -0.7767
 8850SOL     OW38008   3.029   1.779  14.449  0.3645  0.3440  0.2110
 8850SOL    HW138009   2.995   1.860  14.486 -0.2571  0.6604 -1.0279
 8850SOL    HW238010   3.004   1.715  14.515 -1.3211  1.9868  1.1585
 8851SOL     OW38011   2.272   0.661  16.932 -0.0173 -0.2749  0.1394
 8851SOL    HW138012   2.213   0.591  16.906 -0.3611  0.6840 -1.6704
 8851SOL    HW238013   2.223   0.743  16.933  1.7870  0.8396 -1.1535
 8852SOL     OW38014   3.318   1.059   4.879  0.0596  0.5622 -0.1802
 8852SOL    HW138015   3.323   1.136   4.936 -0.4700 -0.0265  0.6361
 8852SOL    HW238016   3.225   1.060   4.856  0.2517  1.1624 -0.9726
 8853SOL     OW38017   3.606   2.269   3.192  0.3182  0.0813  0.2821
 8853SOL    HW138018   3.608   2.357   3.155 -0.3975 -0.9148 -2.0862
 8853SOL    HW238019   3.526   2.234   3.153  0.3356  0.4894 -0.1230
 8854SOL     OW38020   0.934   1.132   5.433  0.0030  0.0034 -0.7008
 8854SOL    HW138021   0.846   1.106   5.459  0.2483  0.0375  0.1548
 8854SOL    HW238022   0.985   1.052   5.421  2.8027  1.6887  0.0006
 8855SOL     OW38023   0.053   2.097   4.898 -0.0000  0.4536 -0.6717
 8855SOL    HW138024   0.011   2.092   4.813 -0.8929  1.9120 -0.3175
 8855SOL    HW238025   4.692   2.105   4.943  0.3819  1.9110 -0.2152
 8856SOL     OW38026   3.446   3.024   1.055  0.1470  0.1385  0.1857
 8856SOL    HW138027   3.355   2.998   1.070  0.5979 -1.4217  0.2650
 8856SOL    HW238028   3.461   3.012   0.961  2.2168 -2.8854  0.8734
 8857SOL     OW38029   1.965   3.708   7.515 -0.3190  0.6187  0.0728
 8857SOL    HW138030   1.942   3.698   7.422  0.4492  1.8589 -0.2412
 8857SOL    HW238031   1.972   3.615   7.538 -1.7841  0.4634 -0.1167
 8858SOL     OW38032   1.264   0.664   5.575 -0.1077 -0.4581 -0.1323
 8858SOL    HW138033   1.288   0.756   5.568  0.1281 -0.6568 -1.8519
 8858SOL    HW238034   1.209   0.663   5.653 -0.1090 -0.9599 -0.1397
 8859SOL     OW38035   1.674   0.975   5.192  0.2577 -0.1391  1.1913
 8859SOL    HW138036   1.661   0.925   5.112  0.1278 -0.1689  1.2305
 8859SOL    HW238037   1.767   0.958   5.207  0.5231  0.5257  0.2724
 8860SOL     OW38038   1.200   2.660   9.555  0.1837  0.1248  0.1023
 8860SOL    HW138039   1.139   2.686   9.624  0.4053 -0.1955  0.4253
 8860SOL    HW238040   1.269   2.726   9.556  0.8409 -0.5461 -0.2686
 8861SOL     OW38041   0.562   1.246   0.630  0.2382  0.0835  0.1193
 8861SOL    HW138042   0.492   1.283   0.577  1.3930  0.2305 -1.3223
 8861SOL    HW238043   0.509   1.218   0.704 -0.9750  1.8190 -0.0765
 8862SOL     OW38044   1.980   0.437   0.534  0.5686 -0.2292  0.2272
 8862SOL    HW138045   2.038   0.404   0.466 -0.5997 -2.6982  0.4212
 8862SOL    HW238046   2.025   0.519   0.552  0.3662  0.1081 -0.8190
 8863SOL     OW38047   3.791   4.216   5.234 -0.0396  0.1837  0.4169
 8863SOL    HW138048   3.772   4.226   5.327  1.6886 -0.9143  0.8940
 8863SOL    HW238049   3.757   4.128   5.216 -1.8206  0.6755  1.4039
 8864SOL     OW38050   3.020   0.050  16.604 -0.1272 -0.3780 -0.0084
 8864SOL    HW138051   3.071   0.120  16.645 -1.0557  1.1785 -1.5218
 8864SOL    HW238052   2.974   0.011  16.678  0.8494  0.8251  1.2238
 8865SOL     OW38053   1.162   1.024   5.749 -0.0291 -0.7247 -0.1759
 8865SOL    HW138054   1.122   1.070   5.822  3.7054  1.4058  0.5442
 8865SOL    HW238055   1.173   1.087   5.678  1.9970  1.0263  1.6799
 8866SOL     OW38056   2.090   3.508  12.562 -0.0494 -0.3112  0.5705
 8866SOL    HW138057   2.104   3.415  12.543  3.7415  0.1503  1.0450
 8866SOL    HW238058   1.996   3.521  12.555 -0.0253 -1.7202 -2.4468
 8867SOL     OW38059   0.978   3.684   6.909 -0.7102  0.0391 -0.3090
 8867SOL    HW138060   1.056   3.688   6.854 -0.2454  0.9688  0.3978
 8867SOL    HW238061   0.952   3.776   6.909 -0.3536  0.1381 -2.6231
 8868SOL     OW38062   2.203   2.548   3.476  0.0892 -0.4483  0.1431
 8868SOL    HW138063   2.153   2.494   3.416 -1.6540  0.2568  0.9669
 8868SOL    HW238064   2.214   2.627   3.423 -2.8886 -2.1133 -2.9282
 8869SOL     OW38065   2.377   4.271   7.564 -0.3407  0.0138  0.7903
 8869SOL    HW138066   2.435   4.330   7.612 -1.6981  0.5699  1.7513
 8869SOL    HW238067   2.366   4.199   7.626  0.0537 -0.7599 -0.0417
 8870SOL     OW38068   0.151   1.901  10.090  0.3055  0.7746 -0.6205
 8870SOL    HW138069   0.124   1.988  10.059 -1.1913 -0.3321 -2.3832
 8870SOL    HW238070   0.081   1.879  10.150 -0.5607  0.3758 -1.7742
 8871SOL     OW38071   2.315   3.643  12.077  0.4483  0.6088  0.0054
 8871SOL    HW138072   2.259   3.585  12.027  0.5324 -0.7572  1.4926
 8871SOL    HW238073   2.295   3.606  12.163  1.5825  0.8223  0.3659
 8872SOL     OW38074   0.050   4.514   8.288 -0.3643 -0.2391  0.6511
 8872SOL    HW138075   0.119   4.448   8.292 -0.3867 -0.3186 -0.1600
 8872SOL    HW238076   0.084   4.582   8.347  0.3421  0.5928 -0.7116
 8873SOL     OW38077   4.288   0.514   2.671 -0.5326  0.8779 -0.0221
 8873SOL    HW138078   4.313   0.568   2.596  0.6719 -0.6712 -0.7325
 8873SOL    HW238079   4.193   0.503   2.664 -0.4093 -1.5058  2.1158
 8874SOL     OW38080   4.303   0.310  16.148 -0.0780  0.2889  0.4214
 8874SOL    HW138081   4.309   0.253  16.072 -0.7918 -2.3580  2.3587
 8874SOL    HW238082   4.214   0.289  16.173  0.4806 -2.1068  0.3296
 8875SOL     OW38083   1.307   2.323   2.374  0.0345  0.2960  0.0466
 8875SOL    HW138084   1.217   2.292   2.381  0.3645 -0.2936  1.6921
 8875SOL    HW238085   1.366   2.253   2.346  0.6680 -0.3646  3.0542
 8876SOL     OW38086   4.059   3.455   7.122  0.0081  0.0188 -0.4060
 8876SOL    HW138087   3.972   3.415   7.115 -0.1940  0.0882  1.6757
 8876SOL    HW238088   4.087   3.417   7.205  2.6573 -1.4399 -1.9538
 8877SOL     OW38089   0.722   2.247   3.465 -0.2314  0.1505 -0.1727
 8877SOL    HW138090   0.649   2.194   3.431 -0.3844 -0.2625  0.8133
 8877SOL    HW238091   0.753   2.186   3.531 -0.0681  0.1302 -0.2694
 8878SOL     OW38092   3.111   0.184  12.388  0.0348  0.3344 -0.3886
 8878SOL    HW138093   3.198   0.185  12.348  0.0284  2.7534 -0.3670
 8878SOL    HW238094   3.123   0.101  12.434  1.3614  0.9731  0.4149
 8879SOL     OW38095   2.516   3.702   1.979 -0.2237 -0.0824  0.1526
 8879SOL    HW138096   2.545   3.622   1.935 -0.0092  0.0781  0.0027
 8879SOL    HW238097   2.590   3.711   2.039  1.3521  0.5389 -1.9025
 8880SOL     OW38098   1.135   2.563  16.479  0.0871  0.8444 -0.0329
 8880SOL    HW138099   1.045   2.597  16.488  0.0759  1.3828 -2.1772
 8880SOL    HW238100   1.161   2.612  16.402 -0.6644  1.1954 -0.0687
 8881SOL     OW38101   1.554   3.768   0.756 -0.0463  0.5040  0.2245
 8881SOL    HW138102   1.460   3.774   0.739 -0.2212 -2.1551  0.1940
 8881SOL    HW238103   1.578   3.860   0.755 -2.0925  1.0583  1.9229
 8882SOL     OW38104   3.212   0.886   1.970  0.5395  0.3195 -0.0747
 8882SOL    HW138105   3.153   0.900   2.044 -0.4422 -0.1260 -0.7651
 8882SOL    HW238106   3.193   0.970   1.927 -1.5327 -0.1577 -0.0737
 8883SOL     OW38107   3.233   0.147   6.807  0.7947 -0.2598  0.0420
 8883SOL    HW138108   3.172   0.217   6.831 -0.5440 -1.2126 -0.5995
 8883SOL    HW238109   3.179   0.088   6.755  0.1065 -1.0789  1.6903
 8884SOL     OW38110   2.023   0.021  10.239 -0.3787 -0.4085 -0.0217
 8884SOL    HW138111   1.966   0.033  10.316  1.0102  2.3049  0.6122
 8884SOL    HW238112   2.061   4.658  10.260 -0.7220  0.2177  3.1824
 8885SOL     OW38113   1.486   1.633  17.185 -0.8063 -0.1432  0.0893
 8885SOL    HW138114   1.434   1.709  17.159  0.2476 -0.3258 -2.5315
 8885SOL    HW238115   1.539   1.617  17.106 -0.4972  0.5171  0.1639
 8886SOL     OW38116   0.623   4.513   6.698 -0.3218 -0.8049 -0.4226
 8886SOL    HW138117   0.694   4.471   6.746  0.9568  1.2820 -0.5126
 8886SOL    HW238118   0.552   4.479   6.752  1.4993 -2.7255  0.7716
 8887SOL     OW38119   3.611   0.378   2.053  0.0239  0.9260 -0.1656
 8887SOL    HW138120   3.613   0.472   2.033  1.0255  0.5897 -1.6892
 8887SOL    HW238121   3.557   0.373   2.132  2.2243  1.6413  1.3937
 8888SOL     OW38122   2.496   1.551   1.653 -0.2892  0.4592 -0.1633
 8888SOL    HW138123   2.478   1.504   1.735  0.8544  3.1105  1.6379
 8888SOL    HW238124   2.590   1.536   1.640 -0.4205 -1.2543  0.8023
 8889SOL     OW38125   2.055   1.214   1.679  0.6235  0.7245  0.2682
 8889SOL    HW138126   2.142   1.249   1.700  0.4936  2.2622 -1.6735
 8889SOL    HW238127   2.077   1.133   1.634 -1.1586  0.7087 -0.5803
 8890SOL     OW38128   0.662   1.096  12.305 -0.4729  0.0239 -0.2260
 8890SOL    HW138129   0.738   1.088  12.362 -0.0849  0.8004 -0.6337
 8890SOL    HW238130   0.648   1.009  12.267  0.5426 -0.2754  0.0965
 8891SOL     OW38131   1.581   1.729  11.643  0.1052 -0.4418 -0.3061
 8891SOL    HW138132   1.589   1.635  11.660  0.2200 -0.9822 -3.3481
 8891SOL    HW238133   1.487   1.744  11.647  0.1267 -0.5965  0.8035
 8892SOL     OW38134   0.157   2.709   3.140  0.1010  0.4381 -0.1896
 8892SOL    HW138135   0.087   2.670   3.088  0.8612 -0.8244 -0.2638
 8892SOL    HW238136   0.223   2.640   3.146  0.1346  0.6680  2.1334
 8893SOL     OW38137   3.731   3.579  10.467 -0.2030 -0.8475  0.1099
 8893SOL    HW138138   3.669   3.609  10.400  0.4446  0.8186  0.2595
 8893SOL    HW238139   3.716   3.485  10.456  2.3749 -1.2588  0.1291
 8894SOL     OW38140   4.244   2.457  13.673 -0.1359  0.1782 -0.0024
 8894SOL    HW138141   4.181   2.410  13.728 -1.8814 -0.1371 -2.2212
 8894SOL    HW238142   4.294   2.390  13.626 -1.1200 -0.6350  0.1067
 8895SOL     OW38143   0.105   2.913   4.086 -0.4499 -0.3092  0.3122
 8895SOL    HW138144   0.027   2.969   4.088 -0.3075 -0.2287  2.9867
 8895SOL    HW238145   0.124   2.908   4.180 -0.0835 -1.5370  0.1665
 8896SOL     OW38146   1.109   1.003  17.542  0.9075  0.2458  0.1654
 8896SOL    HW138147   1.103   1.074  17.605 -1.1743  0.3866 -0.1844
 8896SOL    HW238148   1.166   1.035  17.471  1.5548 -0.7713  0.2316
 8897SOL     OW38149   2.744   1.315   3.667  0.1380  0.3258 -0.1448
 8897SOL    HW138150   2.714   1.399   3.700  2.1108  0.1600  2.0881
 8897SOL    HW238151   2.828   1.310   3.713 -0.2692  0.3002  0.5833
 8898SOL     OW38152   2.522   0.968   8.412 -0.3716  0.3619  0.4076
 8898SOL    HW138153   2.484   0.949   8.498 -1.7317  0.2976 -0.2098
 8898SOL    HW238154   2.501   1.061   8.404 -0.3603  0.3336  0.0238
 8899SOL     OW38155   2.505   2.080   2.683  0.1617  0.4279 -0.2141
 8899SOL    HW138156   2.572   2.080   2.751 -0.1185  0.2088  0.0590
 8899SOL    HW238157   2.495   1.987   2.663 -0.3968  0.7155 -1.3149
 8900SOL     OW38158   1.317   1.622   4.217 -0.0392  0.1194  0.2788
 8900SOL    HW138159   1.359   1.558   4.275  0.4987  0.4178  0.2175
 8900SOL    HW238160   1.251   1.655   4.279  0.2382  1.1070  0.0464
 8901SOL     OW38161   1.931   3.749  12.754 -0.3904 -0.1654 -0.1458
 8901SOL    HW138162   1.879   3.829  12.757 -1.8395 -1.0285 -2.6217
 8901SOL    HW238163   1.916   3.717  12.665 -0.5528  0.0309 -0.1884
 8902SOL     OW38164   4.066   0.434   6.434 -0.2100  0.7705  0.3842
 8902SOL    HW138165   3.990   0.377   6.418 -0.3872  0.3903  2.5344
 8902SOL    HW238166   4.018   0.499   6.486 -2.5269  1.2120 -2.2707
 8903SOL     OW38167   2.925   3.631   1.242 -0.2316  0.0927  0.0653
 8903SOL    HW138168   2.977   3.639   1.162 -1.9042  0.5937 -0.9684
 8903SOL    HW238169   2.955   3.715   1.277  1.2372 -0.5164  0.2473
 8904SOL     OW38170   2.379   3.876   2.460 -0.0388  0.4451  0.0088
 8904SOL    HW138171   2.380   3.791   2.504 -1.6653  0.2451 -0.3309
 8904SOL    HW238172   2.353   3.850   2.372  0.6466 -0.1711 -0.0162
 8905SOL     OW38173   0.053   0.294  16.449  0.4849  0.4139 -0.1978
 8905SOL    HW138174   0.102   0.376  16.437  4.7354 -2.3940 -1.8989
 8905SOL    HW238175   0.032   0.313  16.541  0.6604  1.7562 -0.4299
 8906SOL     OW38176   3.092   3.480  12.726  0.2517 -0.0318  0.4602
 8906SOL    HW138177   3.136   3.499  12.644  1.4910 -2.8021  0.4903
 8906SOL    HW238178   3.115   3.563  12.766 -1.4688  1.4087 -1.5443
 8907SOL     OW38179   0.898   1.649   7.029 -0.1153 -0.2234 -0.2224
 8907SOL    HW138180   0.909   1.731   7.077  0.4060 -1.0411  1.0613
 8907SOL    HW238181   0.849   1.673   6.950  0.4033 -1.1872 -0.8457
 8908SOL     OW38182   2.375   3.346  12.722  0.7171  0.0224 -0.6102
 8908SOL    HW138183   2.306   3.303  12.773  1.8435 -0.5438  0.4473
 8908SOL    HW238184   2.385   3.430  12.766  3.4496 -0.4463 -0.3067
 8909SOL     OW38185   2.301   1.727   2.079 -0.8409  0.1222  0.1168
 8909SOL    HW138186   2.243   1.709   2.005  1.8986 -2.5729 -1.3849
 8909SOL    HW238187   2.238   1.773   2.134  1.4222  1.3480  1.6635
 8910SOL     OW38188   0.025   1.266   1.103 -0.6747  0.1163 -0.1297
 8910SOL    HW138189   0.034   1.204   1.029  0.2825  0.3983 -0.2439
 8910SOL    HW238190   4.714   1.216   1.178 -1.9964 -1.0550 -1.4806
 8911SOL     OW38191   0.149   1.446   8.586  0.1375 -0.5869  0.3442
 8911SOL    HW138192   0.127   1.482   8.500 -3.3066 -0.8956  1.0778
 8911SOL    HW238193   0.244   1.449   8.578 -0.2403 -0.7808 -3.9193
 8912SOL     OW38194   2.819   4.339   6.021  0.2168 -0.0523 -0.2076
 8912SOL    HW138195   2.810   4.423   6.067  1.7630 -1.0319  1.8913
 8912SOL    HW238196   2.810   4.367   5.930 -2.6038  1.4189  0.4930
 8913SOL     OW38197   3.601   0.156  17.575  0.6855  0.3523  0.1400
 8913SOL    HW138198   3.550   0.162  17.655 -0.8216  1.6524 -0.9071
 8913SOL    HW238199   3.571   0.238  17.536 -1.8263 -1.9655 -2.8440
 8914SOL     OW38200   1.768   4.524   7.412 -0.4145  0.4640 -0.0328
 8914SOL    HW138201   1.739   4.601   7.363 -1.6229  0.1912  0.2641
 8914SOL    HW238202   1.815   4.584   7.471  1.6714 -2.9294  1.7745
 8915SOL     OW38203   3.651   0.084   2.216  0.5397 -0.4842 -0.4063
 8915SOL    HW138204   3.565   0.079   2.258  1.1933 -2.6544  0.6421
 8915SOL    HW238205   3.696   0.159   2.255 -0.3843 -0.5168  0.6907
 8916SOL     OW38206   4.091   4.537   3.236  0.1120  0.0956  0.4417
 8916SOL    HW138207   4.039   4.460   3.214 -0.6065 -0.0754  2.6978
 8916SOL    HW238208   4.181   4.523   3.208 -0.5970 -0.5293 -1.5026
 8917SOL     OW38209   0.266   0.960   9.381 -0.1895  0.1689 -0.1066
 8917SOL    HW138210   0.281   1.046   9.420  0.2129  0.7101 -1.4523
 8917SOL    HW238211   0.347   0.916   9.406  0.5053  1.1434 -0.6068
 8918SOL     OW38212   4.220   1.784   4.420  0.0433 -0.5905  0.0091
 8918SOL    HW138213   4.137   1.781   4.372 -0.4268  0.9038  0.7389
 8918SOL    HW238214   4.280   1.722   4.379  1.4001  1.4616 -1.0663
 8919SOL     OW38215   2.042   0.684   5.210 -0.7008 -0.0626 -0.5148
 8919SOL    HW138216   1.986   0.625   5.261 -0.0609  1.2311  1.6779
 8919SOL    HW238217   2.078   0.631   5.138 -1.2742  0.0989 -0.9220
 8920SOL     OW38218   4.265   1.396   0.139 -0.2148 -0.1638 -0.4328
 8920SOL    HW138219   4.351   1.398   0.181 -0.9004  1.4462  0.9383
 8920SOL    HW238220   4.209   1.350   0.202 -0.5731 -1.7601 -1.9071
 8921SOL     OW38221   2.761   1.436   7.142 -0.1208 -0.4320  0.4276
 8921SOL    HW138222   2.692   1.370   7.146 -2.0491  1.5777  0.2139
 8921SOL    HW238223   2.795   1.417   7.055 -0.5075  1.2785 -0.0853
 8922SOL     OW38224   4.380   3.592   5.037 -0.2152  0.0675 -0.2314
 8922SOL    HW138225   4.382   3.555   5.126  0.4635 -0.8729 -0.6415
 8922SOL    HW238226   4.354   3.508   4.999  0.8227  0.6323 -2.1546
 8923SOL     OW38227   0.578   3.666   4.753  0.1915 -0.0506  1.0308
 8923SOL    HW138228   0.554   3.655   4.845 -0.2673 -0.8810  0.8070
 8923SOL    HW238229   0.494   3.692   4.717  0.3931 -1.5598 -0.4738
 8924SOL     OW38230   1.868   4.406   8.969  0.0966  0.4947 -0.9142
 8924SOL    HW138231   1.831   4.481   9.015  2.0851 -0.0326  1.5474
 8924SOL    HW238232   1.906   4.354   9.039  2.0474  0.5082 -1.9675
 8925SOL     OW38233   1.905   2.185   4.186  0.0256  0.3772  0.2857
 8925SOL    HW138234   1.812   2.192   4.206 -0.5921 -1.7856 -1.7688
 8925SOL    HW238235   1.904   2.276   4.157  1.7702  0.8121  1.6400
 8926SOL     OW38236   3.654   2.117   2.604 -0.3960 -0.1269  0.0719
 8926SOL    HW138237   3.698   2.139   2.522  2.6963  1.2564  2.1311
 8926SOL    HW238238   3.709   2.161   2.668  2.1557 -1.9419 -0.8374
 8927SOL     OW38239   2.748   1.329   2.626  0.0302  0.1550  0.2254
 8927SOL    HW138240   2.745   1.423   2.645  0.0274  0.5557 -1.8138
 8927SOL    HW238241   2.842   1.332   2.606  0.1444 -1.6692  0.5207
 8928SOL     OW38242   3.529   2.331   5.795  0.0421 -0.0262  0.1809
 8928SOL    HW138243   3.521   2.284   5.878  2.5690  2.5686  1.8488
 8928SOL    HW238244   3.582   2.406   5.822 -0.1602 -0.0580  0.6590
 8929SOL     OW38245   3.899   4.184   6.769 -0.2862  0.6120 -0.1834
 8929SOL    HW138246   3.818   4.133   6.774 -0.3897  1.0043  2.1296
 8929SOL    HW238247   3.963   4.115   6.755  0.9721  1.5455  0.9539
 8930SOL     OW38248   1.989   3.944  16.531 -0.2740 -0.2208 -0.0105
 8930SOL    HW138249   1.980   4.026  16.580 -0.5213 -0.7093  0.7638
 8930SOL    HW238250   2.035   3.975  16.453  0.1386  2.6593  1.3406
 8931SOL     OW38251   1.970   0.926  13.544  0.3157  0.3348 -0.0288
 8931SOL    HW138252   1.877   0.905  13.552 -0.2364  2.6170 -0.4058
 8931SOL    HW238253   1.964   1.020  13.560  0.3205  0.5412 -1.2392
 8932SOL     OW38254   3.849   2.590   2.790  0.4171 -0.1724 -0.6002
 8932SOL    HW138255   3.847   2.495   2.799 -1.5334  0.0145  1.1168
 8932SOL    HW238256   3.897   2.610   2.871  2.3033  2.6638 -2.4213
 8933SOL     OW38257   4.341   2.994   8.124 -0.5210 -0.0643 -0.0131
 8933SOL    HW138258   4.358   2.910   8.167 -0.7383 -0.0025  0.1932
 8933SOL    HW238259   4.344   2.965   8.032 -0.5026 -0.2446  0.0441
 8934SOL     OW38260   0.342   1.624   4.559  0.7377  0.2347 -0.2928
 8934SOL    HW138261   0.321   1.654   4.647 -2.2222 -4.4158  0.5736
 8934SOL    HW238262   0.282   1.550   4.551  0.1020  0.8596 -1.3982
 8935SOL     OW38263   4.650   4.306   3.164 -0.2173  0.4607 -0.5482
 8935SOL    HW138264   4.566   4.262   3.177  0.8583 -0.8919  1.8239
 8935SOL    HW238265   4.668   4.265   3.079  0.3036 -2.1050  0.8021
 8936SOL     OW38266   2.252   0.855  14.775  0.5411  0.3747 -0.2522
 8936SOL    HW138267   2.158   0.836  14.775  0.7743 -0.7937  2.2234
 8936SOL    HW238268   2.278   0.817  14.859 -0.3622  1.7483  0.6427
 8937SOL     OW38269   4.276   3.182  10.235  0.3811 -0.4862  0.7912
 8937SOL    HW138270   4.365   3.150  10.253  0.7483 -0.8003 -1.4779
 8937SOL    HW238271   4.230   3.170  10.318 -1.6236 -0.5430 -0.3354
 8938SOL     OW38272   0.020   3.453   0.966 -0.0191 -0.1338  0.6661
 8938SOL    HW138273   4.654   3.487   0.976 -0.6614 -1.4937 -0.4071
 8938SOL    HW238274   0.016   3.400   0.886  1.7840 -0.7369  0.9785
 8939SOL     OW38275   1.052   0.212   2.777  0.3624  0.0403  0.0392
 8939SOL    HW138276   1.067   0.125   2.740 -0.4836  0.0826 -0.4285
 8939SOL    HW238277   1.141   0.245   2.768 -0.0262  1.4437  1.2916
 8940SOL     OW38278   1.490   3.853   5.055  0.1840 -0.1879  0.0573
 8940SOL    HW138279   1.585   3.850   5.062  0.0198 -1.1734  1.6939
 8940SOL    HW238280   1.470   3.864   4.961  0.2660 -0.3262  0.0252
 8941SOL     OW38281   3.600   0.766  17.220  0.3439  0.1758 -0.2463
 8941SOL    HW138282   3.650   0.803  17.148  1.7247 -1.2972 -0.0400
 8941SOL    HW238283   3.580   0.844  17.271  1.1258  0.7445 -0.8206
 8942SOL     OW38284   4.167   0.313  15.448 -0.3836 -0.2700 -0.6391
 8942SOL    HW138285   4.118   0.247  15.400 -2.5205 -0.2425  1.5082
 8942SOL    HW238286   4.124   0.393  15.418 -1.9982 -1.2734 -0.9902
 8943SOL     OW38287   2.708   2.873   0.615 -0.5577  0.0469 -0.2278
 8943SOL    HW138288   2.778   2.834   0.563 -1.2085 -2.2499  0.5953
 8943SOL    HW238289   2.716   2.807   0.684  3.6119 -0.0824 -0.8749
 8944SOL     OW38290   2.997   3.927   5.614  0.3299  0.2470  0.0980
 8944SOL    HW138291   2.952   4.004   5.648  0.0226  0.4379 -0.7436
 8944SOL    HW238292   2.960   3.868   5.680 -1.9849  0.8231 -0.7052
 8945SOL     OW38293   2.677   3.202   4.286 -0.4455 -0.5346 -0.1965
 8945SOL    HW138294   2.699   3.117   4.324 -0.5115 -0.5298 -0.1492
 8945SOL    HW238295   2.711   3.256   4.357 -0.0957  1.1814 -1.6503
 8946SOL     OW38296   0.296   2.654  15.325  0.3419 -0.6808 -0.4241
 8946SOL    HW138297   0.216   2.601  15.327 -0.6375  0.7837 -0.7897
 8946SOL    HW238298   0.349   2.604  15.262  0.0214 -1.8328  0.2209
 8947SOL     OW38299   0.586   2.507   7.754  0.1116 -0.5110 -0.1509
 8947SOL    HW138300   0.646   2.462   7.695  1.7401  0.3849  0.8163
 8947SOL    HW238301   0.589   2.451   7.832  1.0240  1.2957  1.1140
 8948SOL     OW38302   2.522   2.996   3.073 -0.1358  1.1249 -0.2474
 8948SOL    HW138303   2.571   3.077   3.076 -0.5052  1.3395 -0.0155
 8948SOL    HW238304   2.558   2.944   3.001 -1.4012 -0.7876  0.5029
 8949SOL     OW38305   2.842   4.191   1.117 -0.3163 -0.2084  0.1895
 8949SOL    HW138306   2.752   4.171   1.140  0.3002 -1.5240  1.4178
 8949SOL    HW238307   2.876   4.190   1.206  1.0012  1.2375 -0.2955
 8950SOL     OW38308   3.028   0.703   0.270 -0.7352  0.3104  0.5430
 8950SOL    HW138309   3.044   0.639   0.339  1.4510  1.0664  0.7347
 8950SOL    HW238310   2.971   0.764   0.317  1.2046  1.3487  1.5266
 8951SOL     OW38311   0.335   3.400   2.055 -0.2831 -0.0779 -0.6343
 8951SOL    HW138312   0.332   3.473   1.993  2.9430  1.4713  1.0265
 8951SOL    HW238313   0.405   3.347   2.017  0.8451  0.1415  1.1285
 8952SOL     OW38314   4.005   3.802   2.662 -0.6011 -0.1281 -0.0446
 8952SOL    HW138315   3.918   3.790   2.624 -0.4309 -0.9308 -0.1853
 8952SOL    HW238316   4.057   3.824   2.585 -2.0288  0.7901 -0.7455
 8953SOL     OW38317   4.490   1.979   6.228  0.3986 -0.0124  0.0496
 8953SOL    HW138318   4.450   1.907   6.276 -0.4680 -0.1659 -0.8960
 8953SOL    HW238319   4.412   2.011   6.182  1.3531 -1.2897 -2.5007
 8954SOL     OW38320   2.247   0.041   6.405 -0.1743  0.1442 -0.3878
 8954SOL    HW138321   2.269   0.046   6.312 -1.3410 -3.6297 -0.8877
 8954SOL    HW238322   2.315   0.090   6.451  0.2578  0.1589 -1.0440
 8955SOL     OW38323   0.865   1.625   8.131  0.1752  0.0428  0.8498
 8955SOL    HW138324   0.787   1.592   8.177  1.6570 -1.1576  2.5262
 8955SOL    HW238325   0.925   1.637   8.205 -0.1725 -0.1199  1.1607
 8956SOL     OW38326   2.027   1.386   4.138  0.3210 -0.6689  0.0842
 8956SOL    HW138327   1.972   1.462   4.119  1.7267 -0.1491 -2.0006
 8956SOL    HW238328   2.078   1.408   4.216  1.9604 -0.2903 -1.0978
 8957SOL     OW38329   2.879   1.006   1.013  0.4684  0.1984 -0.0521
 8957SOL    HW138330   2.872   1.086   1.065 -0.8371 -1.9552  3.0941
 8957SOL    HW238331   2.884   1.034   0.922  0.3943  0.6047  0.0677
 8958SOL     OW38332   2.461   0.233   2.442  0.1555 -0.0501  0.7212
 8958SOL    HW138333   2.527   0.168   2.418  2.1038  1.8328  1.0124
 8958SOL    HW238334   2.397   0.171   2.477 -1.0996  0.7590 -0.1563
 8959SOL     OW38335   1.564   0.462   0.583  0.1112  0.5247  0.3900
 8959SOL    HW138336   1.618   0.383   0.584  1.9808  1.7814 -0.1970
 8959SOL    HW238337   1.567   0.469   0.488  2.3020  2.0190  0.5600
 8960SOL     OW38338   1.137   3.975  16.648 -0.1656 -0.2424 -0.5748
 8960SOL    HW138339   1.192   4.046  16.682  0.7825 -2.3034  2.2411
 8960SOL    HW238340   1.087   3.950  16.726  0.4235  0.0979 -0.0888
 8961SOL     OW38341   4.452   2.057   3.241 -0.4331  0.0698 -0.1522
 8961SOL    HW138342   4.509   1.992   3.281 -1.6396  0.3866  2.0553
 8961SOL    HW238343   4.420   2.110   3.314 -1.5484  0.2892 -0.7948
 8962SOL     OW38344   4.031   3.180  11.904  0.2315 -0.2165 -0.0747
 8962SOL    HW138345   4.079   3.097  11.898  0.1423 -0.3912  1.7298
 8962SOL    HW238346   4.042   3.214  11.992  0.1294  3.1525 -1.3779
 8963SOL     OW38347   2.214   3.263  12.943  0.0059 -0.1169  0.2350
 8963SOL    HW138348   2.170   3.296  13.022 -1.1884 -0.4668 -0.2777
 8963SOL    HW238349   2.306   3.278  12.964  0.6816 -2.0156 -1.3713
 8964SOL     OW38350   1.679   2.451  12.684 -0.5927  0.1334  0.5183
 8964SOL    HW138351   1.720   2.510  12.620  0.7143 -2.1853 -0.7705
 8964SOL    HW238352   1.669   2.372  12.632 -0.1895  0.8976 -0.7328
 8965SOL     OW38353   4.296   4.649   2.522 -0.2042 -0.2037 -0.1504
 8965SOL    HW138354   4.208   4.622   2.548  0.1618  0.1242  1.4193
 8965SOL    HW238355   4.284   4.715   2.454 -0.8096 -0.1813 -0.0202
 8966SOL     OW38356   2.098   1.366   1.348 -0.2580  0.2802 -0.0381
 8966SOL    HW138357   2.036   1.336   1.415  0.3094 -1.4958 -0.3103
 8966SOL    HW238358   2.174   1.371   1.406  0.0376  0.3337 -0.4323
 8967SOL     OW38359   2.001   4.669   4.560 -0.0562 -0.0161  0.2573
 8967SOL    HW138360   1.970   4.627   4.479  1.4582 -1.6064  0.5138
 8967SOL    HW238361   2.008   0.037   4.531 -2.8943  0.0935 -0.0873
 8968SOL     OW38362   1.902   1.971   9.070 -0.1302  0.3125  0.1927
 8968SOL    HW138363   1.883   1.877   9.066  1.7084 -0.1506  2.4537
 8968SOL    HW238364   1.909   1.985   9.164  2.1083 -0.5738  0.1475
 8969SOL     OW38365   2.698   0.366   8.224  0.4191 -0.5453 -0.5671
 8969SOL    HW138366   2.695   0.279   8.263 -0.0752 -0.8039 -1.2030
 8969SOL    HW238367   2.606   0.388   8.234  1.1294  1.6818  1.0605
 8970SOL     OW38368   2.320   3.362   3.562 -0.2627  0.2774  0.5127
 8970SOL    HW138369   2.350   3.345   3.652  0.3786 -1.8407 -0.1107
 8970SOL    HW238370   2.354   3.283   3.520  0.5663  0.3308  1.0754
 8971SOL     OW38371   0.543   1.342   1.361 -0.0085  0.1716  0.5126
 8971SOL    HW138372   0.453   1.316   1.339 -0.4494  1.1825  1.1286
 8971SOL    HW238373   0.563   1.297   1.443  0.2123 -0.4240  0.1309
 8972SOL     OW38374   2.552   1.444   5.160  0.6512 -0.2540  0.2487
 8972SOL    HW138375   2.644   1.419   5.169  0.8448  0.1233 -0.6821
 8972SOL    HW238376   2.557   1.539   5.168 -3.9399  0.1538 -1.4570
 8973SOL     OW38377   2.042   1.794   4.843  0.0793  0.5436 -0.3878
 8973SOL    HW138378   2.130   1.768   4.818 -0.2612 -0.8879 -0.1038
 8973SOL    HW238379   2.057   1.876   4.891 -0.1756  1.3455 -1.6860
 8974SOL     OW38380   2.632   1.649  17.535 -0.0762  0.1044  0.4239
 8974SOL    HW138381   2.551   1.659  17.586 -0.2715  0.6549  0.0146
 8974SOL    HW238382   2.687   1.611  17.603 -0.9047 -0.0706  0.9919
 8975SOL     OW38383   3.619   2.311   0.472 -0.1781 -0.0622 -0.2659
 8975SOL    HW138384   3.682   2.241   0.490 -0.8991 -0.6858 -0.1797
 8975SOL    HW238385   3.610   2.345   0.561 -1.6518 -1.2333  0.0346
 8976SOL     OW38386   4.520   0.280  12.558 -0.5728 -0.3652 -0.0870
 8976SOL    HW138387   4.455   0.262  12.489 -1.7484  1.9030  0.4161
 8976SOL    HW238388   4.470   0.301  12.637 -1.0729  2.1826 -1.0989
 8977SOL     OW38389   3.249   2.013   7.104 -0.1951 -0.1822  0.4049
 8977SOL    HW138390   3.201   1.981   7.028  1.5292  0.1371 -0.8213
 8977SOL    HW238391   3.228   2.105   7.117 -0.3992  0.1307 -2.2727
 8978SOL     OW38392   3.430   4.320  10.964  0.0725  0.4929 -0.1058
 8978SOL    HW138393   3.491   4.262  11.009  0.5183  1.0779  0.0523
 8978SOL    HW238394   3.414   4.386  11.032  2.1680  1.8019 -0.8782
 8979SOL     OW38395   2.284   2.573   2.831 -0.7281  0.1547  0.3251
 8979SOL    HW138396   2.318   2.592   2.744 -0.9811 -0.5530  0.0685
 8979SOL    HW238397   2.233   2.496   2.807  0.5314 -0.2055 -1.1948
 8980SOL     OW38398   2.040   0.530   4.716 -0.6003 -0.0071 -0.4121
 8980SOL    HW138399   1.979   0.593   4.678 -0.4882  1.9052  2.5980
 8980SOL    HW238400   2.005   0.446   4.685  1.0195  0.7328 -4.3201
 8981SOL     OW38401   1.394   3.056  10.116 -0.4389 -0.1848 -0.7600
 8981SOL    HW138402   1.450   3.100  10.052 -1.9639  1.4349 -0.9952
 8981SOL    HW238403   1.330   3.127  10.127 -2.2842 -1.3883 -3.6473
 8982SOL     OW38404   0.607   3.321   0.127 -0.0700 -0.3461 -0.5222
 8982SOL    HW138405   0.682   3.377   0.147  1.0933 -2.2362  0.3440
 8982SOL    HW238406   0.582   3.350   0.039 -1.9517 -1.1025 -0.2401
 8983SOL     OW38407   0.939   3.106   4.416 -0.5470  0.3685  0.1637
 8983SOL    HW138408   0.894   3.035   4.370 -0.1759  0.0710  0.2613
 8983SOL    HW238409   0.866   3.168   4.408  0.2203  1.3229  0.5386
 8984SOL     OW38410   3.417   3.953   6.032  0.4249 -0.0002  0.1224
 8984SOL    HW138411   3.494   4.010   6.035 -0.3223  0.9733  1.0769
 8984SOL    HW238412   3.355   4.013   5.989 -0.8423 -0.8571  0.7685
 8985SOL     OW38413   2.412   1.016   7.247  0.3311 -0.1633  0.4320
 8985SOL    HW138414   2.395   1.040   7.338 -2.5464  0.1362 -0.1578
 8985SOL    HW238415   2.474   1.084   7.222 -2.6352  1.9790 -1.1736
 8986SOL     OW38416   4.096   0.847  13.198 -0.0417  0.0138  0.1046
 8986SOL    HW138417   4.056   0.782  13.255  0.1356  1.1756  1.5396
 8986SOL    HW238418   4.184   0.815  13.176 -0.8721 -1.3225 -1.3437
 8987SOL     OW38419   1.541   3.605   8.336 -0.7675 -0.2389 -0.3725
 8987SOL    HW138420   1.595   3.676   8.371  0.4275 -1.0386 -0.5899
 8987SOL    HW238421   1.542   3.540   8.406 -0.2660  1.4051  1.1422
 8988SOL     OW38422   4.322   2.605   7.213 -0.1671 -0.4209 -0.4148
 8988SOL    HW138423   4.273   2.532   7.177  0.8174 -1.2621 -0.0680
 8988SOL    HW238424   4.290   2.676   7.158  0.8770 -1.1518 -1.9841
 8989SOL     OW38425   2.034   2.648   9.703 -0.0795  0.7523 -0.4770
 8989SOL    HW138426   1.962   2.710   9.691  1.8099  2.8205 -1.1781
 8989SOL    HW238427   2.112   2.704   9.707  0.8427 -0.6650  1.4552
 8990SOL     OW38428   2.981   4.165  13.839 -0.0504 -0.3756  0.1472
 8990SOL    HW138429   3.053   4.167  13.902  0.0602 -0.0350  0.0085
 8990SOL    HW238430   2.906   4.175  13.898 -0.9347 -2.5475 -0.6130
 8991SOL     OW38431   0.935   1.928  15.314  0.4510 -0.1618  0.6788
 8991SOL    HW138432   1.017   1.956  15.355  0.9598 -1.6200  0.6507
 8991SOL    HW238433   0.880   2.005  15.331  1.4712  0.4752  1.1115
 8992SOL     OW38434   2.710   1.393   4.840 -0.4942 -0.2112 -0.0831
 8992SOL    HW138435   2.683   1.468   4.787  1.6334 -0.4159 -1.4415
 8992SOL    HW238436   2.632   1.383   4.895  0.2289 -0.2508  0.9183
 8993SOL     OW38437   4.326   2.048   8.453  0.5883  0.4684  0.2469
 8993SOL    HW138438   4.296   2.088   8.534  1.8000  1.3455  0.2516
 8993SOL    HW238439   4.308   2.118   8.390  2.0112  2.8861  2.5216
 8994SOL     OW38440   0.273   3.898  13.070 -0.2364 -0.9414  0.2441
 8994SOL    HW138441   0.326   3.954  13.013  0.4803 -2.5815 -0.7010
 8994SOL    HW238442   0.290   3.813  13.029 -1.0743 -0.9759 -0.0450
 8995SOL     OW38443   3.127   0.916   2.243 -0.2133 -0.4839 -0.4936
 8995SOL    HW138444   3.141   1.010   2.255  0.8036 -0.5438 -1.2118
 8995SOL    HW238445   3.130   0.887   2.334  0.3702  0.3777 -0.2405
 8996SOL     OW38446   1.591   2.076  15.218 -0.5936  0.3323 -0.2719
 8996SOL    HW138447   1.658   2.027  15.266 -0.1671 -1.0400 -2.3008
 8996SOL    HW238448   1.533   2.112  15.286  1.6598  0.8184  1.3762
 8997SOL     OW38449   0.077   2.551   6.594 -0.3151  0.0069 -0.5010
 8997SOL    HW138450   4.707   2.557   6.569 -0.6659  4.3212  1.9254
 8997SOL    HW238451   0.110   2.628   6.548 -1.5539  1.1372  0.5130
 8998SOL     OW38452   2.873   1.115   0.123 -0.1093 -0.3948  0.1623
 8998SOL    HW138453   2.809   1.054   0.158 -1.1435  0.8194  0.3651
 8998SOL    HW238454   2.866   1.096   0.030  1.1813 -3.0105  0.5970
 8999SOL     OW38455   0.755   1.527   0.996 -0.0488 -0.4740 -0.2610
 8999SOL    HW138456   0.810   1.460   0.955  0.9925 -0.0693  0.4960
 8999SOL    HW238457   0.672   1.480   1.001 -2.1911  3.2637 -0.3028
 9000SOL     OW38458   4.712   1.196  11.496  0.7455  0.6270  0.0531
 9000SOL    HW138459   0.027   1.283  11.483  0.6967  0.6937  0.3450
 9000SOL    HW238460   4.620   1.206  11.519  0.6682  1.0481 -0.4663
 9001SOL     OW38461   3.764   2.324   0.838  0.0407 -0.1406 -0.0948
 9001SOL    HW138462   3.703   2.394   0.814 -0.8954 -0.5802  0.9697
 9001SOL    HW238463   3.849   2.355   0.806 -0.2252  1.5589  0.8504
 9002SOL     OW38464   4.220   0.859   6.876  0.4023  0.0387 -0.6257
 9002SOL    HW138465   4.159   0.819   6.813 -1.6658  0.1485  1.3051
 9002SOL    HW238466   4.161   0.851   6.951  0.6422 -1.5673 -0.5979
 9003SOL     OW38467   2.161   3.755  16.349 -0.0501 -0.0656  0.3023
 9003SOL    HW138468   2.252   3.778  16.366 -0.5120 -0.0373  2.7381
 9003SOL    HW238469   2.152   3.678  16.406 -1.4401 -0.6872 -0.7601
 9004SOL     OW38470   0.095   2.500   3.399 -0.0795 -0.2940  0.0395
 9004SOL    HW138471   0.111   2.593   3.386  1.7487 -0.6385 -0.1034
 9004SOL    HW238472   0.183   2.468   3.418 -0.4425 -0.4846  1.4498
 9005SOL     OW38473   1.271   1.433   1.893  0.1201  0.2067  0.4338
 9005SOL    HW138474   1.239   1.358   1.843 -2.1435  0.3347  1.6897
 9005SOL    HW238475   1.357   1.445   1.852  0.1953  0.1144  0.5624
 9006SOL     OW38476   3.710   0.957  10.023 -0.2526 -0.2802  0.1266
 9006SOL    HW138477   3.714   0.878  10.077 -2.6168 -0.4117  0.0929
 9006SOL    HW238478   3.805   0.967  10.029 -0.3475  0.0176  1.1859
 9007SOL     OW38479   3.510   0.424   1.768  0.0233  0.0325 -0.9054
 9007SOL    HW138480   3.584   0.391   1.818  0.7344  1.1872 -1.2165
 9007SOL    HW238481   3.553   0.497   1.724  0.0842  0.3497 -0.3132
 9008SOL     OW38482   3.758   1.835   4.340 -0.4029 -0.4046 -0.1889
 9008SOL    HW138483   3.844   1.794   4.335 -0.0998  0.2816 -0.5925
 9008SOL    HW238484   3.778   1.929   4.349  0.9093 -0.7915  0.9343
 9009SOL     OW38485   0.870   3.129   4.879  0.0406  0.0236  0.6820
 9009SOL    HW138486   0.947   3.183   4.895  0.3195  0.3072 -1.5875
 9009SOL    HW238487   0.869   3.120   4.784 -2.4932 -1.8684  0.8767
 9010SOL     OW38488   3.611   0.729  14.270  0.1308  1.0870 -0.2914
 9010SOL    HW138489   3.574   0.667  14.207 -3.3637 -0.5257  3.3799
 9010SOL    HW238490   3.537   0.786  14.293  0.0279  0.1796  1.6038
 9011SOL     OW38491   1.432   1.719   6.965 -0.1697 -0.0774  0.1641
 9011SOL    HW138492   1.487   1.651   7.004 -0.5995 -0.1792  0.5920
 9011SOL    HW238493   1.345   1.681   6.975  1.0865 -3.1263 -0.3901
 9012SOL     OW38494   3.588   1.116   7.686  0.1633 -0.3928  0.3945
 9012SOL    HW138495   3.675   1.079   7.676  1.3857  1.9882  2.3340
 9012SOL    HW238496   3.586   1.128   7.781 -0.5265  0.3834  0.2835
 9013SOL     OW38497   3.174   0.011   1.372  0.7567  0.1749  0.3617
 9013SOL    HW138498   3.230   0.008   1.450 -0.8611  0.1602  1.5151
 9013SOL    HW238499   3.168   4.642   1.346  0.7611  0.2087  0.2419
 9014SOL     OW38500   4.295   3.226   5.886  0.3775  0.2765  0.4504
 9014SOL    HW138501   4.363   3.158   5.886  0.3105  0.2080 -0.4657
 9014SOL    HW238502   4.349   3.301   5.860 -1.4305  1.3100 -0.2668
 9015SOL     OW38503   2.382   1.279   5.800 -0.6184  0.3545  0.4157
 9015SOL    HW138504   2.303   1.288   5.854 -0.9874  1.6299 -0.3338
 9015SOL    HW238505   2.441   1.317   5.865 -1.6926  0.3858  1.3743
 9016SOL     OW38506   2.787   4.569   6.147 -0.1401  0.2027  0.3230
 9016SOL    HW138507   2.874   4.559   6.186 -0.2659 -2.4153 -0.0187
 9016SOL    HW238508   2.787   4.661   6.120 -0.3000  0.4939  1.3323
 9017SOL     OW38509   2.810   0.003   7.676 -0.0405  0.1958  0.8497
 9017SOL    HW138510   2.791   0.093   7.650  0.9904  0.4822  1.1098
 9017SOL    HW238511   2.755   4.707   7.753 -2.7649  1.5548 -0.7595
 9018SOL     OW38512   3.649   4.032   2.997  0.0189 -0.2752  0.2270
 9018SOL    HW138513   3.694   3.961   3.043  0.3708  1.3532  2.3971
 9018SOL    HW238514   3.660   4.014   2.903  0.7673  0.7142  0.1240
 9019SOL     OW38515   1.343   1.081  14.115 -0.5825 -0.2440 -0.5018
 9019SOL    HW138516   1.280   1.143  14.154 -0.3378  0.5735 -1.3963
 9019SOL    HW238517   1.391   1.138  14.055  0.8858  0.4704  1.3706
 9020SOL     OW38518   2.985   4.220   2.658 -0.4491 -0.3545 -0.9836
 9020SOL    HW138519   3.035   4.285   2.608 -0.9767  0.6035 -0.2687
 9020SOL    HW238520   2.917   4.191   2.597 -1.4945 -3.0693  1.4809
 9021SOL     OW38521   3.023   1.660  15.163  0.1763  0.4641 -0.4617
 9021SOL    HW138522   3.105   1.611  15.154  0.1953 -0.0380  2.3331
 9021SOL    HW238523   2.979   1.589  15.210  2.5391  0.1711  1.3052
 9022SOL     OW38524   2.995   2.457   8.963 -0.0985 -0.2588 -0.0452
 9022SOL    HW138525   3.024   2.485   9.050 -0.0869  1.2568 -0.5317
 9022SOL    HW238526   2.962   2.534   8.918  0.5417 -1.3195 -2.3168
 9023SOL     OW38527   4.672   2.173   1.975  0.1034  0.0457  0.6843
 9023SOL    HW138528   4.605   2.110   1.948  0.9419 -2.0503  3.4080
 9023SOL    HW238529   4.624   2.237   2.027  0.5658 -0.5816  1.8895
 9024SOL     OW38530   1.323   1.786   4.015 -0.3904  0.6913  0.6524
 9024SOL    HW138531   1.310   1.716   4.079 -0.8487 -1.1507 -1.4636
 9024SOL    HW238532   1.405   1.750   3.980 -0.4239 -0.6581  1.9371
 9025SOL     OW38533   3.806   1.225  11.754  0.4538  0.2521  0.2273
 9025SOL    HW138534   3.882   1.271  11.790  0.5089 -0.6530  1.2810
 9025SOL    HW238535   3.740   1.295  11.753 -1.2334 -1.3573 -2.2627
 9026SOL     OW38536   2.673   2.156   7.100 -0.0351  0.5087  0.3630
 9026SOL    HW138537   2.628   2.167   7.184 -0.6687 -0.8272  0.1907
 9026SOL    HW238538   2.676   2.250   7.079 -0.5538  0.7454  1.3321
 9027SOL     OW38539   1.197   1.947   5.596 -0.0640  0.2325  0.1555
 9027SOL    HW138540   1.283   1.908   5.612 -0.5636 -0.1610  1.9320
 9027SOL    HW238541   1.198   2.017   5.662  0.6027 -0.4041  0.8179
 9028SOL     OW38542   4.652   0.467   8.766 -0.0601 -0.3829 -0.0318
 9028SOL    HW138543   4.611   0.527   8.704  0.4142 -0.7406 -0.6950
 9028SOL    HW238544   0.019   0.465   8.730  0.1139 -0.8441  0.4357
 9029SOL     OW38545   0.201   4.697   8.438  0.3710 -0.1173 -0.0943
 9029SOL    HW138546   0.287   4.660   8.460  0.4907 -0.3177 -0.8813
 9029SOL    HW238547   0.218   0.025   8.358 -1.7857 -0.9359 -1.0504
 9030SOL     OW38548   0.806   2.412   0.832  0.3655  0.0741 -0.0260
 9030SOL    HW138549   0.810   2.363   0.914  3.6636  0.9082  0.2936
 9030SOL    HW238550   0.736   2.474   0.853 -0.6863 -0.7892 -1.0021
 9031SOL     OW38551   2.191   2.060   2.793 -0.0634 -0.0499  0.8180
 9031SOL    HW138552   2.239   2.023   2.719 -0.1728 -0.6445  1.0434
 9031SOL    HW238553   2.262   2.052   2.857  0.6038  1.4375  0.2552
 9032SOL     OW38554   1.822   4.125   4.824 -0.2810 -0.7970  0.2239
 9032SOL    HW138555   1.873   4.110   4.744  1.5437 -1.3352  1.4961
 9032SOL    HW238556   1.872   4.184   4.879  1.3764 -1.0141 -1.0709
 9033SOL     OW38557   3.903   0.555   0.983  0.3107 -0.0146 -0.0211
 9033SOL    HW138558   3.879   0.647   0.979 -0.6561 -0.2390  0.6602
 9033SOL    HW238559   3.994   0.570   1.009  0.0209  0.1514  0.9272
 9034SOL     OW38560   1.631   0.395   6.716 -0.2663 -0.1494 -0.4365
 9034SOL    HW138561   1.676   0.470   6.676  0.1271 -2.0777 -3.5589
 9034SOL    HW238562   1.549   0.432   6.749  0.2391 -0.6509  1.3860
 9035SOL     OW38563   1.349   0.808   6.549  0.4609 -0.4505 -0.0161
 9035SOL    HW138564   1.303   0.730   6.518 -1.3572 -0.0086  1.5217
 9035SOL    HW238565   1.351   0.859   6.468 -1.8968 -0.1826  0.0957
 9036SOL     OW38566   4.526   4.663   0.584  0.1218  0.0539 -0.2579
 9036SOL    HW138567   4.431   4.650   0.582 -0.0090  0.6012  2.9440
 9036SOL    HW238568   4.531   0.019   0.638  1.1434  0.0559 -0.3568
 9037SOL     OW38569   0.728   2.932   7.972  0.0656 -0.5903  0.9941
 9037SOL    HW138570   0.741   2.859   8.032 -3.9033 -1.6768  0.5305
 9037SOL    HW238571   0.656   2.891   7.923  0.1650  0.2462  0.1265
 9038SOL     OW38572   0.147   4.292   1.543  0.4536  0.2874  0.6068
 9038SOL    HW138573   0.126   4.333   1.458 -0.6928  1.1990  1.3328
 9038SOL    HW238574   0.059   4.269   1.573  0.4366  0.1197  0.4313
 9039SOL     OW38575   1.122   0.723  17.620 -0.2162 -0.4704  0.4281
 9039SOL    HW138576   1.047   0.706  17.676  0.7971  0.1193  1.9750
 9039SOL    HW238577   1.133   0.818  17.626 -0.0126 -0.5460  1.3510
 9040SOL     OW38578   2.202   1.866   1.566  0.1338  0.2701  0.9074
 9040SOL    HW138579   2.284   1.849   1.612  0.6869 -0.4850 -0.3535
 9040SOL    HW238580   2.161   1.780   1.559 -1.0491  0.7420  1.9748
 9041SOL     OW38581   1.270   2.249  13.434  0.2599 -0.5188  0.2453
 9041SOL    HW138582   1.356   2.287  13.452 -0.1531  0.6951 -0.3468
 9041SOL    HW238583   1.215   2.324  13.457 -0.0087 -0.8096  0.5483
 9042SOL     OW38584   1.297   2.026   5.201  0.5391  0.5529  0.0066
 9042SOL    HW138585   1.281   2.063   5.115 -1.7143 -2.8090 -1.0286
 9042SOL    HW238586   1.327   2.105   5.246  1.4288  1.8194 -2.8048
 9043SOL     OW38587   2.237   2.156  11.487 -0.3981 -0.5067  0.8153
 9043SOL    HW138588   2.191   2.227  11.442  3.6432  1.1782 -0.6814
 9043SOL    HW238589   2.164   2.097  11.503 -0.1500 -1.3964 -1.3693
 9044SOL     OW38590   3.346   0.692   1.475 -0.1051 -0.3450 -0.2239
 9044SOL    HW138591   3.334   0.600   1.501  3.4998 -1.1585 -1.4236
 9044SOL    HW238592   3.323   0.732   1.559  3.6392  0.6476  0.3020
 9045SOL     OW38593   0.937   3.910   2.172  0.1131 -0.2490 -0.3562
 9045SOL    HW138594   0.884   3.964   2.113  1.1289  1.2075  0.0458
 9045SOL    HW238595   0.934   3.829   2.121 -1.2489  0.9097 -2.1117
 9046SOL     OW38596   1.921   1.462  16.300 -0.2576  0.0190  0.1361
 9046SOL    HW138597   1.850   1.503  16.252  0.9073  0.0880 -1.5158
 9046SOL    HW238598   1.979   1.535  16.322 -0.0755 -0.1640  0.2696
 9047SOL     OW38599   2.432   3.936   7.525 -0.3486  0.3821  0.2270
 9047SOL    HW138600   2.427   3.965   7.616 -1.9486  0.3488  0.1635
 9047SOL    HW238601   2.364   3.994   7.489  0.0432  0.7483  0.0762
 9048SOL     OW38602   0.811   3.647   1.421 -0.4204 -0.3928  0.3060
 9048SOL    HW138603   0.744   3.594   1.378  0.2201  1.5547 -3.0449
 9048SOL    HW238604   0.877   3.581   1.443 -1.2113 -0.0883  3.5960
 9049SOL     OW38605   4.202   1.324   5.530 -0.3408  0.3710 -0.3607
 9049SOL    HW138606   4.240   1.319   5.617  1.6037  2.8489 -1.0632
 9049SOL    HW238607   4.254   1.396   5.493 -1.5581  0.6179 -1.6305
 9050SOL     OW38608   0.118   3.501   8.111 -0.4228 -0.0425 -0.6949
 9050SOL    HW138609   0.061   3.500   8.189  0.8633 -1.6177  0.2222
 9050SOL    HW238610   0.202   3.481   8.152  0.7184  4.3313 -0.8759
 9051SOL     OW38611   4.490   1.708  13.552  0.2261 -0.2227  0.3259
 9051SOL    HW138612   4.537   1.630  13.579 -2.6558 -1.0401  3.0606
 9051SOL    HW238613   4.446   1.729  13.634  0.5394 -1.2119  0.7445
 9052SOL     OW38614   3.814   1.239  11.480  0.5297 -0.1724  0.2323
 9052SOL    HW138615   3.813   1.224  11.575 -1.7160 -0.7471  0.1194
 9052SOL    HW238616   3.766   1.164  11.444 -2.3578  0.1372  3.4324
 9053SOL     OW38617   1.126   4.379  16.289  0.3043 -0.2457 -0.2768
 9053SOL    HW138618   1.037   4.366  16.320 -0.3640  0.0169 -2.1375
 9053SOL    HW238619   1.169   4.296  16.311 -2.4996 -1.4319  0.6740
 9054SOL     OW38620   0.204   0.136  16.319  0.0303  0.5558  0.3381
 9054SOL    HW138621   0.205   0.053  16.366 -0.1762  0.4709  0.1950
 9054SOL    HW238622   0.159   0.198  16.377 -0.1244  0.5542  0.2188
 9055SOL     OW38623   1.591   3.112  12.168 -0.0725 -0.0710 -0.2756
 9055SOL    HW138624   1.643   3.182  12.129 -0.7450  1.8207  2.1969
 9055SOL    HW238625   1.530   3.166  12.217 -0.0442 -0.6991  0.4528
 9056SOL     OW38626   0.562   2.234   6.189  0.0883  1.0049 -0.1252
 9056SOL    HW138627   0.522   2.230   6.101 -0.3003  0.8691  0.0554
 9056SOL    HW238628   0.612   2.314   6.172  0.7399  1.2367  2.9414
 9057SOL     OW38629   3.573   1.264  15.424 -0.9603  0.1824  0.0896
 9057SOL    HW138630   3.552   1.351  15.458 -0.8736  0.7622 -1.3495
 9057SOL    HW238631   3.571   1.223  15.510 -0.2819  1.7828  0.8559
 9058SOL     OW38632   3.979   0.477   5.167 -0.0074 -0.1760 -0.3400
 9058SOL    HW138633   4.042   0.406   5.152  0.1256 -0.0859 -0.2065
 9058SOL    HW238634   4.003   0.507   5.255 -0.0782 -1.4891  0.1397
 9059SOL     OW38635   2.962   1.432   8.898  0.0335  0.1087  0.3945
 9059SOL    HW138636   3.004   1.402   8.978  0.7642 -3.1824 -1.2351
 9059SOL    HW238637   2.906   1.506   8.922 -1.6198 -0.2520 -2.3553
 9060SOL     OW38638   4.589   4.489  14.553  0.1949 -0.3824  0.2062
 9060SOL    HW138639   4.576   4.552  14.482  1.2322 -0.7128 -0.2651
 9060SOL    HW238640   4.660   4.538  14.595  0.2695  0.0558 -0.4352
 9061SOL     OW38641   2.114   2.096   6.578  0.2429  0.0168  0.1057
 9061SOL    HW138642   2.108   2.170   6.517 -1.0374 -0.5228 -0.4231
 9061SOL    HW238643   2.056   2.035   6.533 -0.3240  1.3657 -0.9914
 9062SOL     OW38644   2.517   3.185   7.677 -0.3626  0.0094  0.1980
 9062SOL    HW138645   2.470   3.168   7.595 -0.2959  1.4850 -0.1320
 9062SOL    HW238646   2.524   3.280   7.677  1.4820 -0.1297  1.3691
 9063SOL     OW38647   3.167   2.969  14.890  0.2091  0.2591  0.1128
 9063SOL    HW138648   3.091   2.911  14.892  0.8543 -0.6352 -1.5334
 9063SOL    HW238649   3.234   2.921  14.937  0.6263 -0.2591 -1.0146
 9064SOL     OW38650   2.844   3.679   4.483  0.6716 -0.0352 -0.3072
 9064SOL    HW138651   2.815   3.652   4.570 -1.3366  1.8667 -0.3819
 9064SOL    HW238652   2.864   3.772   4.493 -0.0302 -0.0216  0.9579
 9065SOL     OW38653   3.750   2.007   6.908 -0.1687 -0.5844  0.0251
 9065SOL    HW138654   3.806   1.959   6.848 -0.4434 -0.0702 -0.6395
 9065SOL    HW238655   3.669   1.960   6.885  1.4160 -2.4998 -1.6319
 9066SOL     OW38656   1.907   1.612   6.852  0.5574  0.3024 -0.0538
 9066SOL    HW138657   1.838   1.555   6.885  0.3837  0.8346  0.5000
 9066SOL    HW238658   1.859   1.695   6.843  0.4614  0.3437  0.8468
 9067SOL     OW38659   3.194   1.016  17.512  0.1102  0.1324 -0.5405
 9067SOL    HW138660   3.268   1.074  17.492  1.4017 -1.3597 -0.1613
 9067SOL    HW238661   3.117   1.071  17.505  0.9224  1.4594  0.8665
 9068SOL     OW38662   3.948   1.870   6.768 -0.3227 -0.0351  0.5207
 9068SOL    HW138663   3.934   1.857   6.674 -1.8050 -0.2512  0.7765
 9068SOL    HW238664   4.042   1.886   6.769 -0.1355 -1.2674  1.2204
 9069SOL     OW38665   2.180   4.063   4.030 -0.3334  0.0472  0.6254
 9069SOL    HW138666   2.172   4.129   3.962 -2.5667 -0.2484  0.5869
 9069SOL    HW238667   2.219   3.998   3.971 -0.0300 -2.5832  3.6941
 9070SOL     OW38668   3.721   4.263   4.392 -0.0462  0.5976  0.5403
 9070SOL    HW138669   3.748   4.180   4.432 -2.1986 -0.7738 -0.8208
 9070SOL    HW238670   3.699   4.319   4.466  0.0238 -0.5251  1.4175
 9071SOL     OW38671   3.106   3.218   7.859  0.2371 -0.0520  0.5314
 9071SOL    HW138672   3.072   3.193   7.774  0.2030 -0.6873  0.7274
 9071SOL    HW238673   3.039   3.282   7.880  1.9275  1.8616  0.1003
 9072SOL     OW38674   0.971   2.635   0.120  0.3139 -0.0379  0.4015
 9072SOL    HW138675   0.914   2.625   0.044  1.6616  1.6095 -0.8226
 9072SOL    HW238676   0.936   2.579   0.190  2.2858 -1.1020  0.5238
 9073SOL     OW38677   0.805   4.387   2.259 -0.5385 -0.0426  0.0429
 9073SOL    HW138678   0.856   4.355   2.333 -2.0984 -3.3492 -0.3315
 9073SOL    HW238679   0.738   4.443   2.299 -0.8334  0.8947 -1.7382
 9074SOL     OW38680   1.298   4.290   2.566 -0.2089 -0.6041  0.0814
 9074SOL    HW138681   1.221   4.344   2.548  0.1844 -0.1931 -0.3567
 9074SOL    HW238682   1.260   4.203   2.576  0.0288 -0.7170  0.0107
 9075SOL     OW38683   3.301   3.965  10.492  0.4018  0.5032  0.6523
 9075SOL    HW138684   3.259   4.021  10.558  0.8487  2.3784 -0.6854
 9075SOL    HW238685   3.384   3.944  10.535  1.8859  0.7400 -2.0956
 9076SOL     OW38686   4.126   2.154  12.628 -0.1077 -0.5377  0.1372
 9076SOL    HW138687   4.141   2.239  12.588  0.6113 -1.0912 -0.7932
 9076SOL    HW238688   4.202   2.153  12.686 -0.5555  2.6148  0.7357
 9077SOL     OW38689   1.828   2.241  12.103  0.2944  0.0510  0.2362
 9077SOL    HW138690   1.921   2.220  12.101  0.3021  0.0241  0.9801
 9077SOL    HW238691   1.797   2.181  12.035  2.5108 -1.2218  0.3599
 9078SOL     OW38692   2.545   0.994  14.666 -0.0631  0.2750  0.5684
 9078SOL    HW138693   2.503   1.045  14.736  0.6541 -0.7299  1.7238
 9078SOL    HW238694   2.630   1.032  14.644  0.3202  0.6562  2.6978
 9079SOL     OW38695   2.270   2.729   5.435  0.5202 -0.4434  0.4248
 9079SOL    HW138696   2.214   2.685   5.371  0.6290  0.3491 -0.2179
 9079SOL    HW238697   2.213   2.737   5.512 -1.2793 -0.3319 -0.8982
 9080SOL     OW38698   0.229   4.453   7.773 -0.0929  0.2901 -0.5162
 9080SOL    HW138699   0.192   4.369   7.800  1.9052 -0.6512 -0.6983
 9080SOL    HW238700   0.261   4.477   7.860  1.6888  3.6679 -2.1000
 9081SOL     OW38701   3.491   2.561   6.943  0.5414 -0.1093  0.3735
 9081SOL    HW138702   3.504   2.569   7.037 -1.4246 -0.1858  0.6485
 9081SOL    HW238703   3.407   2.519   6.924  0.4581  0.4869 -0.5774
 9082SOL     OW38704   2.333   4.716   9.691 -0.2603  0.4963  0.2837
 9082SOL    HW138705   2.358   4.638   9.641  1.0338  0.2321  1.3436
 9082SOL    HW238706   2.417   0.029   9.720 -0.0463 -0.0424  0.3156
 9083SOL     OW38707   4.488   1.667  17.580  0.2327  0.1154 -0.9072
 9083SOL    HW138708   4.536   1.689  17.659 -0.4325  2.9390 -1.3036
 9083SOL    HW238709   4.402   1.663  17.621 -0.1570  0.9771 -1.6397
 9084SOL     OW38710   1.222   4.056   7.160  0.4676 -0.1033  0.2325
 9084SOL    HW138711   1.277   4.037   7.236 -1.0074 -0.9299  1.0912
 9084SOL    HW238712   1.188   3.971   7.132 -0.5527  0.6699 -0.8870
 9085SOL     OW38713   0.162   2.166  16.654  0.3055  0.1146  0.8895
 9085SOL    HW138714   0.186   2.087  16.606 -0.1320  0.3029  0.3616
 9085SOL    HW238715   0.224   2.228  16.616 -0.2624  0.8894  1.2329
 9086SOL     OW38716   4.586   4.342   7.902  0.0733  0.3197  0.4780
 9086SOL    HW138717   4.497   4.307   7.909  0.6934 -1.8334 -2.3950
 9086SOL    HW238718   4.565   4.423   7.855 -1.2312  0.2963  1.0073
 9087SOL     OW38719   0.942   1.984   1.293 -0.0605  0.4309 -0.1895
 9087SOL    HW138720   1.031   1.948   1.294 -0.1251  0.2097 -3.5602
 9087SOL    HW238721   0.945   2.035   1.212 -3.6910  1.4243  0.3189
 9088SOL     OW38722   1.822   3.775   0.119 -0.0374  0.1082 -0.4064
 9088SOL    HW138723   1.755   3.789   0.052 -1.1621  0.8493  0.8629
 9088SOL    HW238724   1.763   3.748   0.189 -0.8129 -0.7972 -1.4102
 9089SOL     OW38725   3.430   3.277   4.332 -0.3464  0.0495 -0.0056
 9089SOL    HW138726   3.482   3.343   4.286 -1.8611  0.1813 -1.5015
 9089SOL    HW238727   3.501   3.221   4.366 -0.1713 -0.3445 -1.0280
 9090SOL     OW38728   0.281   0.740   2.269  0.0076  0.2561 -0.4917
 9090SOL    HW138729   0.354   0.790   2.307  0.1534 -1.6349  1.7008
 9090SOL    HW238730   0.217   0.811   2.263 -0.6508 -0.1059  2.4349
 9091SOL     OW38731   3.106   3.619   6.262 -0.1244  0.1293 -0.6603
 9091SOL    HW138732   3.023   3.662   6.283  0.1272  0.6550 -0.7231
 9091SOL    HW238733   3.153   3.700   6.242 -0.6887  0.5683 -0.2063
 9092SOL     OW38734   4.371   3.831   8.977 -0.3404  0.0440  0.4279
 9092SOL    HW138735   4.318   3.785   9.042 -1.9233 -0.5956 -1.3009
 9092SOL    HW238736   4.336   3.791   8.897 -1.6930 -0.2713  1.1749
 9093SOL     OW38737   2.627   1.541  15.307  0.2559  0.4073  0.5822
 9093SOL    HW138738   2.579   1.619  15.279 -1.6813 -1.4767 -1.3655
 9093SOL    HW238739   2.614   1.542  15.402 -1.5922  2.0556  0.3174
 9094SOL     OW38740   3.763   0.959   5.734  0.1687 -0.5897  0.1657
 9094SOL    HW138741   3.690   0.938   5.792  0.8443 -0.0802  1.2052
 9094SOL    HW238742   3.843   0.958   5.786  0.3148 -1.7344 -0.0847
 9095SOL     OW38743   3.107   3.601   5.192  0.1040 -0.1975 -0.4302
 9095SOL    HW138744   3.043   3.559   5.135  0.8223  0.5628 -1.8015
 9095SOL    HW238745   3.082   3.555   5.272 -1.4487 -0.0317 -0.8277
 9096SOL     OW38746   2.758   3.696  16.750  0.9351  0.1013  0.1397
 9096SOL    HW138747   2.663   3.704  16.744  0.8634 -0.3772  0.6780
 9096SOL    HW238748   2.759   3.699  16.845  1.4277  3.1447  0.0420
 9097SOL     OW38749   4.715   2.867  15.990  0.5202 -0.5543 -0.2809
 9097SOL    HW138750   0.078   2.850  15.951  0.5894 -0.6330 -0.0945
 9097SOL    HW238751   4.667   2.795  15.949 -1.2436  0.1174  0.5906
 9098SOL     OW38752   2.563   1.202   2.807 -0.2088 -0.0556  0.0040
 9098SOL    HW138753   2.647   1.236   2.777  0.5830 -1.5118  0.5729
 9098SOL    HW238754   2.569   1.118   2.763  1.3001 -0.6945  1.4244
 9099SOL     OW38755   3.745   3.772   8.268 -0.3444  0.1422  0.2827
 9099SOL    HW138756   3.734   3.807   8.357  1.1884 -0.8163  0.8469
 9099SOL    HW238757   3.825   3.721   8.284  1.4226  3.2585  1.4765
 9100SOL     OW38758   0.358   2.726   3.724  0.0553  0.0182  0.1672
 9100SOL    HW138759   0.364   2.795   3.790  0.4383 -0.2979  0.4672
 9100SOL    HW238760   0.445   2.689   3.739 -0.5117 -1.2751  0.3214
 9101SOL     OW38761   1.196   2.538  13.268 -0.1108  0.2539 -0.0453
 9101SOL    HW138762   1.251   2.494  13.204  2.1618  1.7669  0.8620
 9101SOL    HW238763   1.118   2.485  13.252  0.0685  0.2750 -0.9612
 9102SOL     OW38764   0.366   2.638   8.430 -0.0509 -0.5764  0.6124
 9102SOL    HW138765   0.283   2.653   8.384 -1.8584 -3.3604  2.9937
 9102SOL    HW238766   0.400   2.723   8.402 -1.3919  0.1821  1.2677
 9103SOL     OW38767   2.211   0.368  14.467  0.1559  0.2591  0.4468
 9103SOL    HW138768   2.253   0.285  14.487  0.4390 -0.1718 -1.9518
 9103SOL    HW238769   2.166   0.342  14.387  1.1206 -0.5270  0.1621
 9104SOL     OW38770   3.087   3.341  12.099 -0.4000  0.3632 -0.0449
 9104SOL    HW138771   3.058   3.333  12.008 -0.2617  1.7152 -0.2133
 9104SOL    HW238772   3.121   3.431  12.105 -1.2551  0.6424  0.5633
 9105SOL     OW38773   0.911   0.296   8.103 -0.3017 -0.1650 -0.0061
 9105SOL    HW138774   0.869   0.222   8.060  0.4301 -0.0247 -0.9664
 9105SOL    HW238775   0.835   0.331   8.150 -0.6683 -0.8831 -0.0790
 9106SOL     OW38776   0.407   3.134  14.213 -0.3705 -0.4081 -0.1842
 9106SOL    HW138777   0.386   3.076  14.140 -4.2131 -0.0181  0.6374
 9106SOL    HW238778   0.462   3.089  14.277  0.2091 -0.5736 -0.8023
 9107SOL     OW38779   1.612   0.115   7.936 -0.4772 -0.3215  1.1558
 9107SOL    HW138780   1.663   0.129   7.857 -0.1829 -1.1574  1.1958
 9107SOL    HW238781   1.573   0.201   7.949  2.0438  0.8891  0.6722
 9108SOL     OW38782   1.240   1.644  16.231  0.3353 -0.0078  0.2429
 9108SOL    HW138783   1.208   1.730  16.258 -0.3850 -0.5816  1.2137
 9108SOL    HW238784   1.162   1.603  16.193  0.0810  0.8380 -0.1444
 9109SOL     OW38785   1.794   3.334   3.337  0.7161  0.6378  0.1033
 9109SOL    HW138786   1.868   3.300   3.388 -2.1351 -1.5062  2.8602
 9109SOL    HW238787   1.751   3.250   3.321  0.4517  0.8227 -0.1591
 9110SOL     OW38788   3.579   3.648   0.382 -0.3429  0.3290  0.0599
 9110SOL    HW138789   3.518   3.680   0.449 -0.0802  0.2795  0.3223
 9110SOL    HW238790   3.664   3.677   0.415 -0.1135 -0.2535 -0.0242
 9111SOL     OW38791   0.150   1.908   2.407 -0.5174 -0.0583  0.1492
 9111SOL    HW138792   0.073   1.852   2.409  0.1830 -1.0425 -0.5446
 9111SOL    HW238793   0.147   1.947   2.320  1.0034  2.2658  1.1281
 9112SOL     OW38794   3.943   1.914   6.185 -0.4754 -0.1011  0.4058
 9112SOL    HW138795   3.876   1.915   6.254 -2.1110 -1.8426 -1.1553
 9112SOL    HW238796   3.891   1.920   6.105  0.8143  0.1596 -0.3996
 9113SOL     OW38797   0.857   3.223  10.491  0.0728  0.3149  0.2507
 9113SOL    HW138798   0.863   3.133  10.459 -0.0394 -0.1254  1.4645
 9113SOL    HW238799   0.894   3.199  10.576  2.7344  1.4066 -0.5856
 9114SOL     OW38800   2.260   1.949   1.121  0.0804  0.3039 -0.3045
 9114SOL    HW138801   2.296   2.010   1.185  0.0123 -0.5891  0.5884
 9114SOL    HW238802   2.244   1.870   1.173  2.7266 -1.4111 -2.1097
 9115SOL     OW38803   2.837   4.143  14.716 -0.3007 -0.2738 -0.3409
 9115SOL    HW138804   2.755   4.188  14.695  0.4861  1.2993 -0.0073
 9115SOL    HW238805   2.811   4.051  14.706 -1.5100  0.0698 -0.3856
 9116SOL     OW38806   4.415   1.128   4.531  0.4369 -0.0978 -0.6945
 9116SOL    HW138807   4.351   1.186   4.490 -3.2943 -2.5102  1.7130
 9116SOL    HW238808   4.364   1.080   4.596  0.2526  1.3212  0.2139
 9117SOL     OW38809   0.988   2.169  12.795 -0.3986  0.3849 -0.6231
 9117SOL    HW138810   1.062   2.218  12.828  1.2313 -2.3545 -0.1782
 9117SOL    HW238811   0.940   2.236  12.746 -1.8743 -1.5106 -1.7911
 9118SOL     OW38812   2.877   1.210   2.922  0.1057 -0.1495 -0.0238
 9118SOL    HW138813   2.967   1.220   2.953  0.7110 -2.0208 -1.2086
 9118SOL    HW238814   2.886   1.199   2.827 -2.3817  0.8412 -0.3795
 9119SOL     OW38815   4.334   2.659   5.838 -0.5207  0.3605 -0.1402
 9119SOL    HW138816   4.373   2.637   5.753 -0.3583 -1.3031  0.3603
 9119SOL    HW238817   4.418   2.655   5.885  0.3630  0.9161 -1.6738
 9120SOL     OW38818   0.836   1.806   5.502  0.7147  0.2997 -0.3528
 9120SOL    HW138819   0.781   1.728   5.497 -0.1957  0.8369  1.2032
 9120SOL    HW238820   0.776   1.874   5.533 -0.7925 -0.5583 -1.4059
 9121SOL     OW38821   3.310   1.429  13.628  0.3193 -0.0805  0.0921
 9121SOL    HW138822   3.218   1.446  13.645  0.4331  2.6515 -1.9779
 9121SOL    HW238823   3.342   1.510  13.588 -1.0762  0.8174  0.8022
 9122SOL     OW38824   1.025   4.441   3.635 -0.7076 -0.0166 -0.3811
 9122SOL    HW138825   0.961   4.476   3.697  1.5628  2.1732  0.7275
 9122SOL    HW238826   0.976   4.369   3.595 -0.0503  0.0594 -1.3165
 9123SOL     OW38827   2.979   3.233   2.123 -0.4580  0.6016 -0.1024
 9123SOL    HW138828   3.005   3.143   2.143 -0.9158  1.1095  2.7441
 9123SOL    HW238829   2.994   3.273   2.208  0.7441  0.1035 -0.0786
 9124SOL     OW38830   3.768   3.034  14.202 -0.3499 -0.4130 -0.3809
 9124SOL    HW138831   3.785   2.962  14.263  0.7620 -0.0430 -0.2501
 9124SOL    HW238832   3.854   3.035  14.159  0.0382 -0.7361  0.3854
 9125SOL     OW38833   2.746   1.760   1.709 -0.1218 -0.4083  0.3680
 9125SOL    HW138834   2.810   1.832   1.706 -1.6932  0.9574 -0.7477
 9125SOL    HW238835   2.706   1.780   1.793  0.1900  1.5042  0.0817
 9126SOL     OW38836   3.969   0.308  16.669  0.1257  0.4371  0.0524
 9126SOL    HW138837   3.896   0.271  16.718  0.1922 -0.3518 -0.4552
 9126SOL    HW238838   4.046   0.295  16.723  1.0037  1.9208 -0.8264
 9127SOL     OW38839   2.510   2.171  11.381 -0.6919 -0.1499  0.8521
 9127SOL    HW138840   2.424   2.180  11.422 -1.7189  1.5247 -1.6965
 9127SOL    HW238841   2.522   2.249  11.327  1.0868  0.1128  1.6244
 9128SOL     OW38842   1.827   1.489   9.887 -0.3454 -0.0167  0.3080
 9128SOL    HW138843   1.741   1.481   9.929 -1.5782 -1.3524 -2.4620
 9128SOL    HW238844   1.839   1.584   9.890  1.5916 -0.2755  0.3155
 9129SOL     OW38845   2.208   1.555  15.717  0.0255 -0.7737 -0.1342
 9129SOL    HW138846   2.285   1.500  15.733  0.3447 -1.0659 -2.6966
 9129SOL    HW238847   2.135   1.512  15.762 -0.5124  0.0538 -0.2248
 9130SOL     OW38848   3.182   0.605   0.040  0.2444  0.2282  0.2572
 9130SOL    HW138849   3.237   0.668  17.686  0.7579  0.6091  1.4036
 9130SOL    HW238850   3.151   0.647   0.120 -0.7066 -1.3658  0.7148
 9131SOL     OW38851   1.794   0.310  10.417  0.1715  0.5686 -0.3356
 9131SOL    HW138852   1.815   0.403  10.410 -0.2699  0.6809 -0.2099
 9131SOL    HW238853   1.852   0.293  10.491  0.6138  2.1551 -0.3266
 9132SOL     OW38854   0.558   3.441  14.069  0.6958 -0.1048 -0.0788
 9132SOL    HW138855   0.651   3.444  14.050  0.6835  2.0788  0.2599
 9132SOL    HW238856   0.516   3.416  13.987  0.9719 -0.0967 -0.2203
 9133SOL     OW38857   1.354   3.832   2.957  0.4273 -0.0584 -0.2088
 9133SOL    HW138858   1.449   3.827   2.945  0.6533  2.3807  0.4215
 9133SOL    HW238859   1.333   3.924   2.940  1.4032  0.1340 -0.4127
 9134SOL     OW38860   1.386   1.065  10.107  0.1217  0.7404 -0.4312
 9134SOL    HW138861   1.293   1.064  10.083 -0.7795  0.6311  3.1435
 9134SOL    HW238862   1.397   1.158  10.127  0.0868  0.7544 -0.4781
 9135SOL     OW38863   2.698   1.512   3.149 -0.6329  0.0114  0.4069
 9135SOL    HW138864   2.685   1.583   3.213 -0.2367 -0.1003  0.6149
 9135SOL    HW238865   2.611   1.477   3.130  0.1924 -1.6169 -0.2916
 9136SOL     OW38866   3.461   3.711   3.526 -0.4165 -0.0201  0.2996
 9136SOL    HW138867   3.397   3.651   3.488 -1.6189  2.8480 -2.2109
 9136SOL    HW238868   3.497   3.642   3.582  3.3546  0.8493 -1.0337
 9137SOL     OW38869   3.433   0.859   3.928  0.2455 -0.3462  0.0594
 9137SOL    HW138870   3.437   0.953   3.915  1.9918 -0.4323 -0.0348
 9137SOL    HW238871   3.451   0.825   3.841 -1.2794 -0.0508 -0.3718
 9138SOL     OW38872   3.650   4.611   7.779 -0.2297 -0.5457 -0.5100
 9138SOL    HW138873   3.649   4.554   7.702  1.5938 -0.3338 -0.6909
 9138SOL    HW238874   3.606   4.684   7.737 -0.6953 -1.1266 -1.0265
 9139SOL     OW38875   1.343   4.207   4.255  0.3300  0.6194 -0.7159
 9139SOL    HW138876   1.360   4.136   4.317 -0.9215  1.5362  0.6894
 9139SOL    HW238877   1.249   4.204   4.238  0.0811 -1.7731  1.0347
 9140SOL     OW38878   2.749   0.661  11.868  0.6275 -0.2319 -0.0169
 9140SOL    HW138879   2.776   0.623  11.785  1.6399 -1.2351  0.7661
 9140SOL    HW238880   2.819   0.725  11.867  1.4444 -1.1255  0.0354
 9141SOL     OW38881   2.474   2.202   5.153  0.0093  0.0655 -0.1945
 9141SOL    HW138882   2.418   2.125   5.142  0.0315 -0.1569  1.2411
 9141SOL    HW238883   2.516   2.179   5.236  2.6410  2.2060 -0.9171
 9142SOL     OW38884   1.717   1.498   5.672  0.8371 -0.6090 -0.1422
 9142SOL    HW138885   1.800   1.528   5.708  1.1796 -0.2979 -1.2151
 9142SOL    HW238886   1.671   1.579   5.693  0.5629 -0.2637 -2.1515
 9143SOL     OW38887   3.414   0.793   5.309  0.1879 -0.5035 -0.1704
 9143SOL    HW138888   3.424   0.887   5.295 -0.6231 -0.2848  0.6858
 9143SOL    HW238889   3.398   0.765   5.219 -1.7198  1.3499 -0.4139
 9144SOL     OW38890   2.213   1.765  14.589  0.0213  0.3141  0.4481
 9144SOL    HW138891   2.180   1.754  14.500  1.8336 -1.4145 -0.0296
 9144SOL    HW238892   2.264   1.846  14.581  0.0626  0.1489 -1.0505
 9145SOL     OW38893   3.610   3.480   7.371  0.2033  0.0952 -0.2233
 9145SOL    HW138894   3.692   3.515   7.405  1.2716 -0.5072 -2.2506
 9145SOL    HW238895   3.546   3.531   7.422 -0.2074  0.1250 -0.7631
 9146SOL     OW38896   0.164   2.885   2.538  0.6221 -0.2154  0.1462
 9146SOL    HW138897   0.125   2.830   2.607  2.7601  0.7171  2.1010
 9146SOL    HW238898   0.226   2.816   2.515 -0.8585 -1.0166 -1.4153
 9147SOL     OW38899   0.470   0.673   2.638  0.2702  0.3479 -0.4273
 9147SOL    HW138900   0.547   0.615   2.637 -0.5762 -0.7794 -0.6603
 9147SOL    HW238901   0.420   0.626   2.705  3.2996 -1.4913  0.5319
 9148SOL     OW38902   4.244   0.247   2.721  0.3511  0.5934  0.2533
 9148SOL    HW138903   4.307   0.311   2.688 -0.1778  0.1264 -1.6911
 9148SOL    HW238904   4.237   0.278   2.811 -2.6440  0.4272  0.0892
 9149SOL     OW38905   0.179   0.795  11.754 -0.2525 -0.4497 -0.5020
 9149SOL    HW138906   0.255   0.853  11.740  1.5450 -2.7061 -0.0856
 9149SOL    HW238907   0.120   0.818  11.683  1.4600  3.4404 -0.6886
 9150SOL     OW38908   4.557   3.427   8.877  0.0190  0.0418  0.2166
 9150SOL    HW138909   4.617   3.489   8.920 -0.3066  1.3978 -1.2948
 9150SOL    HW238910   4.576   3.450   8.786 -1.4372  0.3889 -0.0057
 9151SOL     OW38911   2.845   4.164  12.519 -0.1628  0.4829 -0.3143
 9151SOL    HW138912   2.844   4.088  12.577 -1.3778  0.6978 -0.0575
 9151SOL    HW238913   2.881   4.116  12.444 -2.2688 -0.5851 -0.6301
 9152SOL     OW38914   4.461   2.268  10.440 -0.4731  0.3468 -0.1548
 9152SOL    HW138915   4.540   2.267  10.386 -0.0201  0.9717  0.4893
 9152SOL    HW238916   4.401   2.229  10.376  0.0075  1.4426 -1.2652
 9153SOL     OW38917   4.312   4.170   1.999  0.9512  0.5921  0.1772
 9153SOL    HW138918   4.341   4.085   2.032 -0.9846  0.8437  2.4545
 9153SOL    HW238919   4.243   4.190   2.061 -0.5678 -0.9392 -1.0216
 9154SOL     OW38920   4.385   3.077   9.091  0.0232 -0.1161 -0.1463
 9154SOL    HW138921   4.355   3.013   9.027  1.4224 -1.7550  0.8536
 9154SOL    HW238922   4.474   3.090   9.058 -0.1209  1.4830  0.1045
 9155SOL     OW38923   1.155   3.393   8.825  0.1940  0.0030  0.5569
 9155SOL    HW138924   1.124   3.371   8.913 -1.6033  1.5047  0.3072
 9155SOL    HW238925   1.148   3.308   8.782 -1.8243 -0.6613  2.1845
 9156SOL     OW38926   4.084   2.261   7.114 -0.1943  0.3166 -0.2549
 9156SOL    HW138927   4.010   2.260   7.054  1.1027  1.4722 -1.8730
 9156SOL    HW238928   4.139   2.326   7.069 -0.1845  2.0357  2.1909
 9157SOL     OW38929   1.380   2.418   7.951  0.2900  0.0498  0.0168
 9157SOL    HW138930   1.382   2.480   8.024 -2.3441  0.3976 -0.2040
 9157SOL    HW238931   1.446   2.358   7.987  1.0322  2.0731  2.0068
 9158SOL     OW38932   3.328   3.151  12.032 -0.3647  0.4395  0.2888
 9158SOL    HW138933   3.253   3.115  12.080 -0.2774  0.9377  0.7875
 9158SOL    HW238934   3.302   3.144  11.940  0.9763  0.3596 -0.0901
 9159SOL     OW38935   4.409   0.395   4.611  0.5499  0.4687  0.2564
 9159SOL    HW138936   4.409   0.337   4.534  2.3970  0.0598  0.5687
 9159SOL    HW238937   4.317   0.419   4.617  0.6616  0.9959 -0.0701
 9160SOL     OW38938   2.629   1.688   3.995  0.3078 -0.7929  0.2989
 9160SOL    HW138939   2.564   1.698   4.064  0.7620  2.2449  0.3123
 9160SOL    HW238940   2.704   1.740   4.025  0.3626 -0.2705 -0.7388
 9161SOL     OW38941   1.423   1.071  14.496 -0.0598  0.1673 -0.5343
 9161SOL    HW138942   1.499   1.021  14.526 -1.0555 -1.2454 -0.3182
 9161SOL    HW238943   1.458   1.154  14.467  0.8197  0.8780  2.5234
 9162SOL     OW38944   4.295   3.158   0.934 -0.4117  0.4995  0.6660
 9162SOL    HW138945   4.247   3.178   0.854 -0.3324  0.8467  0.7060
 9162SOL    HW238946   4.381   3.127   0.908 -0.9702 -0.3103 -0.1846
 9163SOL     OW38947   0.100   3.321   8.540  0.1070  0.3291  0.0265
 9163SOL    HW138948   0.174   3.374   8.510  1.2481  0.4137  2.9439
 9163SOL    HW238949   0.041   3.388   8.576 -0.0319 -0.3991  1.1662
 9164SOL     OW38950   3.595   3.551   8.639 -0.1828 -0.8798 -0.5061
 9164SOL    HW138951   3.595   3.499   8.559  0.6788 -0.7971 -0.5614
 9164SOL    HW238952   3.557   3.636   8.617  0.6492  0.2375  2.3991
 9165SOL     OW38953   0.656   4.024   9.356 -0.3262  0.0125  0.1609
 9165SOL    HW138954   0.632   3.956   9.419 -0.0517  2.4410  2.9443
 9165SOL    HW238955   0.744   3.997   9.330 -0.0316  0.4199  0.7105
 9166SOL     OW38956   0.199   2.153   1.760 -0.1700  0.2560  0.4090
 9166SOL    HW138957   0.268   2.091   1.782  0.0514  0.0148 -1.0008
 9166SOL    HW238958   0.172   2.184   1.847 -2.1468 -0.6111  0.1156
 9167SOL     OW38959   1.766   4.713   3.247 -0.0129 -0.0600  0.4417
 9167SOL    HW138960   1.702   0.039   3.196 -1.9567 -2.0794  0.9123
 9167SOL    HW238961   1.806   4.663   3.176  1.0767  0.9985  0.3217
 9168SOL     OW38962   4.550   2.223   3.779  0.2330  0.2642  0.3686
 9168SOL    HW138963   4.601   2.204   3.700 -0.7733  0.4990 -0.3540
 9168SOL    HW238964   4.563   2.317   3.788  1.8022  0.1469 -0.7149
 9169SOL     OW38965   4.102   3.633   3.033  0.8328 -0.0339  0.0426
 9169SOL    HW138966   4.162   3.585   3.090  0.4381 -0.5702  0.0055
 9169SOL    HW238967   4.064   3.683   3.105  0.2448 -0.5803  0.1088
 9170SOL     OW38968   2.510   2.774  16.184  0.1354 -0.2107 -0.1591
 9170SOL    HW138969   2.456   2.724  16.246 -1.2606  0.2818 -0.9677
 9170SOL    HW238970   2.505   2.867  16.206 -0.4863 -0.2218 -0.2428
 9171SOL     OW38971   4.224   2.505   5.451  0.3476  0.2441  0.1215
 9171SOL    HW138972   4.150   2.566   5.450  0.2515  0.1421  1.2913
 9171SOL    HW238973   4.237   2.490   5.357 -0.4875 -2.8917  0.4945
 9172SOL     OW38974   2.335   1.728  17.019  0.3588 -0.8011 -0.0131
 9172SOL    HW138975   2.417   1.715  17.066  0.2292  0.8356  0.6659
 9172SOL    HW238976   2.276   1.747  17.091 -1.5182 -2.4492 -1.1110
 9173SOL     OW38977   4.340   3.089   3.920 -0.4308  0.2692  0.2324
 9173SOL    HW138978   4.423   3.046   3.939 -1.4252 -1.7258 -0.0075
 9173SOL    HW238979   4.379   3.172   3.947 -0.5578  0.6015 -0.5900
 9174SOL     OW38980   0.174   0.941   6.234  0.1024  0.2819 -0.3933
 9174SOL    HW138981   0.145   0.853   6.258  0.6403 -0.0551 -0.9439
 9174SOL    HW238982   0.093   0.985   6.209 -1.4081 -1.1072  2.1257
 9175SOL     OW38983   1.245   2.586   3.854 -0.0272 -0.3349  0.5859
 9175SOL    HW138984   1.291   2.653   3.804  0.9725 -3.2618 -2.4248
 9175SOL    HW238985   1.154   2.585   3.825 -0.4868 -2.2168  2.0434
 9176SOL     OW38986   2.115   1.029  12.467  0.3270  0.2416 -0.1774
 9176SOL    HW138987   2.134   0.935  12.469 -0.9254  0.0390  2.4747
 9176SOL    HW238988   2.170   1.062  12.396 -1.8176  1.0725 -1.4267
 9177SOL     OW38989   4.186   0.822   3.845 -0.0086  0.6212  0.0603
 9177SOL    HW138990   4.249   0.750   3.852 -0.5663  0.0056 -1.1669
 9177SOL    HW238991   4.129   0.772   3.787  0.2897  1.3669 -0.8788
 9178SOL     OW38992   1.893   2.116   3.045 -0.3267 -0.6272  0.1215
 9178SOL    HW138993   1.869   2.134   3.136  0.2670 -1.3647  0.4248
 9178SOL    HW238994   1.858   2.191   2.998  0.5194 -0.9805 -1.0797
 9179SOL     OW38995   0.001   0.973  13.061 -0.0436 -0.1968  0.0378
 9179SOL    HW138996   4.640   0.929  13.040 -0.0099 -0.3167  0.1529
 9179SOL    HW238997   4.691   1.062  13.051  0.3751 -0.0287  0.1874
 9180SOL     OW38998   2.191   1.946  15.459  0.4228 -0.2712 -0.3018
 9180SOL    HW138999   2.112   1.926  15.508  0.3610 -2.1368 -1.1313
 9180SOL    HW239000   2.237   1.861  15.460  0.4837 -0.2570 -1.9970
 9181SOL     OW39001   3.276   3.044   5.459 -0.0015 -0.0284 -0.0214
 9181SOL    HW139002   3.232   3.110   5.406  1.0588  0.3642 -0.4203
 9181SOL    HW239003   3.197   2.992   5.476 -0.4231  0.4465 -0.5602
 9182SOL     OW39004   1.734   1.307   6.614  0.0441  0.8246  0.0392
 9182SOL    HW139005   1.683   1.287   6.693 -2.5430  0.3630 -1.7625
 9182SOL    HW239006   1.824   1.327   6.640  0.2109  1.8790 -1.3711
 9183SOL     OW39007   0.379   0.424   8.589 -0.5412 -0.0953 -0.3256
 9183SOL    HW139008   0.381   0.519   8.575 -0.0352 -0.1324 -0.5310
 9183SOL    HW239009   0.398   0.421   8.683  0.2939  0.2084 -0.4814
 9184SOL     OW39010   4.452   2.815   0.902  0.3726 -0.2622 -0.3455
 9184SOL    HW139011   4.424   2.801   0.992 -2.0016  1.6194 -0.7994
 9184SOL    HW239012   4.498   2.731   0.895 -0.0755 -0.5594  0.2695
 9185SOL     OW39013   0.383   0.691   3.431  0.6521 -0.1752  0.1342
 9185SOL    HW139014   0.438   0.758   3.471 -0.0877 -0.2354  1.2500
 9185SOL    HW239015   0.344   0.652   3.509 -0.3800 -0.1645 -0.3686
 9186SOL     OW39016   4.241   2.988  15.402 -0.2921 -0.1494  0.2605
 9186SOL    HW139017   4.319   2.964  15.451 -0.3590  1.3148  1.0766
 9186SOL    HW239018   4.277   3.022  15.320  1.5457 -2.3220  0.1780
 9187SOL     OW39019   0.250   3.172  16.664 -0.0695 -0.3020 -0.2143
 9187SOL    HW139020   0.205   3.251  16.694 -2.2260 -1.4242 -0.4992
 9187SOL    HW239021   0.312   3.203  16.598  0.8779  1.0948  1.3218
 9188SOL     OW39022   1.875   1.086   8.439 -0.0093 -0.3252 -0.6660
 9188SOL    HW139023   1.856   1.104   8.532  1.6607 -1.6174 -0.0863
 9188SOL    HW239024   1.814   1.150   8.401  0.8754  0.7990 -0.2062
 9189SOL     OW39025   0.301   4.569   9.886 -0.1578 -0.0291 -0.0749
 9189SOL    HW139026   0.365   4.544   9.820  1.1304 -0.8209  1.4631
 9189SOL    HW239027   0.319   4.663   9.890 -0.1492 -0.0561  0.6712
 9190SOL     OW39028   3.446   2.105   4.758  0.3147 -0.7633 -0.3895
 9190SOL    HW139029   3.509   2.174   4.779  1.5064 -0.9852 -3.1484
 9190SOL    HW239030   3.374   2.159   4.727  0.2471 -1.5087 -1.5484
 9191SOL     OW39031   4.250   4.353  14.445  0.0054  0.0049  0.6781
 9191SOL    HW139032   4.207   4.360  14.360  1.2497 -0.3844  0.0237
 9191SOL    HW239033   4.334   4.312  14.425 -0.0850 -0.3240  0.9787
 9192SOL     OW39034   2.165   1.023  15.291 -0.3772 -0.8699  0.4135
 9192SOL    HW139035   2.226   0.950  15.291  0.7142  0.0652 -1.1885
 9192SOL    HW239036   2.145   1.042  15.200  0.4173 -2.1514 -0.0319
 9193SOL     OW39037   1.688   0.677   4.230 -0.2570 -0.3985 -0.4651
 9193SOL    HW139038   1.656   0.758   4.270 -1.7786 -0.8881 -0.6887
 9193SOL    HW239039   1.757   0.647   4.290  1.0584  1.2559 -1.1733
 9194SOL     OW39040   4.224   2.635  17.587  0.2963  0.0132  0.2442
 9194SOL    HW139041   4.263   2.572  17.648 -1.8715 -0.9781  0.5843
 9194SOL    HW239042   4.191   2.589  17.510  0.0495 -0.1932  0.4745
 9195SOL     OW39043   0.578   1.159   7.882  0.0152 -0.3401  0.0361
 9195SOL    HW139044   0.518   1.167   7.809  0.2172  1.5408  0.0753
 9195SOL    HW239045   0.529   1.190   7.958 -0.8892 -3.8618  0.8822
 9196SOL     OW39046   2.526   0.309   5.222  0.6451  0.4355 -0.2661
 9196SOL    HW139047   2.471   0.371   5.270  1.2477  0.9618 -0.2524
 9196SOL    HW239048   2.466   0.241   5.192 -0.0314  0.5607  0.8184
 9197SOL     OW39049   0.457   4.209   3.458  0.5331 -0.6120  0.6135
 9197SOL    HW139050   0.432   4.117   3.472 -0.3180 -0.7178 -1.5486
 9197SOL    HW239051   0.537   4.210   3.510  0.4720  0.3036  0.6778
 9198SOL     OW39052   3.823   4.549   5.666 -0.3309  0.2719  0.8238
 9198SOL    HW139053   3.807   4.542   5.572  2.5357 -0.5462  0.3994
 9198SOL    HW239054   3.870   4.469   5.687  0.4911  0.8040  0.9769
 9199SOL     OW39055   1.618   0.322   3.349 -0.7278  0.1592  0.3461
 9199SOL    HW139056   1.667   0.241   3.334 -0.7045  0.6840 -2.3852
 9199SOL    HW239057   1.576   0.337   3.264 -1.7108  1.6424  1.1125
 9200SOL     OW39058   3.733   3.179   1.953  0.0473 -0.0522  0.5435
 9200SOL    HW139059   3.701   3.215   1.870  0.6202 -0.4672  0.1421
 9200SOL    HW239060   3.763   3.089   1.938 -1.4757 -0.2923 -1.1030
 9201SOL     OW39061   1.096   3.301   0.827  0.0482  0.4284 -0.2533
 9201SOL    HW139062   1.003   3.281   0.834  0.3413 -0.1010  1.9527
 9201SOL    HW239063   1.126   3.270   0.912 -0.2645 -1.6757 -0.9192
 9202SOL     OW39064   0.571   4.082  17.182  0.6275  0.1789 -0.1691
 9202SOL    HW139065   0.519   4.078  17.263 -0.0362  0.6294 -0.5736
 9202SOL    HW239066   0.563   4.177  17.169 -2.6138  0.1847  1.9016
 9203SOL     OW39067   3.431   2.608   0.850  0.6932  0.2117 -0.4682
 9203SOL    HW139068   3.363   2.602   0.917  1.7592 -0.8138  0.5154
 9203SOL    HW239069   3.409   2.691   0.808 -0.1010 -0.7004 -1.8614
 9204SOL     OW39070   2.826   0.725   3.441 -0.0456 -0.4059  0.8567
 9204SOL    HW139071   2.758   0.793   3.439  1.5963  1.2505  1.7438
 9204SOL    HW239072   2.842   0.710   3.534  1.5888 -2.2183  0.2629
 9205SOL     OW39073   1.632   3.845   8.846 -0.2371  0.4909 -0.3824
 9205SOL    HW139074   1.613   3.762   8.801  0.8521 -0.9987  1.8782
 9205SOL    HW239075   1.558   3.892   8.809 -0.6190 -0.0140 -0.2676
 9206SOL     OW39076   2.874   0.187   6.900 -0.6973  0.0780 -0.0684
 9206SOL    HW139077   2.833   0.271   6.879 -1.0655 -0.1624 -0.3243
 9206SOL    HW239078   2.821   0.162   6.976 -0.0207  0.1244  0.4207
 9207SOL     OW39079   1.851   1.928   4.068 -0.0894 -0.1065  0.4688
 9207SOL    HW139080   1.814   1.973   3.991  0.5773  0.1159  0.2744
 9207SOL    HW239081   1.880   1.996   4.128  2.4635 -1.5475  0.8785
 9208SOL     OW39082   4.334   3.415   2.971 -0.0902 -0.3228 -0.0607
 9208SOL    HW139083   4.346   3.445   3.061  1.5013 -0.6402 -0.1715
 9208SOL    HW239084   4.415   3.373   2.943  0.2583  0.8910 -0.8931
 9209SOL     OW39085   2.132   4.694   3.144  0.1498  0.0082 -0.2834
 9209SOL    HW139086   2.133   4.657   3.233  0.4994  0.4488 -0.1037
 9209SOL    HW239087   2.132   0.061   3.180  0.9932  0.6671 -1.8975
 9210SOL     OW39088   2.029   1.577  10.940  0.2464 -0.1117 -0.3727
 9210SOL    HW139089   1.985   1.536  11.014  1.3015 -1.3822 -0.4557
 9210SOL    HW239090   1.980   1.540  10.866  0.2388 -1.3024  0.2340
 9211SOL     OW39091   2.794   4.155   0.849  0.2090 -0.0911 -0.3372
 9211SOL    HW139092   2.817   4.202   0.930  1.9690 -0.5116 -0.5991
 9211SOL    HW239093   2.754   4.230   0.804  0.0953 -0.5036 -0.9089
 9212SOL     OW39094   2.432   2.882   0.727 -0.2315 -0.4489 -0.2292
 9212SOL    HW139095   2.416   2.970   0.760  2.1569 -0.1978  0.2770
 9212SOL    HW239096   2.525   2.882   0.702  0.0393  0.2044  0.8162
 9213SOL     OW39097   2.047   2.312   6.448 -0.3530 -0.2350  0.2025
 9213SOL    HW139098   2.038   2.404   6.473 -1.3506 -0.3331  0.2277
 9213SOL    HW239099   1.974   2.303   6.386  0.3162  2.8705 -1.0606
 9214SOL     OW39100   0.444   2.381   8.424  0.0355  0.1420  0.3026
 9214SOL    HW139101   0.488   2.365   8.507  0.5682  0.0718  0.0095
 9214SOL    HW239102   0.412   2.469   8.440  1.1164  0.9547 -1.9774
 9215SOL     OW39103   2.378   2.546   6.823 -0.1786  0.5649 -0.2519
 9215SOL    HW139104   2.302   2.492   6.844 -0.1661  0.4664 -0.4637
 9215SOL    HW239105   2.353   2.569   6.734 -3.2383 -0.2478  0.3817
 9216SOL     OW39106   4.499   2.145   9.231 -0.1534 -0.1903 -0.2391
 9216SOL    HW139107   4.486   2.051   9.246  0.4582 -0.4119 -1.0479
 9216SOL    HW239108   4.472   2.150   9.139  1.1734  0.0841 -0.6215
 9217SOL     OW39109   1.976   0.167   7.144  0.0026  0.0402  0.1848
 9217SOL    HW139110   1.896   0.197   7.100 -0.1458  2.9373  2.4387
 9217SOL    HW239111   1.944   0.156   7.234 -2.4678  1.3308 -0.5389
 9218SOL     OW39112   4.566   1.580   3.461 -0.0485  0.4251  0.3151
 9218SOL    HW139113   4.556   1.485   3.456  0.8370  0.4910 -2.5693
 9218SOL    HW239114   4.548   1.610   3.372 -2.0207  1.3706  1.0302
 9219SOL     OW39115   3.800   1.676   1.738 -0.0568 -0.3049  0.3002
 9219SOL    HW139116   3.859   1.634   1.674 -0.8238  0.8003 -1.1277
 9219SOL    HW239117   3.738   1.605   1.753  0.3958 -0.8445 -0.3388
 9220SOL     OW39118   0.324   2.744   6.421  0.0383 -0.3561 -0.1024
 9220SOL    HW139119   0.336   2.836   6.397 -0.2761 -0.1740  0.4400
 9220SOL    HW239120   0.236   2.754   6.456 -0.0626 -0.6168 -0.2829
 9221SOL     OW39121   3.361   1.160  12.374  0.1838 -0.3161  1.1546
 9221SOL    HW139122   3.280   1.162  12.323  0.2338 -0.5073  1.0691
 9221SOL    HW239123   3.322   1.128  12.456 -1.2822  1.1020  1.0223
 9222SOL     OW39124   0.001   1.623   7.414 -0.3441  0.7622 -0.4359
 9222SOL    HW139125   0.041   1.627   7.501 -0.4827 -1.7431 -0.2663
 9222SOL    HW239126   4.640   1.593   7.449  1.1595 -0.8826  1.6799
 9223SOL     OW39127   3.190   4.077   8.291 -0.0157 -0.6867  0.1469
 9223SOL    HW139128   3.161   4.166   8.275 -1.0730 -1.1219 -0.3930
 9223SOL    HW239129   3.116   4.041   8.340 -1.1295  0.8920 -0.3883
 9224SOL     OW39130   1.704   3.774   4.575 -0.2484  0.2648  0.0563
 9224SOL    HW139131   1.742   3.858   4.547 -1.0941  0.1557 -1.4411
 9224SOL    HW239132   1.680   3.740   4.489  1.6026 -1.7528  0.3387
 9225SOL     OW39133   3.087   1.880  15.858  0.3427 -0.2940 -0.0934
 9225SOL    HW139134   3.109   1.959  15.906 -2.0902  0.4766 -0.2548
 9225SOL    HW239135   3.078   1.815  15.927  3.5722 -0.0371  0.5488
 9226SOL     OW39136   1.040   0.494   5.697  0.2731  0.8164 -0.1771
 9226SOL    HW139137   1.052   0.400   5.713  0.3965  0.6773 -1.0574
 9226SOL    HW239138   1.111   0.519   5.756 -0.9543 -0.1186  1.6673
 9227SOL     OW39139   1.262   4.335   7.380 -0.1204 -0.2035 -0.4843
 9227SOL    HW139140   1.282   4.282   7.457 -1.0785 -2.6202 -1.9252
 9227SOL    HW239141   1.167   4.335   7.383 -0.1101 -5.3903 -1.5546
 9228SOL     OW39142   4.473   3.463   7.519 -0.5192  0.1663 -0.3982
 9228SOL    HW139143   4.423   3.544   7.532 -3.3275 -1.2252 -2.5165
 9228SOL    HW239144   4.559   3.503   7.527 -0.7930  0.6671  0.0487
 9229SOL     OW39145   4.538   0.308  15.855  0.2858  0.4554  0.1565
 9229SOL    HW139146   4.499   0.312  15.768  0.6198 -1.2879 -0.0703
 9229SOL    HW239147   4.465   0.263  15.896 -0.7091  2.1876  0.3082
 9230SOL     OW39148   2.100   3.304  11.656  0.0862  0.2438 -0.0662
 9230SOL    HW139149   2.172   3.242  11.666 -0.2189  0.2326  1.9617
 9230SOL    HW239150   2.161   3.377  11.648 -2.2226  1.9304 -2.3266
 9231SOL     OW39151   3.951   1.636  13.381  0.4928  0.6442 -0.0014
 9231SOL    HW139152   4.026   1.577  13.386 -1.1050 -1.2517  1.7467
 9231SOL    HW239153   3.994   1.720  13.395  1.3378  0.1342  0.4534
 9232SOL     OW39154   3.355   1.151  13.684 -0.1215 -0.1511 -0.0255
 9232SOL    HW139155   3.336   1.241  13.656 -2.2306 -1.1013 -1.6255
 9232SOL    HW239156   3.265   1.137  13.714 -0.9335  3.0914 -0.8598
 9233SOL     OW39157   3.663   4.589  11.047 -0.3402 -0.9240 -0.3298
 9233SOL    HW139158   3.572   4.569  11.066 -0.6168 -1.4558 -2.2061
 9233SOL    HW239159   3.697   4.500  11.037 -1.8869 -1.3517 -1.8250
 9234SOL     OW39160   1.065   2.938   5.572  0.0511  0.0112 -0.3103
 9234SOL    HW139161   1.027   2.852   5.590 -2.8715  1.6825  1.5282
 9234SOL    HW239162   1.042   2.987   5.650  1.8411  0.0505  0.1962
 9235SOL     OW39163   3.341   3.602  10.713 -0.3408  0.0707  0.3058
 9235SOL    HW139164   3.430   3.635  10.724  0.4051 -1.8146 -0.0849
 9235SOL    HW239165   3.288   3.681  10.702 -0.1523  0.3989  1.8183
 9236SOL     OW39166   1.378   0.195   5.754  1.1835  0.1792 -0.0910
 9236SOL    HW139167   1.442   0.138   5.797  0.1943 -0.2023  0.8589
 9236SOL    HW239168   1.419   0.198   5.667  2.2815 -0.8506  0.4003
 9237SOL     OW39169   3.513   4.586  13.894 -0.8646 -0.4634 -0.0700
 9237SOL    HW139170   3.568   4.599  13.972 -1.0227  0.8651 -0.1839
 9237SOL    HW239171   3.558   4.510  13.857  1.2734 -0.1637  1.8891
 9238SOL     OW39172   0.384   0.418   4.756 -0.2162 -0.5244  0.3282
 9238SOL    HW139173   0.351   0.420   4.846  0.3114 -0.9341  0.5286
 9238SOL    HW239174   0.404   0.507   4.727 -0.2302 -1.8091 -3.5972
 9239SOL     OW39175   1.284   2.266   3.294 -0.5878  0.2437  0.2015
 9239SOL    HW139176   1.229   2.320   3.350  1.2194 -0.0368  2.2472
 9239SOL    HW239177   1.239   2.182   3.292  1.0767 -0.6258 -1.0363
 9240SOL     OW39178   4.420   2.283  13.513  0.3014  1.0210  0.7173
 9240SOL    HW139179   4.383   2.269  13.427 -1.0252  3.3022  0.9174
 9240SOL    HW239180   4.424   2.191  13.537 -1.3249  0.9886  0.8524
 9241SOL     OW39181   2.703   3.318   2.419 -0.4214  0.5538  0.0367
 9241SOL    HW139182   2.754   3.394   2.447 -0.1540  0.0691  0.8667
 9241SOL    HW239183   2.657   3.302   2.501  0.6941  0.8698  0.7222
 9242SOL     OW39184   1.707   3.980   1.825  0.0620  0.5384  0.1208
 9242SOL    HW139185   1.672   3.935   1.748 -1.4778 -2.5664  2.6268
 9242SOL    HW239186   1.637   3.972   1.891  1.0520  1.9194  1.3266
 9243SOL     OW39187   3.429   4.027  14.175  0.2794  0.1873 -0.4456
 9243SOL    HW139188   3.402   4.081  14.100  2.2979  0.9591 -0.6064
 9243SOL    HW239189   3.398   3.940  14.151  0.8540 -0.1320 -0.0092
 9244SOL     OW39190   1.012   3.283   2.703  0.5391  0.1891 -0.5315
 9244SOL    HW139191   1.074   3.257   2.635 -0.6888 -0.4584 -1.4292
 9244SOL    HW239192   1.054   3.249   2.781 -0.7824 -1.5542 -0.5610
 9245SOL     OW39193   2.298   2.147   3.928  0.0014 -0.0118 -0.0180
 9245SOL    HW139194   2.272   2.168   4.018  0.5132  0.4499  0.0190
 9245SOL    HW239195   2.296   2.231   3.882  0.5930  1.1776  2.1152
 9246SOL     OW39196   4.045   2.370   4.778 -0.3257  0.6699  0.1177
 9246SOL    HW139197   4.019   2.337   4.864 -0.5422  2.1064  0.6079
 9246SOL    HW239198   3.958   2.401   4.750 -0.4892 -0.4944 -0.7017
 9247SOL     OW39199   4.597   4.333   3.858 -0.0541  0.8313  0.2233
 9247SOL    HW139200   4.603   4.246   3.896 -0.7434  0.8508  0.3773
 9247SOL    HW239201   4.684   4.371   3.875 -0.0766  1.1321 -0.3181
 9248SOL     OW39202   3.355   4.503   8.639 -0.0691  0.4592 -0.3349
 9248SOL    HW139203   3.284   4.453   8.597  0.6421 -0.1271 -0.8363
 9248SOL    HW239204   3.313   4.584   8.669  0.8591  0.0541  2.0504
 9249SOL     OW39205   4.000   0.982   5.875 -0.6631 -0.1085  0.4758
 9249SOL    HW139206   4.084   0.967   5.833 -0.8627 -1.1513  0.4525
 9249SOL    HW239207   3.992   1.068   5.834  0.5149  0.6119  1.7301
 9250SOL     OW39208   2.121   3.276   7.098  0.6039 -0.5858  0.3134
 9250SOL    HW139209   2.106   3.237   7.185  1.7303  1.7635  1.5599
 9250SOL    HW239210   2.213   3.250   7.090  0.9072  0.8675 -0.8772
 9251SOL     OW39211   3.210   3.637   8.105  0.0519 -0.1067  0.0424
 9251SOL    HW139212   3.226   3.553   8.148  1.7307  0.4535  0.5034
 9251SOL    HW239213   3.293   3.682   8.118 -0.6714  0.3221  3.1788
 9252SOL     OW39214   0.815   3.694   8.737  0.1554 -0.1279  0.0189
 9252SOL    HW139215   0.730   3.665   8.770  0.3134 -1.7549 -0.9784
 9252SOL    HW239216   0.838   3.770   8.790  0.3028 -0.8111  0.9522
 9253SOL     OW39217   2.842   4.715   0.001 -0.1889 -0.1866  0.7664
 9253SOL    HW139218   2.862   0.082   0.028 -0.1517  0.4875 -1.5591
 9253SOL    HW239219   2.903   4.699  17.621 -0.7999  0.4363  0.1085
 9254SOL     OW39220   3.634   4.350   6.961 -0.2673  0.0581  0.1945
 9254SOL    HW139221   3.638   4.432   6.913  0.4518 -0.2759 -0.3269
 9254SOL    HW239222   3.649   4.292   6.886  0.7307 -0.5851  0.8863
 9255SOL     OW39223   2.652   1.155   6.568  0.5869 -0.2628  0.1854
 9255SOL    HW139224   2.709   1.200   6.505  1.2791 -2.2387 -0.6119
 9255SOL    HW239225   2.602   1.106   6.502  0.1447 -0.2588  0.5180
 9256SOL     OW39226   3.462   4.243  11.433  0.1277 -0.4063 -0.0823
 9256SOL    HW139227   3.479   4.336  11.449 -1.4597 -0.4625  1.8293
 9256SOL    HW239228   3.420   4.225  11.516 -1.7952  0.4403 -0.8739
 9257SOL     OW39229   2.319   2.438   7.179 -0.2727  0.0574 -0.3434
 9257SOL    HW139230   2.312   2.385   7.100 -0.3726  0.0907 -0.3562
 9257SOL    HW239231   2.394   2.496   7.165  0.0206 -0.2349  0.0024
 9258SOL     OW39232   4.485   4.585   8.695  0.0873  0.4023  0.7609
 9258SOL    HW139233   4.414   4.537   8.737  0.4037 -1.8480 -1.2593
 9258SOL    HW239234   4.438   4.619   8.619 -0.4956  1.7136  1.7101
 9259SOL     OW39235   3.367   1.246  11.188 -0.2654  0.7041  0.7488
 9259SOL    HW139236   3.291   1.223  11.241  0.2986 -2.9717 -0.0119
 9259SOL    HW239237   3.390   1.332  11.222 -0.1290  0.8481  0.2990
 9260SOL     OW39238   4.022   2.153  15.267  0.8074  0.0582  0.0571
 9260SOL    HW139239   4.032   2.062  15.240 -0.3395 -0.3410  0.9557
 9260SOL    HW239240   3.930   2.149  15.294  0.6995  1.1851 -0.1463
 9261SOL     OW39241   3.706   3.764   2.367 -0.7560  0.3911 -0.1602
 9261SOL    HW139242   3.768   3.834   2.346  0.5862 -0.1407  2.0851
 9261SOL    HW239243   3.633   3.805   2.412  0.0681  1.9398 -0.2443
 9262SOL     OW39244   2.878   0.608  12.291 -0.3363 -0.0433 -0.1784
 9262SOL    HW139245   2.931   0.614  12.370 -1.0855  0.0142  0.3201
 9262SOL    HW239246   2.935   0.654  12.229 -0.1269  1.2983  1.0256
 9263SOL     OW39247   4.487   4.444   8.337  0.4149 -0.1546  0.4798
 9263SOL    HW139248   4.578   4.466   8.321  0.2538 -0.0612 -0.3115
 9263SOL    HW239249   4.470   4.382   8.265  1.0197  0.9058 -0.5721
 9264SOL     OW39250   0.103   3.761   3.306  0.1214 -0.0961 -0.0479
 9264SOL    HW139251   0.066   3.679   3.272  1.1774 -1.4184  2.0301
 9264SOL    HW239252   0.047   3.817   3.252 -2.2249 -1.9658  0.4144
 9265SOL     OW39253   1.540   4.587   2.896 -0.5870  0.0008 -0.5241
 9265SOL    HW139254   1.612   4.610   2.837 -1.6504  2.1738 -0.9677
 9265SOL    HW239255   1.569   4.503   2.932  0.5305  0.9730  0.8822
 9266SOL     OW39256   2.776   4.121   4.848 -0.2755  0.0872  0.3268
 9266SOL    HW139257   2.766   4.216   4.857  0.1315  0.3434 -2.0185
 9266SOL    HW239258   2.731   4.096   4.929 -0.3667 -0.5365  0.0820
 9267SOL     OW39259   0.746   0.598   2.659 -0.3225  0.0472  0.7303
 9267SOL    HW139260   0.739   0.630   2.749  1.1241  0.2342  0.7867
 9267SOL    HW239261   0.835   0.563   2.653 -1.7478 -4.0624  3.5357
 9268SOL     OW39262   2.434   1.630   7.282  0.5610  0.3211  0.0682
 9268SOL    HW139263   2.343   1.603   7.289  0.2187  0.9821 -1.6672
 9268SOL    HW239264   2.468   1.540   7.280 -2.2488 -0.7603  1.9422
 9269SOL     OW39265   2.280   1.684   5.889 -0.7703 -0.3372  0.3446
 9269SOL    HW139266   2.297   1.627   5.813  0.5910 -0.2796  0.5956
 9269SOL    HW239267   2.366   1.723   5.907 -1.1648 -0.1157  1.7735
 9270SOL     OW39268   3.627   3.575  15.254  0.2089 -0.0388  0.8349
 9270SOL    HW139269   3.684   3.590  15.178 -0.2101 -2.3305  0.0801
 9270SOL    HW239270   3.569   3.651  15.256 -0.5918 -0.6386  0.2842
 9271SOL     OW39271   4.159   4.282   2.210 -0.3922 -0.0772 -0.5558
 9271SOL    HW139272   4.075   4.256   2.248 -0.2126 -1.6525 -1.2205
 9271SOL    HW239273   4.142   4.376   2.207 -0.8926 -0.1247  0.5802
 9272SOL     OW39274   2.710   1.868  16.157  0.6333  0.6754 -0.0246
 9272SOL    HW139275   2.617   1.879  16.135  0.6819 -0.9638 -1.0338
 9272SOL    HW239276   2.714   1.792  16.215  0.2288  0.5941 -0.1008
 9273SOL     OW39277   3.674   3.890  14.080 -0.1836 -0.5132 -0.1730
 9273SOL    HW139278   3.732   3.964  14.098 -0.4603 -0.8973  2.3111
 9273SOL    HW239279   3.628   3.922  14.003  0.5336 -0.6839 -0.6765
 9274SOL     OW39280   2.887   2.563   8.350  0.5645  0.1758  0.3187
 9274SOL    HW139281   2.851   2.510   8.278  0.4652  0.1607  0.3799
 9274SOL    HW239282   2.961   2.592   8.296 -1.2776 -0.1275 -2.3697
 9275SOL     OW39283   4.329   1.133   8.308  0.3440  0.1899 -0.0100
 9275SOL    HW139284   4.360   1.042   8.310 -0.4942 -0.1590 -2.9321
 9275SOL    HW239285   4.273   1.121   8.232  2.2924  1.0188 -1.5829
 9276SOL     OW39286   2.217   1.427   7.241 -0.2224  0.4320 -0.1985
 9276SOL    HW139287   2.146   1.365   7.256  0.8794 -1.3425 -2.3498
 9276SOL    HW239288   2.164   1.505   7.223 -0.7114  0.1469 -0.0172
 9277SOL     OW39289   3.836   0.690  11.624 -0.0695 -0.0311 -0.3709
 9277SOL    HW139290   3.751   0.721  11.654  1.4882  1.0423  3.0037
 9277SOL    HW239291   3.817   0.664  11.534 -1.3506 -0.3782  0.0126
 9278SOL     OW39292   2.751   2.692   1.122 -0.3082  0.5385 -0.4980
 9278SOL    HW139293   2.813   2.701   1.195  0.9913  0.9923 -1.6682
 9278SOL    HW239294   2.808   2.728   1.054 -1.6763 -0.7131 -2.3080
 9279SOL     OW39295   0.584   4.521   4.246  0.2332  0.4653 -0.4959
 9279SOL    HW139296   0.604   4.582   4.318 -1.4649 -0.3214  0.6280
 9279SOL    HW239297   0.552   4.586   4.183  0.0135  0.3131 -0.5383
 9280SOL     OW39298   2.514   4.098   3.792 -0.1240 -0.0645  0.2064
 9280SOL    HW139299   2.583   4.153   3.829 -1.5518  1.1186  1.1288
 9280SOL    HW239300   2.557   4.069   3.712  1.4072  0.8187  0.6999
 9281SOL     OW39301   1.630   1.731  15.166 -0.1264  0.8620  0.2170
 9281SOL    HW139302   1.699   1.665  15.152 -0.1815  1.3427 -2.3730
 9281SOL    HW239303   1.659   1.756  15.254 -0.8342  0.6844  0.4926
 9282SOL     OW39304   2.146   0.661   5.812  0.0416  0.0401 -0.1269
 9282SOL    HW139305   2.073   0.599   5.811  0.1400 -0.0748 -0.2061
 9282SOL    HW239306   2.214   0.605   5.774  0.6489  1.0811 -0.5792
 9283SOL     OW39307   0.264   2.303   1.547 -0.0750  0.1235  0.5176
 9283SOL    HW139308   0.287   2.384   1.594  0.5412 -0.5020  1.2873
 9283SOL    HW239309   0.249   2.242   1.619 -2.5013 -1.8249 -1.6353
 9284SOL     OW39310   3.134   1.469  12.115  0.0324 -0.6825 -0.5147
 9284SOL    HW139311   3.045   1.481  12.082 -0.3558  2.3763  1.6806
 9284SOL    HW239312   3.154   1.558  12.143  2.0507 -1.6661  1.1488
 9285SOL     OW39313   0.766   2.037  16.835 -0.0979  0.1253  0.2146
 9285SOL    HW139314   0.800   1.956  16.796 -0.5948  0.4758 -0.9651
 9285SOL    HW239315   0.745   2.070  16.747  0.0737  0.8514  0.4485
 9286SOL     OW39316   4.638   3.914   4.584 -0.3554  0.0686 -0.3134
 9286SOL    HW139317   4.602   3.836   4.625 -0.1469  0.3839  0.4695
 9286SOL    HW239318   0.006   3.916   4.617 -0.9842  0.8282  1.3646
 9287SOL     OW39319   3.821   3.434   5.898 -0.1284  0.0200  0.5166
 9287SOL    HW139320   3.839   3.361   5.958 -0.2570 -1.6176 -1.4220
 9287SOL    HW239321   3.800   3.386   5.817 -1.0488  0.8719  0.2597
 9288SOL     OW39322   1.896   3.186   9.447 -0.1570 -0.5934  0.3569
 9288SOL    HW139323   1.831   3.156   9.383 -0.2170  1.9826 -0.7713
 9288SOL    HW239324   1.832   3.223   9.508 -0.6948  0.9419 -1.1278
 9289SOL     OW39325   1.614   0.208   1.850  0.1794  0.3681  0.3629
 9289SOL    HW139326   1.649   0.139   1.906  2.6511  1.1092 -0.2933
 9289SOL    HW239327   1.520   0.196   1.862 -0.1089  0.4812 -1.7496
 9290SOL     OW39328   3.496   2.001  11.914 -0.1192  0.0154  0.2859
 9290SOL    HW139329   3.574   2.055  11.926  1.4312 -2.0314 -0.4667
 9290SOL    HW239330   3.487   2.005  11.819 -1.2204  0.3248  0.4058
 9291SOL     OW39331   1.427   3.039   6.067  0.0014 -0.4050 -0.5453
 9291SOL    HW139332   1.481   2.960   6.071 -0.1565 -0.5446 -1.1547
 9291SOL    HW239333   1.430   3.056   6.161 -1.5658 -0.6109 -0.4468
 9292SOL     OW39334   2.239   1.573  13.809 -0.3173 -0.5317  0.1991
 9292SOL    HW139335   2.153   1.573  13.850 -0.1727  0.3865  0.4844
 9292SOL    HW239336   2.285   1.634  13.865  1.2079 -2.0678  0.6286
 9293SOL     OW39337   3.617   2.666   6.469  0.1517 -0.4619 -0.0813
 9293SOL    HW139338   3.543   2.657   6.529 -0.9258 -0.0831 -1.3573
 9293SOL    HW239339   3.630   2.574   6.443 -1.7439 -1.2189  1.6300
 9294SOL     OW39340   2.204   0.256   9.585 -0.1833 -0.3518 -0.0615
 9294SOL    HW139341   2.228   0.171   9.622 -0.9585 -0.0891  1.0312
 9294SOL    HW239342   2.171   0.308   9.658  0.1653 -0.7935  0.4053
 9295SOL     OW39343   3.137   4.223   0.636  0.2411 -0.2485  0.1214
 9295SOL    HW139344   3.059   4.250   0.586 -0.6742 -2.4893  0.3412
 9295SOL    HW239345   3.108   4.225   0.727 -0.0167  0.9372  0.0151
 9296SOL     OW39346   1.919   4.680   2.612 -0.2906 -0.1299  0.2610
 9296SOL    HW139347   1.940   0.043   2.576  1.6393 -0.7863 -0.2076
 9296SOL    HW239348   1.975   4.676   2.690 -1.8084 -2.2086  1.2685
 9297SOL     OW39349   0.340   4.356   5.616 -0.5100 -0.0162  0.1635
 9297SOL    HW139350   0.249   4.327   5.620 -0.7874  0.8483  0.1531
 9297SOL    HW239351   0.359   4.321   5.529 -2.4894 -1.6065  0.3796
 9298SOL     OW39352   1.903   0.836   8.751  0.1821  0.4379  0.8402
 9298SOL    HW139353   1.985   0.879   8.777  0.6075 -0.3807  0.8281
 9298SOL    HW239354   1.913   0.743   8.770  2.0086  0.1171 -1.5240
 9299SOL     OW39355   1.699   2.210   4.989  0.3058 -1.3445  0.0560
 9299SOL    HW139356   1.772   2.247   4.939  0.5522  0.3890  1.7174
 9299SOL    HW239357   1.755   2.172   5.057 -1.3065 -2.9544  0.4804
 9300SOL     OW39358   0.673   2.528   2.886  0.0419 -0.3097  0.0464
 9300SOL    HW139359   0.709   2.440   2.880  0.6762 -0.0219 -0.3223
 9300SOL    HW239360   0.637   2.536   2.797 -0.1778 -0.1891  0.1469
 9301SOL     OW39361   0.929   3.454   3.896 -0.2156 -0.7307 -0.0129
 9301SOL    HW139362   0.921   3.410   3.981  1.3357  0.0038  0.5275
 9301SOL    HW239363   0.849   3.423   3.856 -0.0922 -0.6683 -0.3040
 9302SOL     OW39364   1.791   4.663   6.085  0.6575  0.0138  0.3422
 9302SOL    HW139365   1.886   4.657   6.091  0.5859 -1.1637  0.3971
 9302SOL    HW239366   1.767   4.585   6.135  0.8854 -1.5632 -2.0206
 9303SOL     OW39367   0.213   3.063   5.961  0.3144 -0.3549  0.0189
 9303SOL    HW139368   0.211   2.972   5.932  1.5042 -1.1987  2.5723
 9303SOL    HW239369   0.286   3.065   6.023  0.7446 -0.5869 -0.4785
 9304SOL     OW39370   1.599   3.974   6.187  0.0076 -0.0629 -0.0912
 9304SOL    HW139371   1.631   4.041   6.248  2.0250 -0.1360 -1.0663
 9304SOL    HW239372   1.589   4.021   6.104 -0.8963  0.7610  0.4788
 9305SOL     OW39373   2.818   1.605  14.968 -0.1419  0.2266 -0.1639
 9305SOL    HW139374   2.823   1.652  15.051 -2.1317  0.6887 -0.3068
 9305SOL    HW239375   2.822   1.517  15.006 -1.4252  0.5231  0.6382
 9306SOL     OW39376   0.742   4.447   8.595  0.2813 -0.0044 -0.3907
 9306SOL    HW139377   0.725   4.410   8.507 -1.1120  1.1114 -0.5888
 9306SOL    HW239378   0.750   4.371   8.653 -1.4325 -1.2767 -1.7685
 9307SOL     OW39379   2.378   2.180  12.593 -0.7421  0.1892  0.0934
 9307SOL    HW139380   2.323   2.221  12.660 -0.2846 -2.4816  2.1136
 9307SOL    HW239381   2.465   2.194  12.630 -0.4818 -1.1332 -0.0100
 9308SOL     OW39382   2.571   4.096   2.293 -0.0381  0.1634  0.2504
 9308SOL    HW139383   2.567   4.037   2.368  3.4971  0.2040  0.4721
 9308SOL    HW239384   2.663   4.090   2.267  0.0619 -1.2976  0.9576
 9309SOL     OW39385   2.320   4.294   8.503  0.5502 -0.4378 -0.0060
 9309SOL    HW139386   2.280   4.318   8.587 -0.6015 -1.2732 -0.3062
 9309SOL    HW239387   2.312   4.199   8.507  1.5491 -0.5186 -0.0446
 9310SOL     OW39388   1.051   3.270   7.053  0.1794 -0.0199 -0.2963
 9310SOL    HW139389   1.087   3.192   7.010 -0.5447 -0.6757  0.2917
 9310SOL    HW239390   0.966   3.280   7.010 -0.2759 -1.1599  0.3512
 9311SOL     OW39391   0.873   0.810  12.400  0.3275 -0.4321 -0.7158
 9311SOL    HW139392   0.819   0.849  12.470  0.3777 -0.7891 -0.4805
 9311SOL    HW239393   0.958   0.854  12.410  0.2958 -0.3619 -0.7547
 9312SOL     OW39394   2.273   3.883   6.789 -0.1639  0.0988 -0.1352
 9312SOL    HW139395   2.286   3.918   6.877 -3.0681 -3.7767  1.8326
 9312SOL    HW239396   2.213   3.812   6.811  0.9706 -0.7537  0.1948
 9313SOL     OW39397   1.529   3.567   4.972  0.2127 -0.3656  0.4823
 9313SOL    HW139398   1.578   3.630   5.025 -1.2702  1.4377 -0.3133
 9313SOL    HW239399   1.442   3.557   5.010  0.5001 -0.3745  1.1446
 9314SOL     OW39400   3.517   0.494  15.069  0.0623  0.6190  0.0899
 9314SOL    HW139401   3.492   0.574  15.115  2.5062  0.6103  1.3958
 9314SOL    HW239402   3.568   0.450  15.137 -0.9512 -1.2486 -0.3700
 9315SOL     OW39403   4.179   0.292  11.505  0.0933  0.2275 -0.0111
 9315SOL    HW139404   4.119   0.360  11.535  0.4810  1.2828 -1.5802
 9315SOL    HW239405   4.192   0.322  11.414 -0.2619 -0.1936 -0.1967
 9316SOL     OW39406   2.428   2.063  15.553 -0.4635  0.2465  0.6005
 9316SOL    HW139407   2.339   2.032  15.536 -0.4376  1.1458 -1.2126
 9316SOL    HW239408   2.442   2.039  15.645 -0.9727 -0.4382  0.5015
 9317SOL     OW39409   2.132   2.897   1.326  0.4447 -0.1600  0.2163
 9317SOL    HW139410   2.128   2.949   1.246  3.1313  0.1170  0.2643
 9317SOL    HW239411   2.152   2.965   1.391  0.7688  0.4817 -0.5616
 9318SOL     OW39412   2.105   0.306  12.751 -0.1443 -0.5615 -0.2226
 9318SOL    HW139413   2.030   0.315  12.692 -2.5854 -0.8577  2.7940
 9318SOL    HW239414   2.137   0.395  12.766  1.9259 -0.9773 -2.1311
 9319SOL     OW39415   0.487   0.381   3.536 -0.7344  0.6430  0.3070
 9319SOL    HW139416   0.413   0.442   3.544 -0.9456  0.5299 -0.7423
 9319SOL    HW239417   0.567   0.434   3.540 -1.7046  2.1061  0.5505
 9320SOL     OW39418   2.298   2.880  16.861 -0.2863  1.1258 -0.4893
 9320SOL    HW139419   2.270   2.876  16.952 -1.5320 -0.2287 -0.9351
 9320SOL    HW239420   2.363   2.950  16.862  1.1108 -0.1765  0.0380
 9321SOL     OW39421   4.068   1.275   1.552  0.0763 -0.2670 -0.0645
 9321SOL    HW139422   4.012   1.203   1.580 -1.6703  2.2363  2.8805
 9321SOL    HW239423   4.150   1.227   1.537  1.2947  1.2592  1.6075
 9322SOL     OW39424   3.376   3.100   2.443  0.6160 -0.1535  0.2192
 9322SOL    HW139425   3.329   3.176   2.408 -1.4828 -2.4526 -1.9372
 9322SOL    HW239426   3.352   3.081   2.534  2.1433 -0.8213  0.4844
 9323SOL     OW39427   1.584   3.429  12.990 -0.1194  0.6943  0.1846
 9323SOL    HW139428   1.606   3.355  12.933  0.9671  2.0545 -1.1715
 9323SOL    HW239429   1.586   3.396  13.080 -0.8529 -0.3187 -0.1670
 9324SOL     OW39430   1.745   4.210  15.342 -0.9886  0.0683  0.2256
 9324SOL    HW139431   1.766   4.237  15.431 -1.6212  1.0216  0.0868
 9324SOL    HW239432   1.650   4.216  15.333 -1.1516  0.6470  2.5348
 9325SOL     OW39433   3.009   1.957   8.714  0.4274  0.0245 -0.2781
 9325SOL    HW139434   3.012   2.049   8.741 -1.5392  0.3440 -1.1587
 9325SOL    HW239435   3.086   1.920   8.757 -1.0890 -1.8844  0.7569
 9326SOL     OW39436   3.641   1.756  12.641 -0.8982  0.0399 -0.0800
 9326SOL    HW139437   3.677   1.668  12.650 -3.2535 -0.8580  0.5278
 9326SOL    HW239438   3.721   1.807  12.624  1.6580 -3.0290  2.7221
 9327SOL     OW39439   1.416   1.777   8.708 -0.4981 -0.1303  0.0231
 9327SOL    HW139440   1.394   1.691   8.743  3.0029 -0.7101  0.8513
 9327SOL    HW239441   1.427   1.827   8.789 -2.6183 -1.0541  0.8720
 9328SOL     OW39442   0.783   0.054  12.642  0.1578 -0.6469  0.2589
 9328SOL    HW139443   0.723   0.095  12.579  0.2792 -0.1176  0.4823
 9328SOL    HW239444   0.736   0.056  12.726 -0.8724 -0.9046 -0.3193
 9329SOL     OW39445   2.740   1.167  15.201 -0.1894  0.1078  0.1759
 9329SOL    HW139446   2.693   1.129  15.275  0.6158 -0.1865  0.5338
 9329SOL    HW239447   2.798   1.099  15.169 -1.7025 -0.1272 -2.0896
 9330SOL     OW39448   1.661   2.567   5.458 -0.2667  0.3974 -0.0699
 9330SOL    HW139449   1.711   2.600   5.383  1.4504  2.2173  1.8704
 9330SOL    HW239450   1.674   2.473   5.448  0.0598  0.6971 -2.3875
 9331SOL     OW39451   0.581   3.972  15.271 -0.0126 -0.0046 -0.6468
 9331SOL    HW139452   0.603   4.066  15.266 -2.1904  0.3989 -2.7583
 9331SOL    HW239453   0.568   3.956  15.177  1.1284  0.1882 -0.8455
 9332SOL     OW39454   0.786   4.682   9.342  0.6140 -1.0645  0.2937
 9332SOL    HW139455   0.875   4.690   9.307  0.6168  0.5486  0.6840
 9332SOL    HW239456   0.788   4.589   9.365  0.0487 -0.9382  0.8617
 9333SOL     OW39457   4.112   1.297  13.652  0.0631 -0.1063 -0.7995
 9333SOL    HW139458   4.200   1.261  13.652 -0.2912 -0.9898  0.9788
 9333SOL    HW239459   4.144   1.388  13.658 -3.1777  1.0409 -0.8870
 9334SOL     OW39460   1.393   1.791   7.786 -0.5392  0.9535  0.4086
 9334SOL    HW139461   1.446   1.737   7.846 -0.7704 -0.0605 -0.3138
 9334SOL    HW239462   1.412   1.876   7.825 -0.4602  0.8028  0.7039
 9335SOL     OW39463   1.255   2.159   6.162  0.0641  0.1084 -0.1859
 9335SOL    HW139464   1.323   2.179   6.098  1.5661 -2.3922  0.6264
 9335SOL    HW239465   1.198   2.235   6.164  0.1733  0.2063 -0.9126
 9336SOL     OW39466   1.160   0.514   6.794  0.0935  0.0069  0.1954
 9336SOL    HW139467   1.255   0.523   6.784 -0.1014  2.3702  0.4435
 9336SOL    HW239468   1.135   0.606   6.807  2.7072  1.1806 -3.0449
 9337SOL     OW39469   1.475   0.140   6.189 -0.0437 -0.1905 -0.2653
 9337SOL    HW139470   1.448   0.065   6.242 -1.2159  0.3379 -0.1132
 9337SOL    HW239471   1.424   0.211   6.228  1.2940  0.9135 -0.5149
 9338SOL     OW39472   2.362   2.504   9.049  0.2530  0.0131 -0.1405
 9338SOL    HW139473   2.411   2.446   8.990  0.9223  0.7355 -0.2965
 9338SOL    HW239474   2.296   2.445   9.084  2.7742 -1.7428  1.6724
 9339SOL     OW39475   2.884   3.517   2.430  0.1854  0.0052  0.2337
 9339SOL    HW139476   2.962   3.508   2.485  2.7653 -1.1299 -3.6240
 9339SOL    HW239477   2.930   3.531   2.348  0.7889 -0.0309  0.5634
 9340SOL     OW39478   0.820   2.289   4.930 -0.3188 -0.2677 -0.7451
 9340SOL    HW139479   0.857   2.201   4.923  1.1540  0.1549  1.5142
 9340SOL    HW239480   0.901   2.339   4.924 -0.3624 -0.0332  0.5635
 9341SOL     OW39481   2.875   4.623   8.256 -0.3046 -0.2989  0.1568
 9341SOL    HW139482   2.910   4.577   8.333 -0.9342 -2.3343 -0.7704
 9341SOL    HW239483   2.821   4.553   8.220 -0.8335 -0.2457  0.8468
 9342SOL     OW39484   4.717   1.134  12.410 -0.6978  0.1318 -0.0333
 9342SOL    HW139485   4.630   1.155  12.376  0.5494  2.2382 -1.9006
 9342SOL    HW239486   4.722   1.044  12.377  0.0341 -0.2614  1.1375
 9343SOL     OW39487   2.890   4.652  12.277  0.1501 -0.1795 -0.2570
 9343SOL    HW139488   2.872   4.566  12.314 -0.9303  0.9494  1.8410
 9343SOL    HW239489   2.832   4.704  12.332  0.6322  1.0374 -0.8898
 9344SOL     OW39490   0.078   3.548   2.317 -0.1276  0.0234 -0.0172
 9344SOL    HW139491   0.004   3.491   2.296  0.5358 -0.3955 -1.2065
 9344SOL    HW239492   0.144   3.482   2.339  1.3297  0.7787 -2.0813
 9345SOL     OW39493   3.349   3.578   2.496 -0.1816  0.6332 -0.5915
 9345SOL    HW139494   3.396   3.543   2.420  1.2231  2.3896 -0.5294
 9345SOL    HW239495   3.385   3.666   2.507  1.8264 -0.0788 -1.4939
 9346SOL     OW39496   2.881   1.651   1.296 -0.1179  0.0288 -0.1597
 9346SOL    HW139497   2.940   1.584   1.261 -0.4836 -0.4574  0.1723
 9346SOL    HW239498   2.852   1.700   1.219 -1.7380 -1.2134 -0.3444
 9347SOL     OW39499   4.043   2.311   5.089  0.3686 -0.0202  1.1114
 9347SOL    HW139500   4.097   2.389   5.103 -1.2014  1.2147  0.2298
 9347SOL    HW239501   4.094   2.237   5.122  2.1531  0.8345  0.2731
 9348SOL     OW39502   2.736   4.697  10.291  0.2720  0.3751  0.2090
 9348SOL    HW139503   2.812   4.668  10.240  1.0077 -0.5600  1.8634
 9348SOL    HW239504   2.710   0.046  10.232  1.7167 -1.0228 -2.0800
 9349SOL     OW39505   3.693   1.791   3.772  0.2179 -0.0583 -0.2442
 9349SOL    HW139506   3.746   1.750   3.705 -0.3334  1.1703 -1.4473
 9349SOL    HW239507   3.755   1.842   3.824  0.7341 -0.8999 -0.0358
 9350SOL     OW39508   2.449   1.676  15.889  0.2069 -0.0893  0.1960
 9350SOL    HW139509   2.449   1.716  15.801  0.3518  2.3537  1.2926
 9350SOL    HW239510   2.453   1.585  15.861 -0.2888 -0.5548  1.6776
 9351SOL     OW39511   2.122   2.937   3.533 -0.0530  0.6622  0.7142
 9351SOL    HW139512   2.130   3.005   3.599  0.4438  1.0517  0.2504
 9351SOL    HW239513   2.181   2.872   3.572  2.8281  1.2743 -2.6736
 9352SOL     OW39514   0.095   3.259   2.742 -0.1314  0.3640 -0.1036
 9352SOL    HW139515   0.070   3.345   2.709  1.1939  1.2805  1.2516
 9352SOL    HW239516   0.160   3.278   2.810 -1.1631  0.3884  0.8721
 9353SOL     OW39517   4.339   3.952   8.529  0.4576 -0.2203  0.0775
 9353SOL    HW139518   4.330   4.020   8.595 -0.3104  0.6367 -0.9085
 9353SOL    HW239519   4.414   3.982   8.477  0.5410  1.8430  1.3855
 9354SOL     OW39520   1.071   4.393  17.567  0.7206 -0.2482  0.8111
 9354SOL    HW139521   1.130   4.414  17.639  0.4774 -2.6867  1.7361
 9354SOL    HW239522   1.026   4.320  17.610 -2.5697  0.8004 -0.9017
 9355SOL     OW39523   1.859   4.315  15.126  0.0187  0.0794  0.1331
 9355SOL    HW139524   1.883   4.229  15.093  0.9608  0.2143  0.4630
 9355SOL    HW239525   1.787   4.282  15.179 -0.7961  0.6160 -0.6460
 9356SOL     OW39526   3.178   3.514  13.735 -0.0236  0.6809 -0.2763
 9356SOL    HW139527   3.093   3.544  13.767  0.2702 -0.8977  1.9772
 9356SOL    HW239528   3.220   3.593  13.700 -3.3698  1.5997 -2.2126
 9357SOL     OW39529   3.021   2.434   6.464 -0.1090 -0.2435  0.7224
 9357SOL    HW139530   3.019   2.523   6.498  0.3183  0.4083 -0.9273
 9357SOL    HW239531   3.053   2.392   6.544  0.2277  2.5774  2.0336
 9358SOL     OW39532   1.546   1.510   3.652  0.6497 -0.0327 -0.3053
 9358SOL    HW139533   1.475   1.501   3.588  1.0416 -0.0483 -0.7292
 9358SOL    HW239534   1.530   1.595   3.694 -0.4919  0.3403 -1.5162
 9359SOL     OW39535   2.149   2.372   7.821 -0.2846  0.8098 -0.1234
 9359SOL    HW139536   2.169   2.450   7.770  1.9732  0.4770  0.2521
 9359SOL    HW239537   2.083   2.325   7.771  0.1086  1.8047 -1.5875
 9360SOL     OW39538   3.318   0.922   6.076 -0.1621  0.3799  0.2757
 9360SOL    HW139539   3.343   0.976   6.150 -0.1754  2.2941 -1.1108
 9360SOL    HW239540   3.290   0.840   6.117  2.1224 -0.6520 -0.2355
 9361SOL     OW39541   2.345   3.129   7.888  0.3007  0.0180 -1.2443
 9361SOL    HW139542   2.355   3.034   7.892 -0.2081  0.0882  1.6349
 9361SOL    HW239543   2.399   3.147   7.811  1.3209  0.3408 -0.4470
 9362SOL     OW39544   2.544   2.755   3.304  0.4009  0.5880 -0.2716
 9362SOL    HW139545   2.470   2.815   3.291  0.4188  0.5279 -0.6425
 9362SOL    HW239546   2.616   2.817   3.303  0.6229  0.3693  1.5873
 9363SOL     OW39547   2.268   4.281   5.143  0.3543  0.1108 -0.3569
 9363SOL    HW139548   2.358   4.303   5.168  0.2471  0.9972 -0.7501
 9363SOL    HW239549   2.270   4.310   5.051  0.4046  0.0303 -0.3814
 9364SOL     OW39550   2.141   3.649  12.919  0.0188 -0.8054  0.0089
 9364SOL    HW139551   2.078   3.656  12.847 -0.3865 -2.1497  0.2256
 9364SOL    HW239552   2.213   3.606  12.874  0.1279 -1.3451  0.6926
 9365SOL     OW39553   2.118   3.833  13.607 -0.6361 -0.5447  0.5087
 9365SOL    HW139554   2.047   3.797  13.554  0.9052 -0.7693 -1.4076
 9365SOL    HW239555   2.095   3.926  13.603  0.2105 -0.3997 -1.3078
 9366SOL     OW39556   3.326   0.714  14.589 -0.1116  0.0058  0.1946
 9366SOL    HW139557   3.338   0.804  14.617  0.5699 -0.0724  0.1588
 9366SOL    HW239558   3.328   0.726  14.494 -1.7609  1.4990  0.3445
 9367SOL     OW39559   3.721   2.658  14.395 -0.2791  0.2557  0.6328
 9367SOL    HW139560   3.647   2.659  14.455 -0.6157 -0.0617  0.2283
 9367SOL    HW239561   3.750   2.749  14.401 -0.5645  0.5439 -2.4772
 9368SOL     OW39562   2.901   0.961   2.567 -0.1168  0.0292  0.7214
 9368SOL    HW139563   2.828   0.986   2.623 -2.3463 -1.4338 -1.5384
 9368SOL    HW239564   2.899   1.034   2.505  3.7115 -2.1517 -2.0018
 9369SOL     OW39565   4.267   1.435   4.712 -0.3821  0.3482 -0.0163
 9369SOL    HW139566   4.254   1.529   4.701  1.1472  0.5290 -0.2660
 9369SOL    HW239567   4.258   1.401   4.623  0.7552  0.4845 -0.1903
 9370SOL     OW39568   0.174   3.192  12.631  0.0148  0.7394  0.5316
 9370SOL    HW139569   0.164   3.154  12.543 -2.5431 -0.3941  1.3293
 9370SOL    HW239570   0.170   3.285  12.610 -0.3481  0.4704 -0.6171
 9371SOL     OW39571   2.790   4.119   5.378  0.0246 -0.1186  0.6428
 9371SOL    HW139572   2.874   4.166   5.382 -1.0318  1.8360  0.0738
 9371SOL    HW239573   2.821   4.029   5.377 -0.0763 -0.1422 -0.0507
 9372SOL     OW39574   2.641   0.216  17.500  0.5019  0.0281 -0.2522
 9372SOL    HW139575   2.712   0.249  17.554 -1.0026  0.5961  1.4074
 9372SOL    HW239576   2.663   0.250  17.414 -1.5908  0.0106 -0.7917
 9373SOL     OW39577   3.949   0.685   5.501  0.1587 -0.0730 -0.0218
 9373SOL    HW139578   4.008   0.749   5.540  0.1775 -0.5998  0.8027
 9373SOL    HW239579   4.020   0.623   5.484  0.9055  0.3001  1.7743
 9374SOL     OW39580   0.625   3.849   5.712  0.1535 -0.6826  0.7399
 9374SOL    HW139581   0.568   3.772   5.706  0.1498 -0.6388  0.2386
 9374SOL    HW239582   0.606   3.892   5.629 -2.9788  0.2544  1.9519
 9375SOL     OW39583   1.012   3.635  12.402 -0.0430 -0.2558 -0.0930
 9375SOL    HW139584   1.042   3.553  12.363 -0.0731  0.2317 -1.1587
 9375SOL    HW239585   1.024   3.627  12.496  0.6461 -1.8884 -0.3187
 9376SOL     OW39586   1.800   0.606  16.695 -0.0124 -0.5109  0.4292
 9376SOL    HW139587   1.720   0.583  16.648 -0.7726  0.3532  1.2896
 9376SOL    HW239588   1.770   0.648  16.776 -0.7487 -0.6751  0.2460
 9377SOL     OW39589   3.688   4.200   2.729  0.3771  0.2667  0.5652
 9377SOL    HW139590   3.770   4.188   2.776 -0.4011  1.9046  2.3197
 9377SOL    HW239591   3.659   4.289   2.749  0.6920  0.6319 -0.5574
 9378SOL     OW39592   1.996   4.110   8.186  0.0951  0.3717 -0.3114
 9378SOL    HW139593   2.064   4.174   8.210  0.5245 -0.0289 -0.4622
 9378SOL    HW239594   1.940   4.168   8.136 -0.9048 -0.5718 -0.2702
 9379SOL     OW39595   2.350   1.783   8.597 -0.7756  0.0043 -0.0141
 9379SOL    HW139596   2.365   1.694   8.565  0.1833 -1.3303  4.1370
 9379SOL    HW239597   2.423   1.797   8.657  0.4448 -0.0835 -1.4820
 9380SOL     OW39598   2.825   0.063   1.832 -0.0063 -0.3516  0.2074
 9380SOL    HW139599   2.884   4.713   1.854  0.6987  0.1061 -0.1616
 9380SOL    HW239600   2.878   0.094   1.758 -1.0318 -0.8538 -0.7230
 9381SOL     OW39601   4.239   1.029  13.478 -0.4505 -0.1585 -0.0097
 9381SOL    HW139602   4.296   1.092  13.521 -0.2879 -0.5847  0.3930
 9381SOL    HW239603   4.295   1.004  13.404  3.2000  1.0274  2.3730
 9382SOL     OW39604   1.764   1.675  16.188  0.7876  0.1003 -0.4317
 9382SOL    HW139605   1.678   1.669  16.145 -1.7061  1.7175  4.2572
 9382SOL    HW239606   1.775   1.768  16.209  0.6796  0.6271 -2.7301
 9383SOL     OW39607   1.288   1.316   6.986 -0.1712  0.7386  0.5641
 9383SOL    HW139608   1.230   1.281   6.918  1.1272 -0.3323  0.0112
 9383SOL    HW239609   1.292   1.407   6.958  1.8488  0.7921  1.0748
 9384SOL     OW39610   4.167   3.985   7.284 -0.4930 -0.1533 -0.0824
 9384SOL    HW139611   4.145   3.903   7.240 -0.8485  0.8380 -1.7836
 9384SOL    HW239612   4.176   4.047   7.210  0.9504  1.5669  1.5264
 9385SOL     OW39613   0.462   1.163   2.484 -0.1084  0.6254  0.1826
 9385SOL    HW139614   0.555   1.152   2.466 -0.0511  1.9323 -0.3170
 9385SOL    HW239615   0.452   1.091   2.547  0.7106  1.6504  1.4906
 9386SOL     OW39616   3.612   4.334  13.816 -0.1425 -0.6108  0.1708
 9386SOL    HW139617   3.529   4.294  13.840 -0.4868 -0.6154 -1.0655
 9386SOL    HW239618   3.670   4.259  13.827  2.5753  1.3177 -0.9167
 9387SOL     OW39619   3.089   2.020   0.367  0.1890  0.0819 -0.4345
 9387SOL    HW139620   3.138   1.953   0.416 -3.2567  0.7366  3.9120
 9387SOL    HW239621   3.008   1.972   0.349 -1.6726  3.3779 -0.7788
 9388SOL     OW39622   1.135   3.923   2.392  0.4344 -0.7703  0.0961
 9388SOL    HW139623   1.165   3.856   2.330 -2.6044  0.0021 -2.2290
 9388SOL    HW239624   1.107   3.987   2.327 -1.0862 -2.7367 -1.1927
 9389SOL     OW39625   0.944   4.228  16.453  0.1121 -0.2367 -0.1837
 9389SOL    HW139626   0.903   4.147  16.422  1.7795 -2.0786  2.4549
 9389SOL    HW239627   1.033   4.205  16.479  0.8788  1.4111 -1.3548
 9390SOL     OW39628   3.645   4.063   6.706 -0.4596  0.5003 -0.5054
 9390SOL    HW139629   3.634   4.048   6.612 -0.4862  1.9898 -0.7348
 9390SOL    HW239630   3.560   4.104   6.721  0.0351  2.1534 -2.1257
 9391SOL     OW39631   3.464   0.125   7.637  0.2834  0.4171  0.1519
 9391SOL    HW139632   3.395   0.121   7.704  0.3964  3.0539  0.4099
 9391SOL    HW239633   3.413   0.170   7.570 -0.4625 -2.5076 -1.2431
 9392SOL     OW39634   2.627   1.231  10.626 -0.0225  0.0755  0.2941
 9392SOL    HW139635   2.534   1.225  10.606  0.4724 -1.4847 -1.5572
 9392SOL    HW239636   2.639   1.245  10.720  0.8509  2.7993 -0.2252
 9393SOL     OW39637   1.261   4.713   9.405  0.1367  0.4414 -0.1307
 9393SOL    HW139638   1.273   0.066   9.347  0.3909  1.1445  0.8365
 9393SOL    HW239639   1.342   0.013   9.451  0.3555  0.2860 -0.4365
 9394SOL     OW39640   2.397   2.949   4.870  0.7488 -0.5493 -0.0565
 9394SOL    HW139641   2.306   2.921   4.855  0.6689 -0.4244  0.2085
 9394SOL    HW239642   2.440   2.949   4.784  1.0975  2.4654  0.1099
 9395SOL     OW39643   3.931   1.513  15.090  0.3816 -0.4759 -0.0938
 9395SOL    HW139644   4.026   1.513  15.095  0.4853 -1.2008 -2.3439
 9395SOL    HW239645   3.911   1.606  15.081 -1.4766 -0.8358  0.3327
 9396SOL     OW39646   2.637   2.867   4.187  0.5292  0.1367 -0.0419
 9396SOL    HW139647   2.663   2.783   4.151 -2.8939 -0.4983 -0.9746
 9396SOL    HW239648   2.659   2.930   4.118 -1.2436  0.6222 -0.1560
 9397SOL     OW39649   4.305   2.350  12.395 -0.2490  0.0529 -0.4788
 9397SOL    HW139650   4.396   2.332  12.419 -0.6544  0.2574  1.2129
 9397SOL    HW239651   4.299   2.442  12.418 -2.5159  0.1849 -1.6007
 9398SOL     OW39652   4.591   1.519   8.758 -0.0699 -0.3001  0.2822
 9398SOL    HW139653   4.679   1.547   8.782  0.4207 -1.8368  0.2635
 9398SOL    HW239654   4.584   1.438   8.807 -0.5600 -0.7866 -0.5747
 9399SOL     OW39655   1.703   4.176  16.026 -0.4689 -0.1314  0.2244
 9399SOL    HW139656   1.796   4.190  16.043 -0.1267  1.3990 -2.9291
 9399SOL    HW239657   1.673   4.256  15.982  3.0894  0.9579 -0.1449
 9400SOL     OW39658   1.454   3.229   3.142 -0.1702 -0.1406 -0.3371
 9400SOL    HW139659   1.394   3.155   3.133 -2.0767  1.5557 -1.5068
 9400SOL    HW239660   1.411   3.263   3.220  2.1120 -2.0708  1.7810
 9401SOL     OW39661   2.788   3.003  10.334  0.1354  0.0776  0.0448
 9401SOL    HW139662   2.882   3.000  10.315  0.0932 -0.5477 -0.0420
 9401SOL    HW239663   2.786   3.033  10.425 -2.2582  1.5255 -0.4906
 9402SOL     OW39664   2.255   2.739   8.778  0.0030 -0.2782  1.1002
 9402SOL    HW139665   2.162   2.757   8.786  0.1361  0.3246  1.2878
 9402SOL    HW239666   2.258   2.646   8.800  0.3892 -0.5670 -0.1633
 9403SOL     OW39667   0.464   4.251  12.716 -0.2059  0.6768  0.5167
 9403SOL    HW139668   0.371   4.270  12.704 -0.2512  0.7030  0.9189
 9403SOL    HW239669   0.493   4.302  12.641  0.1121  0.5744  0.5670
 9404SOL     OW39670   4.619   0.955   4.406 -0.2080 -0.0081  0.7320
 9404SOL    HW139671   4.543   0.912   4.367 -0.2928  0.0669  0.8139
 9404SOL    HW239672   4.572   1.028   4.446 -2.3103 -0.3994 -1.0076
 9405SOL     OW39673   3.718   0.071   7.550  0.1486 -0.3050  0.8561
 9405SOL    HW139674   3.630   0.091   7.582  0.9310  1.4662  1.8958
 9405SOL    HW239675   3.688   0.018   7.477 -1.5666  1.3924  0.3410
 9406SOL     OW39676   3.819   0.238   2.795  0.5590 -0.1782  0.4566
 9406SOL    HW139677   3.893   0.178   2.783  0.2178 -1.0444  2.7554
 9406SOL    HW239678   3.747   0.186   2.760 -1.0278  3.2713 -1.3864
 9407SOL     OW39679   3.610   1.467   0.821 -0.2132  0.0909  0.2365
 9407SOL    HW139680   3.542   1.502   0.763 -0.4332  0.8529  0.9497
 9407SOL    HW239681   3.649   1.547   0.856 -0.8340  0.7759 -0.6254
 9408SOL     OW39682   3.667   3.192   3.770  0.1826  0.1544 -0.2210
 9408SOL    HW139683   3.683   3.103   3.737  0.8931  0.3769 -0.4852
 9408SOL    HW239684   3.699   3.241   3.694 -0.7152  0.3848 -0.4507
 9409SOL     OW39685   4.681   3.760   3.045  0.8150  0.4499  0.0773
 9409SOL    HW139686   0.045   3.787   3.013  0.2301  1.9529 -0.2360
 9409SOL    HW239687   4.646   3.717   2.967 -0.9270  2.3829 -0.2014
 9410SOL     OW39688   3.558   3.763  12.657  0.5229 -0.9920  0.1883
 9410SOL    HW139689   3.639   3.811  12.638 -0.2661  0.1815 -0.2192
 9410SOL    HW239690   3.535   3.763  12.564  0.3596  0.6851  0.2220
 9411SOL     OW39691   2.340   1.268   5.134 -0.0407 -0.5096 -0.3770
 9411SOL    HW139692   2.386   1.235   5.057 -1.2640 -2.1787 -0.3857
 9411SOL    HW239693   2.402   1.329   5.174  0.1285 -0.2070 -1.0999
 9412SOL     OW39694   0.905   0.525  11.567  0.0388 -0.2671 -0.3199
 9412SOL    HW139695   0.910   0.455  11.633  1.8635  3.7595  3.8088
 9412SOL    HW239696   0.823   0.570  11.586  0.0081  0.6860 -2.7714
 9413SOL     OW39697   3.902   4.196  13.880 -0.6922 -0.5130 -0.7115
 9413SOL    HW139698   3.914   4.110  13.840 -2.7347 -1.6665  1.1936
 9413SOL    HW239699   3.850   4.178  13.958  0.9622  1.1418  0.7925
 9414SOL     OW39700   2.075   3.971   7.394 -0.2261  0.4099  0.2998
 9414SOL    HW139701   2.120   3.888   7.384  0.7186  1.0454 -0.7254
 9414SOL    HW239702   2.149   4.029   7.375  0.0109  0.4475  1.3490
 9415SOL     OW39703   0.451   1.148   0.857 -0.1427 -0.3799  0.2305
 9415SOL    HW139704   0.509   1.074   0.840  0.9106  0.5813 -0.3468
 9415SOL    HW239705   0.398   1.115   0.929 -1.0533 -0.7558 -0.6003
 9416SOL     OW39706   0.960   1.016  16.790 -0.6897 -0.3923  0.3553
 9416SOL    HW139707   1.003   1.084  16.842  1.7539 -0.1875 -1.9386
 9416SOL    HW239708   1.011   0.938  16.814 -1.1222 -0.2362  1.7998
 9417SOL     OW39709   4.226   0.249   7.903 -0.1944  0.2107  0.4487
 9417SOL    HW139710   4.181   0.322   7.862  1.6162  1.5855  0.8805
 9417SOL    HW239711   4.179   0.234   7.985  1.2601  1.8037  1.5968
 9418SOL     OW39712   1.025   3.693   3.819  0.2383  0.0542  0.2355
 9418SOL    HW139713   0.973   3.735   3.887 -1.2041 -1.2363 -0.0776
 9418SOL    HW239714   1.011   3.600   3.832 -1.6973  0.3239  0.1194
 9419SOL     OW39715   1.761   2.444  13.140 -0.0912 -0.4121 -0.0870
 9419SOL    HW139716   1.719   2.368  13.179 -1.0471  0.4777  0.6349
 9419SOL    HW239717   1.764   2.426  13.047 -0.2772 -3.5571  0.5246
 9420SOL     OW39718   4.364   2.879   6.927  0.7173 -0.0609  0.1203
 9420SOL    HW139719   4.414   2.873   6.846 -0.1674  0.4143 -0.4540
 9420SOL    HW239720   4.303   2.946   6.898  2.4043  1.7524  0.7160
 9421SOL     OW39721   3.467   2.492  17.380  0.1001  0.8146 -0.2805
 9421SOL    HW139722   3.560   2.484  17.403  0.4244 -0.4942 -2.0392
 9421SOL    HW239723   3.457   2.579  17.341 -0.2060  1.5202  1.4183
 9422SOL     OW39724   0.405   1.873  17.102  0.0514 -0.4487  0.6086
 9422SOL    HW139725   0.397   1.960  17.061  0.9835 -0.3727  0.5824
 9422SOL    HW239726   0.474   1.841  17.044 -2.1890 -1.4814 -1.4918
 9423SOL     OW39727   4.659   0.936   7.789  0.4470 -0.5135 -0.3492
 9423SOL    HW139728   4.657   0.966   7.698  2.0310  0.9940  0.1077
 9423SOL    HW239729   4.664   0.844   7.762 -0.6233 -0.9479  0.9629
 9424SOL     OW39730   4.248   2.178   0.892  0.2292  0.6631 -0.0910
 9424SOL    HW139731   4.301   2.132   0.958  2.1050  0.9930 -1.3605
 9424SOL    HW239732   4.259   2.268   0.922  2.1818  0.2675  0.3857
 9425SOL     OW39733   2.153   0.866   4.523 -0.4153 -0.6180  0.1725
 9425SOL    HW139734   2.247   0.865   4.544 -0.0920  2.2027 -1.1283
 9425SOL    HW239735   2.152   0.853   4.428  0.6087  0.3453  0.0272
 9426SOL     OW39736   4.372   3.573   3.616  0.2010  0.2173 -0.0552
 9426SOL    HW139737   4.314   3.645   3.642  1.7067  1.1023  0.8896
 9426SOL    HW239738   4.440   3.594   3.680  1.2819  0.7560 -1.3786
 9427SOL     OW39739   4.154   0.604   1.013 -0.3034 -0.8413  0.5591
 9427SOL    HW139740   4.240   0.609   0.972 -0.0677  1.2238  1.2962
 9427SOL    HW239741   4.165   0.672   1.079  1.8032 -0.0948 -0.5902
 9428SOL     OW39742   3.395   3.753  13.295 -0.1799 -0.8927 -0.7962
 9428SOL    HW139743   3.426   3.663  13.283 -0.9637 -1.3349  0.6258
 9428SOL    HW239744   3.442   3.784  13.217 -2.3302  0.0266 -1.7198
 9429SOL     OW39745   4.702   3.742  10.244  0.5240 -0.1941  0.5245
 9429SOL    HW139746   0.022   3.676  10.189  2.4354  2.6773 -1.4289
 9429SOL    HW239747   4.617   3.741  10.200  1.5710 -0.1959 -1.4790
 9430SOL     OW39748   1.982   4.184   1.172  0.2124  0.2624  0.0548
 9430SOL    HW139749   1.996   4.128   1.248 -1.8352 -3.5568 -2.3310
 9430SOL    HW239750   2.016   4.267   1.207  0.0565  1.0512 -1.6722
 9431SOL     OW39751   3.169   2.542   6.004  0.0374  0.2760  0.7897
 9431SOL    HW139752   3.124   2.626   5.991  1.0999  0.4118 -1.9404
 9431SOL    HW239753   3.188   2.557   6.097  0.1386  1.1190  0.6362
 9432SOL     OW39754   1.787   1.215  11.405 -0.4436  0.0278 -0.2993
 9432SOL    HW139755   1.872   1.194  11.366  0.5211 -1.6367  2.7080
 9432SOL    HW239756   1.737   1.133  11.401  1.4879 -1.1775  0.0101
 9433SOL     OW39757   4.628   2.868   9.093  0.7053  0.0600 -0.5485
 9433SOL    HW139758   4.687   2.909   9.031  2.0993 -1.1920 -0.0610
 9433SOL    HW239759   4.674   2.790   9.126 -0.7165 -0.5394  0.0373
 9434SOL     OW39760   2.316   3.012   4.006 -0.5017 -0.1389 -0.1071
 9434SOL    HW139761   2.410   2.995   4.003 -0.2741  1.5542 -2.4129
 9434SOL    HW239762   2.287   2.990   3.918 -0.0733 -0.8706 -0.0707
 9435SOL     OW39763   0.081   2.649   9.145 -0.4188  0.4226 -0.1233
 9435SOL    HW139764   0.108   2.558   9.137 -0.7322  0.2024  1.4440
 9435SOL    HW239765   0.066   2.662   9.051 -0.0049  0.2130 -0.2156
 9436SOL     OW39766   4.013   2.662   7.761 -0.0293 -0.2973 -0.3772
 9436SOL    HW139767   4.004   2.620   7.675  1.3685 -3.0866  0.8419
 9436SOL    HW239768   3.972   2.597   7.819  1.4781  0.4361  1.5034
 9437SOL     OW39769   1.516   2.028   5.759  0.3057 -0.1002 -0.4821
 9437SOL    HW139770   1.485   2.067   5.840  0.2131 -0.0143 -0.5591
 9437SOL    HW239771   1.610   2.040   5.771  0.4349 -0.7012 -0.8630
 9438SOL     OW39772   4.078   3.094   1.891 -0.0215 -0.0384  0.4845
 9438SOL    HW139773   4.061   3.066   1.981  0.3665 -0.0733  0.5478
 9438SOL    HW239774   4.076   3.189   1.907 -2.1344 -0.1848  1.0085
 9439SOL     OW39775   3.223   4.687  16.366 -0.1449  0.2795  0.2928
 9439SOL    HW139776   3.164   4.713  16.437  0.0232 -0.2693  0.6287
 9439SOL    HW239777   3.192   4.604  16.330  1.6546  0.6237 -2.0249
 9440SOL     OW39778   2.022   4.101   7.152  0.0871 -0.0057 -0.2339
 9440SOL    HW139779   2.029   4.058   7.237 -1.0188 -1.7082 -1.0132
 9440SOL    HW239780   1.927   4.101   7.150  0.1207  1.5580 -1.7888
 9441SOL     OW39781   0.345   0.937   5.123  0.3618  0.2041 -0.1932
 9441SOL    HW139782   0.383   0.863   5.169 -0.6964 -0.9597 -1.1629
 9441SOL    HW239783   0.287   0.899   5.056 -1.6131 -1.9731  2.7337
 9442SOL     OW39784   0.396   0.248   4.516 -0.4653  0.6196  0.5718
 9442SOL    HW139785   0.396   0.275   4.608  0.3705  0.4298  0.6325
 9442SOL    HW239786   0.405   0.331   4.471 -0.1762 -0.6708 -1.7297
 9443SOL     OW39787   3.308   0.132   3.183  0.4425  0.5217  0.5906
 9443SOL    HW139788   3.306   0.165   3.273  1.5317  1.3782  0.3134
 9443SOL    HW239789   3.221   0.154   3.151  0.0186 -0.5074  1.0520
 9444SOL     OW39790   2.793   3.797   1.751 -0.1007  0.0205  0.2305
 9444SOL    HW139791   2.749   3.728   1.801  0.3054  0.3295  1.0267
 9444SOL    HW239792   2.739   3.797   1.672 -0.5687 -0.4649  0.5451
 9445SOL     OW39793   2.204   3.359  10.230 -0.4848  0.5413  0.2520
 9445SOL    HW139794   2.149   3.281  10.236 -0.7991  0.5572 -2.5960
 9445SOL    HW239795   2.175   3.420  10.299 -0.1229  1.5710 -0.5054
 9446SOL     OW39796   0.676   1.217   3.511  0.0345 -0.6287  0.0792
 9446SOL    HW139797   0.742   1.285   3.498 -0.2734 -0.3858 -0.2028
 9446SOL    HW239798   0.724   1.165   3.575 -1.0250 -0.1240  1.2829
 9447SOL     OW39799   1.547   0.772  13.160  0.1484 -0.7861 -0.0397
 9447SOL    HW139800   1.463   0.728  13.143  1.0881 -2.8670  0.7809
 9447SOL    HW239801   1.582   0.778  13.071 -0.4129  1.2907 -0.1219
 9448SOL     OW39802   0.371   3.690   3.387 -0.3765 -0.1125 -0.4643
 9448SOL    HW139803   0.370   3.783   3.408  2.5497 -0.5922  1.8859
 9448SOL    HW239804   0.290   3.687   3.336 -0.9906 -0.0528  0.5084
 9449SOL     OW39805   0.799   4.403  16.603  0.5940  0.1351  0.1129
 9449SOL    HW139806   0.786   4.354  16.685  0.4100 -0.5888 -0.3451
 9449SOL    HW239807   0.839   4.335  16.549  0.9367  0.7084 -0.3477
 9450SOL     OW39808   1.725   0.904   3.873 -0.6371  0.4017 -0.2606
 9450SOL    HW139809   1.709   0.904   3.778  1.0885 -3.2980 -0.5603
 9450SOL    HW239810   1.755   0.814   3.883  1.0119  0.6404 -2.8660
 9451SOL     OW39811   1.151   2.141  17.587  0.5751  0.5786 -0.3685
 9451SOL    HW139812   1.103   2.224  17.587  0.8089  0.7149 -0.5759
 9451SOL    HW239813   1.162   2.120  17.494  0.7225  2.8846 -0.8801
 9452SOL     OW39814   3.978   2.629   2.560 -0.0580  0.2668 -0.1257
 9452SOL    HW139815   3.916   2.671   2.500  1.4915  1.9019 -0.5748
 9452SOL    HW239816   3.923   2.616   2.638 -1.7467 -0.0376 -1.3565
 9453SOL     OW39817   1.571   2.298   8.692  0.1281  0.1365 -0.2362
 9453SOL    HW139818   1.653   2.289   8.741  0.0597 -2.5713 -0.6128
 9453SOL    HW239819   1.572   2.239   8.617 -0.1223  1.7635 -1.5014
 9454SOL     OW39820   3.399   3.306   7.929 -0.0983 -0.3850  0.1168
 9454SOL    HW139821   3.349   3.285   7.850  0.3309 -1.4902  0.1469
 9454SOL    HW239822   3.487   3.332   7.902  0.0203  1.1912  2.0802
 9455SOL     OW39823   1.223   4.192   3.556 -0.2175  0.5046  0.1967
 9455SOL    HW139824   1.188   4.150   3.478 -0.1461 -0.5715  0.7392
 9455SOL    HW239825   1.238   4.283   3.531  0.3482  0.2104 -0.5085
 9456SOL     OW39826   4.618   0.886  15.459 -0.5553  0.0477  0.0397
 9456SOL    HW139827   4.687   0.827  15.490 -2.4477 -1.9081  0.5324
 9456SOL    HW239828   4.657   0.971  15.482  1.3428 -0.5434 -0.9894
 9457SOL     OW39829   3.805   0.478   3.559  0.6852  0.2878 -0.2715
 9457SOL    HW139830   3.771   0.388   3.553  0.1105  0.6347 -1.9557
 9457SOL    HW239831   3.899   0.461   3.553  0.4116 -0.8327 -1.3687
 9458SOL     OW39832   1.579   1.519  10.593 -0.5489  0.3031 -0.2300
 9458SOL    HW139833   1.606   1.471  10.672  0.3582 -0.2104 -0.8475
 9458SOL    HW239834   1.654   1.516  10.533 -0.6126  0.6437 -0.3271
 9459SOL     OW39835   0.931   1.191   1.336  0.7158  0.7426 -0.1618
 9459SOL    HW139836   0.845   1.154   1.356  0.8576  0.8922  0.7659
 9459SOL    HW239837   0.913   1.280   1.366 -0.6387  0.9732 -1.6942
 9460SOL     OW39838   1.026   2.373  12.576  0.1353 -0.1563  0.0144
 9460SOL    HW139839   0.961   2.408  12.637  0.3872  0.7690 -0.2487
 9460SOL    HW239840   1.099   2.428  12.603  1.8298 -2.9418  1.0566
 9461SOL     OW39841   3.085   4.167   2.020  0.2755  0.5496  0.5131
 9461SOL    HW139842   2.992   4.148   2.005  0.3021  2.2316 -1.8657
 9461SOL    HW239843   3.127   4.095   1.973 -0.9232 -1.3717  2.3741
 9462SOL     OW39844   0.316   1.188   7.371 -0.5655  0.2839 -0.1466
 9462SOL    HW139845   0.267   1.266   7.344 -3.8218 -1.1356  1.7049
 9462SOL    HW239846   0.404   1.204   7.336 -0.2454 -0.3283  0.3779
 9463SOL     OW39847   1.091   4.474   3.951 -0.0303  0.1427  0.0366
 9463SOL    HW139848   1.067   4.525   4.029  0.5136 -2.2403  1.7658
 9463SOL    HW239849   1.175   4.513   3.927  0.0276  0.0582  0.1018
 9464SOL     OW39850   2.344   4.288   6.324 -0.5482  0.0477 -0.0661
 9464SOL    HW139851   2.421   4.238   6.351 -0.2786  0.4576 -0.0842
 9464SOL    HW239852   2.380   4.376   6.313 -1.2484  0.3684  0.2447
 9465SOL     OW39853   3.615   3.141   6.017 -0.1986 -0.0495  0.3797
 9465SOL    HW139854   3.641   3.050   6.001 -0.7059 -0.2198  0.5088
 9465SOL    HW239855   3.696   3.173   6.056 -0.6299 -0.3935  1.5615
 9466SOL     OW39856   4.642   2.224  17.276 -0.1670 -0.0370  0.4013
 9466SOL    HW139857   4.571   2.263  17.225  0.4570 -2.7835 -2.5193
 9466SOL    HW239858   4.589   2.192  17.349 -0.9584  1.6890  0.5882
 9467SOL     OW39859   2.412   4.456   9.557 -0.2529 -0.0653  1.0481
 9467SOL    HW139860   2.374   4.401   9.625  1.3729  1.9857  3.5791
 9467SOL    HW239861   2.421   4.402   9.478 -1.5595  0.2435  0.6775
 9468SOL     OW39862   1.684   2.308   9.679  0.4135 -0.3105 -0.5241
 9468SOL    HW139863   1.673   2.404   9.676  0.4159 -0.2720  1.0462
 9468SOL    HW239864   1.594   2.287   9.653 -0.5222  0.0997  2.3843
 9469SOL     OW39865   0.076   4.198   7.847  0.2940  0.2939 -0.0479
 9469SOL    HW139866   4.719   4.242   7.879  0.9972 -0.2589  2.4436
 9469SOL    HW239867   0.082   4.122   7.905 -2.3311 -0.5806 -0.9140
 9470SOL     OW39868   1.095   0.107   4.961 -0.0113  0.0855  0.3593
 9470SOL    HW139869   1.155   0.172   4.926  0.4886 -0.8936 -0.5924
 9470SOL    HW239870   1.041   0.093   4.883 -1.8722 -0.7493  1.7884
 9471SOL     OW39871   1.070   0.923   6.628  0.4357 -0.2571  0.3565
 9471SOL    HW139872   1.075   0.884   6.715  0.8518  1.8655  1.2767
 9471SOL    HW239873   1.157   0.927   6.589  0.5078 -2.9286  0.2279
 9472SOL     OW39874   0.508   1.166   8.877  0.2704 -0.5567 -0.1194
 9472SOL    HW139875   0.542   1.121   8.954  0.5345 -1.8558 -0.9895
 9472SOL    HW239876   0.550   1.251   8.889  0.6920 -0.6493 -0.8942
 9473SOL     OW39877   3.095   2.636   3.293  0.1295 -0.6513  0.6187
 9473SOL    HW139878   3.132   2.551   3.269 -1.2663 -1.0993  0.0438
 9473SOL    HW239879   3.091   2.627   3.388  0.1762 -0.9306  0.5949
 9474SOL     OW39880   3.704   2.548   6.154  0.2415 -0.0386  0.5251
 9474SOL    HW139881   3.782   2.597   6.176  0.4390  0.3992 -1.1276
 9474SOL    HW239882   3.660   2.537   6.238  3.4562 -0.9161  2.0936
 9475SOL     OW39883   0.509   3.449   5.941  0.1140 -0.0176 -0.4516
 9475SOL    HW139884   0.562   3.379   5.904 -1.2959 -0.9627 -0.6859
 9475SOL    HW239885   0.561   3.482   6.013  1.1968  1.7410 -2.0296
 9476SOL     OW39886   1.345   3.669   1.382 -0.0002  0.1261  0.3718
 9476SOL    HW139887   1.327   3.593   1.437 -3.1997 -1.1696 -2.4876
 9476SOL    HW239888   1.302   3.640   1.301 -1.3528  2.8718  0.0828
 9477SOL     OW39889   1.998   4.699   6.759  0.6898  0.1394 -0.6800
 9477SOL    HW139890   2.023   0.064   6.789  0.6904 -0.5239  1.2511
 9477SOL    HW239891   1.914   4.717   6.717  0.4020  0.2912 -0.0507
 9478SOL     OW39892   0.090   1.444  11.502 -0.4089  0.4551 -0.2887
 9478SOL    HW139893   0.158   1.496  11.546 -0.4804  0.3455 -0.0475
 9478SOL    HW239894   0.013   1.500  11.515 -0.2162  0.3624  1.2746
 9479SOL     OW39895   0.701   3.041   1.796 -0.1732 -0.3024 -0.4491
 9479SOL    HW139896   0.744   2.998   1.870 -1.2062  0.0466  0.3701
 9479SOL    HW239897   0.671   2.981   1.728  0.7803 -1.0381 -0.2079
 9480SOL     OW39898   0.284   3.240   7.897  0.2419  0.1958 -0.1361
 9480SOL    HW139899   0.359   3.184   7.875  1.5273  1.6448  0.5269
 9480SOL    HW239900   0.226   3.173   7.933 -1.2591  1.2332 -0.6682
 9481SOL     OW39901   4.362   3.335   4.955 -0.0449  0.0701 -0.2548
 9481SOL    HW139902   4.403   3.308   5.037  0.1779  1.0556 -0.0428
 9481SOL    HW239903   4.425   3.310   4.887 -1.0730 -0.2601 -1.0743
 9482SOL     OW39904   3.975   2.229  10.048  0.2514 -0.5106 -0.2116
 9482SOL    HW139905   3.924   2.245   9.969  1.2668  0.3789 -0.6897
 9482SOL    HW239906   3.912   2.275  10.105 -0.3568 -0.4962 -0.8952
 9483SOL     OW39907   0.789   3.539   3.523 -0.0304 -0.3936 -0.3055
 9483SOL    HW139908   0.710   3.589   3.543  0.7368 -0.7309  3.5692
 9483SOL    HW239909   0.845   3.612   3.496  0.7129 -0.3789  1.2570
 9484SOL     OW39910   0.667   0.043  15.225  0.0330  0.1253 -0.4171
 9484SOL    HW139911   0.654   0.117  15.285  0.9493 -2.3117  2.7976
 9484SOL    HW239912   0.613   0.066  15.150 -0.4602 -0.8653 -0.3632
 9485SOL     OW39913   2.449   2.176   6.680  0.4795  0.1788  0.3835
 9485SOL    HW139914   2.374   2.161   6.623 -0.0181  0.5748  0.9251
 9485SOL    HW239915   2.498   2.253   6.652  0.1598  0.8776  1.7417
 9486SOL     OW39916   4.553   2.541   2.752 -0.1379  0.1364 -0.7863
 9486SOL    HW139917   4.492   2.470   2.735  1.7396 -2.4331  3.1147
 9486SOL    HW239918   4.631   2.499   2.716  0.9455  0.1151  1.5912
 9487SOL     OW39919   0.148   0.471   9.225  0.2028  0.0133 -0.3870
 9487SOL    HW139920   0.170   0.438   9.312  2.7802  3.0274  0.1020
 9487SOL    HW239921   0.114   0.399   9.172 -1.8261 -0.3099  1.3782
 9488SOL     OW39922   2.073   3.568   3.148 -0.3514 -0.4227 -0.0899
 9488SOL    HW139923   2.115   3.493   3.192 -2.0213 -0.2969  1.7227
 9488SOL    HW239924   2.018   3.520   3.087 -0.9215 -1.8038  1.4945
 9489SOL     OW39925   2.260   2.249   1.623  0.0138  0.6939 -0.2001
 9489SOL    HW139926   2.284   2.230   1.532  0.1842 -1.7859  0.3617
 9489SOL    HW239927   2.328   2.196   1.664 -1.6682 -1.4583 -0.1888
 9490SOL     OW39928   3.011   2.720  14.630  0.2010  0.7415 -0.5996
 9490SOL    HW139929   3.057   2.782  14.575 -1.0131  2.3654  0.2168
 9490SOL    HW239930   3.071   2.650  14.657 -2.2950 -1.0722  0.2632
 9491SOL     OW39931   0.307   0.740  15.532 -0.3957 -0.2077 -0.0135
 9491SOL    HW139932   0.347   0.821  15.503 -1.2746  1.2680  2.8894
 9491SOL    HW239933   0.218   0.741  15.498 -0.2279 -0.3636 -0.4496
 9492SOL     OW39934   1.021   1.941   5.969  0.1500 -0.3770 -1.0322
 9492SOL    HW139935   0.974   1.865   5.935 -0.9109  0.0207 -0.4224
 9492SOL    HW239936   0.963   2.015   5.955  1.4284  0.5656 -1.3231
 9493SOL     OW39937   3.824   4.608   0.976  0.2492 -0.1171  0.4742
 9493SOL    HW139938   3.913   4.597   1.009  1.7107  1.0004 -3.0972
 9493SOL    HW239939   3.766   4.622   1.051 -1.8931  0.5002 -1.2666
 9494SOL     OW39940   2.379   0.235   3.695 -0.5261  0.4844  0.1845
 9494SOL    HW139941   2.308   0.292   3.665 -0.7478 -1.2539 -2.5939
 9494SOL    HW239942   2.449   0.298   3.713 -0.9371  1.7941 -2.8725
 9495SOL     OW39943   0.218   0.353   7.217  0.0511 -0.1486  0.2565
 9495SOL    HW139944   0.269   0.305   7.151  0.0331  0.9767 -0.5847
 9495SOL    HW239945   0.168   0.418   7.166  3.0200  2.0238  0.0773
 9496SOL     OW39946   2.478   1.217   4.909 -0.4757 -0.7164  0.1464
 9496SOL    HW139947   2.512   1.128   4.922  1.1742  0.2046  2.0156
 9496SOL    HW239948   2.446   1.208   4.819 -1.7096  0.7847  0.4236
 9497SOL     OW39949   3.229   1.699   4.432 -0.0007  0.3556 -0.1080
 9497SOL    HW139950   3.309   1.651   4.454  0.1553  0.4321 -0.5059
 9497SOL    HW239951   3.229   1.699   4.336 -0.0456  0.2151 -0.1071
 9498SOL     OW39952   4.440   3.956   6.276  0.0689  0.4314 -0.5528
 9498SOL    HW139953   4.492   4.030   6.245  0.6923  1.0072  1.8726
 9498SOL    HW239954   4.361   3.973   6.224  0.0138 -1.8153 -1.2116
 9499SOL     OW39955   4.014   4.588   0.720  0.1078 -0.1609  0.7399
 9499SOL    HW139956   3.974   4.533   0.653 -0.8571  1.4779 -0.0387
 9499SOL    HW239957   4.059   4.524   0.776 -0.2784 -0.2325  0.9654
 9500SOL     OW39958   0.449   3.736   8.380 -0.0592 -0.1353  0.2991
 9500SOL    HW139959   0.379   3.730   8.445  0.3641 -0.4954  0.7172
 9500SOL    HW239960   0.503   3.782   8.445 -2.1970  1.6444  0.8020
 9501SOL     OW39961   4.518   2.989   1.646  0.1132  0.4187  0.4569
 9501SOL    HW139962   4.553   3.078   1.641 -1.9537  1.2802  1.1803
 9501SOL    HW239963   4.463   3.011   1.722  0.3274 -0.3172  0.8271
 9502SOL     OW39964   4.331   1.998  17.100  0.4621 -0.0839 -0.4570
 9502SOL    HW139965   4.394   1.927  17.113  1.8648  1.1111 -0.7699
 9502SOL    HW239966   4.397   2.067  17.095  1.1283 -0.5464  1.6235
 9503SOL     OW39967   0.662   1.989   5.556  0.1583 -0.5785 -0.2330
 9503SOL    HW139968   0.605   2.033   5.619 -1.9342 -0.5677 -2.1399
 9503SOL    HW239969   0.623   2.021   5.475  1.2012  1.3215  0.0129
 9504SOL     OW39970   1.168   0.359   4.638  0.3784 -0.4491 -0.0289
 9504SOL    HW139971   1.253   0.364   4.683  0.2643  0.3984  0.0936
 9504SOL    HW239972   1.205   0.413   4.568 -1.2907  1.2281  0.4127
 9505SOL     OW39973   2.129   4.543   6.564 -0.1300 -0.7348 -0.0705
 9505SOL    HW139974   2.110   4.600   6.638 -1.4039 -2.7017  1.0999
 9505SOL    HW239975   2.184   4.600   6.510  0.4028  0.4530  1.7387
 9506SOL     OW39976   2.321   3.463   2.595 -0.2101  0.3705 -0.0668
 9506SOL    HW139977   2.358   3.380   2.564  1.3311 -0.1331  3.1249
 9506SOL    HW239978   2.391   3.524   2.570 -1.1477  1.2655 -0.5090
 9507SOL     OW39979   1.228   4.347   3.244  0.6943  0.0209 -0.3865
 9507SOL    HW139980   1.192   4.265   3.277  4.4374 -0.8331  1.5403
 9507SOL    HW239981   1.212   4.347   3.149  0.3287 -0.5095 -0.3271
 9508SOL     OW39982   4.518   3.998   7.617 -0.0635 -0.5401 -0.0434
 9508SOL    HW139983   4.476   3.976   7.700 -1.0360  1.3609 -0.0349
 9508SOL    HW239984   4.608   3.977   7.642  0.0092 -1.1047 -0.7650
 9509SOL     OW39985   2.074   4.446   5.315 -0.1752 -0.1777  0.1114
 9509SOL    HW139986   2.157   4.400   5.305 -1.8088 -2.0880 -4.5943
 9509SOL    HW239987   2.030   4.438   5.230  3.8600 -2.1142 -1.7860
 9510SOL     OW39988   1.381   2.717   1.507 -0.0955 -0.3630  0.3167
 9510SOL    HW139989   1.397   2.625   1.485 -0.4186  0.1592 -2.0242
 9510SOL    HW239990   1.288   2.734   1.493 -0.4028 -0.6774  1.9146
 9511SOL     OW39991   2.703   2.760   2.469 -0.2264  0.1370 -0.5128
 9511SOL    HW139992   2.616   2.795   2.490 -0.8031 -0.6602 -1.6117
 9511SOL    HW239993   2.726   2.832   2.410 -0.4942 -0.7194 -1.6612
 9512SOL     OW39994   3.725   0.839   5.494  0.3942  0.2340  0.4003
 9512SOL    HW139995   3.806   0.789   5.483 -0.4239 -0.5260 -2.0218
 9512SOL    HW239996   3.736   0.868   5.585 -0.8113  0.7809  0.3702
 9513SOL     OW39997   1.353   2.055  12.456 -0.4481  0.0515  0.0780
 9513SOL    HW139998   1.371   2.023  12.544 -0.6999  0.5720  0.3193
 9513SOL    HW239999   1.436   2.093  12.426  1.6725 -2.0431  3.3171
 9514SOL     OW40000   3.659   0.372   4.091  0.2246  0.3900  0.1768
 9514SOL    HW140001   3.662   0.347   3.999  3.0703  0.1458  0.3296
 9514SOL    HW240002   3.656   0.468   4.086 -0.3985  0.3302 -0.5215
 9515SOL     OW40003   2.070   0.377  10.196 -0.0925 -0.1172  0.0845
 9515SOL    HW140004   2.083   0.294  10.241  1.6340  0.5906  0.8781
 9515SOL    HW240005   2.099   0.433  10.268  0.1529  0.7279 -0.6704
 9516SOL     OW40006   3.745   3.351   6.355  0.2693  0.3756 -0.4040
 9516SOL    HW140007   3.794   3.368   6.435 -0.2203  1.5832 -0.3658
 9516SOL    HW240008   3.771   3.420   6.293 -2.2419  3.1087  1.5642
 9517SOL     OW40009   1.266   3.234  13.080  0.2817  0.2327 -0.6087
 9517SOL    HW140010   1.181   3.222  13.039 -0.4954 -2.9743  1.9566
 9517SOL    HW240011   1.299   3.315  13.041 -0.6934 -0.1391 -2.1875
 9518SOL     OW40012   1.755   4.516   8.610 -0.9719  0.0165 -0.3235
 9518SOL    HW140013   1.764   4.575   8.684 -2.1634 -0.6455  0.3463
 9518SOL    HW240014   1.847   4.509   8.584 -0.3318  0.5082  1.7937
 9519SOL     OW40015   2.532   0.579   5.508 -0.0297  0.2784 -0.1173
 9519SOL    HW140016   2.532   0.668   5.541 -1.9711  0.0996  0.3680
 9519SOL    HW240017   2.621   0.569   5.475  0.9535  0.0276  2.6261
 9520SOL     OW40018   4.695   4.076   6.771  0.1511 -0.0380 -0.0604
 9520SOL    HW140019   0.030   4.148   6.795  0.0575  0.0405 -0.0735
 9520SOL    HW240020   4.613   4.099   6.814  0.1630  0.4244 -0.2935
 9521SOL     OW40021   2.982   4.492   4.904  0.5253 -0.1905 -0.2307
 9521SOL    HW140022   2.963   4.584   4.890  1.8481  0.0603 -0.3244
 9521SOL    HW240023   2.893   4.456   4.910 -0.7247  3.0780  0.4341
 9522SOL     OW40024   2.000   4.626  13.571 -0.4532 -0.4480 -0.6637
 9522SOL    HW140025   2.049   4.682  13.511  0.7644 -1.7383 -0.8694
 9522SOL    HW240026   1.969   4.697  13.627 -1.3832 -0.3888 -1.2586
 9523SOL     OW40027   4.386   0.838   4.255 -0.2845 -0.1296 -1.0755
 9523SOL    HW140028   4.309   0.880   4.216 -1.3967 -1.0916  0.1061
 9523SOL    HW240029   4.429   0.800   4.178  0.3683  0.3490 -0.9498
 9524SOL     OW40030   3.578   1.047   5.371 -0.0391 -0.6048 -0.0930
 9524SOL    HW140031   3.637   1.064   5.298  0.4396 -1.2065  0.1519
 9524SOL    HW240032   3.621   0.971   5.410  3.6528  1.8039  0.4877
 9525SOL     OW40033   3.736   0.477   4.802  0.5581  0.4246 -0.0483
 9525SOL    HW140034   3.737   0.386   4.772  0.3894  0.5026 -0.2884
 9525SOL    HW240035   3.827   0.504   4.789  0.3731  1.9351  1.9321
 9526SOL     OW40036   3.635   4.278   2.194  0.3364 -0.2988 -0.3877
 9526SOL    HW140037   3.629   4.193   2.239  0.5554  0.4390  1.0200
 9526SOL    HW240038   3.569   4.328   2.242  1.0940  0.3693 -0.0387
 9527SOL     OW40039   3.985   1.784  10.072  0.4585  0.5543 -0.1307
 9527SOL    HW140040   4.007   1.872  10.104 -1.6159  1.5101 -1.3150
 9527SOL    HW240041   3.922   1.741  10.130  1.2901  0.7258  0.9084
 9528SOL     OW40042   1.698   1.354   5.143 -0.1290 -0.5281 -0.3119
 9528SOL    HW140043   1.764   1.297   5.182  0.1017  0.3113  0.5283
 9528SOL    HW240044   1.713   1.325   5.053  0.2566 -1.9212  0.1940
 9529SOL     OW40045   3.685   1.825  14.617 -0.1394 -0.4960 -0.0086
 9529SOL    HW140046   3.728   1.885  14.556  0.2657 -0.1795  0.5821
 9529SOL    HW240047   3.712   1.737  14.590  5.0130  0.5178  1.7748
 9530SOL     OW40048   3.692   0.484  10.017 -0.1992 -0.0347  0.1753
 9530SOL    HW140049   3.787   0.478  10.009 -0.4685 -4.5244  0.6807
 9530SOL    HW240050   3.657   0.465   9.930 -0.2292  0.7702  0.0029
 9531SOL     OW40051   0.564   3.591  14.510  0.0291 -0.3367  0.1573
 9531SOL    HW140052   0.551   3.518  14.450 -1.6481 -0.0229  0.1341
 9531SOL    HW240053   0.514   3.566  14.587 -1.0565 -1.1617 -0.8131
 9532SOL     OW40054   4.296   1.186   2.641  0.6942 -0.1392  0.2268
 9532SOL    HW140055   4.259   1.112   2.592 -0.7518  2.0977 -2.0944
 9532SOL    HW240056   4.332   1.239   2.570 -1.8051  0.4232 -0.6202
 9533SOL     OW40057   3.348   1.328  10.066 -0.0006  0.3811 -0.0922
 9533SOL    HW140058   3.412   1.269  10.027 -0.3902 -0.7836  1.0247
 9533SOL    HW240059   3.362   1.319  10.161 -1.9224 -1.8215 -0.0404
 9534SOL     OW40060   0.054   1.848  12.425  0.0964  0.4347  0.5017
 9534SOL    HW140061   0.124   1.913  12.416 -2.0365  2.6617  0.1841
 9534SOL    HW240062   0.097   1.763  12.415 -0.9678  0.2767 -2.6225
 9535SOL     OW40063   3.479   3.224   2.087 -0.0116 -0.2798 -0.0966
 9535SOL    HW140064   3.409   3.206   2.024 -0.5363 -0.0781  0.4284
 9535SOL    HW240065   3.557   3.194   2.041  0.2733 -1.0782  0.8947
 9536SOL     OW40066   1.802   0.307   0.696 -0.2267 -0.0274  0.0199
 9536SOL    HW140067   1.868   0.314   0.765 -0.8494 -0.2415  0.6267
 9536SOL    HW240068   1.860   0.359   0.640  0.7762  0.6822  1.7041
 9537SOL     OW40069   4.209   1.343   4.434 -0.1057 -0.0879  0.3588
 9537SOL    HW140070   4.226   1.316   4.344  2.6857 -0.2645  0.9246
 9537SOL    HW240071   4.116   1.324   4.440 -0.0230 -1.0967 -1.4653
 9538SOL     OW40072   1.051   3.496   4.306  0.0324  0.1657  0.2925
 9538SOL    HW140073   0.997   3.458   4.237 -0.0876  2.6765 -0.9792
 9538SOL    HW240074   1.059   3.588   4.283  0.0680  0.5981  2.0049
 9539SOL     OW40075   3.466   4.201   2.573  0.0877  0.4076 -0.0402
 9539SOL    HW140076   3.522   4.237   2.642 -1.3124  2.0314  0.2528
 9539SOL    HW240077   3.442   4.285   2.533 -0.4493  0.3695  0.2114
 9540SOL     OW40078   2.876   1.835   0.354 -0.5968  0.1939  0.1371
 9540SOL    HW140079   2.896   1.807   0.265 -0.1677  0.1986  0.2315
 9540SOL    HW240080   2.866   1.750   0.398  0.7693  0.2913  0.6473
 9541SOL     OW40081   0.439   4.178   7.453 -0.9914 -0.7609  0.0940
 9541SOL    HW140082   0.429   4.114   7.524 -0.7541 -2.2646 -1.2279
 9541SOL    HW240083   0.358   4.179   7.402 -2.1793  5.6815  2.0841
 9542SOL     OW40084   3.098   4.704   2.370 -0.4878 -0.1917  0.2902
 9542SOL    HW140085   3.072   4.674   2.282  1.2131  0.9220 -0.5898
 9542SOL    HW240086   3.024   0.039   2.389 -2.3384 -1.3921 -3.1324
 9543SOL     OW40087   3.200   3.137   0.312 -0.2207 -0.5900  0.0578
 9543SOL    HW140088   3.152   3.193   0.251  0.1027 -0.5241 -0.1309
 9543SOL    HW240089   3.291   3.148   0.286  0.0525 -1.0183  0.8374
 9544SOL     OW40090   1.531   4.354   2.721  0.1847 -0.8367  0.1920
 9544SOL    HW140091   1.568   4.370   2.635  0.2261 -0.2320  0.3224
 9544SOL    HW240092   1.461   4.294   2.695 -0.0016 -0.3724 -0.3693
 9545SOL     OW40093   2.404   0.255   0.271  0.0715 -0.9091  0.2834
 9545SOL    HW140094   2.440   0.225   0.355  0.3487 -0.3774  0.3566
 9545SOL    HW240095   2.374   0.175   0.228 -2.7941  0.6318 -0.5801
 9546SOL     OW40096   1.985   1.013   5.967 -0.5378  0.4792 -0.6410
 9546SOL    HW140097   1.999   0.919   5.974  3.1432  1.1630  1.2916
 9546SOL    HW240098   1.892   1.016   5.944 -1.2956 -0.8027  2.2376
 9547SOL     OW40099   0.003   4.058  13.002 -0.1714 -0.5378  0.4952
 9547SOL    HW140100   0.070   4.086  12.939  0.5961 -1.7715  0.7679
 9547SOL    HW240101   0.044   3.982  13.044  0.8530  0.7429  1.8014
 9548SOL     OW40102   1.115   3.719   4.609  0.0280 -0.6819 -0.0948
 9548SOL    HW140103   1.027   3.704   4.576  0.4909 -2.8394 -0.3222
 9548SOL    HW240104   1.139   3.627   4.620  0.7537 -0.5352 -0.4127
 9549SOL     OW40105   0.951   0.228   1.640  0.4309  0.2647 -0.3733
 9549SOL    HW140106   0.880   0.164   1.644  1.0717 -0.4063  0.5489
 9549SOL    HW240107   1.032   0.176   1.645 -1.5858 -2.8309 -0.2714
 9550SOL     OW40108   1.637   3.607   0.292 -0.4503 -0.3687  0.1308
 9550SOL    HW140109   1.684   3.649   0.364 -2.3196  0.9851  0.5373
 9550SOL    HW240110   1.548   3.635   0.312 -0.7412 -0.7391 -0.6277
 9551SOL     OW40111   3.944   4.205   2.327  0.1162  0.3578 -0.7687
 9551SOL    HW140112   3.974   4.217   2.417 -2.8602  2.6584 -0.0824
 9551SOL    HW240113   3.880   4.277   2.324  0.4668  0.8009  3.1021
 9552SOL     OW40114   1.129   4.634   5.329  0.6526  0.0549  0.2293
 9552SOL    HW140115   1.111   4.542   5.310 -0.4474  0.4617 -0.7394
 9552SOL    HW240116   1.095   4.635   5.418  0.4785 -0.9727  0.1722
 9553SOL     OW40117   1.148   2.152   5.810 -0.0801 -0.1205 -0.4433
 9553SOL    HW140118   1.150   2.243   5.841  0.9106 -0.4477  0.4917
 9553SOL    HW240119   1.124   2.097   5.885 -2.2483 -1.8454 -2.4055
 9554SOL     OW40120   0.109   3.817   8.122  0.5866  0.5067 -0.9320
 9554SOL    HW140121   0.199   3.847   8.127  0.2275  1.3032  1.0344
 9554SOL    HW240122   0.118   3.726   8.151 -1.0408  1.1250  1.5253
 9555SOL     OW40123   0.850   0.248   3.160 -0.3832  0.4014 -0.7018
 9555SOL    HW140124   0.848   0.312   3.089 -1.4569 -0.2862 -1.2837
 9555SOL    HW240125   0.757   0.252   3.184 -0.2235  1.8775 -0.3047
 9556SOL     OW40126   1.614   1.776  13.401  0.1148 -0.0396  0.0208
 9556SOL    HW140127   1.587   1.744  13.315  0.3266 -4.6710  1.6710
 9556SOL    HW240128   1.562   1.716  13.454 -0.3932  1.1825  0.8973
 9557SOL     OW40129   4.392   4.008  11.707  0.3397 -0.0173 -0.0781
 9557SOL    HW140130   4.421   4.013  11.798  2.3111  0.2751 -0.7295
 9557SOL    HW240131   4.356   3.919  11.700  1.3320 -0.2580 -2.1612
 9558SOL     OW40132   1.283   0.908   7.298 -0.1392  0.2847 -0.5208
 9558SOL    HW140133   1.199   0.949   7.319  0.3282  1.3664 -0.7500
 9558SOL    HW240134   1.330   0.985   7.266 -0.1685  1.0561  1.2923
 9559SOL     OW40135   0.612   2.867   7.006  0.2552  0.5833 -0.6474
 9559SOL    HW140136   0.565   2.882   7.088  1.2877 -1.5637  0.3280
 9559SOL    HW240137   0.543   2.852   6.940 -0.1323  2.4333 -0.6728
 9560SOL     OW40138   4.679   1.963  11.405  0.1116  0.2428  0.4855
 9560SOL    HW140139   4.666   2.027  11.336  0.1297  0.6966  0.9068
 9560SOL    HW240140   4.604   1.905  11.394  1.3739 -1.4383  0.6723
 9561SOL     OW40141   2.798   1.050   3.621  0.1437  0.0712 -0.0927
 9561SOL    HW140142   2.893   1.067   3.621  0.1215  0.1695  0.4161
 9561SOL    HW240143   2.773   1.138   3.648  0.9461  1.1657 -2.8898
 9562SOL     OW40144   3.675   3.632   0.692  0.0129 -0.2876 -0.1705
 9562SOL    HW140145   3.655   3.700   0.756  1.5026  0.1220 -0.1244
 9562SOL    HW240146   3.610   3.653   0.625 -0.2152  0.1159  0.1784
 9563SOL     OW40147   3.168   1.500   7.631 -0.1543 -0.0005  0.0534
 9563SOL    HW140148   3.131   1.515   7.718 -2.8847 -2.2612 -0.7099
 9563SOL    HW240149   3.177   1.592   7.604  0.2211 -0.3815 -1.1333
 9564SOL     OW40150   1.199   1.237   5.542  0.3072 -0.0392  0.4796
 9564SOL    HW140151   1.192   1.213   5.450 -2.0631  3.0895 -0.1622
 9564SOL    HW240152   1.129   1.303   5.543  1.8646  1.6269 -0.5207
 9565SOL     OW40153   0.287   3.379   7.176 -0.3179  0.0998 -0.7786
 9565SOL    HW140154   0.191   3.376   7.173 -0.4160  0.4259  1.6808
 9565SOL    HW240155   0.303   3.473   7.185 -0.7419  0.0193  0.7312
   4.72241   4.72241  17.69172
